<LesHouchesEvents version="3.0">
<header>
<!--
#*********************************************************************
#                                                                    *
#                        MadGraph5_aMC@NLO                           *
#                                                                    *
#                           Going Beyond                             *
#                                                                    *
#                   http://madgraph.hep.uiuc.edu                     *
#                   http://madgraph.phys.ucl.ac.be                   *
#                   http://amcatnlo.cern.ch                          *
#                                                                    *
#                     The MadGraph5_aMC@NLO team                     *
#                                                                    *
#....................................................................*
#                                                                    *
# This file contains all the information necessary to reproduce      *
# the events generated:                                              *
#                                                                    *
# 1. software version                                                *
# 2. proc_card          : code generation info including model       *
# 3. param_card         : model primary parameters in the LH format  *
# 4. run_card           : running parameters (collider and cuts)     *
# 5. pythia_card        : present only if pythia has been run        *
# 6. pgs_card           : present only if pgs has been run           *
# 7. delphes_cards      : present only if delphes has been run       *
#                                                                    *
#                                                                    *
#*********************************************************************
-->
<MGVersion>
#5.2.2.3
</MGVersion>
<MG5ProcCard>
#************************************************************
#*                     MadGraph5_aMC@NLO                    *
#*                                                          *
#*                *                       *                 *
#*                  *        * *        *                   *
#*                    * * * * 5 * * * *                     *
#*                  *        * *        *                   *
#*                *                       *                 *
#*                                                          *
#*                                                          *
#*         VERSION 2.2.3                 2015-02-10         *
#*                                                          *
#*    The MadGraph5_aMC@NLO Development Team - Find us at   *
#*    https://server06.fynu.ucl.ac.be/projects/madgraph     *
#*                                                          *
#************************************************************
#*                                                          *
#*               Command File for MadGraph5_aMC@NLO         *
#*                                                          *
#*     run as ./bin/mg5_aMC  filename                       *
#*                                                          *
#************************************************************
set group_subprocesses Auto
set ignore_six_quark_processes False
set loop_optimized_output True
set gauge unitary
set complex_mass_scheme False
import model sm
define p = g u c d s u~ c~ d~ s~
define j = g u c d s u~ c~ d~ s~
define l+ = e+ mu+
define l- = e- mu-
define vl = ve vm vt
define vl~ = ve~ vm~ vt~
import model Zprime_UFO
generate p p > zph, zph > j j
add process p p > zph, zph > b b~
output Dijet_signal
</MG5ProcCard>
<MGProcCard>
#*********************************************************************
#                        MadGraph/MadEvent                           *
#                   http://madgraph.hep.uiuc.edu                     *
#                                                                    *
#                          proc_card.dat                             *
#*********************************************************************
#                                                                    *
#            This Files is generated by MADGRAPH 5                   *
#                                                                    *
# WARNING: This Files is generated for MADEVENT (compatibility issue)*
#          This files is NOT a valid MG4 proc_card.dat               *
#          Running this in MG4 will NEVER reproduce the result of MG5*
#                                                                    *
#*********************************************************************
#*********************************************************************
# Process(es) requested : mg2 input                                  *
#*********************************************************************
# Begin PROCESS # This is TAG. Do not modify this line
p p > zph , zph > j j           #Process
# Be carefull the coupling are here in MG5 convention
          
end_coup           # End the couplings input

done               # this tells MG there are no more procs
# End PROCESS  # This is TAG. Do not modify this line
#*********************************************************************
# Model information                                                  *
#*********************************************************************
# Begin MODEL  # This is TAG. Do not modify this line
Zprime_UFO
# End   MODEL  # This is TAG. Do not modify this line
#*********************************************************************
# Start multiparticle definitions                                    *
#*********************************************************************
# Begin MULTIPARTICLES # This is TAG. Do not modify this line

# End  MULTIPARTICLES # This is TAG. Do not modify this line
</MGProcCard>
<MGRunCard>
#*********************************************************************
#                       MadGraph5_aMC@NLO                            *
#                                                                    *
#                     run_card.dat MadEvent                          *
#                                                                    *
#  This file is used to set the parameters of the run.               *
#                                                                    *
#  Some notation/conventions:                                        *
#                                                                    *
#   Lines starting with a '# ' are info or comments                  *
#                                                                    *
#   mind the format:   value    = variable     ! comment             *
#*********************************************************************
#
#*******************                                                 
# Running parameters
#*******************                                                 
#                                                                    
#*********************************************************************
# Tag name for the run (one word)                                    *
#*********************************************************************
  tag_1     = run_tag ! name of the run 
#*********************************************************************
# Run to generate the grid pack                                      *
#*********************************************************************
  .false.     = gridpack  !True = setting up the grid pack
#*********************************************************************
# Number of events and rnd seed                                      *
# Warning: Do not generate more than 1M events in a single run       *
# If you want to run Pythia, avoid more than 50k events in a run.    *
#*********************************************************************
  2000 = nevents ! Number of unweighted events requested 
 948 = iseed   ! rnd seed (0=assigned automatically=default))
#*********************************************************************
# Collider type and energy                                           *
# lpp: 0=No PDF, 1=proton, -1=antiproton, 2=photon from proton,      *
#                                         3=photon from electron     *
#*********************************************************************
        1     = lpp1    ! beam 1 type 
        1     = lpp2    ! beam 2 type
     4000     = ebeam1  ! beam 1 total energy in GeV
     4000     = ebeam2  ! beam 2 total energy in GeV
#*********************************************************************
# Beam polarization from -100 (left-handed) to 100 (right-handed)    *
#*********************************************************************
        0     = polbeam1 ! beam polarization for beam 1
        0     = polbeam2 ! beam polarization for beam 2
#*********************************************************************
# PDF CHOICE: this automatically fixes also alpha_s and its evol.    *
#*********************************************************************
 'nn23lo1'    = pdlabel     ! PDF set                                     
 230000    = lhaid     ! if pdlabel=lhapdf, this is the lhapdf number
#*********************************************************************
# Renormalization and factorization scales                           *
#*********************************************************************
 F        = fixed_ren_scale  ! if .true. use fixed ren scale
 F        = fixed_fac_scale  ! if .true. use fixed fac scale
 91.1880  = scale            ! fixed ren scale
 91.1880  = dsqrt_q2fact1    ! fixed fact scale for pdf1
 91.1880  = dsqrt_q2fact2    ! fixed fact scale for pdf2
 1        = scalefact        ! scale factor for event-by-event scales
#*********************************************************************
# Matching - Warning! ickkw > 1 is still beta
#*********************************************************************
 0        = ickkw            ! 0 no matching, 1 MLM, 2 CKKW matching
 1        = highestmult      ! for ickkw=2, highest mult group
 1        = ktscheme         ! for ickkw=1, 1 Durham kT, 2 Pythia pTE
 1        = alpsfact         ! scale factor for QCD emission vx
 F        = chcluster        ! cluster only according to channel diag
 T        = pdfwgt           ! for ickkw=1, perform pdf reweighting
 5        = asrwgtflavor     ! highest quark flavor for a_s reweight
 T        = clusinfo         ! include clustering tag in output
 3.0      = lhe_version       ! Change the way clustering information pass to shower.        
#*********************************************************************
#**********************************************************
#
#**********************************************************
# Automatic ptj and mjj cuts if xqcut > 0
# (turn off for VBF and single top processes)
#**********************************************************
   T  = auto_ptj_mjj  ! Automatic setting of ptj and mjj
#**********************************************************
#                                                                    
#**********************************
# BW cutoff (M+/-bwcutoff*Gamma)
#**********************************
  15  = bwcutoff      ! (M+/-bwcutoff*Gamma)
#**********************************************************
# Apply pt/E/eta/dr/mij cuts on decay products or not
# (note that etmiss/ptll/ptheavy/ht/sorted cuts always apply)
#**********************************************************
   T  = cut_decays    ! Cut decay products 
#*************************************************************
# Number of helicities to sum per event (0 = all helicities)
# 0 gives more stable result, but longer run time (needed for
# long decay chains e.g.).
# Use >=2 if most helicities contribute, e.g. pure QCD.
#*************************************************************
   0  = nhel          ! Number of helicities used per event
#*******************                                                 
# Standard Cuts
#*******************                                                 
#                                                                    
#*********************************************************************
# Minimum and maximum pt's (for max, -1 means no cut)                *
#*********************************************************************
 20  = ptj       ! minimum pt for the jets 
  0  = ptb       ! minimum pt for the b 
 10  = pta       ! minimum pt for the photons 
 10  = ptl       ! minimum pt for the charged leptons 
  0  = misset    ! minimum missing Et (sum of neutrino's momenta)
  0  = ptheavy   ! minimum pt for one heavy final state
 1.0 = ptonium   ! minimum pt for the quarkonium states
 -1  = ptjmax    ! maximum pt for the jets
 -1  = ptbmax    ! maximum pt for the b
 -1  = ptamax    ! maximum pt for the photons
 -1  = ptlmax    ! maximum pt for the charged leptons
 -1  = missetmax ! maximum missing Et (sum of neutrino's momenta)
#*********************************************************************
# Minimum and maximum E's (in the center of mass frame)              *
#*********************************************************************
  0  = ej     ! minimum E for the jets 
  0  = eb     ! minimum E for the b 
  0  = ea     ! minimum E for the photons 
  0  = el     ! minimum E for the charged leptons 
 -1   = ejmax ! maximum E for the jets
 -1   = ebmax ! maximum E for the b
 -1   = eamax ! maximum E for the photons
 -1   = elmax ! maximum E for the charged leptons
#*********************************************************************
# Maximum and minimum absolute rapidity (for max, -1 means no cut)   *
#*********************************************************************
   5  = etaj    ! max rap for the jets 
  -1  = etab    ! max rap for the b
 2.5  = etaa    ! max rap for the photons 
 2.5  = etal    ! max rap for the charged leptons 
 0.6  = etaonium ! max rap for the quarkonium states
   0  = etajmin ! min rap for the jets
   0  = etabmin ! min rap for the b
   0  = etaamin ! min rap for the photons
   0  = etalmin ! main rap for the charged leptons
#*********************************************************************
# Minimum and maximum DeltaR distance                                *
#*********************************************************************
 0.4 = drjj    ! min distance between jets 
 0   = drbb    ! min distance between b's 
 0.4 = drll    ! min distance between leptons 
 0.4 = draa    ! min distance between gammas 
 0   = drbj    ! min distance between b and jet 
 0.4 = draj    ! min distance between gamma and jet 
 0.4 = drjl    ! min distance between jet and lepton 
 0   = drab    ! min distance between gamma and b 
 0   = drbl    ! min distance between b and lepton 
 0.4 = dral    ! min distance between gamma and lepton 
 -1  = drjjmax ! max distance between jets
 -1  = drbbmax ! max distance between b's
 -1  = drllmax ! max distance between leptons
 -1  = draamax ! max distance between gammas
 -1  = drbjmax ! max distance between b and jet
 -1  = drajmax ! max distance between gamma and jet
 -1  = drjlmax ! max distance between jet and lepton
 -1  = drabmax ! max distance between gamma and b
 -1  = drblmax ! max distance between b and lepton
 -1  = dralmax ! maxdistance between gamma and lepton
#*********************************************************************
# Minimum and maximum invariant mass for pairs                       *
# WARNING: for four lepton final state mmll cut require to have      *
#          different lepton masses for each flavor!                  *           
#*********************************************************************
 0   = mmjj    ! min invariant mass of a jet pair 
 0   = mmbb    ! min invariant mass of a b pair 
 0   = mmaa    ! min invariant mass of gamma gamma pair
 0   = mmll    ! min invariant mass of l+l- (same flavour) lepton pair
 -1  = mmjjmax ! max invariant mass of a jet pair
 -1  = mmbbmax ! max invariant mass of a b pair
 -1  = mmaamax ! max invariant mass of gamma gamma pair
 -1  = mmllmax ! max invariant mass of l+l- (same flavour) lepton pair
#*********************************************************************
# Minimum and maximum invariant mass for all letpons                 *
#*********************************************************************
 0   = mmnl    ! min invariant mass for all letpons (l+- and vl) 
 -1  = mmnlmax ! max invariant mass for all letpons (l+- and vl) 
#*********************************************************************
# Minimum and maximum pt for 4-momenta sum of leptons                *
#*********************************************************************
 0   = ptllmin  ! Minimum pt for 4-momenta sum of leptons(l and vl)
 -1  = ptllmax  ! Maximum pt for 4-momenta sum of leptons(l and vl)
#*********************************************************************
# Inclusive cuts                                                     *
#*********************************************************************
 0  = xptj ! minimum pt for at least one jet  
 0  = xptb ! minimum pt for at least one b 
 0  = xpta ! minimum pt for at least one photon 
 0  = xptl ! minimum pt for at least one charged lepton 
#*********************************************************************
# Control the pt's of the jets sorted by pt                          *
#*********************************************************************
 0   = ptj1min ! minimum pt for the leading jet in pt
 0   = ptj2min ! minimum pt for the second jet in pt
 0   = ptj3min ! minimum pt for the third jet in pt
 0   = ptj4min ! minimum pt for the fourth jet in pt
 -1  = ptj1max ! maximum pt for the leading jet in pt 
 -1  = ptj2max ! maximum pt for the second jet in pt
 -1  = ptj3max ! maximum pt for the third jet in pt
 -1  = ptj4max ! maximum pt for the fourth jet in pt
 0   = cutuse  ! reject event if fails any (0) / all (1) jet pt cuts
#*********************************************************************
# Control the pt's of leptons sorted by pt                           *
#*********************************************************************
 0   = ptl1min ! minimum pt for the leading lepton in pt
 0   = ptl2min ! minimum pt for the second lepton in pt
 0   = ptl3min ! minimum pt for the third lepton in pt
 0   = ptl4min ! minimum pt for the fourth lepton in pt
 -1  = ptl1max ! maximum pt for the leading lepton in pt 
 -1  = ptl2max ! maximum pt for the second lepton in pt
 -1  = ptl3max ! maximum pt for the third lepton in pt
 -1  = ptl4max ! maximum pt for the fourth lepton in pt
#*********************************************************************
# Control the Ht(k)=Sum of k leading jets                            *
#*********************************************************************
 0   = htjmin ! minimum jet HT=Sum(jet pt)
 -1  = htjmax ! maximum jet HT=Sum(jet pt)
 0   = ihtmin  !inclusive Ht for all partons (including b)
 -1  = ihtmax  !inclusive Ht for all partons (including b)
 0   = ht2min ! minimum Ht for the two leading jets
 0   = ht3min ! minimum Ht for the three leading jets
 0   = ht4min ! minimum Ht for the four leading jets
 -1  = ht2max ! maximum Ht for the two leading jets
 -1  = ht3max ! maximum Ht for the three leading jets
 -1  = ht4max ! maximum Ht for the four leading jets
#***********************************************************************
# Photon-isolation cuts, according to hep-ph/9801442                   *
# When ptgmin=0, all the other parameters are ignored                  *
# When ptgmin>0, pta and draj are not going to be used                 *
#***********************************************************************
   0 = ptgmin ! Min photon transverse momentum
 0.4 = R0gamma ! Radius of isolation code
 1.0 = xn ! n parameter of eq.(3.4) in hep-ph/9801442
 1.0 = epsgamma ! epsilon_gamma parameter of eq.(3.4) in hep-ph/9801442
 .true. = isoEM ! isolate photons from EM energy (photons and leptons)
#*********************************************************************
# WBF cuts                                                           *
#*********************************************************************
 0   = xetamin ! minimum rapidity for two jets in the WBF case  
 0   = deltaeta ! minimum rapidity for two jets in the WBF case 
#*********************************************************************
# KT DURHAM CUT                                                      *
#*********************************************************************
 -1    =  ktdurham        
 0.4  =  dparameter 
#*********************************************************************
# maximal pdg code for quark to be considered as a light jet         *
# (otherwise b cuts are applied)                                     *
#*********************************************************************
 4 = maxjetflavor    ! Maximum jet pdg code
#*********************************************************************
# Jet measure cuts                                                   *
#*********************************************************************
 0   = xqcut   ! minimum kt jet measure between partons
#*********************************************************************
#
#*********************************************************************
# Store info for systematics studies                                 *
# WARNING: If use_syst is T, matched Pythia output is                *
#          meaningful ONLY if plotted taking matchscale              *
#          reweighting into account!                                 *
#*********************************************************************
   F  = use_syst      ! Enable systematics studies
#
#**************************************
# Parameter of the systematics study
#  will be used by SysCalc (if installed)
#**************************************                                  
#
0.5 1 2 = sys_scalefact  # factorization/renormalization scale factor
0.5 1 2 = sys_alpsfact  # \alpha_s emission scale factors
30 50 = sys_matchscale # variation of merging scale
# PDF sets and number of members (0 or none for all members).
CT10nlo.LHgrid = sys_pdf # matching scales
# MSTW2008nlo68cl.LHgrid 1  = sys_pdf
</MGRunCard>
<slha>
######################################################################
## PARAM_CARD AUTOMATICALY GENERATED BY MG5 FOLLOWING UFO MODEL   ####
######################################################################
##                                                                  ##
##  Width set on Auto will be computed following the information    ##
##        present in the decay.py files of the model.               ##
##        See  arXiv:1402.1178 for more details.                    ##
##                                                                  ##
######################################################################

###################################
## INFORMATION FOR CKMBLOCK
###################################
Block ckmblock 
    1 2.277360e-01 # cabi 

###################################
## INFORMATION FOR FRBLOCK
###################################
Block frblock 
    1 4.000000e-01 # gz 

###################################
## INFORMATION FOR MASS
###################################
Block mass 
    1 5.040000e-03 # MD 
    2 2.550000e-03 # MU 
    3 1.010000e-01 # MS 
    4 1.270000e+00 # MC 
    5 4.700000e+00 # MB 
    6 1.720000e+02 # MT 
   11 5.110000e-04 # Me 
   13 1.056600e-01 # MM 
   15 1.777000e+00 # MTA 
   23 9.118760e+01 # MZ 
   25 1.200000e+02 # MH 
  10030 1.900000e+03 # MZph 
  10031 3.000000e+02 # MZpl 
## Dependent parameters, given by model restrictions.
## Those values should be edited following the 
## analytical expression. MG5 ignores those values 
## but they are important for interfacing the output of MG5
## to external program such as Pythia.
  12 0.000000 # ve : 0.0 
  14 0.000000 # vm : 0.0 
  16 0.000000 # vt : 0.0 
  21 0.000000 # g : 0.0 
  22 0.000000 # a : 0.0 
  24 79.824360 # w+ : cmath.sqrt(MZ__exp__2/2. + cmath.sqrt(MZ__exp__4/4. - (aEW*cmath.pi*MZ__exp__2)/(Gf*sqrt__2))) 

###################################
## INFORMATION FOR SMINPUTS
###################################
Block sminputs 
    1 1.279000e+02 # aEWM1 
    2 1.166370e-05 # Gf 
    3 1.184000e-01 # aS 

###################################
## INFORMATION FOR YUKAWA
###################################
Block yukawa 
    1 5.040000e-03 # ymdo 
    2 2.550000e-03 # ymup 
    3 1.010000e-01 # yms 
    4 1.270000e+00 # ymc 
    5 4.700000e+00 # ymb 
    6 1.720000e+02 # ymt 
   11 5.110000e-04 # yme 
   13 1.056600e-01 # ymm 
   15 1.777000e+00 # ymtau 

###################################
## INFORMATION FOR DECAY
###################################
DECAY   6 1.508336e+00 # WT 
DECAY  23 2.495200e+00 # WZ 
DECAY  24 2.085000e+00 # WW 
DECAY  25 5.753088e-03 # WH 
## Dependent parameters, given by model restrictions.
## Those values should be edited following the 
## analytical expression. MG5 ignores those values 
## but they are important for interfacing the output of MG5
## to external program such as Pythia.
DECAY  1 0.000000 # d : 0.0 
DECAY  2 0.000000 # u : 0.0 
DECAY  3 0.000000 # s : 0.0 
DECAY  4 0.000000 # c : 0.0 
DECAY  5 0.000000 # b : 0.0 
DECAY  11 0.000000 # e- : 0.0 
DECAY  12 0.000000 # ve : 0.0 
DECAY  13 0.000000 # mu- : 0.0 
DECAY  14 0.000000 # vm : 0.0 
DECAY  15 0.000000 # ta- : 0.0 
DECAY  16 0.000000 # vt : 0.0 
DECAY  21 0.000000 # g : 0.0 
DECAY  22 0.000000 # a : 0.0 
DECAY  10030 0.308725 # zph : (gz__exp__2*MZph*(5 + cmath.sqrt(1 - (4*MT__exp__2)/MZph__exp__2)))/(144.*cmath.pi) 
DECAY  10031 0.132629 # zpl : (5*gz__exp__2*MZpl)/(144.*cmath.pi) 
#===========================================================
# QUANTUM NUMBERS OF NEW STATE(S) (NON SM PDG CODE)
#===========================================================

Block QNUMBERS 10030  # zph 
        1 0  # 3 times electric charge
        2 3  # number of spin states (2S+1)
        3 1  # colour rep (1: singlet, 3: triplet, 8: octet)
        4 0  # Particle/Antiparticle distinction (0=own anti)
Block QNUMBERS 10031  # zpl 
        1 0  # 3 times electric charge
        2 3  # number of spin states (2S+1)
        3 1  # colour rep (1: singlet, 3: triplet, 8: octet)
        4 0  # Particle/Antiparticle distinction (0=own anti)
</slha>
## END BANNER##
<MGGenerationInfo>
#  Number of Events        :         3895
#  Integrated weight (pb)  :  0.80858E-02
#  Max wgt                 :  0.28888E-05
#  Average wgt             :  0.20759E-05
</MGGenerationInfo>
</header>
<init>
     2212     2212  0.40000000000E+04  0.40000000000E+04 0 0  247000  247000 2   1
  0.80916694410E-02  0.16063652065E-04  0.28887760000E-05   0
</init>
<event>
 5   0  0.2855141E-05  0.1896491E+04  0.7818609E-02  0.8656605E-01
       -2   -1    0    0    0  501  0.00000000000E+00  0.00000000000E+00  0.32701113477E+03  0.32701113478E+03  0.25500000920E-02 0. -1.
        2   -1    0    0  501    0  0.00000000000E+00  0.00000000000E+00 -0.27496612029E+04  0.27496612029E+04  0.25500000920E-02 0.  1.
    10030    2    1    2    0    0  0.00000000000E+00  0.00000000000E+00 -0.24226500681E+04  0.30766723377E+04  0.18964913184E+04 0.  0.
        1    1    3    3  502    0 -0.76951357997E+03  0.53979462711E+03 -0.10084377239E+04  0.13785775394E+04  0.50400001928E-02 0. -1.
       -1    1    3    3    0  502  0.76951357997E+03 -0.53979462711E+03 -0.14142123442E+04  0.16980947982E+04  0.50400001928E-02 0.  1.
</event>
<event>
 5   0  0.2855141E-05  0.1903042E+04  0.7818609E-02  0.8653344E-01
       -2   -1    0    0    0  501  0.00000000000E+00  0.00000000000E+00  0.94502963675E+03  0.94502963675E+03  0.25500000920E-02 0.  1.
        2   -1    0    0  501    0  0.00000000000E+00  0.00000000000E+00 -0.95805714703E+03  0.95805714704E+03  0.25500000920E-02 0. -1.
    10030    2    1    2    0    0  0.00000000000E+00  0.00000000000E+00 -0.13027510287E+02  0.19030867838E+04  0.19030421936E+04 0.  0.
        1    1    3    3  502    0  0.92980171604E+03 -0.17921898964E+03  0.86985602542E+02  0.95090334550E+03  0.50400001928E-02 0.  1.
       -1    1    3    3    0  502 -0.92980171604E+03  0.17921898964E+03 -0.10001311283E+03  0.95218343829E+03  0.50400001928E-02 0. -1.
</event>
<event>
 5   0  0.2888776E-05  0.1893614E+04  0.7818609E-02  0.8658041E-01
        2   -1    0    0  501    0  0.00000000000E+00  0.00000000000E+00  0.96220066408E+03  0.96220066408E+03  0.25500000920E-02 0.  1.
       -2   -1    0    0    0  501  0.00000000000E+00  0.00000000000E+00 -0.93165990852E+03  0.93165990853E+03  0.25500000920E-02 0. -1.
    10030    2    1    2    0    0  0.00000000000E+00  0.00000000000E+00  0.30540755552E+02  0.18938605726E+04  0.18936143036E+04 0.  0.
        3    1    3    3  502    0 -0.38182472049E+02  0.19025392516E+02 -0.93069823523E+03  0.93167541665E+03  0.10100000352E+00 0. -1.
       -3    1    3    3    0  502  0.38182472049E+02 -0.19025392516E+02  0.96123899078E+03  0.96218515595E+03  0.10100000352E+00 0.  1.
</event>
<event>
 5   0  0.2855141E-05  0.1895530E+04  0.7818609E-02  0.8657084E-01
        2   -1    0    0  501    0  0.00000000000E+00  0.00000000000E+00  0.29466319347E+04  0.29466319348E+04  0.25500000920E-02 0. -1.
       -2   -1    0    0    0  501  0.00000000000E+00  0.00000000000E+00 -0.30484255001E+03  0.30484255002E+03  0.25500000920E-02 0.  1.
    10030    2    1    2    0    0  0.00000000000E+00  0.00000000000E+00  0.26417893847E+04  0.32514744848E+04  0.18955303141E+04 0.  0.
        1    1    3    3  502    0  0.62118630932E+03 -0.54339174814E+03  0.21201606210E+04  0.22751325416E+04  0.50400001928E-02 0. -1.
       -1    1    3    3    0  502 -0.62118630932E+03  0.54339174814E+03  0.52162876371E+03  0.97634194317E+03  0.50400001928E-02 0.  1.
</event>
<event>
 5   0  0.2888776E-05  0.1900363E+04  0.7818609E-02  0.8654676E-01
       -2   -1    0    0    0  501  0.00000000000E+00  0.00000000000E+00  0.78657736510E+03  0.78657736510E+03  0.25500000920E-02 0.  1.
        2   -1    0    0  501    0  0.00000000000E+00  0.00000000000E+00 -0.11478145487E+04  0.11478145487E+04  0.25500000920E-02 0. -1.
    10030    2    1    2    0    0  0.00000000000E+00  0.00000000000E+00 -0.36123718356E+03  0.19343919138E+04  0.19003630635E+04 0.  0.
        3    1    3    3  502    0 -0.16277920659E+03  0.92639826461E+03 -0.31769291494E+03  0.99279384224E+03  0.10100000352E+00 0.  1.
       -3    1    3    3    0  502  0.16277920659E+03 -0.92639826461E+03 -0.43544268617E+02  0.94159807153E+03  0.10100000352E+00 0. -1.
</event>
<event>
 5   0  0.1413011E-05  0.1899065E+04  0.7818609E-02  0.8655322E-01
       -1   -1    0    0    0  501  0.00000000000E+00  0.00000000000E+00  0.23555386443E+04  0.23555386443E+04  0.50400001928E-02 0.  1.
        1   -1    0    0  501    0  0.00000000000E+00  0.00000000000E+00 -0.38276263925E+03  0.38276263929E+03  0.50400001928E-02 0. -1.
    10030    2    1    2    0    0  0.00000000000E+00  0.00000000000E+00  0.19727760051E+04  0.27383012836E+04  0.18990652316E+04 0.  0.
        1    1    3    3  502    0  0.41676545333E+03 -0.85233384722E+03  0.93156167219E+03  0.13296516759E+04  0.50400001928E-02 0.  1.
       -1    1    3    3    0  502 -0.41676545333E+03  0.85233384722E+03  0.10412143329E+04  0.14086496077E+04  0.50400001928E-02 0. -1.
</event>
<event>
 5   0  0.1429067E-05  0.1898611E+04  0.7818609E-02  0.8655548E-01
        1   -1    0    0  501    0  0.00000000000E+00  0.00000000000E+00  0.80015761130E+03  0.80015761131E+03  0.50400001928E-02 0. -1.
       -1   -1    0    0    0  501  0.00000000000E+00  0.00000000000E+00 -0.11262544092E+04  0.11262544092E+04  0.50400001928E-02 0.  1.
    10030    2    1    2    0    0  0.00000000000E+00  0.00000000000E+00 -0.32609679790E+03  0.19264120205E+04  0.18986111111E+04 0.  0.
        3    1    3    3  502    0  0.38982575701E+03  0.25291414609E+03  0.67687196053E+03  0.82102700764E+03  0.10100000352E+00 0. -1.
       -3    1    3    3    0  502 -0.38982575701E+03 -0.25291414609E+03 -0.10029687584E+04  0.11053850129E+04  0.10100000352E+00 0.  1.
</event>
<event>
 5   0  0.2855141E-05  0.1899562E+04  0.7818609E-02  0.8655074E-01
       -2   -1    0    0    0  501  0.00000000000E+00  0.00000000000E+00  0.13297316305E+04  0.13297316305E+04  0.25500000920E-02 0.  1.
        2   -1    0    0  501    0  0.00000000000E+00  0.00000000000E+00 -0.67839547289E+03  0.67839547289E+03  0.25500000920E-02 0. -1.
    10030    2    1    2    0    0  0.00000000000E+00  0.00000000000E+00  0.65133615763E+03  0.20081271034E+04  0.18995619688E+04 0.  0.
        1    1    3    3  502    0 -0.19554279314E+03  0.90420602392E+03  0.55303801422E+03  0.10778110052E+04  0.50400001928E-02 0.  1.
       -1    1    3    3    0  502  0.19554279314E+03 -0.90420602392E+03  0.98298143412E+02  0.93031609825E+03  0.50400001928E-02 0. -1.
</event>
<event>
 5   0  0.1344119E-05  0.1903592E+04  0.7818609E-02  0.8653070E-01
        1   -1    0    0  501    0  0.00000000000E+00  0.00000000000E+00  0.27352325317E+04  0.27352325317E+04  0.50400001928E-02 0. -1.
       -1   -1    0    0    0  501  0.00000000000E+00  0.00000000000E+00 -0.33120255355E+03  0.33120255358E+03  0.50400001928E-02 0.  1.
    10030    2    1    2    0    0  0.00000000000E+00  0.00000000000E+00  0.24040299782E+04  0.30664350853E+04  0.19035923924E+04 0.  0.
        2    1    3    3  502    0  0.30089585469E+03 -0.86169270768E+03  0.76719007903E+03  0.11923226305E+04  0.25500000920E-02 0.  1.
       -2    1    3    3    0  502 -0.30089585469E+03  0.86169270768E+03  0.16368398991E+04  0.18741124548E+04  0.25500000920E-02 0. -1.
</event>
<event>
 5   0  0.2855141E-05  0.1902530E+04  0.7818609E-02  0.8653598E-01
        2   -1    0    0  501    0  0.00000000000E+00  0.00000000000E+00  0.55871860526E+03  0.55871860527E+03  0.25500000920E-02 0. -1.
       -2   -1    0    0    0  501  0.00000000000E+00  0.00000000000E+00 -0.16196071383E+04  0.16196071383E+04  0.25500000920E-02 0.  1.
    10030    2    1    2    0    0  0.00000000000E+00  0.00000000000E+00 -0.10608885330E+04  0.21783257435E+04  0.19025295176E+04 0.  0.
        1    1    3    3  502    0 -0.69752316201E+02 -0.51164201674E+03 -0.14451698243E+04  0.15346526512E+04  0.50400001928E-02 0.  1.
       -1    1    3    3    0  502  0.69752316201E+02  0.51164201674E+03  0.38428129127E+03  0.64367309230E+03  0.50400001928E-02 0. -1.
</event>
<event>
 5   0  0.1344119E-05  0.1939435E+04  0.7818609E-02  0.8635472E-01
        1   -1    0    0  501    0  0.00000000000E+00  0.00000000000E+00  0.18744502956E+04  0.18744502956E+04  0.50400001928E-02 0. -1.
       -1   -1    0    0    0  501  0.00000000000E+00  0.00000000000E+00 -0.50166793464E+03  0.50166793466E+03  0.50400001928E-02 0.  1.
    10030    2    1    2    0    0  0.00000000000E+00  0.00000000000E+00  0.13727823610E+04  0.23761182303E+04  0.19394345655E+04 0.  0.
        2    1    3    3  502    0 -0.10238165808E+03  0.60509200327E+03  0.16062681565E+04  0.17195103161E+04  0.25500000920E-02 0. -1.
       -2    1    3    3    0  502  0.10238165808E+03 -0.60509200327E+03 -0.23348579553E+03  0.65660791425E+03  0.25500000920E-02 0.  1.
</event>
<event>
 5   0  0.2789718E-05  0.1899002E+04  0.7818609E-02  0.8655353E-01
        2   -1    0    0  501    0  0.00000000000E+00  0.00000000000E+00  0.37898509174E+03  0.37898509175E+03  0.25500000920E-02 0. -1.
       -2   -1    0    0    0  501  0.00000000000E+00  0.00000000000E+00 -0.23788588341E+04  0.23788588341E+04  0.25500000920E-02 0.  1.
    10030    2    1    2    0    0  0.00000000000E+00  0.00000000000E+00 -0.19998737423E+04  0.27578439258E+04  0.18990018783E+04 0.  0.
        5    1    3    3  502    0 -0.26789888790E+03  0.85076369876E+03 -0.14726719649E+04  0.17217297963E+04  0.46999998093E+01 0.  1.
       -5    1    3    3    0  502  0.26789888790E+03 -0.85076369876E+03 -0.52720177741E+03  0.10361141295E+04  0.46999998093E+01 0. -1.
</event>
<event>
 5   0  0.1327254E-05  0.1901375E+04  0.7818609E-02  0.8654172E-01
        1   -1    0    0  501    0  0.00000000000E+00  0.00000000000E+00  0.93747106052E+03  0.93747106053E+03  0.50400001928E-02 0.  1.
       -1   -1    0    0    0  501  0.00000000000E+00  0.00000000000E+00 -0.96409025625E+03  0.96409025627E+03  0.50400001928E-02 0. -1.
    10030    2    1    2    0    0  0.00000000000E+00  0.00000000000E+00 -0.26619195735E+02  0.19015613168E+04  0.19013749919E+04 0.  0.
        5    1    3    3  502    0 -0.28864217953E+02 -0.64369188069E+03  0.68576694462E+03  0.94099456570E+03  0.46999998093E+01 0.  1.
       -5    1    3    3    0  502  0.28864217953E+02  0.64369188069E+03 -0.71238614036E+03  0.96056675110E+03  0.46999998093E+01 0. -1.
</event>
<event>
 5   0  0.1413011E-05  0.1903989E+04  0.7818609E-02  0.8652873E-01
       -1   -1    0    0    0  501  0.00000000000E+00  0.00000000000E+00  0.16119699416E+04  0.16119699416E+04  0.50400001928E-02 0. -1.
        1   -1    0    0  501    0  0.00000000000E+00  0.00000000000E+00 -0.56222733910E+03  0.56222733912E+03  0.50400001928E-02 0.  1.
    10030    2    1    2    0    0  0.00000000000E+00  0.00000000000E+00  0.10497426025E+04  0.21741972807E+04  0.19039890451E+04 0.  0.
        1    1    3    3  502    0  0.74838941418E+03  0.54276240941E+03  0.26543787593E+03  0.96183939113E+03  0.50400001928E-02 0.  1.
       -1    1    3    3    0  502 -0.74838941418E+03 -0.54276240941E+03  0.78430472655E+03  0.12123578896E+04  0.50400001928E-02 0. -1.
</event>
<event>
 5   0  0.1429067E-05  0.1896849E+04  0.7818609E-02  0.8656427E-01
       -1   -1    0    0    0  501  0.00000000000E+00  0.00000000000E+00  0.10011477238E+04  0.10011477239E+04  0.50400001928E-02 0.  1.
        1   -1    0    0  501    0  0.00000000000E+00  0.00000000000E+00 -0.89847751524E+03  0.89847751525E+03  0.50400001928E-02 0. -1.
    10030    2    1    2    0    0  0.00000000000E+00  0.00000000000E+00  0.10267020861E+03  0.18996252391E+04  0.18968486701E+04 0.  0.
        3    1    3    3  502    0 -0.14656277113E+03 -0.79300601797E+03  0.55123460548E+03  0.97683099403E+03  0.10100000352E+00 0.  1.
       -3    1    3    3    0  502  0.14656277113E+03  0.79300601797E+03 -0.44856439687E+03  0.92279424508E+03  0.10100000352E+00 0. -1.
</event>
<event>
 5   0  0.1429067E-05  0.1905895E+04  0.7818609E-02  0.8651928E-01
        1   -1    0    0  501    0  0.00000000000E+00  0.00000000000E+00  0.10047353635E+04  0.10047353635E+04  0.50400001928E-02 0.  1.
       -1   -1    0    0    0  501  0.00000000000E+00  0.00000000000E+00 -0.90382878448E+03  0.90382878449E+03  0.50400001928E-02 0. -1.
    10030    2    1    2    0    0  0.00000000000E+00  0.00000000000E+00  0.10090657904E+03  0.19085641480E+04  0.19058947950E+04 0.  0.
        3    1    3    3  502    0  0.17733802233E+03  0.77995759950E+03  0.56918081939E+03  0.98170741392E+03  0.10100000352E+00 0.  1.
       -3    1    3    3    0  502 -0.17733802233E+03 -0.77995759950E+03 -0.46827424035E+03  0.92685673410E+03  0.10100000352E+00 0. -1.
</event>
<event>
 5   0  0.2855141E-05  0.1897122E+04  0.7818609E-02  0.8656290E-01
        2   -1    0    0  501    0  0.00000000000E+00  0.00000000000E+00  0.83622614311E+03  0.83622614312E+03  0.25500000920E-02 0.  1.
       -2   -1    0    0    0  501  0.00000000000E+00  0.00000000000E+00 -0.10759862905E+04  0.10759862905E+04  0.25500000920E-02 0. -1.
    10030    2    1    2    0    0  0.00000000000E+00  0.00000000000E+00 -0.23976014743E+03  0.19122124337E+04  0.18971218894E+04 0.  0.
        1    1    3    3  502    0 -0.11479492320E+03 -0.29391575202E+03 -0.10215366031E+04  0.10691591908E+04  0.50400001928E-02 0. -1.
       -1    1    3    3    0  502  0.11479492320E+03  0.29391575202E+03  0.78177645568E+03  0.84305324290E+03  0.50400001928E-02 0.  1.
</event>
<event>
 5   0  0.1471485E-05  0.1905313E+04  0.7818609E-02  0.8652216E-01
       -1   -1    0    0    0  501  0.00000000000E+00  0.00000000000E+00  0.50196058690E+03  0.50196058693E+03  0.50400001928E-02 0. -1.
        1   -1    0    0  501    0  0.00000000000E+00  0.00000000000E+00 -0.18080188360E+04  0.18080188360E+04  0.50400001928E-02 0.  1.
    10030    2    1    2    0    0  0.00000000000E+00  0.00000000000E+00 -0.13060582491E+04  0.23099794229E+04  0.19053127786E+04 0.  0.
        4    1    3    3  502    0  0.91232180399E+03 -0.23859195100E+03 -0.81701735043E+03  0.12477083621E+04  0.12699999809E+01 0. -1.
       -4    1    3    3    0  502 -0.91232180399E+03  0.23859195100E+03 -0.48904089863E+03  0.10622710608E+04  0.12699999809E+01 0.  1.
</event>
<event>
 5   0  0.1413011E-05  0.1896664E+04  0.7818609E-02  0.8656519E-01
        1   -1    0    0  501    0  0.00000000000E+00  0.00000000000E+00  0.11745396286E+04  0.11745396286E+04  0.50400001928E-02 0. -1.
       -1   -1    0    0    0  501  0.00000000000E+00  0.00000000000E+00 -0.76569053555E+03  0.76569053556E+03  0.50400001928E-02 0.  1.
    10030    2    1    2    0    0  0.00000000000E+00  0.00000000000E+00  0.40884909304E+03  0.19402301642E+04  0.18966643111E+04 0.  0.
        1    1    3    3  502    0 -0.88548173190E+03 -0.32380162086E+03  0.30878997138E+03  0.99210716843E+03  0.50400001928E-02 0.  1.
       -1    1    3    3    0  502  0.88548173190E+03  0.32380162086E+03  0.10005912166E+03  0.94812299574E+03  0.50400001928E-02 0. -1.
</event>
<event>
 5   0  0.2813537E-05  0.1896120E+04  0.7818609E-02  0.8656790E-01
       -2   -1    0    0    0  501  0.00000000000E+00  0.00000000000E+00  0.77510304824E+03  0.77510304825E+03  0.25500000920E-02 0. -1.
        2   -1    0    0  501    0  0.00000000000E+00  0.00000000000E+00 -0.11596109118E+04  0.11596109118E+04  0.25500000920E-02 0.  1.
    10030    2    1    2    0    0  0.00000000000E+00  0.00000000000E+00 -0.38450786352E+03  0.19347139600E+04  0.18961201992E+04 0.  0.
        2    1    3    3  502    0  0.42654548922E+03 -0.51773385716E+03 -0.87583675038E+03  0.11032132226E+04  0.25500000920E-02 0.  1.
       -2    1    3    3    0  502 -0.42654548922E+03  0.51773385716E+03  0.49132888686E+03  0.83150073740E+03  0.25500000920E-02 0. -1.
</event>
<event>
 5   0  0.1429067E-05  0.1900436E+04  0.7818609E-02  0.8654640E-01
        1   -1    0    0  501    0  0.00000000000E+00  0.00000000000E+00  0.13584694745E+04  0.13584694745E+04  0.50400001928E-02 0.  1.
       -1   -1    0    0    0  501  0.00000000000E+00  0.00000000000E+00 -0.66465531429E+03  0.66465531431E+03  0.50400001928E-02 0. -1.
    10030    2    1    2    0    0  0.00000000000E+00  0.00000000000E+00  0.69381416018E+03  0.20231247888E+04  0.19004356927E+04 0.  0.
        3    1    3    3  502    0  0.69104029533E+02 -0.78844601664E+03 -0.21286386378E+03  0.81959351068E+03  0.10100000352E+00 0. -1.
       -3    1    3    3    0  502 -0.69104029533E+02  0.78844601664E+03  0.90667802396E+03  0.12035312781E+04  0.10100000352E+00 0.  1.
</event>
<event>
 5   0  0.2888776E-05  0.1899636E+04  0.7818609E-02  0.8655038E-01
        2   -1    0    0  501    0  0.00000000000E+00  0.00000000000E+00  0.10847844666E+04  0.10847844666E+04  0.25500000920E-02 0. -1.
       -2   -1    0    0    0  501  0.00000000000E+00  0.00000000000E+00 -0.83164390449E+03  0.83164390450E+03  0.25500000920E-02 0.  1.
    10030    2    1    2    0    0  0.00000000000E+00  0.00000000000E+00  0.25314056213E+03  0.19164283711E+04  0.18996361645E+04 0.  0.
        3    1    3    3  502    0 -0.90937361231E+03 -0.17834255334E+03 -0.83568741784E+02  0.93045697263E+03  0.10100000352E+00 0. -1.
       -3    1    3    3    0  502  0.90937361231E+03  0.17834255334E+03  0.33670930391E+03  0.98597139850E+03  0.10100000352E+00 0.  1.
</event>
<event>
 5   0  0.1413011E-05  0.1898582E+04  0.7818609E-02  0.8655562E-01
       -1   -1    0    0    0  501  0.00000000000E+00  0.00000000000E+00  0.21913577417E+04  0.21913577417E+04  0.50400001928E-02 0.  1.
        1   -1    0    0  501    0  0.00000000000E+00  0.00000000000E+00 -0.41123066564E+03  0.41123066567E+03  0.50400001928E-02 0. -1.
    10030    2    1    2    0    0  0.00000000000E+00  0.00000000000E+00  0.17801270761E+04  0.26025884074E+04  0.18985821055E+04 0.  0.
        1    1    3    3  502    0 -0.19314856923E+03 -0.87044911443E+03  0.13367139672E+04  0.16067956500E+04  0.50400001928E-02 0.  1.
       -1    1    3    3    0  502  0.19314856923E+03  0.87044911443E+03  0.44341310889E+03  0.99579275744E+03  0.50400001928E-02 0. -1.
</event>
<event>
 5   0  0.2813537E-05  0.1904642E+04  0.7818609E-02  0.8652549E-01
        2   -1    0    0  501    0  0.00000000000E+00  0.00000000000E+00  0.80015407986E+03  0.80015407987E+03  0.25500000920E-02 0.  1.
       -2   -1    0    0    0  501  0.00000000000E+00  0.00000000000E+00 -0.11334259658E+04  0.11334259658E+04  0.25500000920E-02 0. -1.
    10030    2    1    2    0    0  0.00000000000E+00  0.00000000000E+00 -0.33327188598E+03  0.19335800457E+04  0.19046421300E+04 0.  0.
        2    1    3    3  502    0  0.69522496944E+03  0.64388610348E+03 -0.70388660454E+02  0.95020083978E+03  0.25500000920E-02 0.  1.
       -2    1    3    3    0  502 -0.69522496944E+03 -0.64388610348E+03 -0.26288322552E+03  0.98337920593E+03  0.25500000920E-02 0. -1.
</event>
<event>
 5   0  0.1344119E-05  0.1900354E+04  0.7818609E-02  0.8654680E-01
       -1   -1    0    0    0  501  0.00000000000E+00  0.00000000000E+00  0.68027833852E+03  0.68027833854E+03  0.50400001928E-02 0. -1.
        1   -1    0    0  501    0  0.00000000000E+00  0.00000000000E+00 -0.13271565992E+04  0.13271565992E+04  0.50400001928E-02 0.  1.
    10030    2    1    2    0    0  0.00000000000E+00  0.00000000000E+00 -0.64687826066E+03  0.20074349377E+04  0.19003535316E+04 0.  0.
        2    1    3    3  502    0 -0.70417365382E+03  0.38770792805E+03 -0.85860006834E+03  0.11761683764E+04  0.25500000920E-02 0.  1.
       -2    1    3    3    0  502  0.70417365382E+03 -0.38770792805E+03  0.21172180768E+03  0.83126656137E+03  0.25500000920E-02 0. -1.
</event>
<event>
 5   0  0.2888776E-05  0.1901715E+04  0.7818609E-02  0.8654003E-01
        2   -1    0    0  501    0  0.00000000000E+00  0.00000000000E+00  0.19046573426E+04  0.19046573426E+04  0.25500000920E-02 0.  1.
       -2   -1    0    0    0  501  0.00000000000E+00  0.00000000000E+00 -0.47469411712E+03  0.47469411712E+03  0.25500000920E-02 0. -1.
    10030    2    1    2    0    0  0.00000000000E+00  0.00000000000E+00  0.14299632255E+04  0.23793514598E+04  0.19017146323E+04 0.  0.
        3    1    3    3  502    0  0.45074498996E+03 -0.74582513951E+03  0.11909221301E+04  0.14757105796E+04  0.10100000352E+00 0. -1.
       -3    1    3    3    0  502 -0.45074498996E+03  0.74582513951E+03  0.23904109541E+03  0.90364088011E+03  0.10100000352E+00 0.  1.
</event>
<event>
 5   0  0.2789718E-05  0.1886929E+04  0.7818609E-02  0.8661390E-01
        2   -1    0    0  501    0  0.00000000000E+00  0.00000000000E+00  0.12863416804E+04  0.12863416804E+04  0.25500000920E-02 0.  1.
       -2   -1    0    0    0  501  0.00000000000E+00  0.00000000000E+00 -0.69198178508E+03  0.69198178508E+03  0.25500000920E-02 0. -1.
    10030    2    1    2    0    0  0.00000000000E+00  0.00000000000E+00  0.59435989535E+03  0.19783234655E+04  0.18869287345E+04 0.  0.
        5    1    3    3  502    0 -0.15539370234E+03 -0.76800525959E+03 -0.25374647243E+03  0.82364351740E+03  0.46999998093E+01 0. -1.
       -5    1    3    3    0  502  0.15539370234E+03  0.76800525959E+03  0.84810636778E+03  0.11546799481E+04  0.46999998093E+01 0.  1.
</event>
<event>
 5   0  0.1344119E-05  0.1900121E+04  0.7818609E-02  0.8654796E-01
        1   -1    0    0  501    0  0.00000000000E+00  0.00000000000E+00  0.16384031275E+04  0.16384031275E+04  0.50400001928E-02 0.  1.
       -1   -1    0    0    0  501  0.00000000000E+00  0.00000000000E+00 -0.55091168251E+03  0.55091168253E+03  0.50400001928E-02 0. -1.
    10030    2    1    2    0    0  0.00000000000E+00  0.00000000000E+00  0.10874914450E+04  0.21893148101E+04  0.19001214947E+04 0.  0.
        2    1    3    3  502    0 -0.45842784406E+03 -0.17575477551E+03 -0.39341615235E+03  0.62914394081E+03  0.25500000920E-02 0. -1.
       -2    1    3    3    0  502  0.45842784406E+03  0.17575477551E+03  0.14809075974E+04  0.15601708693E+04  0.25500000920E-02 0.  1.
</event>
<event>
 5   0  0.2888776E-05  0.1900240E+04  0.7818609E-02  0.8654737E-01
       -2   -1    0    0    0  501  0.00000000000E+00  0.00000000000E+00  0.11223513900E+04  0.11223513900E+04  0.25500000920E-02 0.  1.
        2   -1    0    0  501    0  0.00000000000E+00  0.00000000000E+00 -0.80431855723E+03  0.80431855723E+03  0.25500000920E-02 0. -1.
    10030    2    1    2    0    0  0.00000000000E+00  0.00000000000E+00  0.31803283281E+03  0.19266699473E+04  0.19002400383E+04 0.  0.
        3    1    3    3  502    0 -0.91620447127E+03 -0.14335251971E+03  0.36864670319E+03  0.99793836486E+03  0.10100000352E+00 0.  1.
       -3    1    3    3    0  502  0.91620447127E+03  0.14335251971E+03 -0.50613870389E+02  0.92873158241E+03  0.10100000352E+00 0. -1.
</event>
<event>
 5   0  0.2855141E-05  0.1900874E+04  0.7818609E-02  0.8654421E-01
        2   -1    0    0  501    0  0.00000000000E+00  0.00000000000E+00  0.10189224856E+04  0.10189224856E+04  0.25500000920E-02 0.  1.
       -2   -1    0    0    0  501  0.00000000000E+00  0.00000000000E+00 -0.88655510156E+03  0.88655510156E+03  0.25500000920E-02 0. -1.
    10030    2    1    2    0    0  0.00000000000E+00  0.00000000000E+00  0.13236738400E+03  0.19054775871E+04  0.19008744595E+04 0.  0.
        1    1    3    3  502    0  0.28025290247E+03 -0.88154292390E+03 -0.15268264018E+03  0.93753485517E+03  0.50400001928E-02 0. -1.
       -1    1    3    3    0  502 -0.28025290247E+03  0.88154292390E+03  0.28505002417E+03  0.96794273195E+03  0.50400001928E-02 0.  1.
</event>
<event>
 5   0  0.1327254E-05  0.1899503E+04  0.7818609E-02  0.8655104E-01
        1   -1    0    0  501    0  0.00000000000E+00  0.00000000000E+00  0.23135684660E+04  0.23135684660E+04  0.50400001928E-02 0. -1.
       -1   -1    0    0    0  501  0.00000000000E+00  0.00000000000E+00 -0.38988611732E+03  0.38988611735E+03  0.50400001928E-02 0.  1.
    10030    2    1    2    0    0  0.00000000000E+00  0.00000000000E+00  0.19236823487E+04  0.27034545833E+04  0.18995033313E+04 0.  0.
        5    1    3    3  502    0 -0.15737795708E+02  0.79591953387E+03  0.16990075565E+04  0.18762687307E+04  0.46999998093E+01 0. -1.
       -5    1    3    3    0  502  0.15737795708E+02 -0.79591953387E+03  0.22467479213E+03  0.82718585265E+03  0.46999998093E+01 0.  1.
</event>
<event>
 5   0  0.2888776E-05  0.1903586E+04  0.7818609E-02  0.8653074E-01
       -2   -1    0    0    0  501  0.00000000000E+00  0.00000000000E+00  0.89857165900E+03  0.89857165900E+03  0.25500000920E-02 0. -1.
        2   -1    0    0  501    0  0.00000000000E+00  0.00000000000E+00 -0.10081663425E+04  0.10081663425E+04  0.25500000920E-02 0.  1.
    10030    2    1    2    0    0  0.00000000000E+00  0.00000000000E+00 -0.10959468347E+03  0.19067380015E+04  0.19035857773E+04 0.  0.
        3    1    3    3  502    0  0.68059216247E+03  0.46831287939E+03  0.41862370957E+03  0.92615790502E+03  0.10100000352E+00 0. -1.
       -3    1    3    3    0  502 -0.68059216247E+03 -0.46831287939E+03 -0.52821839304E+03  0.98058009645E+03  0.10100000352E+00 0.  1.
</event>
<event>
 5   0  0.1471485E-05  0.1901923E+04  0.7818609E-02  0.8653900E-01
       -1   -1    0    0    0  501  0.00000000000E+00  0.00000000000E+00  0.88305829679E+03  0.88305829680E+03  0.50400001928E-02 0. -1.
        1   -1    0    0  501    0  0.00000000000E+00  0.00000000000E+00 -0.10240859695E+04  0.10240859695E+04  0.50400001928E-02 0.  1.
    10030    2    1    2    0    0  0.00000000000E+00  0.00000000000E+00 -0.14102767267E+03  0.19071442663E+04  0.19019228291E+04 0.  0.
        4    1    3    3  502    0  0.73888476889E+03 -0.27720226673E+03 -0.60256847682E+03  0.99291599873E+03  0.12699999809E+01 0.  1.
       -4    1    3    3    0  502 -0.73888476889E+03  0.27720226673E+03  0.46154080415E+03  0.91422826754E+03  0.12699999809E+01 0. -1.
</event>
<event>
 5   0  0.1413011E-05  0.1900608E+04  0.7818609E-02  0.8654554E-01
       -1   -1    0    0    0  501  0.00000000000E+00  0.00000000000E+00  0.49138671798E+03  0.49138671800E+03  0.50400001928E-02 0. -1.
        1   -1    0    0  501    0  0.00000000000E+00  0.00000000000E+00 -0.18378148249E+04  0.18378148249E+04  0.50400001928E-02 0.  1.
    10030    2    1    2    0    0  0.00000000000E+00  0.00000000000E+00 -0.13464281070E+04  0.23292015429E+04  0.19006081081E+04 0.  0.
        1    1    3    3  502    0 -0.17030350823E+03  0.93246380495E+03 -0.59022510219E+03  0.11166278269E+04  0.50400001928E-02 0. -1.
       -1    1    3    3    0  502  0.17030350823E+03 -0.93246380495E+03 -0.75620300477E+03  0.12125737161E+04  0.50400001928E-02 0.  1.
</event>
<event>
 5   0  0.1327254E-05  0.1889770E+04  0.7818609E-02  0.8659965E-01
       -1   -1    0    0    0  501  0.00000000000E+00  0.00000000000E+00  0.75734407198E+03  0.75734407199E+03  0.50400001928E-02 0. -1.
        1   -1    0    0  501    0  0.00000000000E+00  0.00000000000E+00 -0.11788663002E+04  0.11788663002E+04  0.50400001928E-02 0.  1.
    10030    2    1    2    0    0  0.00000000000E+00  0.00000000000E+00 -0.42152222825E+03  0.19362103722E+04  0.18897697258E+04 0.  0.
        5    1    3    3  502    0 -0.76059577497E+03  0.51469051222E+03  0.16899900935E+02  0.91854229784E+03  0.46999998093E+01 0.  1.
       -5    1    3    3    0  502  0.76059577497E+03 -0.51469051222E+03 -0.43842212918E+03  0.10176680744E+04  0.46999998093E+01 0. -1.
</event>
<event>
 5   0  0.2879462E-05  0.1904611E+04  0.7818609E-02  0.8652565E-01
       -2   -1    0    0    0  501  0.00000000000E+00  0.00000000000E+00  0.50444701993E+03  0.50444701994E+03  0.25500000920E-02 0.  1.
        2   -1    0    0  501    0  0.00000000000E+00  0.00000000000E+00 -0.17977811087E+04  0.17977811087E+04  0.25500000920E-02 0. -1.
    10030    2    1    2    0    0  0.00000000000E+00  0.00000000000E+00 -0.12933340888E+04  0.23022281287E+04  0.19046105353E+04 0.  0.
        4    1    3    3  502    0  0.61155028867E+03 -0.13395689068E+03  0.22073972996E+03  0.66382666820E+03  0.12699999809E+01 0.  1.
       -4    1    3    3    0  502 -0.61155028867E+03  0.13395689068E+03 -0.15140738188E+04  0.16384014605E+04  0.12699999809E+01 0. -1.
</event>
<event>
 5   0  0.2879462E-05  0.1902279E+04  0.7818609E-02  0.8653723E-01
        2   -1    0    0  501    0  0.00000000000E+00  0.00000000000E+00  0.10087425210E+04  0.10087425210E+04  0.25500000920E-02 0. -1.
       -2   -1    0    0    0  501  0.00000000000E+00  0.00000000000E+00 -0.89682565713E+03  0.89682565713E+03  0.25500000920E-02 0.  1.
    10030    2    1    2    0    0  0.00000000000E+00  0.00000000000E+00  0.11191686386E+03  0.19055681781E+04  0.19022788169E+04 0.  0.
        4    1    3    3  502    0  0.92431360674E+02  0.67630492758E+03 -0.60755588392E+03  0.91381490275E+03  0.12699999809E+01 0.  1.
       -4    1    3    3    0  502 -0.92431360674E+02 -0.67630492758E+03  0.71947274778E+03  0.99175327537E+03  0.12699999809E+01 0. -1.
</event>
<event>
 5   0  0.1344119E-05  0.1912193E+04  0.7818609E-02  0.8648811E-01
        1   -1    0    0  501    0  0.00000000000E+00  0.00000000000E+00  0.15747843042E+04  0.15747843042E+04  0.50400001928E-02 0. -1.
       -1   -1    0    0    0  501  0.00000000000E+00  0.00000000000E+00 -0.58047371292E+03  0.58047371294E+03  0.50400001928E-02 0.  1.
    10030    2    1    2    0    0  0.00000000000E+00  0.00000000000E+00  0.99431059126E+03  0.21552580171E+04  0.19121933920E+04 0.  0.
        2    1    3    3  502    0 -0.87591387044E+02  0.51926707853E+03 -0.40228535164E+03  0.66267945047E+03  0.25500000920E-02 0.  1.
       -2    1    3    3    0  502  0.87591387044E+02 -0.51926707853E+03  0.13965959429E+04  0.14925785667E+04  0.25500000920E-02 0. -1.
</event>
<event>
 5   0  0.1327254E-05  0.1899368E+04  0.7818609E-02  0.8655171E-01
       -1   -1    0    0    0  501  0.00000000000E+00  0.00000000000E+00  0.78785078153E+03  0.78785078155E+03  0.50400001928E-02 0. -1.
        1   -1    0    0  501    0  0.00000000000E+00  0.00000000000E+00 -0.11447593707E+04  0.11447593707E+04  0.50400001928E-02 0.  1.
    10030    2    1    2    0    0  0.00000000000E+00  0.00000000000E+00 -0.35690858920E+03  0.19326101523E+04  0.18993678579E+04 0.  0.
        5    1    3    3  502    0  0.91893651472E+03  0.23690108301E+03 -0.21529620164E+03  0.97310892794E+03  0.46999998093E+01 0.  1.
       -5    1    3    3    0  502 -0.91893651472E+03 -0.23690108301E+03 -0.14161238756E+03  0.95950122434E+03  0.46999998093E+01 0. -1.
</event>
<event>
 5   0  0.1327254E-05  0.1888034E+04  0.7818609E-02  0.8660836E-01
       -1   -1    0    0    0  501  0.00000000000E+00  0.00000000000E+00  0.10181475342E+04  0.10181475342E+04  0.50400001928E-02 0.  1.
        1   -1    0    0  501    0  0.00000000000E+00  0.00000000000E+00 -0.87528368546E+03  0.87528368548E+03  0.50400001928E-02 0. -1.
    10030    2    1    2    0    0  0.00000000000E+00  0.00000000000E+00  0.14286384872E+03  0.18934312197E+04  0.18880338197E+04 0.  0.
        5    1    3    3  502    0 -0.20502699629E+03 -0.86330285725E+03  0.39456095315E+03  0.97109645674E+03  0.46999998093E+01 0.  1.
       -5    1    3    3    0  502  0.20502699629E+03  0.86330285725E+03 -0.25169710443E+03  0.92233476293E+03  0.46999998093E+01 0. -1.
</event>
<event>
 5   0  0.2813537E-05  0.1893840E+04  0.7818609E-02  0.8657929E-01
        2   -1    0    0  501    0  0.00000000000E+00  0.00000000000E+00  0.87500468580E+03  0.87500468580E+03  0.25500000920E-02 0. -1.
       -2   -1    0    0    0  501  0.00000000000E+00  0.00000000000E+00 -0.10247460718E+04  0.10247460718E+04  0.25500000920E-02 0.  1.
    10030    2    1    2    0    0  0.00000000000E+00  0.00000000000E+00 -0.14974138603E+03  0.18997507576E+04  0.18938401354E+04 0.  0.
        2    1    3    3  502    0 -0.23064953179E+03 -0.27663367487E+03  0.80360915104E+03  0.88063219577E+03  0.25500000920E-02 0. -1.
       -2    1    3    3    0  502  0.23064953179E+03  0.27663367487E+03 -0.95335053707E+03  0.10191185619E+04  0.25500000920E-02 0.  1.
</event>
<event>
 5   0  0.2888776E-05  0.1901664E+04  0.7818609E-02  0.8654029E-01
        2   -1    0    0  501    0  0.00000000000E+00  0.00000000000E+00  0.18295705912E+04  0.18295705912E+04  0.25500000920E-02 0. -1.
       -2   -1    0    0    0  501  0.00000000000E+00  0.00000000000E+00 -0.49414932761E+03  0.49414932761E+03  0.25500000920E-02 0.  1.
    10030    2    1    2    0    0  0.00000000000E+00  0.00000000000E+00  0.13354212636E+04  0.23237199188E+04  0.19016635638E+04 0.  0.
        3    1    3    3  502    0 -0.30980269493E+03  0.64611152421E+03 -0.96020089833E+02  0.72295067560E+03  0.10100000352E+00 0.  1.
       -3    1    3    3    0  502  0.30980269493E+03 -0.64611152421E+03  0.14314413534E+04  0.16007692432E+04  0.10100000352E+00 0. -1.
</event>
<event>
 5   0  0.2855141E-05  0.1912116E+04  0.7818609E-02  0.8648849E-01
        2   -1    0    0  501    0  0.00000000000E+00  0.00000000000E+00  0.20114883087E+04  0.20114883087E+04  0.25500000920E-02 0. -1.
       -2   -1    0    0    0  501  0.00000000000E+00  0.00000000000E+00 -0.45441303468E+03  0.45441303469E+03  0.25500000920E-02 0.  1.
    10030    2    1    2    0    0  0.00000000000E+00  0.00000000000E+00  0.15570752740E+04  0.24659013434E+04  0.19121155892E+04 0.  0.
        1    1    3    3  502    0  0.80148312029E+03  0.47686959824E+03  0.10498690848E+04  0.14042809196E+04  0.50400001928E-02 0. -1.
       -1    1    3    3    0  502 -0.80148312029E+03 -0.47686959824E+03  0.50720618920E+03  0.10616204238E+04  0.50400001928E-02 0.  1.
</event>
<event>
 5   0  0.2813537E-05  0.1884926E+04  0.7818609E-02  0.8662396E-01
        2   -1    0    0  501    0  0.00000000000E+00  0.00000000000E+00  0.12438679743E+04  0.12438679743E+04  0.25500000920E-02 0. -1.
       -2   -1    0    0    0  501  0.00000000000E+00  0.00000000000E+00 -0.71409259741E+03  0.71409259742E+03  0.25500000920E-02 0.  1.
    10030    2    1    2    0    0  0.00000000000E+00  0.00000000000E+00  0.52977537690E+03  0.19579605717E+04  0.18849264311E+04 0.  0.
        2    1    3    3  502    0  0.59243695235E+03 -0.60936281299E+03 -0.15824350840E+03  0.86449152009E+03  0.25500000920E-02 0.  1.
       -2    1    3    3    0  502 -0.59243695235E+03  0.60936281299E+03  0.68801888529E+03  0.10934690516E+04  0.25500000920E-02 0. -1.
</event>
<event>
 5   0  0.2888776E-05  0.1909278E+04  0.7818609E-02  0.8650252E-01
       -2   -1    0    0    0  501  0.00000000000E+00  0.00000000000E+00  0.10128856813E+04  0.10128856813E+04  0.25500000920E-02 0.  1.
        2   -1    0    0  501    0  0.00000000000E+00  0.00000000000E+00 -0.89974223085E+03  0.89974223085E+03  0.25500000920E-02 0. -1.
    10030    2    1    2    0    0  0.00000000000E+00  0.00000000000E+00  0.11314345041E+03  0.19126279121E+04  0.19092784212E+04 0.  0.
        3    1    3    3  502    0 -0.48507885751E+03 -0.60651440439E+03 -0.49953709163E+03  0.92341677310E+03  0.10100000352E+00 0. -1.
       -3    1    3    3    0  502  0.48507885751E+03  0.60651440439E+03  0.61268054204E+03  0.98921113900E+03  0.10100000352E+00 0.  1.
</event>
<event>
 5   0  0.1327254E-05  0.1885846E+04  0.7818609E-02  0.8661934E-01
        1   -1    0    0  501    0  0.00000000000E+00  0.00000000000E+00  0.14190818793E+04  0.14190818793E+04  0.50400001928E-02 0. -1.
       -1   -1    0    0    0  501  0.00000000000E+00  0.00000000000E+00 -0.62653450444E+03  0.62653450446E+03  0.50400001928E-02 0.  1.
    10030    2    1    2    0    0  0.00000000000E+00  0.00000000000E+00  0.79254737482E+03  0.20456163837E+04  0.18858459768E+04 0.  0.
        5    1    3    3  502    0  0.70908246179E+03 -0.13000224379E+03 -0.26298599156E+03  0.76738663187E+03  0.46999998093E+01 0.  1.
       -5    1    3    3    0  502 -0.70908246179E+03  0.13000224379E+03  0.10555333664E+04  0.12782297519E+04  0.46999998093E+01 0. -1.
</event>
<event>
 5   0  0.2789718E-05  0.1901008E+04  0.7818609E-02  0.8654355E-01
        2   -1    0    0  501    0  0.00000000000E+00  0.00000000000E+00  0.79705928452E+03  0.79705928452E+03  0.25500000920E-02 0. -1.
       -2   -1    0    0    0  501  0.00000000000E+00  0.00000000000E+00 -0.11334887584E+04  0.11334887584E+04  0.25500000920E-02 0.  1.
    10030    2    1    2    0    0  0.00000000000E+00  0.00000000000E+00 -0.33642947392E+03  0.19305480430E+04  0.19010078788E+04 0.  0.
        5    1    3    3  502    0  0.10584257278E+03 -0.19954715917E+03 -0.11058241658E+04  0.11286677521E+04  0.46999998093E+01 0.  1.
       -5    1    3    3    0  502 -0.10584257278E+03  0.19954715917E+03  0.76939469190E+03  0.80188029086E+03  0.46999998093E+01 0. -1.
</event>
<event>
 5   0  0.1327254E-05  0.1904958E+04  0.7818609E-02  0.8652393E-01
        1   -1    0    0  501    0  0.00000000000E+00  0.00000000000E+00  0.96161972801E+03  0.96161972802E+03  0.50400001928E-02 0.  1.
       -1   -1    0    0    0  501  0.00000000000E+00  0.00000000000E+00 -0.94342485060E+03  0.94342485062E+03  0.50400001928E-02 0. -1.
    10030    2    1    2    0    0  0.00000000000E+00  0.00000000000E+00  0.18194877405E+02  0.19050445786E+04  0.19049576880E+04 0.  0.
        5    1    3    3  502    0 -0.26555893187E+01 -0.36096352382E+03  0.89055249416E+03  0.96094097246E+03  0.46999998093E+01 0.  1.
       -5    1    3    3    0  502  0.26555893187E+01  0.36096352382E+03 -0.87235761676E+03  0.94410360618E+03  0.46999998093E+01 0. -1.
</event>
<event>
 5   0  0.1429067E-05  0.1904979E+04  0.7818609E-02  0.8652382E-01
       -1   -1    0    0    0  501  0.00000000000E+00  0.00000000000E+00  0.66192756313E+03  0.66192756315E+03  0.50400001928E-02 0. -1.
        1   -1    0    0  501    0  0.00000000000E+00  0.00000000000E+00 -0.13705977988E+04  0.13705977988E+04  0.50400001928E-02 0.  1.
    10030    2    1    2    0    0  0.00000000000E+00  0.00000000000E+00 -0.70867023569E+03  0.20325253620E+04  0.19049792241E+04 0.  0.
        3    1    3    3  502    0 -0.69151763457E+03 -0.73246783985E+00 -0.10532016693E+04  0.12599329116E+04  0.10100000352E+00 0.  1.
       -3    1    3    3    0  502  0.69151763457E+03  0.73246783985E+00  0.34453143358E+03  0.77259245036E+03  0.10100000352E+00 0. -1.
</event>
<event>
 5   0  0.2888776E-05  0.1899315E+04  0.7818609E-02  0.8655197E-01
       -2   -1    0    0    0  501  0.00000000000E+00  0.00000000000E+00  0.10003775922E+04  0.10003775922E+04  0.25500000920E-02 0. -1.
        2   -1    0    0  501    0  0.00000000000E+00  0.00000000000E+00 -0.90150914797E+03  0.90150914798E+03  0.25500000920E-02 0.  1.
    10030    2    1    2    0    0  0.00000000000E+00  0.00000000000E+00  0.98868444197E+02  0.19018867402E+04  0.18993151932E+04 0.  0.
        3    1    3    3  502    0  0.33815982557E+03 -0.48604227535E+03 -0.69404014204E+03  0.91229430011E+03  0.10100000352E+00 0.  1.
       -3    1    3    3    0  502 -0.33815982557E+03  0.48604227535E+03  0.79290858623E+03  0.98959244004E+03  0.10100000352E+00 0. -1.
</event>
<event>
 5   0  0.1413011E-05  0.1884286E+04  0.7818609E-02  0.8662718E-01
       -1   -1    0    0    0  501  0.00000000000E+00  0.00000000000E+00  0.88792898930E+03  0.88792898932E+03  0.50400001928E-02 0. -1.
        1   -1    0    0  501    0  0.00000000000E+00  0.00000000000E+00 -0.99966669172E+03  0.99966669173E+03  0.50400001928E-02 0.  1.
    10030    2    1    2    0    0  0.00000000000E+00  0.00000000000E+00 -0.11173770242E+03  0.18875956810E+04  0.18842855784E+04 0.  0.
        1    1    3    3  502    0 -0.93351962196E+01  0.22583297463E+03 -0.97210410348E+03  0.99803510277E+03  0.50400001928E-02 0.  1.
       -1    1    3    3    0  502  0.93351962196E+01 -0.22583297463E+03  0.86036640107E+03  0.88956057828E+03  0.50400001928E-02 0. -1.
</event>
<event>
 5   0  0.1327254E-05  0.1902204E+04  0.7818609E-02  0.8653760E-01
       -1   -1    0    0    0  501  0.00000000000E+00  0.00000000000E+00  0.73607892564E+03  0.73607892565E+03  0.50400001928E-02 0. -1.
        1   -1    0    0  501    0  0.00000000000E+00  0.00000000000E+00 -0.12289373961E+04  0.12289373961E+04  0.50400001928E-02 0.  1.
    10030    2    1    2    0    0  0.00000000000E+00  0.00000000000E+00 -0.49285847045E+03  0.19650163218E+04  0.19022038989E+04 0.  0.
        5    1    3    3  502    0 -0.35120727486E+03 -0.76367906591E+01  0.66659289654E+03  0.75350716665E+03  0.46999998093E+01 0. -1.
       -5    1    3    3    0  502  0.35120727486E+03  0.76367906591E+01 -0.11594513670E+04  0.12115091551E+04  0.46999998093E+01 0.  1.
</event>
<event>
 5   0  0.1471485E-05  0.1908319E+04  0.7818609E-02  0.8650726E-01
       -1   -1    0    0    0  501  0.00000000000E+00  0.00000000000E+00  0.47979424142E+03  0.47979424145E+03  0.50400001928E-02 0.  1.
        1   -1    0    0  501    0  0.00000000000E+00  0.00000000000E+00 -0.18975232449E+04  0.18975232449E+04  0.50400001928E-02 0. -1.
    10030    2    1    2    0    0  0.00000000000E+00  0.00000000000E+00 -0.14177290035E+04  0.23773174863E+04  0.19083193924E+04 0.  0.
        4    1    3    3  502    0 -0.24736844243E+03  0.62547185541E+03  0.13422753641E+03  0.68587523111E+03  0.12699999809E+01 0.  1.
       -4    1    3    3    0  502  0.24736844243E+03 -0.62547185541E+03 -0.15519565399E+04  0.16914422552E+04  0.12699999809E+01 0. -1.
</event>
<event>
 5   0  0.1327254E-05  0.1902399E+04  0.7818609E-02  0.8653663E-01
        1   -1    0    0  501    0  0.00000000000E+00  0.00000000000E+00  0.12479735235E+04  0.12479735235E+04  0.50400001928E-02 0.  1.
       -1   -1    0    0    0  501  0.00000000000E+00  0.00000000000E+00 -0.72500006882E+03  0.72500006884E+03  0.50400001928E-02 0. -1.
    10030    2    1    2    0    0  0.00000000000E+00  0.00000000000E+00  0.52297345471E+03  0.19729735924E+04  0.19023994223E+04 0.  0.
        5    1    3    3  502    0  0.43328022990E+03 -0.25952475210E+03 -0.57443823102E+03  0.76490929255E+03  0.46999998093E+01 0. -1.
       -5    1    3    3    0  502 -0.43328022990E+03  0.25952475210E+03  0.10974116857E+04  0.12080642998E+04  0.46999998093E+01 0.  1.
</event>
<event>
 5   0  0.2879462E-05  0.1900736E+04  0.7818609E-02  0.8654490E-01
       -2   -1    0    0    0  501  0.00000000000E+00  0.00000000000E+00  0.49972492236E+03  0.49972492237E+03  0.25500000920E-02 0.  1.
        2   -1    0    0  501    0  0.00000000000E+00  0.00000000000E+00 -0.18073928134E+04  0.18073928134E+04  0.25500000920E-02 0. -1.
    10030    2    1    2    0    0  0.00000000000E+00  0.00000000000E+00 -0.13076678911E+04  0.23071177358E+04  0.19007358926E+04 0.  0.
        4    1    3    3  502    0  0.51871177386E+03  0.42847856028E+03 -0.14685673931E+04  0.16153475112E+04  0.12699999809E+01 0. -1.
       -4    1    3    3    0  502 -0.51871177386E+03 -0.42847856028E+03  0.16089950205E+03  0.69177022459E+03  0.12699999809E+01 0.  1.
</event>
<event>
 5   0  0.2855141E-05  0.1897265E+04  0.7818609E-02  0.8656219E-01
        2   -1    0    0  501    0  0.00000000000E+00  0.00000000000E+00  0.62060858818E+03  0.62060858818E+03  0.25500000920E-02 0. -1.
       -2   -1    0    0    0  501  0.00000000000E+00  0.00000000000E+00 -0.14500340570E+04  0.14500340570E+04  0.25500000920E-02 0.  1.
    10030    2    1    2    0    0  0.00000000000E+00  0.00000000000E+00 -0.82942546877E+03  0.20706426451E+04  0.18972649672E+04 0.  0.
        1    1    3    3  502    0  0.54909895298E+03  0.71785641702E+03 -0.72928121097E+03  0.11613262162E+04  0.50400001928E-02 0.  1.
       -1    1    3    3    0  502 -0.54909895298E+03 -0.71785641702E+03 -0.10014425780E+03  0.90931642898E+03  0.50400001928E-02 0. -1.
</event>
<event>
 5   0  0.1471485E-05  0.1904794E+04  0.7818609E-02  0.8652474E-01
       -1   -1    0    0    0  501  0.00000000000E+00  0.00000000000E+00  0.37699068542E+03  0.37699068545E+03  0.50400001928E-02 0.  1.
        1   -1    0    0  501    0  0.00000000000E+00  0.00000000000E+00 -0.24060544280E+04  0.24060544280E+04  0.50400001928E-02 0. -1.
    10030    2    1    2    0    0  0.00000000000E+00  0.00000000000E+00 -0.20290637426E+04  0.27830451134E+04  0.19047940655E+04 0.  0.
        4    1    3    3  502    0  0.83010361355E+03  0.22875104225E+03 -0.16092077460E+04  0.18250891023E+04  0.12699999809E+01 0. -1.
       -4    1    3    3    0  502 -0.83010361355E+03 -0.22875104225E+03 -0.41985599656E+03  0.95795601116E+03  0.12699999809E+01 0.  1.
</event>
<event>
 5   0  0.2813537E-05  0.1899293E+04  0.7818609E-02  0.8655209E-01
        2   -1    0    0  501    0  0.00000000000E+00  0.00000000000E+00  0.72823823670E+03  0.72823823671E+03  0.25500000920E-02 0.  1.
       -2   -1    0    0    0  501  0.00000000000E+00  0.00000000000E+00 -0.12383697005E+04  0.12383697005E+04  0.25500000920E-02 0. -1.
    10030    2    1    2    0    0  0.00000000000E+00  0.00000000000E+00 -0.51013146375E+03  0.19666079372E+04  0.18992926758E+04 0.  0.
        2    1    3    3  502    0 -0.15492285853E+03 -0.84477759522E+03 -0.67461525182E+03  0.10921336985E+04  0.25500000920E-02 0. -1.
       -2    1    3    3    0  502  0.15492285853E+03  0.84477759522E+03  0.16448378807E+03  0.87447423863E+03  0.25500000920E-02 0.  1.
</event>
<event>
 5   0  0.1327254E-05  0.1901749E+04  0.7818609E-02  0.8653986E-01
       -1   -1    0    0    0  501  0.00000000000E+00  0.00000000000E+00  0.63371988568E+03  0.63371988570E+03  0.50400001928E-02 0. -1.
        1   -1    0    0  501    0  0.00000000000E+00  0.00000000000E+00 -0.14267541152E+04  0.14267541152E+04  0.50400001928E-02 0.  1.
    10030    2    1    2    0    0  0.00000000000E+00  0.00000000000E+00 -0.79303422950E+03  0.20604740009E+04  0.19017491473E+04 0.  0.
        5    1    3    3  502    0 -0.19137845968E+03 -0.76095230296E+03 -0.97843460091E+03  0.12542051190E+04  0.46999998093E+01 0.  1.
       -5    1    3    3    0  502  0.19137845968E+03  0.76095230296E+03  0.18540037142E+03  0.80626888190E+03  0.46999998093E+01 0. -1.
</event>
<event>
 5   0  0.2813537E-05  0.1895482E+04  0.7818609E-02  0.8657109E-01
        2   -1    0    0  501    0  0.00000000000E+00  0.00000000000E+00  0.17149361532E+04  0.17149361532E+04  0.25500000920E-02 0. -1.
       -2   -1    0    0    0  501  0.00000000000E+00  0.00000000000E+00 -0.52375877018E+03  0.52375877019E+03  0.25500000920E-02 0.  1.
    10030    2    1    2    0    0  0.00000000000E+00  0.00000000000E+00  0.11911773830E+04  0.22386949234E+04  0.18954818391E+04 0.  0.
        2    1    3    3  502    0 -0.31981919927E+03 -0.43759446729E+03  0.15138192586E+04  0.16079247451E+04  0.25500000920E-02 0. -1.
       -2    1    3    3    0  502  0.31981919927E+03  0.43759446729E+03 -0.32264187558E+03  0.63077017835E+03  0.25500000920E-02 0.  1.
</event>
<event>
 5   0  0.1471485E-05  0.1899847E+04  0.7818609E-02  0.8654933E-01
       -1   -1    0    0    0  501  0.00000000000E+00  0.00000000000E+00  0.75668625488E+03  0.75668625490E+03  0.50400001928E-02 0.  1.
        1   -1    0    0  501    0  0.00000000000E+00  0.00000000000E+00 -0.11925081991E+04  0.11925081991E+04  0.50400001928E-02 0. -1.
    10030    2    1    2    0    0  0.00000000000E+00  0.00000000000E+00 -0.43582194418E+03  0.19491944540E+04  0.18998469023E+04 0.  0.
        4    1    3    3  502    0  0.59009548878E+03 -0.57239683323E+02 -0.97939134070E+03  0.11448572306E+04  0.12699999809E+01 0. -1.
       -4    1    3    3    0  502 -0.59009548878E+03  0.57239683323E+02  0.54356939652E+03  0.80433722341E+03  0.12699999809E+01 0.  1.
</event>
<event>
 5   0  0.1471485E-05  0.1900652E+04  0.7818609E-02  0.8654532E-01
       -1   -1    0    0    0  501  0.00000000000E+00  0.00000000000E+00  0.86232196485E+03  0.86232196487E+03  0.50400001928E-02 0.  1.
        1   -1    0    0  501    0  0.00000000000E+00  0.00000000000E+00 -0.10473110850E+04  0.10473110850E+04  0.50400001928E-02 0. -1.
    10030    2    1    2    0    0  0.00000000000E+00  0.00000000000E+00 -0.18498912013E+03  0.19096330499E+04  0.19006518383E+04 0.  0.
        4    1    3    3  502    0  0.74184320973E+03  0.43144389229E+03  0.31765317380E+03  0.91508487679E+03  0.12699999809E+01 0.  1.
       -4    1    3    3    0  502 -0.74184320973E+03 -0.43144389229E+03 -0.50264229392E+03  0.99454817307E+03  0.12699999809E+01 0. -1.
</event>
<event>
 5   0  0.1344119E-05  0.1901396E+04  0.7818609E-02  0.8654162E-01
       -1   -1    0    0    0  501  0.00000000000E+00  0.00000000000E+00  0.61098100880E+03  0.61098100882E+03  0.50400001928E-02 0. -1.
        1   -1    0    0  501    0  0.00000000000E+00  0.00000000000E+00 -0.14793045829E+04  0.14793045829E+04  0.50400001928E-02 0.  1.
    10030    2    1    2    0    0  0.00000000000E+00  0.00000000000E+00 -0.86832357410E+03  0.20902855917E+04  0.19013963358E+04 0.  0.
        2    1    3    3  502    0  0.85923106647E+03  0.16546749217E+03 -0.84280007064E+03  0.12148948414E+04  0.25500000920E-02 0.  1.
       -2    1    3    3    0  502 -0.85923106647E+03 -0.16546749217E+03 -0.25523503460E+02  0.87539075034E+03  0.25500000920E-02 0. -1.
</event>
<event>
 5   0  0.2813537E-05  0.1946374E+04  0.7818609E-02  0.8632111E-01
       -2   -1    0    0    0  501  0.00000000000E+00  0.00000000000E+00  0.13891373909E+04  0.13891373909E+04  0.25500000920E-02 0.  1.
        2   -1    0    0  501    0  0.00000000000E+00  0.00000000000E+00 -0.68178459560E+03  0.68178459560E+03  0.25500000920E-02 0. -1.
    10030    2    1    2    0    0  0.00000000000E+00  0.00000000000E+00  0.70735279528E+03  0.20709219865E+04  0.19463735246E+04 0.  0.
        2    1    3    3  502    0 -0.55387261477E+01 -0.31851130393E+02 -0.68121309197E+03  0.68197980078E+03  0.25500000920E-02 0. -1.
       -2    1    3    3    0  502  0.55387261477E+01  0.31851130393E+02  0.13885658873E+04  0.13889421857E+04  0.25500000920E-02 0.  1.
</event>
<event>
 5   0  0.1010725E-05  0.1899380E+04  0.7818609E-02  0.8655165E-01
       -3   -1    0    0    0  501  0.00000000000E+00  0.00000000000E+00  0.39796669659E+03  0.39796670941E+03  0.10100000352E+00 0.  1.
        3   -1    0    0  501    0  0.00000000000E+00  0.00000000000E+00 -0.22662987902E+04  0.22662987924E+04  0.10100000352E+00 0. -1.
    10030    2    1    2    0    0  0.00000000000E+00  0.00000000000E+00 -0.18683320936E+04  0.26642655019E+04  0.18993803864E+04 0.  0.
        3    1    3    3  502    0  0.85784321929E+03  0.29614255017E+02 -0.15041872129E+04  0.17318634977E+04  0.10100000352E+00 0. -1.
       -3    1    3    3    0  502 -0.85784321929E+03 -0.29614255017E+02 -0.36414488067E+03  0.93240200413E+03  0.10100000352E+00 0.  1.
</event>
<event>
 5   0  0.2789718E-05  0.1901158E+04  0.7818609E-02  0.8654280E-01
        2   -1    0    0  501    0  0.00000000000E+00  0.00000000000E+00  0.10415008825E+04  0.10415008825E+04  0.25500000920E-02 0. -1.
       -2   -1    0    0    0  501  0.00000000000E+00  0.00000000000E+00 -0.86759437476E+03  0.86759437476E+03  0.25500000920E-02 0.  1.
    10030    2    1    2    0    0  0.00000000000E+00  0.00000000000E+00  0.17390650770E+03  0.19090952572E+04  0.19011578650E+04 0.  0.
        5    1    3    3  502    0  0.61081716595E+03 -0.19964784908E+03 -0.61641479579E+03  0.89047524633E+03  0.46999998093E+01 0.  1.
       -5    1    3    3    0  502 -0.61081716595E+03  0.19964784908E+03  0.79032130349E+03  0.10186200109E+04  0.46999998093E+01 0. -1.
</event>
<event>
 5   0  0.2789718E-05  0.1893303E+04  0.7818609E-02  0.8658197E-01
        2   -1    0    0  501    0  0.00000000000E+00  0.00000000000E+00  0.12615643977E+04  0.12615643977E+04  0.25500000920E-02 0.  1.
       -2   -1    0    0    0  501  0.00000000000E+00  0.00000000000E+00 -0.71034782507E+03  0.71034782508E+03  0.25500000920E-02 0. -1.
    10030    2    1    2    0    0  0.00000000000E+00  0.00000000000E+00  0.55121657259E+03  0.19719122227E+04  0.18933034898E+04 0.  0.
        5    1    3    3  502    0  0.11008885450E+02  0.91211578753E+02 -0.70568131628E+03  0.71165227309E+03  0.46999998093E+01 0. -1.
       -5    1    3    3    0  502 -0.11008885450E+02 -0.91211578753E+02  0.12568978889E+04  0.12602599497E+04  0.46999998093E+01 0.  1.
</event>
<event>
 5   0  0.2879462E-05  0.1900442E+04  0.7818609E-02  0.8654636E-01
       -2   -1    0    0    0  501  0.00000000000E+00  0.00000000000E+00  0.95275086556E+03  0.95275086557E+03  0.25500000920E-02 0.  1.
        2   -1    0    0  501    0  0.00000000000E+00  0.00000000000E+00 -0.94769805449E+03  0.94769805450E+03  0.25500000920E-02 0. -1.
    10030    2    1    2    0    0  0.00000000000E+00  0.00000000000E+00  0.50528110710E+01  0.19004489201E+04  0.19004422030E+04 0.  0.
        4    1    3    3  502    0 -0.55762347460E+03  0.15142656580E+03 -0.75182669953E+03  0.94821882669E+03  0.12699999809E+01 0. -1.
       -4    1    3    3    0  502  0.55762347460E+03 -0.15142656580E+03  0.75687951060E+03  0.95223009337E+03  0.12699999809E+01 0.  1.
</event>
<event>
 5   0  0.1471485E-05  0.1897385E+04  0.7818609E-02  0.8656159E-01
        1   -1    0    0  501    0  0.00000000000E+00  0.00000000000E+00  0.16003374338E+04  0.16003374338E+04  0.50400001928E-02 0. -1.
       -1   -1    0    0    0  501  0.00000000000E+00  0.00000000000E+00 -0.56239219605E+03  0.56239219607E+03  0.50400001928E-02 0.  1.
    10030    2    1    2    0    0  0.00000000000E+00  0.00000000000E+00  0.10379452378E+04  0.21627296299E+04  0.18973848148E+04 0.  0.
        4    1    3    3  502    0  0.84154910151E+03  0.41830350447E+03  0.66685861149E+03  0.11523388099E+04  0.12699999809E+01 0. -1.
       -4    1    3    3    0  502 -0.84154910151E+03 -0.41830350447E+03  0.37108662630E+03  0.10103908200E+04  0.12699999809E+01 0.  1.
</event>
<event>
 5   0  0.1344119E-05  0.1902343E+04  0.7818609E-02  0.8653691E-01
       -1   -1    0    0    0  501  0.00000000000E+00  0.00000000000E+00  0.73787820537E+03  0.73787820539E+03  0.50400001928E-02 0.  1.
        1   -1    0    0  501    0  0.00000000000E+00  0.00000000000E+00 -0.12261197005E+04  0.12261197005E+04  0.50400001928E-02 0. -1.
    10030    2    1    2    0    0  0.00000000000E+00  0.00000000000E+00 -0.48824149511E+03  0.19639979059E+04  0.19023427706E+04 0.  0.
        2    1    3    3  502    0  0.30521670846E+03 -0.71881486994E+03 -0.80474410322E+03  0.11213675259E+04  0.25500000920E-02 0. -1.
       -2    1    3    3    0  502 -0.30521670846E+03  0.71881486994E+03  0.31650260812E+03  0.84263038002E+03  0.25500000920E-02 0.  1.
</event>
<event>
 5   0  0.2813537E-05  0.1899905E+04  0.7818609E-02  0.8654904E-01
       -2   -1    0    0    0  501  0.00000000000E+00  0.00000000000E+00  0.87537844180E+03  0.87537844180E+03  0.25500000920E-02 0.  1.
        2   -1    0    0  501    0  0.00000000000E+00  0.00000000000E+00 -0.10308791348E+04  0.10308791348E+04  0.25500000920E-02 0. -1.
    10030    2    1    2    0    0  0.00000000000E+00  0.00000000000E+00 -0.15550069297E+03  0.19062575766E+04  0.18999045983E+04 0.  0.
        2    1    3    3  502    0 -0.19588207130E+03  0.44350101050E+02  0.85383301511E+03  0.87713598434E+03  0.25500000920E-02 0.  1.
       -2    1    3    3    0  502  0.19588207130E+03 -0.44350101050E+02 -0.10093337081E+04  0.10291215922E+04  0.25500000920E-02 0. -1.
</event>
<event>
 5   0  0.1344119E-05  0.1903021E+04  0.7818609E-02  0.8653354E-01
        1   -1    0    0  501    0  0.00000000000E+00  0.00000000000E+00  0.18114220358E+04  0.18114220358E+04  0.50400001928E-02 0. -1.
       -1   -1    0    0    0  501  0.00000000000E+00  0.00000000000E+00 -0.49981318840E+03  0.49981318843E+03  0.50400001928E-02 0.  1.
    10030    2    1    2    0    0  0.00000000000E+00  0.00000000000E+00  0.13116088474E+04  0.23112352242E+04  0.19030214116E+04 0.  0.
        2    1    3    3  502    0 -0.10694592957E+03 -0.57391954398E+03  0.15683451889E+04  0.16734777281E+04  0.25500000920E-02 0. -1.
       -2    1    3    3    0  502  0.10694592957E+03  0.57391954398E+03 -0.25673634152E+03  0.63775749614E+03  0.25500000920E-02 0.  1.
</event>
<event>
 5   0  0.2888776E-05  0.1898258E+04  0.7818609E-02  0.8655724E-01
       -2   -1    0    0    0  501  0.00000000000E+00  0.00000000000E+00  0.87100893156E+03  0.87100893157E+03  0.25500000920E-02 0. -1.
        2   -1    0    0  501    0  0.00000000000E+00  0.00000000000E+00 -0.10342555925E+04  0.10342555925E+04  0.25500000920E-02 0.  1.
    10030    2    1    2    0    0  0.00000000000E+00  0.00000000000E+00 -0.16324666092E+03  0.19052645241E+04  0.18982579999E+04 0.  0.
        3    1    3    3  502    0 -0.44963294587E+03  0.59999269284E+03  0.50249107244E+03  0.90258423738E+03  0.10100000352E+00 0. -1.
       -3    1    3    3    0  502  0.44963294587E+03 -0.59999269284E+03 -0.66573773336E+03  0.10026802867E+04  0.10100000352E+00 0.  1.
</event>
<event>
 5   0  0.2789718E-05  0.1904456E+04  0.7818609E-02  0.8652642E-01
       -2   -1    0    0    0  501  0.00000000000E+00  0.00000000000E+00  0.72903646189E+03  0.72903646190E+03  0.25500000920E-02 0.  1.
        2   -1    0    0  501    0  0.00000000000E+00  0.00000000000E+00 -0.12437485864E+04  0.12437485864E+04  0.25500000920E-02 0. -1.
    10030    2    1    2    0    0  0.00000000000E+00  0.00000000000E+00 -0.51471212446E+03  0.19727850483E+04  0.19044559001E+04 0.  0.
        5    1    3    3  502    0 -0.20070504835E+03 -0.86354430883E+03 -0.61727682049E+03  0.10802981315E+04  0.46999998093E+01 0. -1.
       -5    1    3    3    0  502  0.20070504835E+03  0.86354430883E+03  0.10256469603E+03  0.89248691678E+03  0.46999998093E+01 0.  1.
</event>
<event>
 5   0  0.1327254E-05  0.1902076E+04  0.7818609E-02  0.8653824E-01
        1   -1    0    0  501    0  0.00000000000E+00  0.00000000000E+00  0.85070243677E+03  0.85070243678E+03  0.50400001928E-02 0. -1.
       -1   -1    0    0    0  501  0.00000000000E+00  0.00000000000E+00 -0.10632074068E+04  0.10632074068E+04  0.50400001928E-02 0.  1.
    10030    2    1    2    0    0  0.00000000000E+00  0.00000000000E+00 -0.21250497003E+03  0.19139098436E+04  0.19020758468E+04 0.  0.
        5    1    3    3  502    0  0.84075262707E+03 -0.44445369539E+03 -0.99356048146E+02  0.95618919758E+03  0.46999998093E+01 0. -1.
       -5    1    3    3    0  502 -0.84075262707E+03  0.44445369539E+03 -0.11314892188E+03  0.95772064601E+03  0.46999998093E+01 0.  1.
</event>
<event>
 5   0  0.1429067E-05  0.1900862E+04  0.7818609E-02  0.8654428E-01
        1   -1    0    0  501    0  0.00000000000E+00  0.00000000000E+00  0.12486415597E+04  0.12486415597E+04  0.50400001928E-02 0.  1.
       -1   -1    0    0    0  501  0.00000000000E+00  0.00000000000E+00 -0.72344133073E+03  0.72344133075E+03  0.50400001928E-02 0. -1.
    10030    2    1    2    0    0  0.00000000000E+00  0.00000000000E+00  0.52520022901E+03  0.19720828905E+04  0.19008618168E+04 0.  0.
        3    1    3    3  502    0 -0.32359652361E+03  0.14209470714E+02  0.11896124285E+04  0.12329210678E+04  0.10100000352E+00 0.  1.
       -3    1    3    3    0  502  0.32359652361E+03 -0.14209470714E+02 -0.66441219948E+03  0.73916182272E+03  0.10100000352E+00 0. -1.
</event>
<event>
 5   0  0.2888776E-05  0.1899474E+04  0.7818609E-02  0.8655118E-01
       -2   -1    0    0    0  501  0.00000000000E+00  0.00000000000E+00  0.64727817064E+03  0.64727817064E+03  0.25500000920E-02 0.  1.
        2   -1    0    0  501    0  0.00000000000E+00  0.00000000000E+00 -0.13935279972E+04  0.13935279972E+04  0.25500000920E-02 0. -1.
    10030    2    1    2    0    0  0.00000000000E+00  0.00000000000E+00 -0.74624982658E+03  0.20408061679E+04  0.18994738775E+04 0.  0.
        3    1    3    3  502    0  0.10229543315E+03  0.84266150909E+03  0.84548680891E+02  0.85304821914E+03  0.10100000352E+00 0.  1.
       -3    1    3    3    0  502 -0.10229543315E+03 -0.84266150909E+03 -0.83079850747E+03  0.11877579487E+04  0.10100000352E+00 0. -1.
</event>
<event>
 5   0  0.2855141E-05  0.1898143E+04  0.7818609E-02  0.8655781E-01
        2   -1    0    0  501    0  0.00000000000E+00  0.00000000000E+00  0.14545472855E+04  0.14545472855E+04  0.25500000920E-02 0.  1.
       -2   -1    0    0    0  501  0.00000000000E+00  0.00000000000E+00 -0.61925577240E+03  0.61925577241E+03  0.25500000920E-02 0. -1.
    10030    2    1    2    0    0  0.00000000000E+00  0.00000000000E+00  0.83529151314E+03  0.20738030579E+04  0.18981430956E+04 0.  0.
        1    1    3    3  502    0 -0.71901308082E+03 -0.34446249545E+03 -0.14488405038E+03  0.81032438519E+03  0.50400001928E-02 0. -1.
       -1    1    3    3    0  502  0.71901308082E+03  0.34446249545E+03  0.98017556352E+03  0.12634786728E+04  0.50400001928E-02 0.  1.
</event>
<event>
 5   0  0.2855141E-05  0.1901805E+04  0.7818609E-02  0.8653959E-01
        2   -1    0    0  501    0  0.00000000000E+00  0.00000000000E+00  0.84908252296E+03  0.84908252296E+03  0.25500000920E-02 0.  1.
       -2   -1    0    0    0  501  0.00000000000E+00  0.00000000000E+00 -0.10649320907E+04  0.10649320907E+04  0.25500000920E-02 0. -1.
    10030    2    1    2    0    0  0.00000000000E+00  0.00000000000E+00 -0.21584956778E+03  0.19140146137E+04  0.19018046444E+04 0.  0.
        1    1    3    3  502    0 -0.42841131979E+03  0.18062442283E+03 -0.94274035290E+03  0.10511521365E+04  0.50400001928E-02 0. -1.
       -1    1    3    3    0  502  0.42841131979E+03 -0.18062442283E+03  0.72689078512E+03  0.86286247720E+03  0.50400001928E-02 0.  1.
</event>
<event>
 5   0  0.2813537E-05  0.1901169E+04  0.7818609E-02  0.8654275E-01
       -2   -1    0    0    0  501  0.00000000000E+00  0.00000000000E+00  0.54724453717E+03  0.54724453718E+03  0.25500000920E-02 0.  1.
        2   -1    0    0  501    0  0.00000000000E+00  0.00000000000E+00 -0.16512009814E+04  0.16512009814E+04  0.25500000920E-02 0. -1.
    10030    2    1    2    0    0  0.00000000000E+00  0.00000000000E+00 -0.11039564442E+04  0.21984455185E+04  0.19011688161E+04 0.  0.
        2    1    3    3  502    0  0.69762612762E+03  0.38010094909E+03 -0.11555651746E+04  0.14023158768E+04  0.25500000920E-02 0. -1.
       -2    1    3    3    0  502 -0.69762612762E+03 -0.38010094909E+03  0.51608730431E+02  0.79612964177E+03  0.25500000920E-02 0.  1.
</event>
<event>
 5   0  0.1413011E-05  0.1900407E+04  0.7818609E-02  0.8654654E-01
       -1   -1    0    0    0  501  0.00000000000E+00  0.00000000000E+00  0.14619449838E+04  0.14619449839E+04  0.50400001928E-02 0.  1.
        1   -1    0    0  501    0  0.00000000000E+00  0.00000000000E+00 -0.61759261753E+03  0.61759261755E+03  0.50400001928E-02 0. -1.
    10030    2    1    2    0    0  0.00000000000E+00  0.00000000000E+00  0.84435236631E+03  0.20795376014E+04  0.19004067241E+04 0.  0.
        1    1    3    3  502    0 -0.24385556308E+03 -0.90972950090E+03  0.28457279625E+03  0.98389784878E+03  0.50400001928E-02 0. -1.
       -1    1    3    3    0  502  0.24385556308E+03  0.90972950090E+03  0.55977957006E+03  0.10956397526E+04  0.50400001928E-02 0.  1.
</event>
<event>
 5   0  0.2855141E-05  0.1893310E+04  0.7818609E-02  0.8658194E-01
        2   -1    0    0  501    0  0.00000000000E+00  0.00000000000E+00  0.73645006776E+03  0.73645006776E+03  0.25500000920E-02 0.  1.
       -2   -1    0    0    0  501  0.00000000000E+00  0.00000000000E+00 -0.12168588973E+04  0.12168588973E+04  0.25500000920E-02 0. -1.
    10030    2    1    2    0    0  0.00000000000E+00  0.00000000000E+00 -0.48040882956E+03  0.19533089651E+04  0.18933101356E+04 0.  0.
        1    1    3    3  502    0  0.80301018667E+02  0.65444421191E+03 -0.94100239832E+03  0.11490130520E+04  0.50400001928E-02 0. -1.
       -1    1    3    3    0  502 -0.80301018667E+02 -0.65444421191E+03  0.46059356877E+03  0.80429591303E+03  0.50400001928E-02 0.  1.
</event>
<event>
 5   0  0.2879462E-05  0.1904301E+04  0.7818609E-02  0.8652718E-01
       -2   -1    0    0    0  501  0.00000000000E+00  0.00000000000E+00  0.12162406109E+04  0.12162406109E+04  0.25500000920E-02 0. -1.
        2   -1    0    0  501    0  0.00000000000E+00  0.00000000000E+00 -0.74540406731E+03  0.74540406732E+03  0.25500000920E-02 0.  1.
    10030    2    1    2    0    0  0.00000000000E+00  0.00000000000E+00  0.47083654355E+03  0.19616446782E+04  0.19043011297E+04 0.  0.
        4    1    3    3  502    0  0.55321861312E+03  0.55764701562E+03 -0.31890108656E+03  0.84777387542E+03  0.12699999809E+01 0.  1.
       -4    1    3    3    0  502 -0.55321861312E+03 -0.55764701562E+03  0.78973763012E+03  0.11138708028E+04  0.12699999809E+01 0. -1.
</event>
<event>
 5   0  0.2888776E-05  0.1896319E+04  0.7818609E-02  0.8656691E-01
       -2   -1    0    0    0  501  0.00000000000E+00  0.00000000000E+00  0.44630783966E+03  0.44630783967E+03  0.25500000920E-02 0.  1.
        2   -1    0    0  501    0  0.00000000000E+00  0.00000000000E+00 -0.20143188330E+04  0.20143188330E+04  0.25500000920E-02 0. -1.
    10030    2    1    2    0    0  0.00000000000E+00  0.00000000000E+00 -0.15680109934E+04  0.24606266727E+04  0.18963188411E+04 0.  0.
        3    1    3    3  502    0 -0.89615699368E+03 -0.30792354209E+03 -0.74112616900E+03  0.12029888918E+04  0.10100000352E+00 0. -1.
       -3    1    3    3    0  502  0.89615699368E+03  0.30792354209E+03 -0.82688482437E+03  0.12576377809E+04  0.10100000352E+00 0.  1.
</event>
<event>
 5   0  0.1327254E-05  0.1901423E+04  0.7818609E-02  0.8654149E-01
        1   -1    0    0  501    0  0.00000000000E+00  0.00000000000E+00  0.85282019906E+03  0.85282019907E+03  0.50400001928E-02 0. -1.
       -1   -1    0    0    0  501  0.00000000000E+00  0.00000000000E+00 -0.10598389738E+04  0.10598389738E+04  0.50400001928E-02 0.  1.
    10030    2    1    2    0    0  0.00000000000E+00  0.00000000000E+00 -0.20701877477E+03  0.19126591729E+04  0.19014227143E+04 0.  0.
        5    1    3    3  502    0 -0.21439406598E+03  0.65454801851E+03 -0.76269261337E+03  0.10276770098E+04  0.46999998093E+01 0.  1.
       -5    1    3    3    0  502  0.21439406598E+03 -0.65454801851E+03  0.55567383861E+03  0.88498216308E+03  0.46999998093E+01 0. -1.
</event>
<event>
 5   0  0.1344119E-05  0.1898542E+04  0.7818609E-02  0.8655582E-01
       -1   -1    0    0    0  501  0.00000000000E+00  0.00000000000E+00  0.12630098424E+04  0.12630098424E+04  0.50400001928E-02 0. -1.
        1   -1    0    0  501    0  0.00000000000E+00  0.00000000000E+00 -0.71346692954E+03  0.71346692956E+03  0.50400001928E-02 0.  1.
    10030    2    1    2    0    0  0.00000000000E+00  0.00000000000E+00  0.54954291288E+03  0.19764767720E+04  0.18985423401E+04 0.  0.
        2    1    3    3  502    0 -0.53152787409E+03  0.78528250046E+03  0.22909241273E+03  0.97553770816E+03  0.25500000920E-02 0. -1.
       -2    1    3    3    0  502  0.53152787409E+03 -0.78528250046E+03  0.32045050015E+03  0.10009390638E+04  0.25500000920E-02 0.  1.
</event>
<event>
 5   0  0.2855141E-05  0.1898767E+04  0.7818609E-02  0.8655470E-01
       -2   -1    0    0    0  501  0.00000000000E+00  0.00000000000E+00  0.90765049916E+03  0.90765049916E+03  0.25500000920E-02 0. -1.
        2   -1    0    0  501    0  0.00000000000E+00  0.00000000000E+00 -0.99303575465E+03  0.99303575466E+03  0.25500000920E-02 0.  1.
    10030    2    1    2    0    0  0.00000000000E+00  0.00000000000E+00 -0.85385255495E+02  0.19006862538E+04  0.18987673880E+04 0.  0.
        1    1    3    3  502    0  0.67428689845E+03  0.50845070487E+03  0.39150193897E+03  0.93083763833E+03  0.50400001928E-02 0. -1.
       -1    1    3    3    0  502 -0.67428689845E+03 -0.50845070487E+03 -0.47688719446E+03  0.96984861549E+03  0.50400001928E-02 0.  1.
</event>
<event>
 5   0  0.2879462E-05  0.1910837E+04  0.7818609E-02  0.8649481E-01
        2   -1    0    0  501    0  0.00000000000E+00  0.00000000000E+00  0.10114859076E+04  0.10114859076E+04  0.25500000920E-02 0. -1.
       -2   -1    0    0    0  501  0.00000000000E+00  0.00000000000E+00 -0.90245860132E+03  0.90245860133E+03  0.25500000920E-02 0.  1.
    10030    2    1    2    0    0  0.00000000000E+00  0.00000000000E+00  0.10902730625E+03  0.19139445089E+04  0.19108366308E+04 0.  0.
        4    1    3    3  502    0  0.30107554865E+03 -0.75885127640E+03 -0.44260072688E+03  0.92865427475E+03  0.12699999809E+01 0.  1.
       -4    1    3    3    0  502 -0.30107554865E+03  0.75885127640E+03  0.55162803313E+03  0.98529023415E+03  0.12699999809E+01 0. -1.
</event>
<event>
 5   0  0.2888776E-05  0.1901711E+04  0.7818609E-02  0.8654005E-01
       -2   -1    0    0    0  501  0.00000000000E+00  0.00000000000E+00  0.54510242238E+03  0.54510242239E+03  0.25500000920E-02 0. -1.
        2   -1    0    0  501    0  0.00000000000E+00  0.00000000000E+00 -0.16586359816E+04  0.16586359816E+04  0.25500000920E-02 0.  1.
    10030    2    1    2    0    0  0.00000000000E+00  0.00000000000E+00 -0.11135335593E+04  0.22037384040E+04  0.19017113256E+04 0.  0.
        3    1    3    3  502    0  0.37978925573E+03 -0.49182126160E+03 -0.13907929473E+04  0.15232967749E+04  0.10100000352E+00 0.  1.
       -3    1    3    3    0  502 -0.37978925573E+03  0.49182126160E+03  0.27725938803E+03  0.68044162908E+03  0.10100000352E+00 0. -1.
</event>
<event>
 5   0  0.1429067E-05  0.1904146E+04  0.7818609E-02  0.8652795E-01
        1   -1    0    0  501    0  0.00000000000E+00  0.00000000000E+00  0.15399738849E+04  0.15399738849E+04  0.50400001928E-02 0.  1.
       -1   -1    0    0    0  501  0.00000000000E+00  0.00000000000E+00 -0.58860956446E+03  0.58860956448E+03  0.50400001928E-02 0. -1.
    10030    2    1    2    0    0  0.00000000000E+00  0.00000000000E+00  0.95136432046E+03  0.21285834494E+04  0.19041463785E+04 0.  0.
        3    1    3    3  502    0 -0.32936011350E+03 -0.66558116677E+02  0.14714852511E+04  0.15093630848E+04  0.10100000352E+00 0.  1.
       -3    1    3    3    0  502  0.32936011350E+03  0.66558116677E+02 -0.52012093066E+03  0.61922036463E+03  0.10100000352E+00 0. -1.
</event>
<event>
 5   0  0.2813537E-05  0.1898325E+04  0.7818609E-02  0.8655691E-01
        2   -1    0    0  501    0  0.00000000000E+00  0.00000000000E+00  0.11054762526E+04  0.11054762526E+04  0.25500000920E-02 0. -1.
       -2   -1    0    0    0  501  0.00000000000E+00  0.00000000000E+00 -0.81495150053E+03  0.81495150053E+03  0.25500000920E-02 0.  1.
    10030    2    1    2    0    0  0.00000000000E+00  0.00000000000E+00  0.29052475211E+03  0.19204277532E+04  0.18983250837E+04 0.  0.
        2    1    3    3  502    0  0.23373435827E+03  0.77152244586E+03 -0.36160107412E+03  0.88353492942E+03  0.25500000920E-02 0.  1.
       -2    1    3    3    0  502 -0.23373435827E+03 -0.77152244586E+03  0.65212582622E+03  0.10368928237E+04  0.25500000920E-02 0. -1.
</event>
<event>
 5   0  0.1413011E-05  0.1901305E+04  0.7818609E-02  0.8654207E-01
       -1   -1    0    0    0  501  0.00000000000E+00  0.00000000000E+00  0.83023081337E+03  0.83023081338E+03  0.50400001928E-02 0. -1.
        1   -1    0    0  501    0  0.00000000000E+00  0.00000000000E+00 -0.10885407088E+04  0.10885407088E+04  0.50400001928E-02 0.  1.
    10030    2    1    2    0    0  0.00000000000E+00  0.00000000000E+00 -0.25830989539E+03  0.19187715222E+04  0.19013048551E+04 0.  0.
        1    1    3    3  502    0  0.94301180558E+03  0.12025946264E+03 -0.13171482472E+03  0.95973037823E+03  0.50400001928E-02 0. -1.
       -1    1    3    3    0  502 -0.94301180558E+03 -0.12025946264E+03 -0.12659507068E+03  0.95904114393E+03  0.50400001928E-02 0.  1.
</event>
<event>
 5   0  0.1344119E-05  0.1902117E+04  0.7818609E-02  0.8653803E-01
       -1   -1    0    0    0  501  0.00000000000E+00  0.00000000000E+00  0.42921386915E+03  0.42921386918E+03  0.50400001928E-02 0.  1.
        1   -1    0    0  501    0  0.00000000000E+00  0.00000000000E+00 -0.21073707093E+04  0.21073707093E+04  0.50400001928E-02 0. -1.
    10030    2    1    2    0    0  0.00000000000E+00  0.00000000000E+00 -0.16781568402E+04  0.25365845785E+04  0.19021174895E+04 0.  0.
        2    1    3    3  502    0 -0.84270628166E+03  0.21247086120E+03 -0.13542100758E+04  0.16090937429E+04  0.25500000920E-02 0. -1.
       -2    1    3    3    0  502  0.84270628166E+03 -0.21247086120E+03 -0.32394676440E+03  0.92749083563E+03  0.25500000920E-02 0.  1.
</event>
<event>
 5   0  0.2789718E-05  0.1906846E+04  0.7818609E-02  0.8651456E-01
       -2   -1    0    0    0  501  0.00000000000E+00  0.00000000000E+00  0.45537796155E+03  0.45537796156E+03  0.25500000920E-02 0. -1.
        2   -1    0    0  501    0  0.00000000000E+00  0.00000000000E+00 -0.19961772801E+04  0.19961772801E+04  0.25500000920E-02 0.  1.
    10030    2    1    2    0    0  0.00000000000E+00  0.00000000000E+00 -0.15407993186E+04  0.24515552417E+04  0.19068457103E+04 0.  0.
        5    1    3    3  502    0  0.78945109226E+03 -0.45591248100E+03 -0.41155577947E+03  0.10002447036E+04  0.46999998093E+01 0. -1.
       -5    1    3    3    0  502 -0.78945109226E+03  0.45591248100E+03 -0.11292435391E+04  0.14513105381E+04  0.46999998093E+01 0.  1.
</event>
<event>
 5   0  0.1413011E-05  0.1899894E+04  0.7818609E-02  0.8654909E-01
       -1   -1    0    0    0  501  0.00000000000E+00  0.00000000000E+00  0.86999729298E+03  0.86999729299E+03  0.50400001928E-02 0. -1.
        1   -1    0    0  501    0  0.00000000000E+00  0.00000000000E+00 -0.10372438845E+04  0.10372438845E+04  0.50400001928E-02 0.  1.
    10030    2    1    2    0    0  0.00000000000E+00  0.00000000000E+00 -0.16724659152E+03  0.19072411775E+04  0.18998940725E+04 0.  0.
        1    1    3    3  502    0  0.79951734318E+03 -0.13898118262E+03 -0.57935033932E+03  0.99709105245E+03  0.50400001928E-02 0.  1.
       -1    1    3    3    0  502 -0.79951734318E+03  0.13898118262E+03  0.41210374780E+03  0.91015012506E+03  0.50400001928E-02 0. -1.
</event>
<event>
 5   0  0.2879462E-05  0.1904048E+04  0.7818609E-02  0.8652844E-01
        2   -1    0    0  501    0  0.00000000000E+00  0.00000000000E+00  0.88679175452E+03  0.88679175453E+03  0.25500000920E-02 0.  1.
       -2   -1    0    0    0  501  0.00000000000E+00  0.00000000000E+00 -0.10220546270E+04  0.10220546270E+04  0.25500000920E-02 0. -1.
    10030    2    1    2    0    0  0.00000000000E+00  0.00000000000E+00 -0.13526287246E+03  0.19088463815E+04  0.19040479152E+04 0.  0.
        4    1    3    3  502    0 -0.41568586762E+03 -0.26674516827E+03 -0.88356229529E+03  0.10122409140E+04  0.12699999809E+01 0. -1.
       -4    1    3    3    0  502  0.41568586762E+03  0.26674516827E+03  0.74829942283E+03  0.89660546755E+03  0.12699999809E+01 0.  1.
</event>
<event>
 5   0  0.1010725E-05  0.1897790E+04  0.7818609E-02  0.8655957E-01
       -3   -1    0    0    0  501  0.00000000000E+00  0.00000000000E+00  0.25614126278E+04  0.25614126298E+04  0.10100000352E+00 0.  1.
        3   -1    0    0  501    0  0.00000000000E+00  0.00000000000E+00 -0.35152559803E+03  0.35152561254E+03  0.10100000352E+00 0. -1.
    10030    2    1    2    0    0  0.00000000000E+00  0.00000000000E+00  0.22098870298E+04  0.29129382423E+04  0.18977904308E+04 0.  0.
        3    1    3    3  502    0 -0.38623171672E+02 -0.49956662650E+03 -0.13191576600E+03  0.51813158871E+03  0.10100000352E+00 0. -1.
       -3    1    3    3    0  502  0.38623171672E+02  0.49956662650E+03  0.23418027958E+04  0.23948066536E+04  0.10100000352E+00 0.  1.
</event>
<event>
 5   0  0.2888776E-05  0.1897768E+04  0.7818609E-02  0.8655968E-01
       -2   -1    0    0    0  501  0.00000000000E+00  0.00000000000E+00  0.34107127886E+03  0.34107127887E+03  0.25500000920E-02 0. -1.
        2   -1    0    0  501    0  0.00000000000E+00  0.00000000000E+00 -0.26398625841E+04  0.26398625841E+04  0.25500000920E-02 0.  1.
    10030    2    1    2    0    0  0.00000000000E+00  0.00000000000E+00 -0.22987913052E+04  0.29809338629E+04  0.18977684870E+04 0.  0.
        3    1    3    3  502    0  0.51399930209E+03 -0.44464129711E+03 -0.21895171429E+04  0.22925720261E+04  0.10100000352E+00 0.  1.
       -3    1    3    3    0  502 -0.51399930209E+03  0.44464129711E+03 -0.10927416228E+03  0.68836183681E+03  0.10100000352E+00 0. -1.
</event>
<event>
 5   0  0.2789718E-05  0.1899318E+04  0.7818609E-02  0.8655196E-01
       -2   -1    0    0    0  501  0.00000000000E+00  0.00000000000E+00  0.51753786892E+03  0.51753786892E+03  0.25500000920E-02 0. -1.
        2   -1    0    0  501    0  0.00000000000E+00  0.00000000000E+00 -0.17425823713E+04  0.17425823713E+04  0.25500000920E-02 0.  1.
    10030    2    1    2    0    0  0.00000000000E+00  0.00000000000E+00 -0.12250445024E+04  0.22601202403E+04  0.18993181586E+04 0.  0.
        5    1    3    3  502    0 -0.54436322825E+03  0.34188927718E+02 -0.15375844324E+04  0.16314681068E+04  0.46999998093E+01 0.  1.
       -5    1    3    3    0  502  0.54436322825E+03 -0.34188927718E+02  0.31253992993E+03  0.62865213341E+03  0.46999998093E+01 0. -1.
</event>
<event>
 5   0  0.1327254E-05  0.1899041E+04  0.7818609E-02  0.8655334E-01
       -1   -1    0    0    0  501  0.00000000000E+00  0.00000000000E+00  0.41371248406E+03  0.41371248409E+03  0.50400001928E-02 0. -1.
        1   -1    0    0  501    0  0.00000000000E+00  0.00000000000E+00 -0.21792652494E+04  0.21792652494E+04  0.50400001928E-02 0.  1.
    10030    2    1    2    0    0  0.00000000000E+00  0.00000000000E+00 -0.17655527654E+04  0.25929777335E+04  0.18990410631E+04 0.  0.
        5    1    3    3  502    0 -0.68910634088E+03 -0.57769034869E+03 -0.46644041392E+03  0.10130066326E+04  0.46999998093E+01 0. -1.
       -5    1    3    3    0  502  0.68910634088E+03  0.57769034869E+03 -0.12991123515E+04  0.15799711009E+04  0.46999998093E+01 0.  1.
</event>
<event>
 5   0  0.2813537E-05  0.1898587E+04  0.7818609E-02  0.8655560E-01
       -2   -1    0    0    0  501  0.00000000000E+00  0.00000000000E+00  0.13761364713E+04  0.13761364713E+04  0.25500000920E-02 0. -1.
        2   -1    0    0  501    0  0.00000000000E+00  0.00000000000E+00 -0.65484677863E+03  0.65484677864E+03  0.25500000920E-02 0.  1.
    10030    2    1    2    0    0  0.00000000000E+00  0.00000000000E+00  0.72128969268E+03  0.20309832500E+04  0.18985874067E+04 0.  0.
        2    1    3    3  502    0 -0.29339899748E+03  0.79007810825E+03  0.82797550146E+03  0.11814608838E+04  0.25500000920E-02 0.  1.
       -2    1    3    3    0  502  0.29339899748E+03 -0.79007810825E+03 -0.10668580878E+03  0.84952236619E+03  0.25500000920E-02 0. -1.
</event>
<event>
 5   0  0.2879462E-05  0.1875307E+04  0.7818609E-02  0.8667246E-01
        2   -1    0    0  501    0  0.00000000000E+00  0.00000000000E+00  0.92158251632E+03  0.92158251632E+03  0.25500000920E-02 0.  1.
       -2   -1    0    0    0  501  0.00000000000E+00  0.00000000000E+00 -0.95400430262E+03  0.95400430262E+03  0.25500000920E-02 0. -1.
    10030    2    1    2    0    0  0.00000000000E+00  0.00000000000E+00 -0.32421786301E+02  0.18755868189E+04  0.18753065731E+04 0.  0.
        4    1    3    3  502    0  0.58342555028E+03  0.29582629664E+03 -0.68809510570E+03  0.94940774059E+03  0.12699999809E+01 0. -1.
       -4    1    3    3    0  502 -0.58342555028E+03 -0.29582629664E+03  0.65567331940E+03  0.92617907835E+03  0.12699999809E+01 0.  1.
</event>
<event>
 5   0  0.2879462E-05  0.1914171E+04  0.7818609E-02  0.8647835E-01
        2   -1    0    0  501    0  0.00000000000E+00  0.00000000000E+00  0.11364622684E+04  0.11364622684E+04  0.25500000920E-02 0.  1.
       -2   -1    0    0    0  501  0.00000000000E+00  0.00000000000E+00 -0.80602095918E+03  0.80602095919E+03  0.25500000920E-02 0. -1.
    10030    2    1    2    0    0  0.00000000000E+00  0.00000000000E+00  0.33044130917E+03  0.19424832275E+04  0.19141707423E+04 0.  0.
        4    1    3    3  502    0 -0.29413331794E+02  0.18679618168E+03 -0.78687442445E+03  0.80927803030E+03  0.12699999809E+01 0. -1.
       -4    1    3    3    0  502  0.29413331794E+02 -0.18679618168E+03  0.11173157336E+04  0.11332051972E+04  0.12699999809E+01 0.  1.
</event>
<event>
 5   0  0.1471485E-05  0.1902863E+04  0.7818609E-02  0.8653432E-01
       -1   -1    0    0    0  501  0.00000000000E+00  0.00000000000E+00  0.14297965706E+04  0.14297965706E+04  0.50400001928E-02 0.  1.
        1   -1    0    0  501    0  0.00000000000E+00  0.00000000000E+00 -0.63311266612E+03  0.63311266614E+03  0.50400001928E-02 0. -1.
    10030    2    1    2    0    0  0.00000000000E+00  0.00000000000E+00  0.79668390451E+03  0.20629092368E+04  0.19028634411E+04 0.  0.
        4    1    3    3  502    0 -0.51738691275E+03  0.41596016753E+03 -0.34053035656E+03  0.74610630281E+03  0.12699999809E+01 0. -1.
       -4    1    3    3    0  502  0.51738691275E+03 -0.41596016753E+03  0.11372142611E+04  0.13168029340E+04  0.12699999809E+01 0.  1.
</event>
<event>
 5   0  0.1327254E-05  0.1898676E+04  0.7818609E-02  0.8655516E-01
       -1   -1    0    0    0  501  0.00000000000E+00  0.00000000000E+00  0.63916226823E+03  0.63916226825E+03  0.50400001928E-02 0.  1.
        1   -1    0    0  501    0  0.00000000000E+00  0.00000000000E+00 -0.14100371985E+04  0.14100371985E+04  0.50400001928E-02 0. -1.
    10030    2    1    2    0    0  0.00000000000E+00  0.00000000000E+00 -0.77087493024E+03  0.20491994667E+04  0.18986759324E+04 0.  0.
        5    1    3    3  502    0 -0.27955670225E+03  0.41323722875E+03 -0.12571198149E+04  0.13525122092E+04  0.46999998093E+01 0. -1.
       -5    1    3    3    0  502  0.27955670225E+03 -0.41323722875E+03  0.48624488465E+03  0.69668725755E+03  0.46999998093E+01 0.  1.
</event>
<event>
 5   0  0.1413011E-05  0.1897181E+04  0.7818609E-02  0.8656261E-01
        1   -1    0    0  501    0  0.00000000000E+00  0.00000000000E+00  0.10248112492E+04  0.10248112492E+04  0.50400001928E-02 0.  1.
       -1   -1    0    0    0  501  0.00000000000E+00  0.00000000000E+00 -0.87803856472E+03  0.87803856474E+03  0.50400001928E-02 0. -1.
    10030    2    1    2    0    0  0.00000000000E+00  0.00000000000E+00  0.14677268450E+03  0.19028498140E+04  0.18971808542E+04 0.  0.
        1    1    3    3  502    0  0.72050525479E+03 -0.44125910357E+03 -0.35916369057E+03  0.91806098671E+03  0.50400001928E-02 0. -1.
       -1    1    3    3    0  502 -0.72050525479E+03  0.44125910357E+03  0.50593637508E+03  0.98478882727E+03  0.50400001928E-02 0.  1.
</event>
<event>
 5   0  0.1471485E-05  0.1897697E+04  0.7818609E-02  0.8656004E-01
        1   -1    0    0  501    0  0.00000000000E+00  0.00000000000E+00  0.29887220957E+04  0.29887220958E+04  0.50400001928E-02 0.  1.
       -1   -1    0    0    0  501  0.00000000000E+00  0.00000000000E+00 -0.30123685147E+03  0.30123685152E+03  0.50400001928E-02 0. -1.
    10030    2    1    2    0    0  0.00000000000E+00  0.00000000000E+00  0.26874852443E+04  0.32899589473E+04  0.18976967451E+04 0.  0.
        4    1    3    3  502    0  0.33587423697E+03  0.11965888138E+03  0.28681621276E+04  0.28902396707E+04  0.12699999809E+01 0.  1.
       -4    1    3    3    0  502 -0.33587423697E+03 -0.11965888138E+03 -0.18067688336E+03  0.39971927654E+03  0.12699999809E+01 0. -1.
</event>
<event>
 5   0  0.1413011E-05  0.1900378E+04  0.7818609E-02  0.8654668E-01
       -1   -1    0    0    0  501  0.00000000000E+00  0.00000000000E+00  0.80613164598E+03  0.80613164600E+03  0.50400001928E-02 0. -1.
        1   -1    0    0  501    0  0.00000000000E+00  0.00000000000E+00 -0.11199895748E+04  0.11199895748E+04  0.50400001928E-02 0.  1.
    10030    2    1    2    0    0  0.00000000000E+00  0.00000000000E+00 -0.31385792880E+03  0.19261212208E+04  0.19003778987E+04 0.  0.
        1    1    3    3  502    0 -0.24938922136E+03 -0.69908732513E+03 -0.75821145442E+03  0.10610384920E+04  0.50400001928E-02 0.  1.
       -1    1    3    3    0  502  0.24938922136E+03  0.69908732513E+03  0.44435352562E+03  0.86508272879E+03  0.50400001928E-02 0. -1.
</event>
<event>
 5   0  0.2813537E-05  0.1904919E+04  0.7818609E-02  0.8652412E-01
        2   -1    0    0  501    0  0.00000000000E+00  0.00000000000E+00  0.93665283501E+03  0.93665283501E+03  0.25500000920E-02 0. -1.
       -2   -1    0    0    0  501  0.00000000000E+00  0.00000000000E+00 -0.96853331483E+03  0.96853331483E+03  0.25500000920E-02 0.  1.
    10030    2    1    2    0    0  0.00000000000E+00  0.00000000000E+00 -0.31880479822E+02  0.19051861498E+04  0.19049193948E+04 0.  0.
        2    1    3    3  502    0  0.69177309267E+03 -0.34251977896E+02  0.63795271105E+03  0.94165114096E+03  0.25500000920E-02 0. -1.
       -2    1    3    3    0  502 -0.69177309267E+03  0.34251977896E+02 -0.66983319087E+03  0.96353500888E+03  0.25500000920E-02 0.  1.
</event>
<event>
 5   0  0.1471485E-05  0.1898419E+04  0.7818609E-02  0.8655644E-01
        1   -1    0    0  501    0  0.00000000000E+00  0.00000000000E+00  0.18604892668E+04  0.18604892668E+04  0.50400001928E-02 0.  1.
       -1   -1    0    0    0  501  0.00000000000E+00  0.00000000000E+00 -0.48428073373E+03  0.48428073376E+03  0.50400001928E-02 0. -1.
    10030    2    1    2    0    0  0.00000000000E+00  0.00000000000E+00  0.13762085331E+04  0.23447700006E+04  0.18984194555E+04 0.  0.
        4    1    3    3  502    0 -0.29638722051E+02  0.93729070483E+03  0.86965038545E+03  0.12789392968E+04  0.12699999809E+01 0.  1.
       -4    1    3    3    0  502  0.29638722051E+02 -0.93729070483E+03  0.50655814764E+03  0.10658307037E+04  0.12699999809E+01 0. -1.
</event>
<event>
 5   0  0.2813537E-05  0.1909427E+04  0.7818609E-02  0.8650178E-01
       -2   -1    0    0    0  501  0.00000000000E+00  0.00000000000E+00  0.13955260974E+04  0.13955260974E+04  0.25500000920E-02 0. -1.
        2   -1    0    0  501    0  0.00000000000E+00  0.00000000000E+00 -0.65314284693E+03  0.65314284693E+03  0.25500000920E-02 0.  1.
    10030    2    1    2    0    0  0.00000000000E+00  0.00000000000E+00  0.74238325047E+03  0.20486689443E+04  0.19094270221E+04 0.  0.
        2    1    3    3  502    0 -0.27709843371E+03  0.90553831876E+03  0.24113003056E+03  0.97720360230E+03  0.25500000920E-02 0. -1.
       -2    1    3    3    0  502  0.27709843371E+03 -0.90553831876E+03  0.50125321991E+03  0.10714653420E+04  0.25500000920E-02 0.  1.
</event>
<event>
 5   0  0.1413011E-05  0.1898649E+04  0.7818609E-02  0.8655529E-01
       -1   -1    0    0    0  501  0.00000000000E+00  0.00000000000E+00  0.91789285808E+03  0.91789285809E+03  0.50400001928E-02 0. -1.
        1   -1    0    0  501    0  0.00000000000E+00  0.00000000000E+00 -0.98183251405E+03  0.98183251406E+03  0.50400001928E-02 0.  1.
    10030    2    1    2    0    0  0.00000000000E+00  0.00000000000E+00 -0.63939655972E+02  0.18997253722E+04  0.18986490487E+04 0.  0.
        1    1    3    3  502    0 -0.76690900049E+03 -0.35161275866E+01 -0.59180043644E+03  0.96870508142E+03  0.50400001928E-02 0.  1.
       -1    1    3    3    0  502  0.76690900049E+03  0.35161275866E+01  0.52786078046E+03  0.93102029073E+03  0.50400001928E-02 0. -1.
</event>
<event>
 5   0  0.1327254E-05  0.1895853E+04  0.7818609E-02  0.8656924E-01
       -1   -1    0    0    0  501  0.00000000000E+00  0.00000000000E+00  0.85060871202E+03  0.85060871204E+03  0.50400001928E-02 0. -1.
        1   -1    0    0  501    0  0.00000000000E+00  0.00000000000E+00 -0.10563778651E+04  0.10563778651E+04  0.50400001928E-02 0.  1.
    10030    2    1    2    0    0  0.00000000000E+00  0.00000000000E+00 -0.20576915309E+03  0.19069865772E+04  0.18958525420E+04 0.  0.
        5    1    3    3  502    0 -0.27847788404E+03 -0.12800165198E+03 -0.10051518230E+04  0.10508504328E+04  0.46999998093E+01 0.  1.
       -5    1    3    3    0  502  0.27847788404E+03  0.12800165198E+03  0.79938266989E+03  0.85613614439E+03  0.46999998093E+01 0. -1.
</event>
<event>
 5   0  0.2813537E-05  0.1899940E+04  0.7818609E-02  0.8654886E-01
       -2   -1    0    0    0  501  0.00000000000E+00  0.00000000000E+00  0.18446321343E+04  0.18446321343E+04  0.25500000920E-02 0. -1.
        2   -1    0    0  501    0  0.00000000000E+00  0.00000000000E+00 -0.48922655757E+03  0.48922655757E+03  0.25500000920E-02 0.  1.
    10030    2    1    2    0    0  0.00000000000E+00  0.00000000000E+00  0.13554055768E+04  0.23338586919E+04  0.18999400297E+04 0.  0.
        2    1    3    3  502    0  0.80413150302E+03 -0.71166911634E+02  0.12928171261E+04  0.15241615154E+04  0.25500000920E-02 0. -1.
       -2    1    3    3    0  502 -0.80413150302E+03  0.71166911634E+02  0.62588450643E+02  0.80969717650E+03  0.25500000920E-02 0.  1.
</event>
<event>
 5   0  0.2888776E-05  0.1899202E+04  0.7818609E-02  0.8655254E-01
        2   -1    0    0  501    0  0.00000000000E+00  0.00000000000E+00  0.14972418892E+04  0.14972418892E+04  0.25500000920E-02 0. -1.
       -2   -1    0    0    0  501  0.00000000000E+00  0.00000000000E+00 -0.60226851452E+03  0.60226851453E+03  0.25500000920E-02 0.  1.
    10030    2    1    2    0    0  0.00000000000E+00  0.00000000000E+00  0.89497337467E+03  0.20995104037E+04  0.18992015675E+04 0.  0.
        3    1    3    3  502    0 -0.50362144924E+03 -0.60274396466E+03  0.10374461051E+04  0.13012414389E+04  0.10100000352E+00 0. -1.
       -3    1    3    3    0  502  0.50362144924E+03  0.60274396466E+03 -0.14247273045E+03  0.79826896482E+03  0.10100000352E+00 0.  1.
</event>
<event>
 5   0  0.2789718E-05  0.1900454E+04  0.7818609E-02  0.8654631E-01
        2   -1    0    0  501    0  0.00000000000E+00  0.00000000000E+00  0.91312928127E+03  0.91312928128E+03  0.25500000920E-02 0. -1.
       -2   -1    0    0    0  501  0.00000000000E+00  0.00000000000E+00 -0.98883163035E+03  0.98883163035E+03  0.25500000920E-02 0.  1.
    10030    2    1    2    0    0  0.00000000000E+00  0.00000000000E+00 -0.75702349077E+02  0.19019609116E+04  0.19004537521E+04 0.  0.
        5    1    3    3  502    0 -0.39008766783E+03 -0.42523946356E+03  0.71767270643E+03  0.92090889534E+03  0.46999998093E+01 0. -1.
       -5    1    3    3    0  502  0.39008766783E+03  0.42523946356E+03 -0.79337505551E+03  0.98105201629E+03  0.46999998093E+01 0.  1.
</event>
<event>
 5   0  0.1471485E-05  0.1898370E+04  0.7818609E-02  0.8655668E-01
        1   -1    0    0  501    0  0.00000000000E+00  0.00000000000E+00  0.84862716954E+03  0.84862716956E+03  0.50400001928E-02 0. -1.
       -1   -1    0    0    0  501  0.00000000000E+00  0.00000000000E+00 -0.10616582671E+04  0.10616582671E+04  0.50400001928E-02 0.  1.
    10030    2    1    2    0    0  0.00000000000E+00  0.00000000000E+00 -0.21303109758E+03  0.19102854367E+04  0.18983698800E+04 0.  0.
        4    1    3    3  502    0 -0.38167450687E+03 -0.56666209574E+03 -0.76956645739E+03  0.10290847901E+04  0.12699999809E+01 0.  1.
       -4    1    3    3    0  502  0.38167450687E+03  0.56666209574E+03  0.55653535982E+03  0.88120064660E+03  0.12699999809E+01 0. -1.
</event>
<event>
 5   0  0.1413011E-05  0.1909911E+04  0.7818609E-02  0.8649939E-01
        1   -1    0    0  501    0  0.00000000000E+00  0.00000000000E+00  0.14752663833E+04  0.14752663834E+04  0.50400001928E-02 0. -1.
       -1   -1    0    0    0  501  0.00000000000E+00  0.00000000000E+00 -0.61815273212E+03  0.61815273214E+03  0.50400001928E-02 0.  1.
    10030    2    1    2    0    0  0.00000000000E+00  0.00000000000E+00  0.85711365123E+03  0.20934191155E+04  0.19099109356E+04 0.  0.
        1    1    3    3  502    0  0.32511863539E+03  0.86908461907E+03  0.67591645053E+03  0.11479866072E+04  0.50400001928E-02 0. -1.
       -1    1    3    3    0  502 -0.32511863539E+03 -0.86908461907E+03  0.18119720069E+03  0.94543250830E+03  0.50400001928E-02 0.  1.
</event>
<event>
 5   0  0.1327254E-05  0.1918486E+04  0.7818609E-02  0.8645709E-01
        1   -1    0    0  501    0  0.00000000000E+00  0.00000000000E+00  0.55096221774E+03  0.55096221777E+03  0.50400001928E-02 0. -1.
       -1   -1    0    0    0  501  0.00000000000E+00  0.00000000000E+00 -0.16700728222E+04  0.16700728222E+04  0.50400001928E-02 0.  1.
    10030    2    1    2    0    0  0.00000000000E+00  0.00000000000E+00 -0.11191106044E+04  0.22210350399E+04  0.19184858883E+04 0.  0.
        5    1    3    3  502    0  0.53815591277E+02 -0.94964112967E+03 -0.70327151718E+03  0.11829316590E+04  0.46999998093E+01 0.  1.
       -5    1    3    3    0  502 -0.53815591277E+02  0.94964112967E+03 -0.41583908725E+03  0.10381033809E+04  0.46999998093E+01 0. -1.
</event>
<event>
 5   0  0.2888776E-05  0.1901174E+04  0.7818609E-02  0.8654272E-01
        2   -1    0    0  501    0  0.00000000000E+00  0.00000000000E+00  0.12756553966E+04  0.12756553967E+04  0.25500000920E-02 0.  1.
       -2   -1    0    0    0  501  0.00000000000E+00  0.00000000000E+00 -0.70835421181E+03  0.70835421181E+03  0.25500000920E-02 0. -1.
    10030    2    1    2    0    0  0.00000000000E+00  0.00000000000E+00  0.56730118484E+03  0.19840096085E+04  0.19011742403E+04 0.  0.
        3    1    3    3  502    0 -0.85393459379E+03 -0.38788562881E+03  0.44517264466E+03  0.10381898888E+04  0.10100000352E+00 0. -1.
       -3    1    3    3    0  502  0.85393459379E+03  0.38788562881E+03  0.12212854018E+03  0.94581971963E+03  0.10100000352E+00 0.  1.
</event>
<event>
 5   0  0.2813537E-05  0.1893581E+04  0.7818609E-02  0.8658058E-01
        2   -1    0    0  501    0  0.00000000000E+00  0.00000000000E+00  0.72861150308E+03  0.72861150309E+03  0.25500000920E-02 0.  1.
       -2   -1    0    0    0  501  0.00000000000E+00  0.00000000000E+00 -0.12303025928E+04  0.12303025928E+04  0.25500000920E-02 0. -1.
    10030    2    1    2    0    0  0.00000000000E+00  0.00000000000E+00 -0.50169108968E+03  0.19589140959E+04  0.18935813913E+04 0.  0.
        2    1    3    3  502    0 -0.46705129756E+03 -0.46036477634E+03 -0.95729767493E+03  0.11603841951E+04  0.25500000920E-02 0. -1.
       -2    1    3    3    0  502  0.46705129756E+03  0.46036477634E+03  0.45560658525E+03  0.79852990074E+03  0.25500000920E-02 0.  1.
</event>
<event>
 5   0  0.1344119E-05  0.1899789E+04  0.7818609E-02  0.8654961E-01
       -1   -1    0    0    0  501  0.00000000000E+00  0.00000000000E+00  0.70735671718E+03  0.70735671720E+03  0.50400001928E-02 0.  1.
        1   -1    0    0  501    0  0.00000000000E+00  0.00000000000E+00 -0.12755936183E+04  0.12755936183E+04  0.50400001928E-02 0. -1.
    10030    2    1    2    0    0  0.00000000000E+00  0.00000000000E+00 -0.56823690108E+03  0.19829503355E+04  0.18997891612E+04 0.  0.
        2    1    3    3  502    0 -0.44859323998E+02  0.72556049732E+03  0.35407850641E+03  0.80859259392E+03  0.25500000920E-02 0.  1.
       -2    1    3    3    0  502  0.44859323998E+02 -0.72556049732E+03 -0.92231540749E+03  0.11743577415E+04  0.25500000920E-02 0. -1.
</event>
<event>
 5   0  0.1344119E-05  0.1900528E+04  0.7818609E-02  0.8654593E-01
       -1   -1    0    0    0  501  0.00000000000E+00  0.00000000000E+00  0.83484740721E+03  0.83484740723E+03  0.50400001928E-02 0. -1.
        1   -1    0    0  501    0  0.00000000000E+00  0.00000000000E+00 -0.10816373201E+04  0.10816373201E+04  0.50400001928E-02 0.  1.
    10030    2    1    2    0    0  0.00000000000E+00  0.00000000000E+00 -0.24678991291E+03  0.19164847274E+04  0.19005284657E+04 0.  0.
        2    1    3    3  502    0  0.23623728396E+03  0.46413177095E+03 -0.92491144758E+03  0.10614553881E+04  0.25500000920E-02 0.  1.
       -2    1    3    3    0  502 -0.23623728396E+03 -0.46413177095E+03  0.67812153467E+03  0.85502933922E+03  0.25500000920E-02 0. -1.
</event>
<event>
 5   0  0.2855141E-05  0.1898827E+04  0.7818609E-02  0.8655440E-01
        2   -1    0    0  501    0  0.00000000000E+00  0.00000000000E+00  0.15912366898E+04  0.15912366898E+04  0.25500000920E-02 0.  1.
       -2   -1    0    0    0  501  0.00000000000E+00  0.00000000000E+00 -0.56646883057E+03  0.56646883057E+03  0.25500000920E-02 0. -1.
    10030    2    1    2    0    0  0.00000000000E+00  0.00000000000E+00  0.10247678592E+04  0.21577055204E+04  0.18988269925E+04 0.  0.
        1    1    3    3  502    0  0.17480121176E+03  0.23349727699E+03 -0.51429396952E+03  0.59124844955E+03  0.50400001928E-02 0. -1.
       -1    1    3    3    0  502 -0.17480121176E+03 -0.23349727699E+03  0.15390618288E+04  0.15664570708E+04  0.50400001928E-02 0.  1.
</event>
<event>
 5   0  0.1429067E-05  0.1901271E+04  0.7818609E-02  0.8654224E-01
        1   -1    0    0  501    0  0.00000000000E+00  0.00000000000E+00  0.53754314807E+03  0.53754314809E+03  0.50400001928E-02 0. -1.
       -1   -1    0    0    0  501  0.00000000000E+00  0.00000000000E+00 -0.16811818819E+04  0.16811818819E+04  0.50400001928E-02 0.  1.
    10030    2    1    2    0    0  0.00000000000E+00  0.00000000000E+00 -0.11436387338E+04  0.22187250300E+04  0.19012709447E+04 0.  0.
        3    1    3    3  502    0 -0.10362064692E+03 -0.82271202940E+03 -0.29316049042E+02  0.82972993360E+03  0.10100000352E+00 0.  1.
       -3    1    3    3    0  502  0.10362064692E+03  0.82271202940E+03 -0.11143226848E+04  0.13889950964E+04  0.10100000352E+00 0. -1.
</event>
<event>
 5   0  0.2855141E-05  0.1900747E+04  0.7818609E-02  0.8654484E-01
        2   -1    0    0  501    0  0.00000000000E+00  0.00000000000E+00  0.69793625128E+03  0.69793625128E+03  0.25500000920E-02 0.  1.
       -2   -1    0    0    0  501  0.00000000000E+00  0.00000000000E+00 -0.12941154289E+04  0.12941154289E+04  0.25500000920E-02 0. -1.
    10030    2    1    2    0    0  0.00000000000E+00  0.00000000000E+00 -0.59617917765E+03  0.19920516802E+04  0.19007472964E+04 0.  0.
        1    1    3    3  502    0 -0.86645458685E+03  0.31539300475E+03 -0.56827747021E+02  0.92382124427E+03  0.50400001928E-02 0.  1.
       -1    1    3    3    0  502  0.86645458685E+03 -0.31539300475E+03 -0.53935143063E+03  0.10682304359E+04  0.50400001928E-02 0. -1.
</event>
<event>
 5   0  0.1344119E-05  0.1901332E+04  0.7818609E-02  0.8654193E-01
        1   -1    0    0  501    0  0.00000000000E+00  0.00000000000E+00  0.58256384528E+03  0.58256384530E+03  0.50400001928E-02 0. -1.
       -1   -1    0    0    0  501  0.00000000000E+00  0.00000000000E+00 -0.15513600935E+04  0.15513600935E+04  0.50400001928E-02 0.  1.
    10030    2    1    2    0    0  0.00000000000E+00  0.00000000000E+00 -0.96879624817E+03  0.21339239388E+04  0.19013324817E+04 0.  0.
        2    1    3    3  502    0  0.72179798222E+03 -0.52198713955E+03 -0.11165012701E+03  0.89773529053E+03  0.25500000920E-02 0. -1.
       -2    1    3    3    0  502 -0.72179798222E+03  0.52198713955E+03 -0.85714612117E+03  0.12361886482E+04  0.25500000920E-02 0.  1.
</event>
<event>
 5   0  0.1471485E-05  0.1902990E+04  0.7818609E-02  0.8653370E-01
        1   -1    0    0  501    0  0.00000000000E+00  0.00000000000E+00  0.11753453689E+04  0.11753453689E+04  0.50400001928E-02 0. -1.
       -1   -1    0    0    0  501  0.00000000000E+00  0.00000000000E+00 -0.77027770548E+03  0.77027770550E+03  0.50400001928E-02 0.  1.
    10030    2    1    2    0    0  0.00000000000E+00  0.00000000000E+00  0.40506766339E+03  0.19456230744E+04  0.19029895784E+04 0.  0.
        4    1    3    3  502    0  0.74717230811E+03  0.52783791059E+03  0.47004701927E+03  0.10285062621E+04  0.12699999809E+01 0. -1.
       -4    1    3    3    0  502 -0.74717230811E+03 -0.52783791059E+03 -0.64979355878E+02  0.91711681233E+03  0.12699999809E+01 0.  1.
</event>
<event>
 5   0  0.2879462E-05  0.1900516E+04  0.7818609E-02  0.8654600E-01
       -2   -1    0    0    0  501  0.00000000000E+00  0.00000000000E+00  0.77658831485E+03  0.77658831485E+03  0.25500000920E-02 0.  1.
        2   -1    0    0  501    0  0.00000000000E+00  0.00000000000E+00 -0.11627658096E+04  0.11627658096E+04  0.25500000920E-02 0. -1.
    10030    2    1    2    0    0  0.00000000000E+00  0.00000000000E+00 -0.38617749478E+03  0.19393541245E+04  0.19005160780E+04 0.  0.
        4    1    3    3  502    0 -0.41375712446E+01 -0.79942719885E+02  0.77314072409E+03  0.77727482277E+03  0.12699999809E+01 0.  1.
       -4    1    3    3    0  502  0.41375712446E+01  0.79942719885E+02 -0.11593182189E+04  0.11620793017E+04  0.12699999809E+01 0. -1.
</event>
<event>
 5   0  0.2813537E-05  0.1899853E+04  0.7818609E-02  0.8654930E-01
       -2   -1    0    0    0  501  0.00000000000E+00  0.00000000000E+00  0.85255465164E+03  0.85255465164E+03  0.25500000920E-02 0. -1.
        2   -1    0    0  501    0  0.00000000000E+00  0.00000000000E+00 -0.10584191076E+04  0.10584191076E+04  0.25500000920E-02 0.  1.
    10030    2    1    2    0    0  0.00000000000E+00  0.00000000000E+00 -0.20586445601E+03  0.19109737593E+04  0.18998527665E+04 0.  0.
        2    1    3    3  502    0  0.17883247179E+03  0.85386534171E+03 -0.48102222853E+03  0.99621757618E+03  0.25500000920E-02 0.  1.
       -2    1    3    3    0  502 -0.17883247179E+03 -0.85386534171E+03  0.27515777252E+03  0.91475618311E+03  0.25500000920E-02 0. -1.
</event>
<event>
 5   0  0.1327254E-05  0.1899162E+04  0.7818609E-02  0.8655274E-01
       -1   -1    0    0    0  501  0.00000000000E+00  0.00000000000E+00  0.90490023635E+03  0.90490023636E+03  0.50400001928E-02 0.  1.
        1   -1    0    0  501    0  0.00000000000E+00  0.00000000000E+00 -0.99646744633E+03  0.99646744634E+03  0.50400001928E-02 0. -1.
    10030    2    1    2    0    0  0.00000000000E+00  0.00000000000E+00 -0.91567209980E+02  0.19013676827E+04  0.18991615284E+04 0.  0.
        5    1    3    3  502    0 -0.32828918293E+03 -0.67368507763E+03 -0.62960436108E+03  0.97879983293E+03  0.46999998093E+01 0. -1.
       -5    1    3    3    0  502  0.32828918293E+03  0.67368507763E+03  0.53803715110E+03  0.92256784977E+03  0.46999998093E+01 0.  1.
</event>
<event>
 5   0  0.2789718E-05  0.1897895E+04  0.7818609E-02  0.8655905E-01
        2   -1    0    0  501    0  0.00000000000E+00  0.00000000000E+00  0.15117316545E+04  0.15117316545E+04  0.25500000920E-02 0.  1.
       -2   -1    0    0    0  501  0.00000000000E+00  0.00000000000E+00 -0.59567533210E+03  0.59567533211E+03  0.25500000920E-02 0. -1.
    10030    2    1    2    0    0  0.00000000000E+00  0.00000000000E+00  0.91605632242E+03  0.21074069866E+04  0.18978948921E+04 0.  0.
        5    1    3    3  502    0 -0.49608694470E+03 -0.78639817877E+03  0.24747838879E+03  0.96218085368E+03  0.46999998093E+01 0.  1.
       -5    1    3    3    0  502  0.49608694470E+03  0.78639817877E+03  0.66857793363E+03  0.11452261330E+04  0.46999998093E+01 0. -1.
</event>
<event>
 5   0  0.2813537E-05  0.1897515E+04  0.7818609E-02  0.8656094E-01
        2   -1    0    0  501    0  0.00000000000E+00  0.00000000000E+00  0.48140819587E+03  0.48140819587E+03  0.25500000920E-02 0.  1.
       -2   -1    0    0    0  501  0.00000000000E+00  0.00000000000E+00 -0.18698086202E+04  0.18698086202E+04  0.25500000920E-02 0. -1.
    10030    2    1    2    0    0  0.00000000000E+00  0.00000000000E+00 -0.13884004243E+04  0.23512168161E+04  0.18975154223E+04 0.  0.
        2    1    3    3  502    0 -0.85171673883E+03 -0.41445026578E+03 -0.62689093420E+03  0.11358620820E+04  0.25500000920E-02 0. -1.
       -2    1    3    3    0  502  0.85171673883E+03  0.41445026578E+03 -0.76150949014E+03  0.12153547341E+04  0.25500000920E-02 0.  1.
</event>
<event>
 5   0  0.1010725E-05  0.1901037E+04  0.7818609E-02  0.8654341E-01
        4   -1    0    0  501    0  0.00000000000E+00  0.00000000000E+00  0.91472002721E+03  0.91472090885E+03  0.12699999809E+01 0. -1.
       -4   -1    0    0    0  501  0.00000000000E+00  0.00000000000E+00 -0.98771571497E+03  0.98771653145E+03  0.12699999809E+01 0.  1.
    10030    2    1    2    0    0  0.00000000000E+00  0.00000000000E+00 -0.72995687754E+02  0.19024374403E+04  0.19010365183E+04 0.  0.
        5    1    3    3  502    0  0.69484070075E+03 -0.52837977205E+03 -0.41290543750E+03  0.96566131394E+03  0.46999998093E+01 0. -1.
       -5    1    3    3    0  502 -0.69484070075E+03  0.52837977205E+03  0.33990974975E+03  0.93677612635E+03  0.46999998093E+01 0.  1.
</event>
<event>
 5   0  0.1429067E-05  0.1898576E+04  0.7818609E-02  0.8655566E-01
       -1   -1    0    0    0  501  0.00000000000E+00  0.00000000000E+00  0.62416876842E+03  0.62416876844E+03  0.50400001928E-02 0. -1.
        1   -1    0    0  501    0  0.00000000000E+00  0.00000000000E+00 -0.14437560814E+04  0.14437560814E+04  0.50400001928E-02 0.  1.
    10030    2    1    2    0    0  0.00000000000E+00  0.00000000000E+00 -0.81958731300E+03  0.20679248499E+04  0.18985757349E+04 0.  0.
        3    1    3    3  502    0  0.67043497725E+02 -0.73679818967E+03 -0.10576431217E+04  0.12907266891E+04  0.10100000352E+00 0.  1.
       -3    1    3    3    0  502 -0.67043497725E+02  0.73679818967E+03  0.23805580867E+03  0.77719816079E+03  0.10100000352E+00 0. -1.
</event>
<event>
 5   0  0.2855141E-05  0.1899580E+04  0.7818609E-02  0.8655065E-01
       -2   -1    0    0    0  501  0.00000000000E+00  0.00000000000E+00  0.46744548961E+03  0.46744548962E+03  0.25500000920E-02 0. -1.
        2   -1    0    0  501    0  0.00000000000E+00  0.00000000000E+00 -0.19298538189E+04  0.19298538189E+04  0.25500000920E-02 0.  1.
    10030    2    1    2    0    0  0.00000000000E+00  0.00000000000E+00 -0.14624083293E+04  0.23972993085E+04  0.18995804413E+04 0.  0.
        1    1    3    3  502    0 -0.34237061378E+03 -0.99469844780E+02  0.37979185080E+03  0.52091624774E+03  0.50400001928E-02 0. -1.
       -1    1    3    3    0  502  0.34237061378E+03  0.99469844780E+02 -0.18422001801E+04  0.18763830608E+04  0.50400001928E-02 0.  1.
</event>
<event>
 5   0  0.1429067E-05  0.1899843E+04  0.7818609E-02  0.8654935E-01
        1   -1    0    0  501    0  0.00000000000E+00  0.00000000000E+00  0.12273213243E+04  0.12273213243E+04  0.50400001928E-02 0. -1.
       -1   -1    0    0    0  501  0.00000000000E+00  0.00000000000E+00 -0.73521958830E+03  0.73521958831E+03  0.50400001928E-02 0.  1.
    10030    2    1    2    0    0  0.00000000000E+00  0.00000000000E+00  0.49210173599E+03  0.19625409126E+04  0.18998428133E+04 0.  0.
        3    1    3    3  502    0  0.68479247136E+02 -0.43992561618E+03  0.11128659504E+04  0.11986219541E+04  0.10100000352E+00 0. -1.
       -3    1    3    3    0  502 -0.68479247136E+02  0.43992561618E+03 -0.62076421443E+03  0.76391895851E+03  0.10100000352E+00 0.  1.
</event>
<event>
 5   0  0.2813537E-05  0.1898189E+04  0.7818609E-02  0.8655758E-01
       -2   -1    0    0    0  501  0.00000000000E+00  0.00000000000E+00  0.91377643806E+03  0.91377643806E+03  0.25500000920E-02 0.  1.
        2   -1    0    0  501    0  0.00000000000E+00  0.00000000000E+00 -0.98577751947E+03  0.98577751947E+03  0.25500000920E-02 0. -1.
    10030    2    1    2    0    0  0.00000000000E+00  0.00000000000E+00 -0.72001081413E+02  0.18995539575E+04  0.18981888952E+04 0.  0.
        2    1    3    3  502    0 -0.57066481967E+03 -0.74169875030E+03  0.12224254700E+03  0.94377890043E+03  0.25500000920E-02 0. -1.
       -2    1    3    3    0  502  0.57066481967E+03  0.74169875030E+03 -0.19424362841E+03  0.95577505710E+03  0.25500000920E-02 0.  1.
</event>
<event>
 5   0  0.2888776E-05  0.1899927E+04  0.7818609E-02  0.8654893E-01
        2   -1    0    0  501    0  0.00000000000E+00  0.00000000000E+00  0.18128425732E+04  0.18128425732E+04  0.25500000920E-02 0.  1.
       -2   -1    0    0    0  501  0.00000000000E+00  0.00000000000E+00 -0.49779888369E+03  0.49779888369E+03  0.25500000920E-02 0. -1.
    10030    2    1    2    0    0  0.00000000000E+00  0.00000000000E+00  0.13150436895E+04  0.23106414568E+04  0.18999273767E+04 0.  0.
        3    1    3    3  502    0  0.11976019947E+03  0.38881710232E+03  0.17015271679E+04  0.17494901994E+04  0.10100000352E+00 0.  1.
       -3    1    3    3    0  502 -0.11976019947E+03 -0.38881710232E+03 -0.38648347844E+03  0.56115125746E+03  0.10100000352E+00 0. -1.
</event>
<event>
 5   0  0.2855141E-05  0.1890639E+04  0.7818609E-02  0.8659530E-01
        2   -1    0    0  501    0  0.00000000000E+00  0.00000000000E+00  0.11495258498E+04  0.11495258498E+04  0.25500000920E-02 0. -1.
       -2   -1    0    0    0  501  0.00000000000E+00  0.00000000000E+00 -0.77738896254E+03  0.77738896254E+03  0.25500000920E-02 0.  1.
    10030    2    1    2    0    0  0.00000000000E+00  0.00000000000E+00  0.37213688727E+03  0.19269148123E+04  0.18906387363E+04 0.  0.
        1    1    3    3  502    0  0.54808364202E+03  0.72530924782E+03 -0.78055497307E+02  0.91244826939E+03  0.50400001928E-02 0. -1.
       -1    1    3    3    0  502 -0.54808364202E+03 -0.72530924782E+03  0.45019238457E+03  0.10144665430E+04  0.50400001928E-02 0.  1.
</event>
<event>
 5   0  0.2789718E-05  0.1904488E+04  0.7818609E-02  0.8652626E-01
        2   -1    0    0  501    0  0.00000000000E+00  0.00000000000E+00  0.10846976551E+04  0.10846976551E+04  0.25500000920E-02 0.  1.
       -2   -1    0    0    0  501  0.00000000000E+00  0.00000000000E+00 -0.83596456006E+03  0.83596456006E+03  0.25500000920E-02 0. -1.
    10030    2    1    2    0    0  0.00000000000E+00  0.00000000000E+00  0.24873309502E+03  0.19206622151E+04  0.19044881706E+04 0.  0.
        5    1    3    3  502    0  0.48494213586E+03  0.22683927210E+03 -0.66979929667E+03  0.85748359653E+03  0.46999998093E+01 0. -1.
       -5    1    3    3    0  502 -0.48494213586E+03 -0.22683927210E+03  0.91853239169E+03  0.10631786186E+04  0.46999998093E+01 0.  1.
</event>
<event>
 5   0  0.1471485E-05  0.1903815E+04  0.7818609E-02  0.8652960E-01
        1   -1    0    0  501    0  0.00000000000E+00  0.00000000000E+00  0.14157188425E+04  0.14157188425E+04  0.50400001928E-02 0.  1.
       -1   -1    0    0    0  501  0.00000000000E+00  0.00000000000E+00 -0.64004804651E+03  0.64004804653E+03  0.50400001928E-02 0. -1.
    10030    2    1    2    0    0  0.00000000000E+00  0.00000000000E+00  0.77567079598E+03  0.20557668890E+04  0.19038152007E+04 0.  0.
        4    1    3    3  502    0  0.25948961790E+03  0.36843009888E+03 -0.51756868975E+03  0.68626129213E+03  0.12699999809E+01 0. -1.
       -4    1    3    3    0  502 -0.25948961790E+03 -0.36843009888E+03  0.12932394857E+04  0.13695055969E+04  0.12699999809E+01 0.  1.
</event>
<event>
 5   0  0.1327254E-05  0.1898798E+04  0.7818609E-02  0.8655455E-01
       -1   -1    0    0    0  501  0.00000000000E+00  0.00000000000E+00  0.85336002511E+03  0.85336002513E+03  0.50400001928E-02 0. -1.
        1   -1    0    0  501    0  0.00000000000E+00  0.00000000000E+00 -0.10562465109E+04  0.10562465109E+04  0.50400001928E-02 0.  1.
    10030    2    1    2    0    0  0.00000000000E+00  0.00000000000E+00 -0.20288648577E+03  0.19096065360E+04  0.18987980926E+04 0.  0.
        5    1    3    3  502    0  0.14039797174E+03  0.30151783002E+03  0.79283823118E+03  0.85979017388E+03  0.46999998093E+01 0. -1.
       -5    1    3    3    0  502 -0.14039797174E+03 -0.30151783002E+03 -0.99572471694E+03  0.10498163621E+04  0.46999998093E+01 0.  1.
</event>
<event>
 5   0  0.2879462E-05  0.1904324E+04  0.7818609E-02  0.8652707E-01
        2   -1    0    0  501    0  0.00000000000E+00  0.00000000000E+00  0.22654733121E+04  0.22654733121E+04  0.25500000920E-02 0. -1.
       -2   -1    0    0    0  501  0.00000000000E+00  0.00000000000E+00 -0.40018692811E+03  0.40018692812E+03  0.25500000920E-02 0.  1.
    10030    2    1    2    0    0  0.00000000000E+00  0.00000000000E+00  0.18652863840E+04  0.26656602402E+04  0.19043243479E+04 0.  0.
        4    1    3    3  502    0 -0.26918192916E+03 -0.20009593413E+03 -0.31475546673E+03  0.45996729294E+03  0.12699999809E+01 0.  1.
       -4    1    3    3    0  502  0.26918192916E+03  0.20009593413E+03  0.21800418507E+04  0.22056929473E+04  0.12699999809E+01 0. -1.
</event>
<event>
 5   0  0.1471485E-05  0.1888179E+04  0.7818609E-02  0.8660763E-01
        1   -1    0    0  501    0  0.00000000000E+00  0.00000000000E+00  0.12496050590E+04  0.12496050591E+04  0.50400001928E-02 0. -1.
       -1   -1    0    0    0  501  0.00000000000E+00  0.00000000000E+00 -0.71326899758E+03  0.71326899759E+03  0.50400001928E-02 0.  1.
    10030    2    1    2    0    0  0.00000000000E+00  0.00000000000E+00  0.53633606146E+03  0.19628740566E+04  0.18881785380E+04 0.  0.
        4    1    3    3  502    0  0.53338132263E+03  0.21405526390E+03 -0.51045281336E+03  0.76868652837E+03  0.12699999809E+01 0.  1.
       -4    1    3    3    0  502 -0.53338132263E+03 -0.21405526390E+03  0.10467888748E+04  0.11941875283E+04  0.12699999809E+01 0. -1.
</event>
<event>
 5   0  0.1429067E-05  0.1898761E+04  0.7818609E-02  0.8655474E-01
       -1   -1    0    0    0  501  0.00000000000E+00  0.00000000000E+00  0.78698232188E+03  0.78698232190E+03  0.50400001928E-02 0. -1.
        1   -1    0    0  501    0  0.00000000000E+00  0.00000000000E+00 -0.11452899965E+04  0.11452899965E+04  0.50400001928E-02 0.  1.
    10030    2    1    2    0    0  0.00000000000E+00  0.00000000000E+00 -0.35830767463E+03  0.19322723184E+04  0.18987606281E+04 0.  0.
        3    1    3    3  502    0  0.86919254944E+03  0.30952531093E+03 -0.40675573627E+03  0.10083411354E+04  0.10100000352E+00 0.  1.
       -3    1    3    3    0  502 -0.86919254944E+03 -0.30952531093E+03  0.48448061645E+02  0.92393118304E+03  0.10100000352E+00 0. -1.
</event>
<event>
 5   0  0.2855141E-05  0.1898447E+04  0.7818609E-02  0.8655630E-01
       -2   -1    0    0    0  501  0.00000000000E+00  0.00000000000E+00  0.85767970633E+03  0.85767970634E+03  0.25500000920E-02 0. -1.
        2   -1    0    0  501    0  0.00000000000E+00  0.00000000000E+00 -0.10505382288E+04  0.10505382288E+04  0.25500000920E-02 0.  1.
    10030    2    1    2    0    0  0.00000000000E+00  0.00000000000E+00 -0.19285852243E+03  0.19082179351E+04  0.18984470702E+04 0.  0.
        1    1    3    3  502    0  0.57015877224E+03 -0.73312779924E+03 -0.29357112337E+03  0.97403357236E+03  0.50400001928E-02 0.  1.
       -1    1    3    3    0  502 -0.57015877224E+03  0.73312779924E+03  0.10071260094E+03  0.93418436275E+03  0.50400001928E-02 0. -1.
</event>
<event>
 5   0  0.1327254E-05  0.1894763E+04  0.7818609E-02  0.8657468E-01
       -1   -1    0    0    0  501  0.00000000000E+00  0.00000000000E+00  0.15334933279E+04  0.15334933279E+04  0.50400001928E-02 0. -1.
        1   -1    0    0  501    0  0.00000000000E+00  0.00000000000E+00 -0.58528543149E+03  0.58528543151E+03  0.50400001928E-02 0.  1.
    10030    2    1    2    0    0  0.00000000000E+00  0.00000000000E+00  0.94820789645E+03  0.21187787595E+04  0.18947625753E+04 0.  0.
        5    1    3    3  502    0 -0.49605293607E+01 -0.85130462088E+03  0.93889606902E+03  0.12673957878E+04  0.46999998093E+01 0. -1.
       -5    1    3    3    0  502  0.49605293607E+01  0.85130462088E+03  0.93118274246E+01  0.85138297171E+03  0.46999998093E+01 0.  1.
</event>
<event>
 5   0  0.2879462E-05  0.1892203E+04  0.7818609E-02  0.8658747E-01
        2   -1    0    0  501    0  0.00000000000E+00  0.00000000000E+00  0.73453894936E+03  0.73453894937E+03  0.25500000920E-02 0.  1.
       -2   -1    0    0    0  501  0.00000000000E+00  0.00000000000E+00 -0.12185980104E+04  0.12185980104E+04  0.25500000920E-02 0. -1.
    10030    2    1    2    0    0  0.00000000000E+00  0.00000000000E+00 -0.48405906101E+03  0.19531369597E+04  0.18922026342E+04 0.  0.
        4    1    3    3  502    0 -0.55763051353E+01  0.68986380592E+03 -0.91030648686E+03  0.11421920499E+04  0.12699999809E+01 0. -1.
       -4    1    3    3    0  502  0.55763051353E+01 -0.68986380592E+03  0.42624742584E+03  0.81094490986E+03  0.12699999809E+01 0.  1.
</event>
<event>
 5   0  0.2855141E-05  0.1902536E+04  0.7818609E-02  0.8653595E-01
        2   -1    0    0  501    0  0.00000000000E+00  0.00000000000E+00  0.62438283538E+03  0.62438283539E+03  0.25500000920E-02 0. -1.
       -2   -1    0    0    0  501  0.00000000000E+00  0.00000000000E+00 -0.14492878300E+04  0.14492878300E+04  0.25500000920E-02 0.  1.
    10030    2    1    2    0    0  0.00000000000E+00  0.00000000000E+00 -0.82490499462E+03  0.20736706654E+04  0.19025356182E+04 0.  0.
        1    1    3    3  502    0  0.36068959457E+03 -0.29508324667E+03  0.49144445326E+03  0.67726564711E+03  0.50400001928E-02 0. -1.
       -1    1    3    3    0  502 -0.36068959457E+03  0.29508324667E+03 -0.13163494479E+04  0.13964050183E+04  0.50400001928E-02 0.  1.
</event>
<event>
 5   0  0.2888776E-05  0.1897146E+04  0.7818609E-02  0.8656278E-01
       -2   -1    0    0    0  501  0.00000000000E+00  0.00000000000E+00  0.42870838453E+03  0.42870838454E+03  0.25500000920E-02 0.  1.
        2   -1    0    0  501    0  0.00000000000E+00  0.00000000000E+00 -0.20988406561E+04  0.20988406561E+04  0.25500000920E-02 0. -1.
    10030    2    1    2    0    0  0.00000000000E+00  0.00000000000E+00 -0.16701322716E+04  0.25275490407E+04  0.18971458427E+04 0.  0.
        3    1    3    3  502    0 -0.74012869218E+03 -0.98536433580E+02 -0.55601526711E+02  0.74872655202E+03  0.10100000352E+00 0.  1.
       -3    1    3    3    0  502  0.74012869218E+03  0.98536433580E+02 -0.16145307449E+04  0.17788224886E+04  0.10100000352E+00 0. -1.
</event>
<event>
 5   0  0.2813537E-05  0.1897959E+04  0.7818609E-02  0.8655873E-01
        2   -1    0    0  501    0  0.00000000000E+00  0.00000000000E+00  0.11638089053E+04  0.11638089053E+04  0.25500000920E-02 0. -1.
       -2   -1    0    0    0  501  0.00000000000E+00  0.00000000000E+00 -0.77380575836E+03  0.77380575836E+03  0.25500000920E-02 0.  1.
    10030    2    1    2    0    0  0.00000000000E+00  0.00000000000E+00  0.39000314693E+03  0.19376146637E+04  0.18979589380E+04 0.  0.
        2    1    3    3  502    0  0.40941579918E+03  0.24842732308E+03  0.10314025533E+04  0.11371581502E+04  0.25500000920E-02 0. -1.
       -2    1    3    3    0  502 -0.40941579918E+03 -0.24842732308E+03 -0.64139940639E+03  0.80045651349E+03  0.25500000920E-02 0.  1.
</event>
<event>
 5   0  0.2855141E-05  0.1899042E+04  0.7818609E-02  0.8655334E-01
       -2   -1    0    0    0  501  0.00000000000E+00  0.00000000000E+00  0.73701400471E+03  0.73701400471E+03  0.25500000920E-02 0. -1.
        2   -1    0    0  501    0  0.00000000000E+00  0.00000000000E+00 -0.12233006532E+04  0.12233006532E+04  0.25500000920E-02 0.  1.
    10030    2    1    2    0    0  0.00000000000E+00  0.00000000000E+00 -0.48628664847E+03  0.19603146579E+04  0.18990415618E+04 0.  0.
        1    1    3    3  502    0  0.81806349460E+03  0.18922181021E+03 -0.70079547466E+03  0.10936850881E+04  0.50400001928E-02 0.  1.
       -1    1    3    3    0  502 -0.81806349460E+03 -0.18922181021E+03  0.21450882619E+03  0.86662956977E+03  0.50400001928E-02 0. -1.
</event>
<event>
 5   0  0.2789718E-05  0.1899994E+04  0.7818609E-02  0.8654859E-01
        2   -1    0    0  501    0  0.00000000000E+00  0.00000000000E+00  0.28203752411E+04  0.28203752411E+04  0.25500000920E-02 0. -1.
       -2   -1    0    0    0  501  0.00000000000E+00  0.00000000000E+00 -0.31999084067E+03  0.31999084068E+03  0.25500000920E-02 0.  1.
    10030    2    1    2    0    0  0.00000000000E+00  0.00000000000E+00  0.25003844004E+04  0.31403660818E+04  0.18999939415E+04 0.  0.
        5    1    3    3  502    0  0.82331274472E+03  0.36787100903E+03  0.75627762199E+03  0.11769243333E+04  0.46999998093E+01 0. -1.
       -5    1    3    3    0  502 -0.82331274472E+03 -0.36787100903E+03  0.17441067784E+04  0.19634417484E+04  0.46999998093E+01 0.  1.
</event>
<event>
 5   0  0.2813537E-05  0.1899128E+04  0.7818609E-02  0.8655290E-01
        2   -1    0    0  501    0  0.00000000000E+00  0.00000000000E+00  0.12423872337E+04  0.12423872337E+04  0.25500000920E-02 0. -1.
       -2   -1    0    0    0  501  0.00000000000E+00  0.00000000000E+00 -0.72575783098E+03  0.72575783098E+03  0.25500000920E-02 0.  1.
    10030    2    1    2    0    0  0.00000000000E+00  0.00000000000E+00  0.51662940273E+03  0.19681450647E+04  0.18991284991E+04 0.  0.
        2    1    3    3  502    0  0.70167777708E+03  0.16461692305E+03 -0.38239381705E+03  0.81588937089E+03  0.25500000920E-02 0.  1.
       -2    1    3    3    0  502 -0.70167777708E+03 -0.16461692305E+03  0.89902321978E+03  0.11522556938E+04  0.25500000920E-02 0. -1.
</event>
<event>
 5   0  0.1429067E-05  0.1902481E+04  0.7818609E-02  0.8653622E-01
       -1   -1    0    0    0  501  0.00000000000E+00  0.00000000000E+00  0.72491600846E+03  0.72491600847E+03  0.50400001928E-02 0. -1.
        1   -1    0    0  501    0  0.00000000000E+00  0.00000000000E+00 -0.12482251352E+04  0.12482251352E+04  0.50400001928E-02 0.  1.
    10030    2    1    2    0    0  0.00000000000E+00  0.00000000000E+00 -0.52330912674E+03  0.19731411437E+04  0.19024808884E+04 0.  0.
        3    1    3    3  502    0  0.36665677353E+03  0.32153935546E+02  0.64807091608E+03  0.74529657695E+03  0.10100000352E+00 0. -1.
       -3    1    3    3    0  502 -0.36665677353E+03 -0.32153935546E+02 -0.11713800428E+04  0.12278445667E+04  0.10100000352E+00 0.  1.
</event>
<event>
 5   0  0.1413011E-05  0.1900338E+04  0.7818609E-02  0.8654688E-01
        1   -1    0    0  501    0  0.00000000000E+00  0.00000000000E+00  0.58908725671E+03  0.58908725673E+03  0.50400001928E-02 0.  1.
       -1   -1    0    0    0  501  0.00000000000E+00  0.00000000000E+00 -0.15325761954E+04  0.15325761954E+04  0.50400001928E-02 0. -1.
    10030    2    1    2    0    0  0.00000000000E+00  0.00000000000E+00 -0.94348893867E+03  0.21216634521E+04  0.19003379770E+04 0.  0.
        1    1    3    3  502    0 -0.31762887327E+03  0.86007243799E+03 -0.19327974458E+03  0.93700040524E+03  0.50400001928E-02 0.  1.
       -1    1    3    3    0  502  0.31762887327E+03 -0.86007243799E+03 -0.75020919409E+03  0.11846630469E+04  0.50400001928E-02 0. -1.
</event>
<event>
 5   0  0.2813537E-05  0.1896981E+04  0.7818609E-02  0.8656361E-01
       -2   -1    0    0    0  501  0.00000000000E+00  0.00000000000E+00  0.56870772285E+03  0.56870772286E+03  0.25500000920E-02 0. -1.
        2   -1    0    0  501    0  0.00000000000E+00  0.00000000000E+00 -0.15818920591E+04  0.15818920591E+04  0.25500000920E-02 0.  1.
    10030    2    1    2    0    0  0.00000000000E+00  0.00000000000E+00 -0.10131843363E+04  0.21505997820E+04  0.18969810023E+04 0.  0.
        2    1    3    3  502    0 -0.50727074792E+03  0.22737830097E+03 -0.13778504384E+04  0.14857645622E+04  0.25500000920E-02 0.  1.
       -2    1    3    3    0  502  0.50727074792E+03 -0.22737830097E+03  0.36466610216E+03  0.66483521983E+03  0.25500000920E-02 0. -1.
</event>
<event>
 5   0  0.2789718E-05  0.1911500E+04  0.7818609E-02  0.8649153E-01
       -2   -1    0    0    0  501  0.00000000000E+00  0.00000000000E+00  0.90125556699E+03  0.90125556699E+03  0.25500000920E-02 0.  1.
        2   -1    0    0  501    0  0.00000000000E+00  0.00000000000E+00 -0.10135395925E+04  0.10135395925E+04  0.25500000920E-02 0. -1.
    10030    2    1    2    0    0  0.00000000000E+00  0.00000000000E+00 -0.11228402547E+03  0.19147951594E+04  0.19115001439E+04 0.  0.
        5    1    3    3  502    0  0.83737184775E+03  0.37765781139E+03 -0.32045111150E+03  0.97289672564E+03  0.46999998093E+01 0.  1.
       -5    1    3    3    0  502 -0.83737184775E+03 -0.37765781139E+03  0.20816708604E+03  0.94189843381E+03  0.46999998093E+01 0. -1.
</event>
<event>
 5   0  0.2789718E-05  0.1899128E+04  0.7818609E-02  0.8655291E-01
       -2   -1    0    0    0  501  0.00000000000E+00  0.00000000000E+00  0.12089890775E+04  0.12089890775E+04  0.25500000920E-02 0. -1.
        2   -1    0    0  501    0  0.00000000000E+00  0.00000000000E+00 -0.74580634521E+03  0.74580634521E+03  0.25500000920E-02 0.  1.
    10030    2    1    2    0    0  0.00000000000E+00  0.00000000000E+00  0.46318273230E+03  0.19547954227E+04  0.18991279318E+04 0.  0.
        5    1    3    3  502    0 -0.16283353211E+03  0.73319405832E+03  0.82962202468E+03  0.11190992271E+04  0.46999998093E+01 0. -1.
       -5    1    3    3    0  502  0.16283353211E+03 -0.73319405832E+03 -0.36643929238E+03  0.83569619559E+03  0.46999998093E+01 0.  1.
</event>
<event>
 5   0  0.1471485E-05  0.1899272E+04  0.7818609E-02  0.8655219E-01
        1   -1    0    0  501    0  0.00000000000E+00  0.00000000000E+00  0.53570319831E+03  0.53570319833E+03  0.50400001928E-02 0. -1.
       -1   -1    0    0    0  501  0.00000000000E+00  0.00000000000E+00 -0.16834106126E+04  0.16834106126E+04  0.50400001928E-02 0.  1.
    10030    2    1    2    0    0  0.00000000000E+00  0.00000000000E+00 -0.11477074143E+04  0.22191138109E+04  0.18992719124E+04 0.  0.
        4    1    3    3  502    0  0.78396188114E+03 -0.53558816125E+03 -0.55181060123E+03  0.10981563924E+04  0.12699999809E+01 0.  1.
       -4    1    3    3    0  502 -0.78396188114E+03  0.53558816125E+03 -0.59589681307E+03  0.11209574186E+04  0.12699999809E+01 0. -1.
</event>
<event>
 5   0  0.1010725E-05  0.1903922E+04  0.7818609E-02  0.8652907E-01
        3   -1    0    0  501    0  0.00000000000E+00  0.00000000000E+00  0.94394915149E+03  0.94394915690E+03  0.10100000352E+00 0. -1.
       -3   -1    0    0    0  501  0.00000000000E+00  0.00000000000E+00 -0.96004065447E+03  0.96004065978E+03  0.10100000352E+00 0.  1.
    10030    2    1    2    0    0  0.00000000000E+00  0.00000000000E+00 -0.16091502972E+02  0.19039898167E+04  0.19039218171E+04 0.  0.
        2    1    3    3  502    0 -0.63890406046E+02 -0.62478689110E+03 -0.72346554880E+03  0.95804125359E+03  0.25500000920E-02 0.  1.
       -2    1    3    3    0  502  0.63890406046E+02  0.62478689110E+03  0.70737404583E+03  0.94594856308E+03  0.25500000920E-02 0. -1.
</event>
<event>
 5   0  0.2855141E-05  0.1897072E+04  0.7818609E-02  0.8656315E-01
       -2   -1    0    0    0  501  0.00000000000E+00  0.00000000000E+00  0.44277973971E+03  0.44277973971E+03  0.25500000920E-02 0. -1.
        2   -1    0    0  501    0  0.00000000000E+00  0.00000000000E+00 -0.20319823645E+04  0.20319823645E+04  0.25500000920E-02 0.  1.
    10030    2    1    2    0    0  0.00000000000E+00  0.00000000000E+00 -0.15892026248E+04  0.24747621042E+04  0.18970720834E+04 0.  0.
        1    1    3    3  502    0 -0.55543290174E+03  0.18811966328E+03  0.17796453839E+03  0.61283447439E+03  0.50400001928E-02 0. -1.
       -1    1    3    3    0  502  0.55543290174E+03 -0.18811966328E+03 -0.17671671632E+04  0.18619276298E+04  0.50400001928E-02 0.  1.
</event>
<event>
 5   0  0.2879462E-05  0.1899961E+04  0.7818609E-02  0.8654876E-01
       -2   -1    0    0    0  501  0.00000000000E+00  0.00000000000E+00  0.74968798123E+03  0.74968798124E+03  0.25500000920E-02 0. -1.
        2   -1    0    0  501    0  0.00000000000E+00  0.00000000000E+00 -0.12037844994E+04  0.12037844994E+04  0.25500000920E-02 0.  1.
    10030    2    1    2    0    0  0.00000000000E+00  0.00000000000E+00 -0.45409651821E+03  0.19534724807E+04  0.18999608114E+04 0.  0.
        4    1    3    3  502    0  0.74725076046E+03 -0.57166194708E+03 -0.36220431139E+03  0.10081540839E+04  0.12699999809E+01 0.  1.
       -4    1    3    3    0  502 -0.74725076046E+03  0.57166194708E+03 -0.91892206816E+02  0.94531839680E+03  0.12699999809E+01 0. -1.
</event>
<event>
 5   0  0.2813537E-05  0.1897753E+04  0.7818609E-02  0.8655976E-01
        2   -1    0    0  501    0  0.00000000000E+00  0.00000000000E+00  0.24142624827E+04  0.24142624827E+04  0.25500000920E-02 0.  1.
       -2   -1    0    0    0  501  0.00000000000E+00  0.00000000000E+00 -0.37293637158E+03  0.37293637159E+03  0.25500000920E-02 0. -1.
    10030    2    1    2    0    0  0.00000000000E+00  0.00000000000E+00  0.20413261111E+04  0.27871988543E+04  0.18977526607E+04 0.  0.
        2    1    3    3  502    0  0.16526882501E+02  0.82162041309E+03  0.17173721800E+04  0.19038646081E+04  0.25500000920E-02 0.  1.
       -2    1    3    3    0  502 -0.16526882501E+02 -0.82162041309E+03  0.32395393106E+03  0.88333424620E+03  0.25500000920E-02 0. -1.
</event>
<event>
 5   0  0.2813537E-05  0.1899378E+04  0.7818609E-02  0.8655166E-01
        2   -1    0    0  501    0  0.00000000000E+00  0.00000000000E+00  0.10606867697E+04  0.10606867697E+04  0.25500000920E-02 0.  1.
       -2   -1    0    0    0  501  0.00000000000E+00  0.00000000000E+00 -0.85030664806E+03  0.85030664807E+03  0.25500000920E-02 0. -1.
    10030    2    1    2    0    0  0.00000000000E+00  0.00000000000E+00  0.21038012164E+03  0.19109934178E+04  0.18993778053E+04 0.  0.
        2    1    3    3  502    0 -0.63695927004E+03 -0.66667264191E+03  0.33404426672E+03  0.98069113144E+03  0.25500000920E-02 0. -1.
       -2    1    3    3    0  502  0.63695927004E+03  0.66667264191E+03 -0.12366414508E+03  0.93030228633E+03  0.25500000920E-02 0.  1.
</event>
<event>
 5   0  0.1344119E-05  0.1898571E+04  0.7818609E-02  0.8655568E-01
        1   -1    0    0  501    0  0.00000000000E+00  0.00000000000E+00  0.13338795790E+04  0.13338795790E+04  0.50400001928E-02 0.  1.
       -1   -1    0    0    0  501  0.00000000000E+00  0.00000000000E+00 -0.67558056503E+03  0.67558056505E+03  0.50400001928E-02 0. -1.
    10030    2    1    2    0    0  0.00000000000E+00  0.00000000000E+00  0.65829901396E+03  0.20094601440E+04  0.18985711677E+04 0.  0.
        2    1    3    3  502    0  0.27068550019E+02  0.24236550322E+03  0.13001585587E+04  0.13228325749E+04  0.25500000920E-02 0.  1.
       -2    1    3    3    0  502 -0.27068550019E+02 -0.24236550322E+03 -0.64185954471E+03  0.68662756914E+03  0.25500000920E-02 0. -1.
</event>
<event>
 5   0  0.1429067E-05  0.1897890E+04  0.7818609E-02  0.8655908E-01
       -1   -1    0    0    0  501  0.00000000000E+00  0.00000000000E+00  0.54990927796E+03  0.54990927798E+03  0.50400001928E-02 0.  1.
        1   -1    0    0  501    0  0.00000000000E+00  0.00000000000E+00 -0.16375360783E+04  0.16375360783E+04  0.50400001928E-02 0. -1.
    10030    2    1    2    0    0  0.00000000000E+00  0.00000000000E+00 -0.10876268004E+04  0.21874453563E+04  0.18978896517E+04 0.  0.
        3    1    3    3  502    0  0.23291989009E+02 -0.39597775279E+03 -0.15374007801E+04  0.15877474819E+04  0.10100000352E+00 0. -1.
       -3    1    3    3    0  502 -0.23291989009E+02  0.39597775279E+03  0.44977397976E+03  0.59969787438E+03  0.10100000352E+00 0.  1.
</event>
<event>
 5   0  0.2789718E-05  0.1906913E+04  0.7818609E-02  0.8651423E-01
       -2   -1    0    0    0  501  0.00000000000E+00  0.00000000000E+00  0.45707680494E+03  0.45707680495E+03  0.25500000920E-02 0.  1.
        2   -1    0    0  501    0  0.00000000000E+00  0.00000000000E+00 -0.19888992856E+04  0.19888992856E+04  0.25500000920E-02 0. -1.
    10030    2    1    2    0    0  0.00000000000E+00  0.00000000000E+00 -0.15318224806E+04  0.24459760905E+04  0.19069134546E+04 0.  0.
        5    1    3    3  502    0 -0.29113868097E+02  0.93840565978E+03 -0.97902615820E+03  0.13564538724E+04  0.46999998093E+01 0.  1.
       -5    1    3    3    0  502  0.29113868097E+02 -0.93840565978E+03 -0.55279632244E+03  0.10895222181E+04  0.46999998093E+01 0. -1.
</event>
<event>
 5   0  0.2855141E-05  0.1901573E+04  0.7818609E-02  0.8654074E-01
       -2   -1    0    0    0  501  0.00000000000E+00  0.00000000000E+00  0.12945238125E+04  0.12945238125E+04  0.25500000920E-02 0.  1.
        2   -1    0    0  501    0  0.00000000000E+00  0.00000000000E+00 -0.69832239091E+03  0.69832239092E+03  0.25500000920E-02 0. -1.
    10030    2    1    2    0    0  0.00000000000E+00  0.00000000000E+00  0.59620142155E+03  0.19928462034E+04  0.19015729950E+04 0.  0.
        1    1    3    3  502    0 -0.26238879709E+03  0.78783126904E+03 -0.18723586308E+03  0.85122456365E+03  0.50400001928E-02 0. -1.
       -1    1    3    3    0  502  0.26238879709E+03 -0.78783126904E+03  0.78343728463E+03  0.11416216397E+04  0.50400001928E-02 0.  1.
</event>
<event>
 5   0  0.1471485E-05  0.1897447E+04  0.7818609E-02  0.8656128E-01
       -1   -1    0    0    0  501  0.00000000000E+00  0.00000000000E+00  0.57424367747E+03  0.57424367750E+03  0.50400001928E-02 0. -1.
        1   -1    0    0  501    0  0.00000000000E+00  0.00000000000E+00 -0.15674110130E+04  0.15674110130E+04  0.50400001928E-02 0.  1.
    10030    2    1    2    0    0  0.00000000000E+00  0.00000000000E+00 -0.99316733549E+03  0.21416546905E+04  0.18974465623E+04 0.  0.
        4    1    3    3  502    0 -0.77801608125E+03  0.33062461303E+03 -0.10516428195E+02  0.84541934304E+03  0.12699999809E+01 0. -1.
       -4    1    3    3    0  502  0.77801608125E+03 -0.33062461303E+03 -0.98265090730E+03  0.12962353474E+04  0.12699999809E+01 0.  1.
</event>
<event>
 5   0  0.1429067E-05  0.1899503E+04  0.7818609E-02  0.8655104E-01
       -1   -1    0    0    0  501  0.00000000000E+00  0.00000000000E+00  0.67085152868E+03  0.67085152870E+03  0.50400001928E-02 0.  1.
        1   -1    0    0  501    0  0.00000000000E+00  0.00000000000E+00 -0.13446019552E+04  0.13446019552E+04  0.50400001928E-02 0. -1.
    10030    2    1    2    0    0  0.00000000000E+00  0.00000000000E+00 -0.67375042655E+03  0.20154534839E+04  0.18995033847E+04 0.  0.
        3    1    3    3  502    0 -0.33450809210E+03  0.87962551642E+03 -0.47271993669E+03  0.10531385766E+04  0.10100000352E+00 0. -1.
       -3    1    3    3    0  502  0.33450809210E+03 -0.87962551642E+03 -0.20103048985E+03  0.96231490733E+03  0.10100000352E+00 0.  1.
</event>
<event>
 5   0  0.2789718E-05  0.1951102E+04  0.7818609E-02  0.8629830E-01
       -2   -1    0    0    0  501  0.00000000000E+00  0.00000000000E+00  0.67882939834E+03  0.67882939834E+03  0.25500000920E-02 0. -1.
        2   -1    0    0  501    0  0.00000000000E+00  0.00000000000E+00 -0.14019718435E+04  0.14019718435E+04  0.25500000920E-02 0.  1.
    10030    2    1    2    0    0  0.00000000000E+00  0.00000000000E+00 -0.72314244515E+03  0.20808012418E+04  0.19511019481E+04 0.  0.
        5    1    3    3  502    0 -0.70446709103E+03  0.30643117925E+03  0.27964866992E+03  0.81755698184E+03  0.46999998093E+01 0. -1.
       -5    1    3    3    0  502  0.70446709103E+03 -0.30643117925E+03 -0.10027911151E+04  0.12632442600E+04  0.46999998093E+01 0.  1.
</event>
<event>
 5   0  0.1010725E-05  0.1892778E+04  0.7818609E-02  0.8658460E-01
       -4   -1    0    0    0  501  0.00000000000E+00  0.00000000000E+00  0.91131068898E+03  0.91131157391E+03  0.12699999809E+01 0.  1.
        4   -1    0    0  501    0  0.00000000000E+00  0.00000000000E+00 -0.98281591949E+03  0.98281674004E+03  0.12699999809E+01 0. -1.
    10030    2    1    2    0    0  0.00000000000E+00  0.00000000000E+00 -0.71505230508E+02  0.18941283139E+04  0.18927781359E+04 0.  0.
        1    1    3    3  502    0 -0.35541676993E+03  0.14165170962E+03 -0.90197158980E+03  0.97976478607E+03  0.50400001928E-02 0. -1.
       -1    1    3    3    0  502  0.35541676993E+03 -0.14165170962E+03  0.83046635929E+03  0.91436352788E+03  0.50400001928E-02 0.  1.
</event>
<event>
 5   0  0.2813537E-05  0.1898553E+04  0.7818609E-02  0.8655577E-01
        2   -1    0    0  501    0  0.00000000000E+00  0.00000000000E+00  0.53933813165E+03  0.53933813165E+03  0.25500000920E-02 0.  1.
       -2   -1    0    0    0  501  0.00000000000E+00  0.00000000000E+00 -0.16708002816E+04  0.16708002816E+04  0.25500000920E-02 0. -1.
    10030    2    1    2    0    0  0.00000000000E+00  0.00000000000E+00 -0.11314621500E+04  0.22101384133E+04  0.18985534517E+04 0.  0.
        2    1    3    3  502    0 -0.64822719575E+03 -0.13855087961E+03  0.22529605096E+03  0.70010938727E+03  0.25500000920E-02 0.  1.
       -2    1    3    3    0  502  0.64822719575E+03  0.13855087961E+03 -0.13567582009E+04  0.15100290260E+04  0.25500000920E-02 0. -1.
</event>
<event>
 5   0  0.2879462E-05  0.1909595E+04  0.7818609E-02  0.8650095E-01
        2   -1    0    0  501    0  0.00000000000E+00  0.00000000000E+00  0.19900974941E+04  0.19900974941E+04  0.25500000920E-02 0.  1.
       -2   -1    0    0    0  501  0.00000000000E+00  0.00000000000E+00 -0.45808727537E+03  0.45808727537E+03  0.25500000920E-02 0. -1.
    10030    2    1    2    0    0  0.00000000000E+00  0.00000000000E+00  0.15320102187E+04  0.24481847695E+04  0.19095950762E+04 0.  0.
        4    1    3    3  502    0  0.48220443556E+03 -0.51099144022E+03 -0.62877046017E+02  0.70539953606E+03  0.12699999809E+01 0. -1.
       -4    1    3    3    0  502 -0.48220443556E+03  0.51099144022E+03  0.15948872647E+04  0.17427852334E+04  0.12699999809E+01 0.  1.
</event>
<event>
 5   0  0.1413011E-05  0.1899745E+04  0.7818609E-02  0.8654983E-01
        1   -1    0    0  501    0  0.00000000000E+00  0.00000000000E+00  0.11563002481E+04  0.11563002481E+04  0.50400001928E-02 0.  1.
       -1   -1    0    0    0  501  0.00000000000E+00  0.00000000000E+00 -0.78029699289E+03  0.78029699291E+03  0.50400001928E-02 0. -1.
    10030    2    1    2    0    0  0.00000000000E+00  0.00000000000E+00  0.37600325520E+03  0.19365972410E+04  0.18997448318E+04 0.  0.
        1    1    3    3  502    0 -0.67347773186E+03  0.94097263946E+02 -0.48806108360E+03  0.83703654146E+03  0.50400001928E-02 0. -1.
       -1    1    3    3    0  502  0.67347773186E+03 -0.94097263946E+02  0.86406433880E+03  0.10995606996E+04  0.50400001928E-02 0.  1.
</event>
<event>
 5   0  0.1413011E-05  0.1898788E+04  0.7818609E-02  0.8655460E-01
       -1   -1    0    0    0  501  0.00000000000E+00  0.00000000000E+00  0.12314109635E+04  0.12314109635E+04  0.50400001928E-02 0. -1.
        1   -1    0    0  501    0  0.00000000000E+00  0.00000000000E+00 -0.73196450997E+03  0.73196450999E+03  0.50400001928E-02 0.  1.
    10030    2    1    2    0    0  0.00000000000E+00  0.00000000000E+00  0.49944645350E+03  0.19633754735E+04  0.18987881635E+04 0.  0.
        1    1    3    3  502    0  0.61282772303E+02  0.12529742377E+03 -0.72131217639E+03  0.73467426688E+03  0.50400001928E-02 0.  1.
       -1    1    3    3    0  502 -0.61282772303E+02 -0.12529742377E+03  0.12207586299E+04  0.12287012066E+04  0.50400001928E-02 0. -1.
</event>
<event>
 5   0  0.1327254E-05  0.1899247E+04  0.7818609E-02  0.8655231E-01
        1   -1    0    0  501    0  0.00000000000E+00  0.00000000000E+00  0.55460752504E+03  0.55460752507E+03  0.50400001928E-02 0. -1.
       -1   -1    0    0    0  501  0.00000000000E+00  0.00000000000E+00 -0.16259866746E+04  0.16259866746E+04  0.50400001928E-02 0.  1.
    10030    2    1    2    0    0  0.00000000000E+00  0.00000000000E+00 -0.10713791496E+04  0.21805941997E+04  0.18992466353E+04 0.  0.
        5    1    3    3  502    0 -0.23925046769E+03 -0.78695638297E+03 -0.10805661538E+04  0.13580082613E+04  0.46999998093E+01 0. -1.
       -5    1    3    3    0  502  0.23925046769E+03  0.78695638297E+03  0.91870042530E+01  0.82258593838E+03  0.46999998093E+01 0.  1.
</event>
<event>
 5   0  0.2855141E-05  0.1899796E+04  0.7818609E-02  0.8654958E-01
       -2   -1    0    0    0  501  0.00000000000E+00  0.00000000000E+00  0.81165265674E+03  0.81165265675E+03  0.25500000920E-02 0.  1.
        2   -1    0    0  501    0  0.00000000000E+00  0.00000000000E+00 -0.11116901502E+04  0.11116901502E+04  0.25500000920E-02 0. -1.
    10030    2    1    2    0    0  0.00000000000E+00  0.00000000000E+00 -0.30003749348E+03  0.19233428070E+04  0.18997960563E+04 0.  0.
        1    1    3    3  502    0 -0.48526161389E+03  0.13177023724E+03  0.66586309737E+03  0.83439552599E+03  0.50400001928E-02 0.  1.
       -1    1    3    3    0  502  0.48526161389E+03 -0.13177023724E+03 -0.96590059084E+03  0.10889472810E+04  0.50400001928E-02 0. -1.
</event>
<event>
 5   0  0.2879462E-05  0.1912619E+04  0.7818609E-02  0.8648601E-01
        2   -1    0    0  501    0  0.00000000000E+00  0.00000000000E+00  0.58354921606E+03  0.58354921607E+03  0.25500000920E-02 0.  1.
       -2   -1    0    0    0  501  0.00000000000E+00  0.00000000000E+00 -0.15671813508E+04  0.15671813508E+04  0.25500000920E-02 0. -1.
    10030    2    1    2    0    0  0.00000000000E+00  0.00000000000E+00 -0.98363213471E+03  0.21507305668E+04  0.19126185701E+04 0.  0.
        4    1    3    3  502    0 -0.70059227252E+03 -0.61348281805E+03 -0.73646845092E+03  0.11872565403E+04  0.12699999809E+01 0. -1.
       -4    1    3    3    0  502  0.70059227252E+03  0.61348281805E+03 -0.24716368379E+03  0.96347402655E+03  0.12699999809E+01 0.  1.
</event>
<event>
 5   0  0.1471485E-05  0.1900486E+04  0.7818609E-02  0.8654614E-01
        1   -1    0    0  501    0  0.00000000000E+00  0.00000000000E+00  0.12396811245E+04  0.12396811245E+04  0.50400001928E-02 0. -1.
       -1   -1    0    0    0  501  0.00000000000E+00  0.00000000000E+00 -0.72838235245E+03  0.72838235247E+03  0.50400001928E-02 0.  1.
    10030    2    1    2    0    0  0.00000000000E+00  0.00000000000E+00  0.51129877208E+03  0.19680634770E+04  0.19004860997E+04 0.  0.
        4    1    3    3  502    0  0.85497387071E+03 -0.36705150406E+03  0.45552310765E+03  0.10359585130E+04  0.12699999809E+01 0. -1.
       -4    1    3    3    0  502 -0.85497387071E+03  0.36705150406E+03  0.55775664426E+02  0.93210496398E+03  0.12699999809E+01 0.  1.
</event>
<event>
 5   0  0.1327254E-05  0.1899503E+04  0.7818609E-02  0.8655104E-01
        1   -1    0    0  501    0  0.00000000000E+00  0.00000000000E+00  0.13223207840E+04  0.13223207841E+04  0.50400001928E-02 0. -1.
       -1   -1    0    0    0  501  0.00000000000E+00  0.00000000000E+00 -0.68215478440E+03  0.68215478442E+03  0.50400001928E-02 0.  1.
    10030    2    1    2    0    0  0.00000000000E+00  0.00000000000E+00  0.64016599964E+03  0.20044755685E+04  0.18995025132E+04 0.  0.
        5    1    3    3  502    0  0.85424128864E+03 -0.13920959478E+03 -0.92547770664E+02  0.87045658729E+03  0.46999998093E+01 0.  1.
       -5    1    3    3    0  502 -0.85424128864E+03  0.13920959478E+03  0.73271377030E+03  0.11340189812E+04  0.46999998093E+01 0. -1.
</event>
<event>
 5   0  0.2855141E-05  0.1892063E+04  0.7818609E-02  0.8658817E-01
       -2   -1    0    0    0  501  0.00000000000E+00  0.00000000000E+00  0.56485053500E+03  0.56485053500E+03  0.25500000920E-02 0. -1.
        2   -1    0    0  501    0  0.00000000000E+00  0.00000000000E+00 -0.15844462995E+04  0.15844462995E+04  0.25500000920E-02 0.  1.
    10030    2    1    2    0    0  0.00000000000E+00  0.00000000000E+00 -0.10195957645E+04  0.21492968345E+04  0.18920627262E+04 0.  0.
        1    1    3    3  502    0  0.17715669406E+03  0.26114192714E+02 -0.15650186785E+04  0.15752301132E+04  0.50400001928E-02 0.  1.
       -1    1    3    3    0  502 -0.17715669406E+03 -0.26114192714E+02  0.54542291405E+03  0.57406672130E+03  0.50400001928E-02 0. -1.
</event>
<event>
 5   0  0.1429067E-05  0.1894001E+04  0.7818609E-02  0.8657848E-01
       -1   -1    0    0    0  501  0.00000000000E+00  0.00000000000E+00  0.14387066400E+04  0.14387066400E+04  0.50400001928E-02 0.  1.
        1   -1    0    0  501    0  0.00000000000E+00  0.00000000000E+00 -0.62334424930E+03  0.62334424932E+03  0.50400001928E-02 0. -1.
    10030    2    1    2    0    0  0.00000000000E+00  0.00000000000E+00  0.81536239067E+03  0.20620508893E+04  0.18940005390E+04 0.  0.
        3    1    3    3  502    0  0.73848851975E+03 -0.59267716911E+03  0.42220580564E+03  0.10367686690E+04  0.10100000352E+00 0.  1.
       -3    1    3    3    0  502 -0.73848851975E+03  0.59267716911E+03  0.39315658503E+03  0.10252822202E+04  0.10100000352E+00 0. -1.
</event>
<event>
 5   0  0.2813537E-05  0.1900496E+04  0.7818609E-02  0.8654609E-01
        2   -1    0    0  501    0  0.00000000000E+00  0.00000000000E+00  0.24290157709E+04  0.24290157709E+04  0.25500000920E-02 0. -1.
       -2   -1    0    0    0  501  0.00000000000E+00  0.00000000000E+00 -0.37174382118E+03  0.37174382119E+03  0.25500000920E-02 0.  1.
    10030    2    1    2    0    0  0.00000000000E+00  0.00000000000E+00  0.20572719498E+04  0.28007595921E+04  0.19004963609E+04 0.  0.
        2    1    3    3  502    0 -0.28138858061E+03  0.29300492455E+03  0.22945941865E+04  0.23302776444E+04  0.25500000920E-02 0. -1.
       -2    1    3    3    0  502  0.28138858061E+03 -0.29300492455E+03 -0.23732223675E+03  0.47048194776E+03  0.25500000920E-02 0.  1.
</event>
<event>
 5   0  0.2813537E-05  0.1901495E+04  0.7818609E-02  0.8654113E-01
       -2   -1    0    0    0  501  0.00000000000E+00  0.00000000000E+00  0.45734126637E+03  0.45734126637E+03  0.25500000920E-02 0.  1.
        2   -1    0    0  501    0  0.00000000000E+00  0.00000000000E+00 -0.19764689561E+04  0.19764689561E+04  0.25500000920E-02 0. -1.
    10030    2    1    2    0    0  0.00000000000E+00  0.00000000000E+00 -0.15191276897E+04  0.24338102224E+04  0.19014950069E+04 0.  0.
        2    1    3    3  502    0 -0.79316918389E+03  0.28130910768E+03 -0.19338694966E+03  0.86351067199E+03  0.25500000920E-02 0.  1.
       -2    1    3    3    0  502  0.79316918389E+03 -0.28130910768E+03 -0.13257407400E+04  0.15702995505E+04  0.25500000920E-02 0. -1.
</event>
<event>
 5   0  0.2879462E-05  0.1889127E+04  0.7818609E-02  0.8660288E-01
       -2   -1    0    0    0  501  0.00000000000E+00  0.00000000000E+00  0.13244589831E+04  0.13244589831E+04  0.25500000920E-02 0.  1.
        2   -1    0    0  501    0  0.00000000000E+00  0.00000000000E+00 -0.67363340491E+03  0.67363340491E+03  0.25500000920E-02 0. -1.
    10030    2    1    2    0    0  0.00000000000E+00  0.00000000000E+00  0.65082557822E+03  0.19980923880E+04  0.18891265860E+04 0.  0.
        4    1    3    3  502    0 -0.15272204378E+02 -0.62196212486E+03  0.10771313258E+04  0.12438985613E+04  0.12699999809E+01 0.  1.
       -4    1    3    3    0  502  0.15272204378E+02  0.62196212486E+03 -0.42630574755E+03  0.75419382673E+03  0.12699999809E+01 0. -1.
</event>
<event>
 5   0  0.2789718E-05  0.1900229E+04  0.7818609E-02  0.8654742E-01
        2   -1    0    0  501    0  0.00000000000E+00  0.00000000000E+00  0.11230392299E+04  0.11230392299E+04  0.25500000920E-02 0. -1.
       -2   -1    0    0    0  501  0.00000000000E+00  0.00000000000E+00 -0.80381667259E+03  0.80381667260E+03  0.25500000920E-02 0.  1.
    10030    2    1    2    0    0  0.00000000000E+00  0.00000000000E+00  0.31922255728E+03  0.19268559025E+04  0.19002290988E+04 0.  0.
        5    1    3    3  502    0  0.84816442602E+03  0.26285069366E+03  0.50231475317E+03  0.10202036963E+04  0.46999998093E+01 0. -1.
       -5    1    3    3    0  502 -0.84816442602E+03 -0.26285069366E+03 -0.18309219589E+03  0.90665220615E+03  0.46999998093E+01 0.  1.
</event>
<event>
 5   0  0.2855141E-05  0.1901197E+04  0.7818609E-02  0.8654261E-01
       -2   -1    0    0    0  501  0.00000000000E+00  0.00000000000E+00  0.13400139082E+04  0.13400139082E+04  0.25500000920E-02 0. -1.
        2   -1    0    0  501    0  0.00000000000E+00  0.00000000000E+00 -0.67434950509E+03  0.67434950510E+03  0.25500000920E-02 0.  1.
    10030    2    1    2    0    0  0.00000000000E+00  0.00000000000E+00  0.66566440311E+03  0.20143634133E+04  0.19011972184E+04 0.  0.
        1    1    3    3  502    0 -0.91159798788E+03  0.26894581292E+03  0.31463508727E+03  0.10011683075E+04  0.50400001928E-02 0.  1.
       -1    1    3    3    0  502  0.91159798788E+03 -0.26894581292E+03  0.35102931584E+03  0.10131951058E+04  0.50400001928E-02 0. -1.
</event>
<event>
 5   0  0.2789718E-05  0.1899872E+04  0.7818609E-02  0.8654920E-01
       -2   -1    0    0    0  501  0.00000000000E+00  0.00000000000E+00  0.13519388924E+04  0.13519388924E+04  0.25500000920E-02 0.  1.
        2   -1    0    0  501    0  0.00000000000E+00  0.00000000000E+00 -0.66746953300E+03  0.66746953300E+03  0.25500000920E-02 0. -1.
    10030    2    1    2    0    0  0.00000000000E+00  0.00000000000E+00  0.68446935945E+03  0.20194084254E+04  0.18998715969E+04 0.  0.
        5    1    3    3  502    0  0.51469469825E+03 -0.78708069894E+03  0.19983030379E+03  0.96143689307E+03  0.46999998093E+01 0. -1.
       -5    1    3    3    0  502 -0.51469469825E+03  0.78708069894E+03  0.48463905566E+03  0.10579715324E+04  0.46999998093E+01 0.  1.
</event>
<event>
 5   0  0.1471485E-05  0.1898481E+04  0.7818609E-02  0.8655613E-01
        1   -1    0    0  501    0  0.00000000000E+00  0.00000000000E+00  0.82884344432E+03  0.82884344434E+03  0.50400001928E-02 0.  1.
       -1   -1    0    0    0  501  0.00000000000E+00  0.00000000000E+00 -0.10871259160E+04  0.10871259160E+04  0.50400001928E-02 0. -1.
    10030    2    1    2    0    0  0.00000000000E+00  0.00000000000E+00 -0.25828247170E+03  0.19159693604E+04  0.18984806437E+04 0.  0.
        4    1    3    3  502    0 -0.59949376236E+03  0.69328436111E+03 -0.37843824130E+03  0.99159119190E+03  0.12699999809E+01 0. -1.
       -4    1    3    3    0  502  0.59949376236E+03 -0.69328436111E+03  0.12015576960E+03  0.92437816847E+03  0.12699999809E+01 0.  1.
</event>
<event>
 5   0  0.1327254E-05  0.1901300E+04  0.7818609E-02  0.8654210E-01
        1   -1    0    0  501    0  0.00000000000E+00  0.00000000000E+00  0.51455427128E+03  0.51455427131E+03  0.50400001928E-02 0.  1.
       -1   -1    0    0    0  501  0.00000000000E+00  0.00000000000E+00 -0.17563462587E+04  0.17563462587E+04  0.50400001928E-02 0. -1.
    10030    2    1    2    0    0  0.00000000000E+00  0.00000000000E+00 -0.12417919874E+04  0.22709005300E+04  0.19013000492E+04 0.  0.
        5    1    3    3  502    0  0.59553554195E+03  0.24376040242E+03  0.21486519588E+03  0.67843264803E+03  0.46999998093E+01 0.  1.
       -5    1    3    3    0  502 -0.59553554195E+03 -0.24376040242E+03 -0.14566571833E+04  0.15924678820E+04  0.46999998093E+01 0. -1.
</event>
<event>
 5   0  0.2879462E-05  0.1899182E+04  0.7818609E-02  0.8655264E-01
        2   -1    0    0  501    0  0.00000000000E+00  0.00000000000E+00  0.19792870863E+04  0.19792870863E+04  0.25500000920E-02 0. -1.
       -2   -1    0    0    0  501  0.00000000000E+00  0.00000000000E+00 -0.45557956687E+03  0.45557956688E+03  0.25500000920E-02 0.  1.
    10030    2    1    2    0    0  0.00000000000E+00  0.00000000000E+00  0.15237075194E+04  0.24348666532E+04  0.18991816696E+04 0.  0.
        4    1    3    3  502    0 -0.31890477765E+02  0.78675629886E+03  0.81372009856E+02  0.79159679967E+03  0.12699999809E+01 0. -1.
       -4    1    3    3    0  502  0.31890477765E+02 -0.78675629886E+03  0.14423355096E+04  0.16432698535E+04  0.12699999809E+01 0.  1.
</event>
<event>
 5   0  0.2813537E-05  0.1902299E+04  0.7818609E-02  0.8653713E-01
        2   -1    0    0  501    0  0.00000000000E+00  0.00000000000E+00  0.67135324650E+03  0.67135324651E+03  0.25500000920E-02 0. -1.
       -2   -1    0    0    0  501  0.00000000000E+00  0.00000000000E+00 -0.13475543055E+04  0.13475543055E+04  0.25500000920E-02 0.  1.
    10030    2    1    2    0    0  0.00000000000E+00  0.00000000000E+00 -0.67620105903E+03  0.20189075520E+04  0.19022985653E+04 0.  0.
        2    1    3    3  502    0 -0.41938649124E+03 -0.40234902640E+03 -0.11371925593E+04  0.12770969756E+04  0.25500000920E-02 0.  1.
       -2    1    3    3    0  502  0.41938649124E+03  0.40234902640E+03  0.46099150025E+03  0.74181057649E+03  0.25500000920E-02 0. -1.
</event>
<event>
 5   0  0.1327254E-05  0.1898495E+04  0.7818609E-02  0.8655606E-01
       -1   -1    0    0    0  501  0.00000000000E+00  0.00000000000E+00  0.75288381908E+03  0.75288381910E+03  0.50400001928E-02 0. -1.
        1   -1    0    0  501    0  0.00000000000E+00  0.00000000000E+00 -0.11968254052E+04  0.11968254053E+04  0.50400001928E-02 0.  1.
    10030    2    1    2    0    0  0.00000000000E+00  0.00000000000E+00 -0.44394158616E+03  0.19497092244E+04  0.18984946478E+04 0.  0.
        5    1    3    3  502    0  0.16316886901E+03 -0.35878448457E+03  0.66486244133E+03  0.77292596157E+03  0.46999998093E+01 0. -1.
       -5    1    3    3    0  502 -0.16316886901E+03  0.35878448457E+03 -0.11088040275E+04  0.11767832628E+04  0.46999998093E+01 0.  1.
</event>
<event>
 5   0  0.1471485E-05  0.1902259E+04  0.7818609E-02  0.8653733E-01
        1   -1    0    0  501    0  0.00000000000E+00  0.00000000000E+00  0.21604550154E+04  0.21604550154E+04  0.50400001928E-02 0.  1.
       -1   -1    0    0    0  501  0.00000000000E+00  0.00000000000E+00 -0.41872986374E+03  0.41872986377E+03  0.50400001928E-02 0. -1.
    10030    2    1    2    0    0  0.00000000000E+00  0.00000000000E+00  0.17417251517E+04  0.25791848792E+04  0.19022586935E+04 0.  0.
        4    1    3    3  502    0 -0.94207553191E+03 -0.12605419332E+03  0.91878877791E+03  0.13219570336E+04  0.12699999809E+01 0.  1.
       -4    1    3    3    0  502  0.94207553191E+03  0.12605419332E+03  0.82293637377E+03  0.12572278456E+04  0.12699999809E+01 0. -1.
</event>
<event>
 5   0  0.2789718E-05  0.1845566E+04  0.7818609E-02  0.8682436E-01
       -2   -1    0    0    0  501  0.00000000000E+00  0.00000000000E+00  0.66162677251E+03  0.66162677252E+03  0.25500000920E-02 0.  1.
        2   -1    0    0  501    0  0.00000000000E+00  0.00000000000E+00 -0.12870225657E+04  0.12870225657E+04  0.25500000920E-02 0. -1.
    10030    2    1    2    0    0  0.00000000000E+00  0.00000000000E+00 -0.62539579316E+03  0.19486493382E+04  0.18455661313E+04 0.  0.
        5    1    3    3  502    0 -0.64612551199E+03 -0.62909098857E+03 -0.10613635408E+03  0.90803120255E+03  0.46999998093E+01 0.  1.
       -5    1    3    3    0  502  0.64612551199E+03  0.62909098857E+03 -0.51925943908E+03  0.10406181356E+04  0.46999998093E+01 0. -1.
</event>
<event>
 5   0  0.1344119E-05  0.1899967E+04  0.7818609E-02  0.8654873E-01
       -1   -1    0    0    0  501  0.00000000000E+00  0.00000000000E+00  0.94179880395E+03  0.94179880397E+03  0.50400001928E-02 0.  1.
        1   -1    0    0  501    0  0.00000000000E+00  0.00000000000E+00 -0.95823956308E+03  0.95823956309E+03  0.50400001928E-02 0. -1.
    10030    2    1    2    0    0  0.00000000000E+00  0.00000000000E+00 -0.16440759127E+02  0.19000383671E+04  0.18999672360E+04 0.  0.
        2    1    3    3  502    0  0.78214025981E+03 -0.19851191916E+03 -0.50955592037E+03  0.95435716797E+03  0.25500000920E-02 0. -1.
       -2    1    3    3    0  502 -0.78214025981E+03  0.19851191916E+03  0.49311516124E+03  0.94568119909E+03  0.25500000920E-02 0.  1.
</event>
<event>
 5   0  0.1429067E-05  0.1898676E+04  0.7818609E-02  0.8655516E-01
        1   -1    0    0  501    0  0.00000000000E+00  0.00000000000E+00  0.13862589449E+04  0.13862589449E+04  0.50400001928E-02 0. -1.
       -1   -1    0    0    0  501  0.00000000000E+00  0.00000000000E+00 -0.65012588677E+03  0.65012588679E+03  0.50400001928E-02 0.  1.
    10030    2    1    2    0    0  0.00000000000E+00  0.00000000000E+00  0.73613305815E+03  0.20363848317E+04  0.18986761977E+04 0.  0.
        3    1    3    3  502    0  0.14281908674E+02 -0.52221356747E+03 -0.48209897410E+03  0.71086596064E+03  0.10100000352E+00 0.  1.
       -3    1    3    3    0  502 -0.14281908674E+02  0.52221356747E+03  0.12182320322E+04  0.13255188711E+04  0.10100000352E+00 0. -1.
</event>
<event>
 5   0  0.1413011E-05  0.1901563E+04  0.7818609E-02  0.8654079E-01
       -1   -1    0    0    0  501  0.00000000000E+00  0.00000000000E+00  0.70480462500E+03  0.70480462501E+03  0.50400001928E-02 0.  1.
        1   -1    0    0  501    0  0.00000000000E+00  0.00000000000E+00 -0.12826044638E+04  0.12826044638E+04  0.50400001928E-02 0. -1.
    10030    2    1    2    0    0  0.00000000000E+00  0.00000000000E+00 -0.57779983879E+03  0.19874090888E+04  0.19015631024E+04 0.  0.
        1    1    3    3  502    0 -0.21170545045E+03 -0.59199038070E+03  0.45654106690E+03  0.77698233853E+03  0.50400001928E-02 0.  1.
       -1    1    3    3    0  502  0.21170545045E+03  0.59199038070E+03 -0.10343409057E+04  0.12104267503E+04  0.50400001928E-02 0. -1.
</event>
<event>
 5   0  0.2855141E-05  0.1904969E+04  0.7818609E-02  0.8652387E-01
       -2   -1    0    0    0  501  0.00000000000E+00  0.00000000000E+00  0.50333221098E+03  0.50333221099E+03  0.25500000920E-02 0.  1.
        2   -1    0    0  501    0  0.00000000000E+00  0.00000000000E+00 -0.18024404338E+04  0.18024404338E+04  0.25500000920E-02 0. -1.
    10030    2    1    2    0    0  0.00000000000E+00  0.00000000000E+00 -0.12991082228E+04  0.23057726448E+04  0.19049685863E+04 0.  0.
        1    1    3    3  502    0 -0.50825018178E+03 -0.68720160623E+03 -0.11582992556E+04  0.14395212608E+04  0.50400001928E-02 0. -1.
       -1    1    3    3    0  502  0.50825018178E+03  0.68720160623E+03 -0.14080896721E+03  0.86625138393E+03  0.50400001928E-02 0.  1.
</event>
<event>
 5   0  0.2888776E-05  0.1900623E+04  0.7818609E-02  0.8654546E-01
       -2   -1    0    0    0  501  0.00000000000E+00  0.00000000000E+00  0.52748336917E+03  0.52748336918E+03  0.25500000920E-02 0.  1.
        2   -1    0    0  501    0  0.00000000000E+00  0.00000000000E+00 -0.17120764778E+04  0.17120764778E+04  0.25500000920E-02 0. -1.
    10030    2    1    2    0    0  0.00000000000E+00  0.00000000000E+00 -0.11845931087E+04  0.22395598470E+04  0.19006229177E+04 0.  0.
        3    1    3    3  502    0  0.32360888199E+03 -0.84156543977E+03 -0.23852925677E+03  0.93265819809E+03  0.10100000352E+00 0.  1.
       -3    1    3    3    0  502 -0.32360888199E+03  0.84156543977E+03 -0.94606385190E+03  0.13069016489E+04  0.10100000352E+00 0. -1.
</event>
<event>
 5   0  0.2789718E-05  0.1894752E+04  0.7818609E-02  0.8657473E-01
        2   -1    0    0  501    0  0.00000000000E+00  0.00000000000E+00  0.10277599254E+04  0.10277599254E+04  0.25500000920E-02 0. -1.
       -2   -1    0    0    0  501  0.00000000000E+00  0.00000000000E+00 -0.87327891803E+03  0.87327891803E+03  0.25500000920E-02 0.  1.
    10030    2    1    2    0    0  0.00000000000E+00  0.00000000000E+00  0.15448100735E+03  0.19010388434E+04  0.18947517786E+04 0.  0.
        5    1    3    3  502    0 -0.74953262073E+03  0.57652651037E+03  0.13502517437E+03  0.95521508280E+03  0.46999998093E+01 0. -1.
       -5    1    3    3    0  502  0.74953262073E+03 -0.57652651037E+03  0.19455832980E+02  0.94582376061E+03  0.46999998093E+01 0.  1.
</event>
<event>
 5   0  0.2879462E-05  0.1902904E+04  0.7818609E-02  0.8653412E-01
        2   -1    0    0  501    0  0.00000000000E+00  0.00000000000E+00  0.18415758692E+04  0.18415758692E+04  0.25500000920E-02 0. -1.
       -2   -1    0    0    0  501  0.00000000000E+00  0.00000000000E+00 -0.49156867767E+03  0.49156867767E+03  0.25500000920E-02 0.  1.
    10030    2    1    2    0    0  0.00000000000E+00  0.00000000000E+00  0.13500071916E+04  0.23331445469E+04  0.19029041120E+04 0.  0.
        4    1    3    3  502    0  0.36749109527E+03  0.87575268799E+03  0.60492354417E+03  0.11260224611E+04  0.12699999809E+01 0.  1.
       -4    1    3    3    0  502 -0.36749109527E+03 -0.87575268799E+03  0.74508364740E+03  0.12071220858E+04  0.12699999809E+01 0. -1.
</event>
<event>
 5   0  0.2855141E-05  0.1901061E+04  0.7818609E-02  0.8654328E-01
       -2   -1    0    0    0  501  0.00000000000E+00  0.00000000000E+00  0.97901488099E+03  0.97901488099E+03  0.25500000920E-02 0. -1.
        2   -1    0    0  501    0  0.00000000000E+00  0.00000000000E+00 -0.92287524605E+03  0.92287524606E+03  0.25500000920E-02 0.  1.
    10030    2    1    2    0    0  0.00000000000E+00  0.00000000000E+00  0.56139634936E+02  0.19018901270E+04  0.19010613869E+04 0.  0.
        1    1    3    3  502    0 -0.80817330849E+03  0.18831807435E+03 -0.43570621910E+03  0.93725540973E+03  0.50400001928E-02 0.  1.
       -1    1    3    3    0  502  0.80817330849E+03 -0.18831807435E+03  0.49184585403E+03  0.96463471731E+03  0.50400001928E-02 0. -1.
</event>
<event>
 5   0  0.1344119E-05  0.1910351E+04  0.7818609E-02  0.8649721E-01
        1   -1    0    0  501    0  0.00000000000E+00  0.00000000000E+00  0.11338687760E+04  0.11338687761E+04  0.50400001928E-02 0.  1.
       -1   -1    0    0    0  501  0.00000000000E+00  0.00000000000E+00 -0.80464372890E+03  0.80464372891E+03  0.50400001928E-02 0. -1.
    10030    2    1    2    0    0  0.00000000000E+00  0.00000000000E+00  0.32922504715E+03  0.19385125050E+04  0.19103511720E+04 0.  0.
        2    1    3    3  502    0  0.69140405669E+03  0.65375456151E+03  0.24906074139E+03  0.98359841866E+03  0.25500000920E-02 0. -1.
       -2    1    3    3    0  502 -0.69140405669E+03 -0.65375456151E+03  0.80164305760E+02  0.95491408630E+03  0.25500000920E-02 0.  1.
</event>
<event>
 5   0  0.1429067E-05  0.1899779E+04  0.7818609E-02  0.8654966E-01
        1   -1    0    0  501    0  0.00000000000E+00  0.00000000000E+00  0.80134698849E+03  0.80134698851E+03  0.50400001928E-02 0. -1.
       -1   -1    0    0    0  501  0.00000000000E+00  0.00000000000E+00 -0.11259672652E+04  0.11259672652E+04  0.50400001928E-02 0.  1.
    10030    2    1    2    0    0  0.00000000000E+00  0.00000000000E+00 -0.32462027672E+03  0.19273142537E+04  0.18997794368E+04 0.  0.
        3    1    3    3  502    0 -0.28030541688E+03  0.60358986584E+01 -0.10830339561E+04  0.11187359470E+04  0.10100000352E+00 0.  1.
       -3    1    3    3    0  502  0.28030541688E+03 -0.60358986584E+01  0.75841367940E+03  0.80857830672E+03  0.10100000352E+00 0. -1.
</event>
<event>
 5   0  0.2789718E-05  0.1899384E+04  0.7818609E-02  0.8655163E-01
       -2   -1    0    0    0  501  0.00000000000E+00  0.00000000000E+00  0.66371045174E+03  0.66371045175E+03  0.25500000920E-02 0. -1.
        2   -1    0    0  501    0  0.00000000000E+00  0.00000000000E+00 -0.13588976721E+04  0.13588976721E+04  0.25500000920E-02 0.  1.
    10030    2    1    2    0    0  0.00000000000E+00  0.00000000000E+00 -0.69518722036E+03  0.20226081239E+04  0.18993836767E+04 0.  0.
        5    1    3    3  502    0  0.26665976806E+03  0.80071602550E+03 -0.81132102764E+03  0.11706910290E+04  0.46999998093E+01 0.  1.
       -5    1    3    3    0  502 -0.26665976806E+03 -0.80071602550E+03  0.11613380727E+03  0.85191709490E+03  0.46999998093E+01 0. -1.
</event>
<event>
 5   0  0.2888776E-05  0.1910438E+04  0.7818609E-02  0.8649678E-01
       -2   -1    0    0    0  501  0.00000000000E+00  0.00000000000E+00  0.62994173303E+03  0.62994173304E+03  0.25500000920E-02 0.  1.
        2   -1    0    0  501    0  0.00000000000E+00  0.00000000000E+00 -0.14484564376E+04  0.14484564376E+04  0.25500000920E-02 0. -1.
    10030    2    1    2    0    0  0.00000000000E+00  0.00000000000E+00 -0.81851470453E+03  0.20783981706E+04  0.19104378121E+04 0.  0.
        3    1    3    3  502    0  0.94830200987E+03 -0.26711888833E+02 -0.53066092551E+03  0.10870102368E+04  0.10100000352E+00 0. -1.
       -3    1    3    3    0  502 -0.94830200987E+03  0.26711888833E+02 -0.28785377902E+03  0.99138793377E+03  0.10100000352E+00 0.  1.
</event>
<event>
 5   0  0.1471485E-05  0.1893459E+04  0.7818609E-02  0.8658119E-01
        1   -1    0    0  501    0  0.00000000000E+00  0.00000000000E+00  0.13463139915E+04  0.13463139915E+04  0.50400001928E-02 0. -1.
       -1   -1    0    0    0  501  0.00000000000E+00  0.00000000000E+00 -0.66574114530E+03  0.66574114531E+03  0.50400001928E-02 0.  1.
    10030    2    1    2    0    0  0.00000000000E+00  0.00000000000E+00  0.68057284620E+03  0.20120551368E+04  0.18934588653E+04 0.  0.
        4    1    3    3  502    0 -0.40205612448E+03 -0.78556634439E+03 -0.24015070859E+02  0.88280345786E+03  0.12699999809E+01 0.  1.
       -4    1    3    3    0  502  0.40205612448E+03  0.78556634439E+03  0.70458791705E+03  0.11292516790E+04  0.12699999809E+01 0. -1.
</event>
<event>
 5   0  0.1413011E-05  0.1902467E+04  0.7818609E-02  0.8653629E-01
        1   -1    0    0  501    0  0.00000000000E+00  0.00000000000E+00  0.69015906194E+03  0.69015906196E+03  0.50400001928E-02 0.  1.
       -1   -1    0    0    0  501  0.00000000000E+00  0.00000000000E+00 -0.13110678027E+04  0.13110678027E+04  0.50400001928E-02 0. -1.
    10030    2    1    2    0    0  0.00000000000E+00  0.00000000000E+00 -0.62090874074E+03  0.20012268647E+04  0.19024671612E+04 0.  0.
        1    1    3    3  502    0  0.89634738551E+03 -0.77627263429E+02 -0.63532421577E+03  0.11014088645E+04  0.50400001928E-02 0. -1.
       -1    1    3    3    0  502 -0.89634738551E+03  0.77627263429E+02  0.14415475032E+02  0.89981800020E+03  0.50400001928E-02 0.  1.
</event>
<event>
 5   0  0.2789718E-05  0.1907277E+04  0.7818609E-02  0.8651243E-01
       -2   -1    0    0    0  501  0.00000000000E+00  0.00000000000E+00  0.90199722126E+03  0.90199722127E+03  0.25500000920E-02 0. -1.
        2   -1    0    0  501    0  0.00000000000E+00  0.00000000000E+00 -0.10082364164E+04  0.10082364164E+04  0.25500000920E-02 0.  1.
    10030    2    1    2    0    0  0.00000000000E+00  0.00000000000E+00 -0.10623919515E+03  0.19102336377E+04  0.19072770601E+04 0.  0.
        5    1    3    3  502    0  0.54341126658E+03 -0.56595715440E+03  0.48975481869E+03  0.92492441729E+03  0.46999998093E+01 0. -1.
       -5    1    3    3    0  502 -0.54341126658E+03  0.56595715440E+03 -0.59599401383E+03  0.98530922039E+03  0.46999998093E+01 0.  1.
</event>
<event>
 5   0  0.1413011E-05  0.1899800E+04  0.7818609E-02  0.8654956E-01
        1   -1    0    0  501    0  0.00000000000E+00  0.00000000000E+00  0.67036458050E+03  0.67036458052E+03  0.50400001928E-02 0.  1.
       -1   -1    0    0    0  501  0.00000000000E+00  0.00000000000E+00 -0.13459992702E+04  0.13459992702E+04  0.50400001928E-02 0. -1.
    10030    2    1    2    0    0  0.00000000000E+00  0.00000000000E+00 -0.67563468968E+03  0.20163638507E+04  0.18998002381E+04 0.  0.
        1    1    3    3  502    0 -0.13474330964E+03  0.25318452304E+03 -0.12989463434E+04  0.13302329741E+04  0.50400001928E-02 0. -1.
       -1    1    3    3    0  502  0.13474330964E+03 -0.25318452304E+03  0.62331165372E+03  0.68613087665E+03  0.50400001928E-02 0.  1.
</event>
<event>
 5   0  0.1413011E-05  0.1898837E+04  0.7818609E-02  0.8655435E-01
       -1   -1    0    0    0  501  0.00000000000E+00  0.00000000000E+00  0.61746728029E+03  0.61746728031E+03  0.50400001928E-02 0. -1.
        1   -1    0    0  501    0  0.00000000000E+00  0.00000000000E+00 -0.14598275278E+04  0.14598275279E+04  0.50400001928E-02 0.  1.
    10030    2    1    2    0    0  0.00000000000E+00  0.00000000000E+00 -0.84236024756E+03  0.20772948082E+04  0.18988372583E+04 0.  0.
        1    1    3    3  502    0 -0.90760824111E+02  0.80933622273E+03 -0.95503136871E+03  0.12551285049E+04  0.50400001928E-02 0.  1.
       -1    1    3    3    0  502  0.90760824111E+02 -0.80933622273E+03  0.11267112116E+03  0.82216630324E+03  0.50400001928E-02 0. -1.
</event>
<event>
 5   0  0.2879462E-05  0.1898585E+04  0.7818609E-02  0.8655561E-01
        2   -1    0    0  501    0  0.00000000000E+00  0.00000000000E+00  0.96725580348E+03  0.96725580349E+03  0.25500000920E-02 0. -1.
       -2   -1    0    0    0  501  0.00000000000E+00  0.00000000000E+00 -0.93166234597E+03  0.93166234597E+03  0.25500000920E-02 0.  1.
    10030    2    1    2    0    0  0.00000000000E+00  0.00000000000E+00  0.35593457513E+02  0.18989181495E+04  0.18985845370E+04 0.  0.
        4    1    3    3  502    0 -0.24558042880E+03  0.49534189450E+03 -0.75401292951E+03  0.93499221933E+03  0.12699999809E+01 0.  1.
       -4    1    3    3    0  502  0.24558042880E+03 -0.49534189450E+03  0.78960638702E+03  0.96392593013E+03  0.12699999809E+01 0. -1.
</event>
<event>
 5   0  0.1429067E-05  0.1898198E+04  0.7818609E-02  0.8655754E-01
        1   -1    0    0  501    0  0.00000000000E+00  0.00000000000E+00  0.13596241407E+04  0.13596241407E+04  0.50400001928E-02 0. -1.
       -1   -1    0    0    0  501  0.00000000000E+00  0.00000000000E+00 -0.66252785819E+03  0.66252785821E+03  0.50400001928E-02 0.  1.
    10030    2    1    2    0    0  0.00000000000E+00  0.00000000000E+00  0.69709628253E+03  0.20221519989E+04  0.18981979559E+04 0.  0.
        3    1    3    3  502    0  0.72307838952E+03  0.32596531902E+03 -0.20673132087E+03  0.81965455884E+03  0.10100000352E+00 0. -1.
       -3    1    3    3    0  502 -0.72307838952E+03 -0.32596531902E+03  0.90382760340E+03  0.12024974401E+04  0.10100000352E+00 0.  1.
</event>
<event>
 5   0  0.1429067E-05  0.1891833E+04  0.7818609E-02  0.8658932E-01
       -1   -1    0    0    0  501  0.00000000000E+00  0.00000000000E+00  0.15268659009E+04  0.15268659009E+04  0.50400001928E-02 0.  1.
        1   -1    0    0  501    0  0.00000000000E+00  0.00000000000E+00 -0.58600944927E+03  0.58600944929E+03  0.50400001928E-02 0. -1.
    10030    2    1    2    0    0  0.00000000000E+00  0.00000000000E+00  0.94085645165E+03  0.21128753502E+04  0.18918328105E+04 0.  0.
        3    1    3    3  502    0 -0.60184412125E+03  0.38375300236E+03  0.11636570413E+04  0.13651301891E+04  0.10100000352E+00 0.  1.
       -3    1    3    3    0  502  0.60184412125E+03 -0.38375300236E+03 -0.22280058964E+03  0.74774516117E+03  0.10100000352E+00 0. -1.
</event>
<event>
 5   0  0.1413011E-05  0.1897057E+04  0.7818609E-02  0.8656322E-01
        1   -1    0    0  501    0  0.00000000000E+00  0.00000000000E+00  0.12055954733E+04  0.12055954733E+04  0.50400001928E-02 0. -1.
       -1   -1    0    0    0  501  0.00000000000E+00  0.00000000000E+00 -0.74627580227E+03  0.74627580228E+03  0.50400001928E-02 0.  1.
    10030    2    1    2    0    0  0.00000000000E+00  0.00000000000E+00  0.45931967105E+03  0.19518712756E+04  0.18970574362E+04 0.  0.
        1    1    3    3  502    0 -0.68457289202E+03 -0.45486589501E+03  0.71679932669E+03  0.10905706312E+04  0.50400001928E-02 0. -1.
       -1    1    3    3    0  502  0.68457289202E+03  0.45486589501E+03 -0.25747965564E+03  0.86130064439E+03  0.50400001928E-02 0.  1.
</event>
<event>
 5   0  0.1327254E-05  0.1900038E+04  0.7818609E-02  0.8654837E-01
       -1   -1    0    0    0  501  0.00000000000E+00  0.00000000000E+00  0.93578351686E+03  0.93578351687E+03  0.50400001928E-02 0.  1.
        1   -1    0    0  501    0  0.00000000000E+00  0.00000000000E+00 -0.96447102690E+03  0.96447102692E+03  0.50400001928E-02 0. -1.
    10030    2    1    2    0    0  0.00000000000E+00  0.00000000000E+00 -0.28687510046E+02  0.19002545438E+04  0.19000379886E+04 0.  0.
        5    1    3    3  502    0 -0.76385959558E+03  0.22771741572E+03 -0.53129462540E+03  0.95793150703E+03  0.46999998093E+01 0. -1.
       -5    1    3    3    0  502  0.76385959558E+03 -0.22771741572E+03  0.50260711536E+03  0.94232303675E+03  0.46999998093E+01 0.  1.
</event>
<event>
 5   0  0.1327254E-05  0.1901048E+04  0.7818609E-02  0.8654335E-01
       -1   -1    0    0    0  501  0.00000000000E+00  0.00000000000E+00  0.17449879666E+04  0.17449879666E+04  0.50400001928E-02 0. -1.
        1   -1    0    0  501    0  0.00000000000E+00  0.00000000000E+00 -0.51776602851E+03  0.51776602853E+03  0.50400001928E-02 0.  1.
    10030    2    1    2    0    0  0.00000000000E+00  0.00000000000E+00  0.12272219381E+04  0.22627539951E+04  0.19010475946E+04 0.  0.
        5    1    3    3  502    0 -0.33334943844E+03 -0.84920510527E+03  0.93121878382E+03  0.13036340254E+04  0.46999998093E+01 0.  1.
       -5    1    3    3    0  502  0.33334943844E+03  0.84920510527E+03  0.29600315423E+03  0.95911996968E+03  0.46999998093E+01 0. -1.
</event>
<event>
 5   0  0.1344119E-05  0.1902598E+04  0.7818609E-02  0.8653564E-01
       -1   -1    0    0    0  501  0.00000000000E+00  0.00000000000E+00  0.27563717877E+03  0.27563717881E+03  0.50400001928E-02 0. -1.
        1   -1    0    0  501    0  0.00000000000E+00  0.00000000000E+00 -0.32831917673E+04  0.32831917673E+04  0.50400001928E-02 0.  1.
    10030    2    1    2    0    0  0.00000000000E+00  0.00000000000E+00 -0.30075545885E+04  0.35588289461E+04  0.19025979251E+04 0.  0.
        2    1    3    3  502    0  0.40584851564E+03 -0.60276842649E+03 -0.35538921728E+03  0.80891550200E+03  0.25500000920E-02 0. -1.
       -2    1    3    3    0  502 -0.40584851564E+03  0.60276842649E+03 -0.26521653712E+04  0.27499134441E+04  0.25500000920E-02 0.  1.
</event>
<event>
 5   0  0.1344119E-05  0.1900784E+04  0.7818609E-02  0.8654466E-01
        1   -1    0    0  501    0  0.00000000000E+00  0.00000000000E+00  0.12695653076E+04  0.12695653076E+04  0.50400001928E-02 0. -1.
       -1   -1    0    0    0  501  0.00000000000E+00  0.00000000000E+00 -0.71145993388E+03  0.71145993390E+03  0.50400001928E-02 0.  1.
    10030    2    1    2    0    0  0.00000000000E+00  0.00000000000E+00  0.55810537374E+03  0.19810252415E+04  0.19007838908E+04 0.  0.
        2    1    3    3  502    0  0.33496901997E+03 -0.45296511261E+02  0.12048004991E+04  0.12513194080E+04  0.25500000920E-02 0. -1.
       -2    1    3    3    0  502 -0.33496901997E+03  0.45296511261E+02 -0.64669512536E+03  0.72970583350E+03  0.25500000920E-02 0.  1.
</event>
<event>
 5   0  0.1344119E-05  0.1900825E+04  0.7818609E-02  0.8654446E-01
       -1   -1    0    0    0  501  0.00000000000E+00  0.00000000000E+00  0.87094652394E+03  0.87094652396E+03  0.50400001928E-02 0. -1.
        1   -1    0    0  501    0  0.00000000000E+00  0.00000000000E+00 -0.10371288029E+04  0.10371288029E+04  0.50400001928E-02 0.  1.
    10030    2    1    2    0    0  0.00000000000E+00  0.00000000000E+00 -0.16618227891E+03  0.19080753268E+04  0.19008247954E+04 0.  0.
        2    1    3    3  502    0  0.50852898201E+03 -0.60232293490E+03  0.44986633225E+03  0.90762016303E+03  0.25500000920E-02 0. -1.
       -2    1    3    3    0  502 -0.50852898201E+03  0.60232293490E+03 -0.61604861115E+03  0.10004551638E+04  0.25500000920E-02 0.  1.
</event>
<event>
 5   0  0.2789718E-05  0.1898493E+04  0.7818609E-02  0.8655607E-01
        2   -1    0    0  501    0  0.00000000000E+00  0.00000000000E+00  0.14305902480E+04  0.14305902480E+04  0.25500000920E-02 0. -1.
       -2   -1    0    0    0  501  0.00000000000E+00  0.00000000000E+00 -0.62985826682E+03  0.62985826683E+03  0.25500000920E-02 0.  1.
    10030    2    1    2    0    0  0.00000000000E+00  0.00000000000E+00  0.80073198115E+03  0.20604485148E+04  0.18984931858E+04 0.  0.
        5    1    3    3  502    0  0.55815521255E+03  0.91136981484E+02  0.12277687254E+04  0.13517697007E+04  0.46999998093E+01 0. -1.
       -5    1    3    3    0  502 -0.55815521255E+03 -0.91136981484E+02 -0.42703674421E+03  0.70867881413E+03  0.46999998093E+01 0.  1.
</event>
<event>
 5   0  0.1413011E-05  0.1896583E+04  0.7818609E-02  0.8656559E-01
       -1   -1    0    0    0  501  0.00000000000E+00  0.00000000000E+00  0.13462423683E+04  0.13462423683E+04  0.50400001928E-02 0.  1.
        1   -1    0    0  501    0  0.00000000000E+00  0.00000000000E+00 -0.66797512261E+03  0.66797512263E+03  0.50400001928E-02 0. -1.
    10030    2    1    2    0    0  0.00000000000E+00  0.00000000000E+00  0.67826724567E+03  0.20142174909E+04  0.18965826226E+04 0.  0.
        1    1    3    3  502    0  0.43101988789E+03  0.96725253725E+02  0.12302998197E+04  0.13071998948E+04  0.50400001928E-02 0.  1.
       -1    1    3    3    0  502 -0.43101988789E+03 -0.96725253725E+02 -0.55203257403E+03  0.70701759617E+03  0.50400001928E-02 0. -1.
</event>
<event>
 5   0  0.1010725E-05  0.1897659E+04  0.7818609E-02  0.8656023E-01
       -3   -1    0    0    0  501  0.00000000000E+00  0.00000000000E+00  0.79172387992E+03  0.79172388636E+03  0.10100000352E+00 0.  1.
        3   -1    0    0  501    0  0.00000000000E+00  0.00000000000E+00 -0.11371100800E+04  0.11371100845E+04  0.10100000352E+00 0. -1.
    10030    2    1    2    0    0  0.00000000000E+00  0.00000000000E+00 -0.34538620009E+03  0.19288339709E+04  0.18976587838E+04 0.  0.
        5    1    3    3  502    0  0.47334459666E+03 -0.44379119533E+03 -0.87634442029E+03  0.10904161431E+04  0.46999998093E+01 0. -1.
       -5    1    3    3    0  502 -0.47334459666E+03  0.44379119533E+03  0.53095822020E+03  0.83841782772E+03  0.46999998093E+01 0.  1.
</event>
<event>
 5   0  0.2789718E-05  0.1898582E+04  0.7818609E-02  0.8655563E-01
       -2   -1    0    0    0  501  0.00000000000E+00  0.00000000000E+00  0.57553421937E+03  0.57553421937E+03  0.25500000920E-02 0. -1.
        2   -1    0    0  501    0  0.00000000000E+00  0.00000000000E+00 -0.15657680120E+04  0.15657680120E+04  0.25500000920E-02 0.  1.
    10030    2    1    2    0    0  0.00000000000E+00  0.00000000000E+00 -0.99023379267E+03  0.21413022314E+04  0.18985816501E+04 0.  0.
        5    1    3    3  502    0  0.33542552547E+03 -0.87393093482E+03 -0.31726988251E+03  0.98840671301E+03  0.46999998093E+01 0.  1.
       -5    1    3    3    0  502 -0.33542552547E+03  0.87393093482E+03 -0.67296391016E+03  0.11528955184E+04  0.46999998093E+01 0. -1.
</event>
<event>
 5   0  0.1471485E-05  0.1902849E+04  0.7818609E-02  0.8653440E-01
        1   -1    0    0  501    0  0.00000000000E+00  0.00000000000E+00  0.12232825900E+04  0.12232825900E+04  0.50400001928E-02 0. -1.
       -1   -1    0    0    0  501  0.00000000000E+00  0.00000000000E+00 -0.73998304748E+03  0.73998304749E+03  0.50400001928E-02 0.  1.
    10030    2    1    2    0    0  0.00000000000E+00  0.00000000000E+00  0.48329954254E+03  0.19632656375E+04  0.19028487895E+04 0.  0.
        4    1    3    3  502    0 -0.85436708115E+03  0.25242370439E+03  0.58623896319E+03  0.10664607685E+04  0.12699999809E+01 0. -1.
       -4    1    3    3    0  502  0.85436708115E+03 -0.25242370439E+03 -0.10293942065E+03  0.89680486902E+03  0.12699999809E+01 0.  1.
</event>
<event>
 5   0  0.2879462E-05  0.1899287E+04  0.7818609E-02  0.8655211E-01
       -2   -1    0    0    0  501  0.00000000000E+00  0.00000000000E+00  0.61062040993E+03  0.61062040994E+03  0.25500000920E-02 0. -1.
        2   -1    0    0  501    0  0.00000000000E+00  0.00000000000E+00 -0.14768961422E+04  0.14768961422E+04  0.25500000920E-02 0.  1.
    10030    2    1    2    0    0  0.00000000000E+00  0.00000000000E+00 -0.86627573227E+03  0.20875165521E+04  0.18992871587E+04 0.  0.
        4    1    3    3  502    0 -0.81957733944E+03 -0.15818413225E+03 -0.93089069907E+03  0.12503152969E+04  0.12699999809E+01 0.  1.
       -4    1    3    3    0  502  0.81957733944E+03  0.15818413225E+03  0.64614966803E+02  0.83720125529E+03  0.12699999809E+01 0. -1.
</event>
<event>
 5   0  0.2855141E-05  0.1910330E+04  0.7818609E-02  0.8649732E-01
        2   -1    0    0  501    0  0.00000000000E+00  0.00000000000E+00  0.11683753461E+04  0.11683753461E+04  0.25500000920E-02 0.  1.
       -2   -1    0    0    0  501  0.00000000000E+00  0.00000000000E+00 -0.78086202833E+03  0.78086202834E+03  0.25500000920E-02 0. -1.
    10030    2    1    2    0    0  0.00000000000E+00  0.00000000000E+00  0.38751331773E+03  0.19492373744E+04  0.19103297543E+04 0.  0.
        1    1    3    3  502    0 -0.63640315821E+03 -0.65373873355E+03  0.48228178080E+03  0.10319782108E+04  0.50400001928E-02 0.  1.
       -1    1    3    3    0  502  0.63640315821E+03  0.65373873355E+03 -0.94768463075E+02  0.91725916356E+03  0.50400001928E-02 0. -1.
</event>
<event>
 5   0  0.1429067E-05  0.1904452E+04  0.7818609E-02  0.8652643E-01
        1   -1    0    0  501    0  0.00000000000E+00  0.00000000000E+00  0.58444320734E+03  0.58444320737E+03  0.50400001928E-02 0.  1.
       -1   -1    0    0    0  501  0.00000000000E+00  0.00000000000E+00 -0.15514499273E+04  0.15514499273E+04  0.50400001928E-02 0. -1.
    10030    2    1    2    0    0  0.00000000000E+00  0.00000000000E+00 -0.96700671991E+03  0.21358931346E+04  0.19044520173E+04 0.  0.
        3    1    3    3  502    0  0.67751358964E+03 -0.17300437760E+03  0.24140462337E+03  0.73975089131E+03  0.10100000352E+00 0.  1.
       -3    1    3    3    0  502 -0.67751358964E+03  0.17300437760E+03 -0.12084113433E+04  0.13961422433E+04  0.10100000352E+00 0. -1.
</event>
<event>
 5   0  0.2888776E-05  0.1899377E+04  0.7818609E-02  0.8655167E-01
        2   -1    0    0  501    0  0.00000000000E+00  0.00000000000E+00  0.16307857626E+04  0.16307857626E+04  0.25500000920E-02 0. -1.
       -2   -1    0    0    0  501  0.00000000000E+00  0.00000000000E+00 -0.55305117824E+03  0.55305117825E+03  0.25500000920E-02 0.  1.
    10030    2    1    2    0    0  0.00000000000E+00  0.00000000000E+00  0.10777345844E+04  0.21838369409E+04  0.18993767267E+04 0.  0.
        3    1    3    3  502    0 -0.18912255132E+03 -0.61836102290E+03  0.13385702263E+04  0.14865759163E+04  0.10100000352E+00 0. -1.
       -3    1    3    3    0  502  0.18912255132E+03  0.61836102290E+03 -0.26083564192E+03  0.69726102455E+03  0.10100000352E+00 0.  1.
</event>
<event>
 5   0  0.1471485E-05  0.1895212E+04  0.7818609E-02  0.8657244E-01
       -1   -1    0    0    0  501  0.00000000000E+00  0.00000000000E+00  0.11871204707E+04  0.11871204707E+04  0.50400001928E-02 0.  1.
        1   -1    0    0  501    0  0.00000000000E+00  0.00000000000E+00 -0.75641579258E+03  0.75641579260E+03  0.50400001928E-02 0. -1.
    10030    2    1    2    0    0  0.00000000000E+00  0.00000000000E+00  0.43070467807E+03  0.19435362633E+04  0.18952115151E+04 0.  0.
        4    1    3    3  502    0  0.62272589022E+02 -0.44313082447E+03  0.10719426106E+04  0.11615960469E+04  0.12699999809E+01 0.  1.
       -4    1    3    3    0  502 -0.62272589022E+02  0.44313082447E+03 -0.64123793251E+03  0.78194021634E+03  0.12699999809E+01 0. -1.
</event>
<event>
 5   0  0.2813537E-05  0.1866662E+04  0.7818609E-02  0.8671631E-01
       -2   -1    0    0    0  501  0.00000000000E+00  0.00000000000E+00  0.13616614588E+04  0.13616614588E+04  0.25500000920E-02 0.  1.
        2   -1    0    0  501    0  0.00000000000E+00  0.00000000000E+00 -0.63973808528E+03  0.63973808528E+03  0.25500000920E-02 0. -1.
    10030    2    1    2    0    0  0.00000000000E+00  0.00000000000E+00  0.72192337354E+03  0.20013995441E+04  0.18666619345E+04 0.  0.
        2    1    3    3  502    0 -0.41610411267E+02 -0.23691542174E+03  0.13278564028E+04  0.13494676617E+04  0.25500000920E-02 0.  1.
       -2    1    3    3    0  502  0.41610411267E+02  0.23691542174E+03 -0.60593302927E+03  0.65193188244E+03  0.25500000920E-02 0. -1.
</event>
<event>
 5   0  0.1471485E-05  0.1900810E+04  0.7818609E-02  0.8654453E-01
       -1   -1    0    0    0  501  0.00000000000E+00  0.00000000000E+00  0.41704172386E+03  0.41704172389E+03  0.50400001928E-02 0. -1.
        1   -1    0    0  501    0  0.00000000000E+00  0.00000000000E+00 -0.21658985011E+04  0.21658985011E+04  0.50400001928E-02 0.  1.
    10030    2    1    2    0    0  0.00000000000E+00  0.00000000000E+00 -0.17488567772E+04  0.25829402250E+04  0.19008104005E+04 0.  0.
        4    1    3    3  502    0  0.67450877825E+03  0.31375645896E+02  0.34407860851E+02  0.67611540204E+03  0.12699999809E+01 0. -1.
       -4    1    3    3    0  502 -0.67450877825E+03 -0.31375645896E+02 -0.17832646381E+04  0.19068248229E+04  0.12699999809E+01 0.  1.
</event>
<event>
 5   0  0.1471485E-05  0.1897919E+04  0.7818609E-02  0.8655893E-01
       -1   -1    0    0    0  501  0.00000000000E+00  0.00000000000E+00  0.83241016317E+03  0.83241016319E+03  0.50400001928E-02 0.  1.
        1   -1    0    0  501    0  0.00000000000E+00  0.00000000000E+00 -0.10818277487E+04  0.10818277487E+04  0.50400001928E-02 0. -1.
    10030    2    1    2    0    0  0.00000000000E+00  0.00000000000E+00 -0.24941758554E+03  0.19142379119E+04  0.18979192953E+04 0.  0.
        4    1    3    3  502    0  0.45120912923E+03 -0.82305395560E+03 -0.26560713239E+03  0.97547744915E+03  0.12699999809E+01 0. -1.
       -4    1    3    3    0  502 -0.45120912923E+03  0.82305395560E+03  0.16189546847E+02  0.93876046277E+03  0.12699999809E+01 0.  1.
</event>
<event>
 5   0  0.1344119E-05  0.1896746E+04  0.7818609E-02  0.8656478E-01
        1   -1    0    0  501    0  0.00000000000E+00  0.00000000000E+00  0.23279472584E+04  0.23279472584E+04  0.50400001928E-02 0. -1.
       -1   -1    0    0    0  501  0.00000000000E+00  0.00000000000E+00 -0.38635396786E+03  0.38635396789E+03  0.50400001928E-02 0.  1.
    10030    2    1    2    0    0  0.00000000000E+00  0.00000000000E+00  0.19415932905E+04  0.27143012263E+04  0.18967463302E+04 0.  0.
        2    1    3    3  502    0 -0.11825187888E+03 -0.39103449629E+03  0.21955780555E+04  0.22332609525E+04  0.25500000920E-02 0. -1.
       -2    1    3    3    0  502  0.11825187888E+03  0.39103449629E+03 -0.25398476498E+03  0.48104027378E+03  0.25500000920E-02 0.  1.
</event>
<event>
 5   0  0.2813537E-05  0.1896679E+04  0.7818609E-02  0.8656511E-01
       -2   -1    0    0    0  501  0.00000000000E+00  0.00000000000E+00  0.51989820563E+03  0.51989820563E+03  0.25500000920E-02 0. -1.
        2   -1    0    0  501    0  0.00000000000E+00  0.00000000000E+00 -0.17298538374E+04  0.17298538374E+04  0.25500000920E-02 0.  1.
    10030    2    1    2    0    0  0.00000000000E+00  0.00000000000E+00 -0.12099556318E+04  0.22497520430E+04  0.18966791042E+04 0.  0.
        2    1    3    3  502    0 -0.48404315189E+02 -0.44398789318E+03 -0.15972995130E+04  0.16585638249E+04  0.25500000920E-02 0.  1.
       -2    1    3    3    0  502  0.48404315189E+02  0.44398789318E+03  0.38734388118E+03  0.59118821818E+03  0.25500000920E-02 0. -1.
</event>
<event>
 5   0  0.2855141E-05  0.1905629E+04  0.7818609E-02  0.8652060E-01
        2   -1    0    0  501    0  0.00000000000E+00  0.00000000000E+00  0.10565403587E+04  0.10565403587E+04  0.25500000920E-02 0.  1.
       -2   -1    0    0    0  501  0.00000000000E+00  0.00000000000E+00 -0.85927195171E+03  0.85927195172E+03  0.25500000920E-02 0. -1.
    10030    2    1    2    0    0  0.00000000000E+00  0.00000000000E+00  0.19726840695E+03  0.19158123104E+04  0.19056290259E+04 0.  0.
        1    1    3    3  502    0 -0.77856946366E+03 -0.47808683148E+03  0.37048271139E+03  0.98589800063E+03  0.50400001928E-02 0. -1.
       -1    1    3    3    0  502  0.77856946366E+03  0.47808683148E+03 -0.17321430445E+03  0.92991430975E+03  0.50400001928E-02 0.  1.
</event>
<event>
 5   0  0.1010725E-05  0.1897442E+04  0.7818609E-02  0.8656131E-01
       -4   -1    0    0    0  501  0.00000000000E+00  0.00000000000E+00  0.60953088585E+03  0.60953220891E+03  0.12699999809E+01 0. -1.
        4   -1    0    0  501    0  0.00000000000E+00  0.00000000000E+00 -0.14766593102E+04  0.14766598564E+04  0.12699999809E+01 0.  1.
    10030    2    1    2    0    0  0.00000000000E+00  0.00000000000E+00 -0.86712842440E+03  0.20861920653E+04  0.18974418644E+04 0.  0.
        5    1    3    3  502    0 -0.26814913836E+02 -0.33602452162E+03 -0.14085818630E+04  0.14483633776E+04  0.46999998093E+01 0.  1.
       -5    1    3    3    0  502  0.26814913836E+02  0.33602452162E+03  0.54145343859E+03  0.63782868773E+03  0.46999998093E+01 0. -1.
</event>
<event>
 5   0  0.2855141E-05  0.1900269E+04  0.7818609E-02  0.8654723E-01
       -2   -1    0    0    0  501  0.00000000000E+00  0.00000000000E+00  0.59333731916E+03  0.59333731917E+03  0.25500000920E-02 0.  1.
        2   -1    0    0  501    0  0.00000000000E+00  0.00000000000E+00 -0.15214874371E+04  0.15214874371E+04  0.25500000920E-02 0. -1.
    10030    2    1    2    0    0  0.00000000000E+00  0.00000000000E+00 -0.92815011798E+03  0.21148247563E+04  0.19002686937E+04 0.  0.
        1    1    3    3  502    0 -0.82599496205E+03 -0.44512187395E+03 -0.63046923933E+03  0.11304391278E+04  0.50400001928E-02 0. -1.
       -1    1    3    3    0  502  0.82599496205E+03  0.44512187395E+03 -0.29768087864E+03  0.98438562847E+03  0.50400001928E-02 0.  1.
</event>
<event>
 5   0  0.1413011E-05  0.1894317E+04  0.7818609E-02  0.8657690E-01
       -1   -1    0    0    0  501  0.00000000000E+00  0.00000000000E+00  0.11248957832E+04  0.11248957833E+04  0.50400001928E-02 0. -1.
        1   -1    0    0  501    0  0.00000000000E+00  0.00000000000E+00 -0.79750436473E+03  0.79750436475E+03  0.50400001928E-02 0.  1.
    10030    2    1    2    0    0  0.00000000000E+00  0.00000000000E+00  0.32739141851E+03  0.19224001480E+04  0.18943170770E+04 0.  0.
        1    1    3    3  502    0 -0.32476762676E+03 -0.88915620811E+03  0.19636807863E+03  0.96676429192E+03  0.50400001928E-02 0. -1.
       -1    1    3    3    0  502  0.32476762676E+03  0.88915620811E+03  0.13102333988E+03  0.95563585608E+03  0.50400001928E-02 0.  1.
</event>
<event>
 5   0  0.2789718E-05  0.1911755E+04  0.7818609E-02  0.8649027E-01
       -2   -1    0    0    0  501  0.00000000000E+00  0.00000000000E+00  0.59991676132E+03  0.59991676132E+03  0.25500000920E-02 0. -1.
        2   -1    0    0  501    0  0.00000000000E+00  0.00000000000E+00 -0.15230483638E+04  0.15230483638E+04  0.25500000920E-02 0.  1.
    10030    2    1    2    0    0  0.00000000000E+00  0.00000000000E+00 -0.92313160245E+03  0.21229651251E+04  0.19117554673E+04 0.  0.
        5    1    3    3  502    0  0.84604261778E+03 -0.32852771703E+02  0.31082646111E+02  0.84726361695E+03  0.46999998093E+01 0. -1.
       -5    1    3    3    0  502 -0.84604261778E+03  0.32852771703E+02 -0.95421424856E+03  0.12757015081E+04  0.46999998093E+01 0.  1.
</event>
<event>
 5   0  0.2879462E-05  0.1903986E+04  0.7818609E-02  0.8652875E-01
        2   -1    0    0  501    0  0.00000000000E+00  0.00000000000E+00  0.15237796804E+04  0.15237796804E+04  0.25500000920E-02 0.  1.
       -2   -1    0    0    0  501  0.00000000000E+00  0.00000000000E+00 -0.59476506394E+03  0.59476506395E+03  0.25500000920E-02 0. -1.
    10030    2    1    2    0    0  0.00000000000E+00  0.00000000000E+00  0.92901461642E+03  0.21185447443E+04  0.19039862594E+04 0.  0.
        4    1    3    3  502    0 -0.63402579698E+03 -0.70790281108E+03  0.52719630422E+03  0.10867624659E+04  0.12699999809E+01 0.  1.
       -4    1    3    3    0  502  0.63402579698E+03  0.70790281108E+03  0.40181831220E+03  0.10317822784E+04  0.12699999809E+01 0. -1.
</event>
<event>
 5   0  0.2879462E-05  0.1907123E+04  0.7818609E-02  0.8651319E-01
        2   -1    0    0  501    0  0.00000000000E+00  0.00000000000E+00  0.16945865640E+04  0.16945865640E+04  0.25500000920E-02 0. -1.
       -2   -1    0    0    0  501  0.00000000000E+00  0.00000000000E+00 -0.53657913775E+03  0.53657913776E+03  0.25500000920E-02 0.  1.
    10030    2    1    2    0    0  0.00000000000E+00  0.00000000000E+00  0.11580074262E+04  0.22311657018E+04  0.19071232759E+04 0.  0.
        4    1    3    3  502    0 -0.32924808995E+03  0.84970230318E+03  0.90757996206E+03  0.12861186995E+04  0.12699999809E+01 0. -1.
       -4    1    3    3    0  502  0.32924808995E+03 -0.84970230318E+03  0.25042746418E+03  0.94504700226E+03  0.12699999809E+01 0.  1.
</event>
<event>
 5   0  0.1344119E-05  0.1899914E+04  0.7818609E-02  0.8654899E-01
        1   -1    0    0  501    0  0.00000000000E+00  0.00000000000E+00  0.96547251673E+03  0.96547251674E+03  0.50400001928E-02 0. -1.
       -1   -1    0    0    0  501  0.00000000000E+00  0.00000000000E+00 -0.93469086202E+03  0.93469086204E+03  0.50400001928E-02 0.  1.
    10030    2    1    2    0    0  0.00000000000E+00  0.00000000000E+00  0.30781654707E+02  0.19001633788E+04  0.18999140391E+04 0.  0.
        2    1    3    3  502    0  0.36715193460E+03 -0.29041427491E+03 -0.81132357291E+03  0.93668934771E+03  0.25500000920E-02 0.  1.
       -2    1    3    3    0  502 -0.36715193460E+03  0.29041427491E+03  0.84210522762E+03  0.96347403107E+03  0.25500000920E-02 0. -1.
</event>
<event>
 5   0  0.1429067E-05  0.1899724E+04  0.7818609E-02  0.8654994E-01
        1   -1    0    0  501    0  0.00000000000E+00  0.00000000000E+00  0.10389693332E+04  0.10389693332E+04  0.50400001928E-02 0. -1.
       -1   -1    0    0    0  501  0.00000000000E+00  0.00000000000E+00 -0.86839686764E+03  0.86839686766E+03  0.50400001928E-02 0.  1.
    10030    2    1    2    0    0  0.00000000000E+00  0.00000000000E+00  0.17057246556E+03  0.19073662009E+04  0.18997238900E+04 0.  0.
        3    1    3    3  502    0  0.43723917086E+03  0.30635383806E+03 -0.70349941134E+03  0.88314336242E+03  0.10100000352E+00 0.  1.
       -3    1    3    3    0  502 -0.43723917086E+03 -0.30635383806E+03  0.87407187690E+03  0.10242228385E+04  0.10100000352E+00 0. -1.
</event>
<event>
 5   0  0.1327254E-05  0.1953233E+04  0.7818609E-02  0.8628803E-01
       -1   -1    0    0    0  501  0.00000000000E+00  0.00000000000E+00  0.82151037570E+03  0.82151037572E+03  0.50400001928E-02 0. -1.
        1   -1    0    0  501    0  0.00000000000E+00  0.00000000000E+00 -0.11610080129E+04  0.11610080129E+04  0.50400001928E-02 0.  1.
    10030    2    1    2    0    0  0.00000000000E+00  0.00000000000E+00 -0.33949763717E+03  0.19825183886E+04  0.19532333490E+04 0.  0.
        5    1    3    3  502    0  0.68204124696E+03 -0.61104096677E+03 -0.51425894103E+03  0.10502550519E+04  0.46999998093E+01 0. -1.
       -5    1    3    3    0  502 -0.68204124696E+03  0.61104096677E+03  0.17476130386E+03  0.93226333669E+03  0.46999998093E+01 0.  1.
</event>
<event>
 5   0  0.2879462E-05  0.1902476E+04  0.7818609E-02  0.8653625E-01
       -2   -1    0    0    0  501  0.00000000000E+00  0.00000000000E+00  0.74424290322E+03  0.74424290322E+03  0.25500000920E-02 0. -1.
        2   -1    0    0  501    0  0.00000000000E+00  0.00000000000E+00 -0.12158042920E+04  0.12158042920E+04  0.25500000920E-02 0.  1.
    10030    2    1    2    0    0  0.00000000000E+00  0.00000000000E+00 -0.47156138878E+03  0.19600471952E+04  0.19024759825E+04 0.  0.
        4    1    3    3  502    0 -0.65417038748E+03 -0.90583479031E+02 -0.94112059963E+03  0.11497190346E+04  0.12699999809E+01 0.  1.
       -4    1    3    3    0  502  0.65417038748E+03  0.90583479031E+02  0.46955921085E+03  0.81032816064E+03  0.12699999809E+01 0. -1.
</event>
<event>
 5   0  0.2789718E-05  0.1895365E+04  0.7818609E-02  0.8657167E-01
        2   -1    0    0  501    0  0.00000000000E+00  0.00000000000E+00  0.12722536469E+04  0.12722536469E+04  0.25500000920E-02 0.  1.
       -2   -1    0    0    0  501  0.00000000000E+00  0.00000000000E+00 -0.70591430553E+03  0.70591430553E+03  0.25500000920E-02 0. -1.
    10030    2    1    2    0    0  0.00000000000E+00  0.00000000000E+00  0.56633934141E+03  0.19781679525E+04  0.18953649249E+04 0.  0.
        5    1    3    3  502    0 -0.58590343277E+03 -0.50232331078E+03  0.85716761910E+03  0.11534166456E+04  0.46999998093E+01 0.  1.
       -5    1    3    3    0  502  0.58590343277E+03  0.50232331078E+03 -0.29082827770E+03  0.82475130688E+03  0.46999998093E+01 0. -1.
</event>
<event>
 5   0  0.2855141E-05  0.1901850E+04  0.7818609E-02  0.8653936E-01
        2   -1    0    0  501    0  0.00000000000E+00  0.00000000000E+00  0.13038401958E+04  0.13038401958E+04  0.25500000920E-02 0. -1.
       -2   -1    0    0    0  501  0.00000000000E+00  0.00000000000E+00 -0.69353480599E+03  0.69353480599E+03  0.25500000920E-02 0.  1.
    10030    2    1    2    0    0  0.00000000000E+00  0.00000000000E+00  0.61030538978E+03  0.19973750018E+04  0.19018502120E+04 0.  0.
        1    1    3    3  502    0 -0.49170026216E+02  0.56777932396E+02 -0.69041466104E+03  0.69448817793E+03  0.50400001928E-02 0.  1.
       -1    1    3    3    0  502  0.49170026216E+02 -0.56777932396E+02  0.13007200508E+04  0.13028868238E+04  0.50400001928E-02 0. -1.
</event>
<event>
 5   0  0.2855141E-05  0.1900061E+04  0.7818609E-02  0.8654826E-01
        2   -1    0    0  501    0  0.00000000000E+00  0.00000000000E+00  0.78766178797E+03  0.78766178798E+03  0.25500000920E-02 0. -1.
       -2   -1    0    0    0  501  0.00000000000E+00  0.00000000000E+00 -0.11458700807E+04  0.11458700807E+04  0.25500000920E-02 0.  1.
    10030    2    1    2    0    0  0.00000000000E+00  0.00000000000E+00 -0.35820829270E+03  0.19335318687E+04  0.19000611322E+04 0.  0.
        1    1    3    3  502    0 -0.43771130488E+03  0.57359548789E+03 -0.80801620328E+03  0.10832788907E+04  0.50400001928E-02 0.  1.
       -1    1    3    3    0  502  0.43771130488E+03 -0.57359548789E+03  0.44980791058E+03  0.85025297800E+03  0.50400001928E-02 0. -1.
</event>
<event>
 5   0  0.1010725E-05  0.1897563E+04  0.7818609E-02  0.8656070E-01
        3   -1    0    0  501    0  0.00000000000E+00  0.00000000000E+00  0.78207179106E+03  0.78207179758E+03  0.10100000352E+00 0. -1.
       -3   -1    0    0    0  501  0.00000000000E+00  0.00000000000E+00 -0.11510280374E+04  0.11510280419E+04  0.10100000352E+00 0.  1.
    10030    2    1    2    0    0  0.00000000000E+00  0.00000000000E+00 -0.36895624638E+03  0.19330998395E+04  0.18975632473E+04 0.  0.
        1    1    3    3  502    0 -0.66240651626E+03  0.57423570042E+03 -0.55411976248E+03  0.10371006430E+04  0.50400001928E-02 0.  1.
       -1    1    3    3    0  502  0.66240651626E+03 -0.57423570042E+03  0.18516351610E+03  0.89599919651E+03  0.50400001928E-02 0. -1.
</event>
<event>
 5   0  0.1010725E-05  0.1902783E+04  0.7818609E-02  0.8653472E-01
       -3   -1    0    0    0  501  0.00000000000E+00  0.00000000000E+00  0.10369144503E+04  0.10369144552E+04  0.10100000352E+00 0. -1.
        3   -1    0    0  501    0  0.00000000000E+00  0.00000000000E+00 -0.87292273056E+03  0.87292273640E+03  0.10100000352E+00 0.  1.
    10030    2    1    2    0    0  0.00000000000E+00  0.00000000000E+00  0.16399171972E+03  0.19098371916E+04  0.19027834386E+04 0.  0.
        1    1    3    3  502    0 -0.23536966293E+03 -0.87065997838E+03 -0.22194435363E+03  0.92882020452E+03  0.50400001928E-02 0.  1.
       -1    1    3    3    0  502  0.23536966293E+03  0.87065997838E+03  0.38593607335E+03  0.98101698707E+03  0.50400001928E-02 0. -1.
</event>
<event>
 5   0  0.2879462E-05  0.1899057E+04  0.7818609E-02  0.8655326E-01
       -2   -1    0    0    0  501  0.00000000000E+00  0.00000000000E+00  0.13435554754E+04  0.13435554754E+04  0.25500000920E-02 0.  1.
        2   -1    0    0  501    0  0.00000000000E+00  0.00000000000E+00 -0.67105850853E+03  0.67105850853E+03  0.25500000920E-02 0. -1.
    10030    2    1    2    0    0  0.00000000000E+00  0.00000000000E+00  0.67249696683E+03  0.20146139839E+04  0.18990569590E+04 0.  0.
        4    1    3    3  502    0 -0.51979568108E+03  0.96695035815E+02  0.11729524361E+04  0.12866065872E+04  0.12699999809E+01 0.  1.
       -4    1    3    3    0  502  0.51979568108E+03 -0.96695035815E+02 -0.50045546926E+03  0.72800739669E+03  0.12699999809E+01 0. -1.
</event>
<event>
 5   0  0.1471485E-05  0.1902759E+04  0.7818609E-02  0.8653484E-01
        1   -1    0    0  501    0  0.00000000000E+00  0.00000000000E+00  0.50998328595E+03  0.50998328598E+03  0.50400001928E-02 0. -1.
       -1   -1    0    0    0  501  0.00000000000E+00  0.00000000000E+00 -0.17748082122E+04  0.17748082122E+04  0.50400001928E-02 0.  1.
    10030    2    1    2    0    0  0.00000000000E+00  0.00000000000E+00 -0.12648249262E+04  0.22847914981E+04  0.19027585491E+04 0.  0.
        4    1    3    3  502    0 -0.19144063451E+03 -0.82787054747E+03 -0.11859466800E+03  0.85795423426E+03  0.12699999809E+01 0. -1.
       -4    1    3    3    0  502  0.19144063451E+03  0.82787054747E+03 -0.11462302582E+04  0.14268372639E+04  0.12699999809E+01 0.  1.
</event>
<event>
 5   0  0.2879462E-05  0.1895877E+04  0.7818609E-02  0.8656912E-01
       -2   -1    0    0    0  501  0.00000000000E+00  0.00000000000E+00  0.60242613547E+03  0.60242613548E+03  0.25500000920E-02 0.  1.
        2   -1    0    0  501    0  0.00000000000E+00  0.00000000000E+00 -0.14916138262E+04  0.14916138262E+04  0.25500000920E-02 0. -1.
    10030    2    1    2    0    0  0.00000000000E+00  0.00000000000E+00 -0.88918769072E+03  0.20940399617E+04  0.18958767396E+04 0.  0.
        4    1    3    3  502    0 -0.83193583844E+03 -0.26206688717E+03 -0.85459259385E+03  0.12211168687E+04  0.12699999809E+01 0. -1.
       -4    1    3    3    0  502  0.83193583844E+03  0.26206688717E+03 -0.34595096868E+02  0.87292309298E+03  0.12699999809E+01 0.  1.
</event>
<event>
 5   0  0.1429067E-05  0.1898325E+04  0.7818609E-02  0.8655691E-01
       -1   -1    0    0    0  501  0.00000000000E+00  0.00000000000E+00  0.78433407102E+03  0.78433407104E+03  0.50400001928E-02 0.  1.
        1   -1    0    0  501    0  0.00000000000E+00  0.00000000000E+00 -0.11486295094E+04  0.11486295094E+04  0.50400001928E-02 0. -1.
    10030    2    1    2    0    0  0.00000000000E+00  0.00000000000E+00 -0.36429543837E+03  0.19329635804E+04  0.18983247975E+04 0.  0.
        3    1    3    3  502    0 -0.94221502539E+03  0.32553263775E+01 -0.65472880773E+02  0.94449269956E+03  0.10100000352E+00 0. -1.
       -3    1    3    3    0  502  0.94221502539E+03 -0.32553263775E+01 -0.29882255759E+03  0.98847088088E+03  0.10100000352E+00 0.  1.
</event>
<event>
 5   0  0.1471485E-05  0.1901808E+04  0.7818609E-02  0.8653957E-01
        1   -1    0    0  501    0  0.00000000000E+00  0.00000000000E+00  0.10311203281E+04  0.10311203281E+04  0.50400001928E-02 0. -1.
       -1   -1    0    0    0  501  0.00000000000E+00  0.00000000000E+00 -0.87692827479E+03  0.87692827481E+03  0.50400001928E-02 0.  1.
    10030    2    1    2    0    0  0.00000000000E+00  0.00000000000E+00  0.15419205332E+03  0.19080486029E+04  0.19018081612E+04 0.  0.
        4    1    3    3  502    0  0.27218963434E+03 -0.33470431727E+02  0.99058325049E+03  0.10278444707E+04  0.12699999809E+01 0. -1.
       -4    1    3    3    0  502 -0.27218963434E+03  0.33470431727E+02 -0.83639119717E+03  0.88020413226E+03  0.12699999809E+01 0.  1.
</event>
<event>
 5   0  0.1344119E-05  0.1900028E+04  0.7818609E-02  0.8654842E-01
       -1   -1    0    0    0  501  0.00000000000E+00  0.00000000000E+00  0.41966920968E+03  0.41966920971E+03  0.50400001928E-02 0. -1.
        1   -1    0    0  501    0  0.00000000000E+00  0.00000000000E+00 -0.21505676503E+04  0.21505676503E+04  0.50400001928E-02 0.  1.
    10030    2    1    2    0    0  0.00000000000E+00  0.00000000000E+00 -0.17308984406E+04  0.25702368600E+04  0.19000284484E+04 0.  0.
        2    1    3    3  502    0 -0.99786022267E+02  0.57167669914E+03  0.15203444772E+03  0.59990496904E+03  0.25500000920E-02 0. -1.
       -2    1    3    3    0  502  0.99786022267E+02 -0.57167669914E+03 -0.18829328884E+04  0.19703318910E+04  0.25500000920E-02 0.  1.
</event>
<event>
 5   0  0.2855141E-05  0.1899010E+04  0.7818609E-02  0.8655349E-01
        2   -1    0    0  501    0  0.00000000000E+00  0.00000000000E+00  0.26396920260E+04  0.26396920260E+04  0.25500000920E-02 0. -1.
       -2   -1    0    0    0  501  0.00000000000E+00  0.00000000000E+00 -0.34153986351E+03  0.34153986352E+03  0.25500000920E-02 0.  1.
    10030    2    1    2    0    0  0.00000000000E+00  0.00000000000E+00  0.22981521625E+04  0.29812318895E+04  0.18990103257E+04 0.  0.
        1    1    3    3  502    0  0.81763987575E+03 -0.46552619989E+03  0.13495700615E+04  0.16451714075E+04  0.50400001928E-02 0.  1.
       -1    1    3    3    0  502 -0.81763987575E+03  0.46552619989E+03  0.94858210093E+03  0.13360604820E+04  0.50400001928E-02 0. -1.
</event>
<event>
 5   0  0.1429067E-05  0.1899275E+04  0.7818609E-02  0.8655217E-01
        1   -1    0    0  501    0  0.00000000000E+00  0.00000000000E+00  0.12900842373E+04  0.12900842373E+04  0.50400001928E-02 0.  1.
       -1   -1    0    0    0  501  0.00000000000E+00  0.00000000000E+00 -0.69903284997E+03  0.69903284998E+03  0.50400001928E-02 0. -1.
    10030    2    1    2    0    0  0.00000000000E+00  0.00000000000E+00  0.59105138733E+03  0.19891170873E+04  0.18992748733E+04 0.  0.
        3    1    3    3  502    0  0.71189998934E+03  0.61566592222E+03  0.16319556578E+03  0.95523762776E+03  0.10100000352E+00 0. -1.
       -3    1    3    3    0  502 -0.71189998934E+03 -0.61566592222E+03  0.42785582155E+03  0.10338794595E+04  0.10100000352E+00 0.  1.
</event>
<event>
 5   0  0.2888776E-05  0.1903891E+04  0.7818609E-02  0.8652922E-01
        2   -1    0    0  501    0  0.00000000000E+00  0.00000000000E+00  0.95654614510E+03  0.95654614510E+03  0.25500000920E-02 0. -1.
       -2   -1    0    0    0  501  0.00000000000E+00  0.00000000000E+00 -0.94736723438E+03  0.94736723438E+03  0.25500000920E-02 0.  1.
    10030    2    1    2    0    0  0.00000000000E+00  0.00000000000E+00  0.91789107178E+01  0.19039133795E+04  0.19038912532E+04 0.  0.
        3    1    3    3  502    0  0.11844629757E+03 -0.91578915241E+03 -0.22671642935E+03  0.95084154654E+03  0.10100000352E+00 0. -1.
       -3    1    3    3    0  502 -0.11844629757E+03  0.91578915241E+03  0.23589534007E+03  0.95307183294E+03  0.10100000352E+00 0.  1.
</event>
<event>
 5   0  0.2813537E-05  0.1902463E+04  0.7818609E-02  0.8653631E-01
       -2   -1    0    0    0  501  0.00000000000E+00  0.00000000000E+00  0.47949045678E+03  0.47949045679E+03  0.25500000920E-02 0. -1.
        2   -1    0    0  501    0  0.00000000000E+00  0.00000000000E+00 -0.18870902268E+04  0.18870902268E+04  0.25500000920E-02 0.  1.
    10030    2    1    2    0    0  0.00000000000E+00  0.00000000000E+00 -0.14075997700E+04  0.23665806836E+04  0.19024634082E+04 0.  0.
        2    1    3    3  502    0  0.30909145352E+03  0.16858187138E+02 -0.18226827942E+04  0.18487818404E+04  0.25500000920E-02 0.  1.
       -2    1    3    3    0  502 -0.30909145352E+03 -0.16858187138E+02  0.41508302414E+03  0.51779884323E+03  0.25500000920E-02 0. -1.
</event>
<event>
 5   0  0.2879462E-05  0.1895528E+04  0.7818609E-02  0.8657086E-01
        2   -1    0    0  501    0  0.00000000000E+00  0.00000000000E+00  0.30230111940E+04  0.30230111940E+04  0.25500000920E-02 0. -1.
       -2   -1    0    0    0  501  0.00000000000E+00  0.00000000000E+00 -0.29713954822E+03  0.29713954823E+03  0.25500000920E-02 0.  1.
    10030    2    1    2    0    0  0.00000000000E+00  0.00000000000E+00  0.27258716458E+04  0.33201507423E+04  0.18955275577E+04 0.  0.
        4    1    3    3  502    0  0.55113493172E+03  0.64928843951E+03  0.63454898777E+03  0.10620636617E+04  0.12699999809E+01 0.  1.
       -4    1    3    3    0  502 -0.55113493172E+03 -0.64928843951E+03  0.20913226580E+04  0.22580870806E+04  0.12699999809E+01 0. -1.
</event>
<event>
 5   0  0.1471485E-05  0.1899857E+04  0.7818609E-02  0.8654927E-01
       -1   -1    0    0    0  501  0.00000000000E+00  0.00000000000E+00  0.18398438421E+04  0.18398438421E+04  0.50400001928E-02 0.  1.
        1   -1    0    0  501    0  0.00000000000E+00  0.00000000000E+00 -0.49045717060E+03  0.49045717063E+03  0.50400001928E-02 0. -1.
    10030    2    1    2    0    0  0.00000000000E+00  0.00000000000E+00  0.13493866715E+04  0.23303010128E+04  0.18998574738E+04 0.  0.
        4    1    3    3  502    0 -0.43208011055E+03  0.74903347868E+03  0.19238818930E+03  0.88586635696E+03  0.12699999809E+01 0. -1.
       -4    1    3    3    0  502  0.43208011055E+03 -0.74903347868E+03  0.11569984822E+04  0.14444346558E+04  0.12699999809E+01 0.  1.
</event>
<event>
 5   0  0.1413011E-05  0.1897278E+04  0.7818609E-02  0.8656213E-01
        1   -1    0    0  501    0  0.00000000000E+00  0.00000000000E+00  0.18278061558E+04  0.18278061558E+04  0.50400001928E-02 0. -1.
       -1   -1    0    0    0  501  0.00000000000E+00  0.00000000000E+00 -0.49234739416E+03  0.49234739418E+03  0.50400001928E-02 0.  1.
    10030    2    1    2    0    0  0.00000000000E+00  0.00000000000E+00  0.13354587617E+04  0.23201535500E+04  0.18972776264E+04 0.  0.
        1    1    3    3  502    0 -0.91158907368E+03 -0.18644697760E+03  0.44171549035E+03  0.10299852859E+04  0.50400001928E-02 0. -1.
       -1    1    3    3    0  502  0.91158907368E+03  0.18644697760E+03  0.89374327132E+03  0.12901682641E+04  0.50400001928E-02 0.  1.
</event>
<event>
 5   0  0.2879462E-05  0.1902754E+04  0.7818609E-02  0.8653487E-01
       -2   -1    0    0    0  501  0.00000000000E+00  0.00000000000E+00  0.63654798871E+03  0.63654798872E+03  0.25500000920E-02 0.  1.
        2   -1    0    0  501    0  0.00000000000E+00  0.00000000000E+00 -0.14219174155E+04  0.14219174155E+04  0.25500000920E-02 0. -1.
    10030    2    1    2    0    0  0.00000000000E+00  0.00000000000E+00 -0.78536942681E+03  0.20584654042E+04  0.19027544991E+04 0.  0.
        4    1    3    3  502    0 -0.26102433498E+03  0.35779551940E+03  0.51822101551E+03  0.68169345822E+03  0.12699999809E+01 0.  1.
       -4    1    3    3    0  502  0.26102433498E+03 -0.35779551940E+03 -0.13035904423E+04  0.13767719460E+04  0.12699999809E+01 0. -1.
</event>
<event>
 5   0  0.2789718E-05  0.1903641E+04  0.7818609E-02  0.8653046E-01
        2   -1    0    0  501    0  0.00000000000E+00  0.00000000000E+00  0.20098907632E+04  0.20098907632E+04  0.25500000920E-02 0. -1.
       -2   -1    0    0    0  501  0.00000000000E+00  0.00000000000E+00 -0.45075176433E+03  0.45075176434E+03  0.25500000920E-02 0.  1.
    10030    2    1    2    0    0  0.00000000000E+00  0.00000000000E+00  0.15591389988E+04  0.24606425275E+04  0.19036405203E+04 0.  0.
        5    1    3    3  502    0  0.79169422109E+03  0.49545926190E+03  0.54235007022E+03  0.10800117169E+04  0.46999998093E+01 0.  1.
       -5    1    3    3    0  502 -0.79169422109E+03 -0.49545926190E+03  0.10167889286E+04  0.13806308106E+04  0.46999998093E+01 0. -1.
</event>
<event>
 5   0  0.1344119E-05  0.1906188E+04  0.7818609E-02  0.8651782E-01
        1   -1    0    0  501    0  0.00000000000E+00  0.00000000000E+00  0.14432684854E+04  0.14432684854E+04  0.50400001928E-02 0.  1.
       -1   -1    0    0    0  501  0.00000000000E+00  0.00000000000E+00 -0.62939649331E+03  0.62939649333E+03  0.50400001928E-02 0. -1.
    10030    2    1    2    0    0  0.00000000000E+00  0.00000000000E+00  0.81387199212E+03  0.20726649788E+04  0.19061879484E+04 0.  0.
        2    1    3    3  502    0  0.81383477209E+03  0.40703816227E+03  0.98659686512E+02  0.91528183395E+03  0.25500000920E-02 0. -1.
       -2    1    3    3    0  502 -0.81383477209E+03 -0.40703816227E+03  0.71521230561E+03  0.11573831448E+04  0.25500000920E-02 0.  1.
</event>
<event>
 5   0  0.1429067E-05  0.1905485E+04  0.7818609E-02  0.8652131E-01
        1   -1    0    0  501    0  0.00000000000E+00  0.00000000000E+00  0.95996179209E+03  0.95996179210E+03  0.50400001928E-02 0. -1.
       -1   -1    0    0    0  501  0.00000000000E+00  0.00000000000E+00 -0.94557759820E+03  0.94557759821E+03  0.50400001928E-02 0.  1.
    10030    2    1    2    0    0  0.00000000000E+00  0.00000000000E+00  0.14384193890E+02  0.19055393903E+04  0.19054850991E+04 0.  0.
        3    1    3    3  502    0 -0.21422449828E+03 -0.34403429895E+03 -0.85507757515E+03  0.94626074855E+03  0.10100000352E+00 0.  1.
       -3    1    3    3    0  502  0.21422449828E+03  0.34403429895E+03  0.86946176904E+03  0.95927864176E+03  0.10100000352E+00 0. -1.
</event>
<event>
 5   0  0.2813537E-05  0.1901244E+04  0.7818609E-02  0.8654237E-01
       -2   -1    0    0    0  501  0.00000000000E+00  0.00000000000E+00  0.93546874033E+03  0.93546874034E+03  0.25500000920E-02 0. -1.
        2   -1    0    0  501    0  0.00000000000E+00  0.00000000000E+00 -0.96602096245E+03  0.96602096245E+03  0.25500000920E-02 0.  1.
    10030    2    1    2    0    0  0.00000000000E+00  0.00000000000E+00 -0.30552222118E+02  0.19014897028E+04  0.19012442377E+04 0.  0.
        2    1    3    3  502    0  0.43843315006E+03  0.82934873239E+03  0.13849505125E+03  0.94827413031E+03  0.25500000920E-02 0. -1.
       -2    1    3    3    0  502 -0.43843315006E+03 -0.82934873239E+03 -0.16904727337E+03  0.95321557248E+03  0.25500000920E-02 0.  1.
</event>
<event>
 5   0  0.2879462E-05  0.1895912E+04  0.7818609E-02  0.8656894E-01
       -2   -1    0    0    0  501  0.00000000000E+00  0.00000000000E+00  0.71351660090E+03  0.71351660090E+03  0.25500000920E-02 0.  1.
        2   -1    0    0  501    0  0.00000000000E+00  0.00000000000E+00 -0.12594250597E+04  0.12594250597E+04  0.25500000920E-02 0. -1.
    10030    2    1    2    0    0  0.00000000000E+00  0.00000000000E+00 -0.54590845877E+03  0.19729416606E+04  0.18959121158E+04 0.  0.
        4    1    3    3  502    0 -0.53148589975E+03 -0.69713611917E+03 -0.64836482206E+03  0.10903460853E+04  0.12699999809E+01 0. -1.
       -4    1    3    3    0  502  0.53148589975E+03  0.69713611917E+03  0.10245636328E+03  0.88259557531E+03  0.12699999809E+01 0.  1.
</event>
<event>
 5   0  0.1413011E-05  0.1899654E+04  0.7818609E-02  0.8655028E-01
       -1   -1    0    0    0  501  0.00000000000E+00  0.00000000000E+00  0.78525426635E+03  0.78525426637E+03  0.50400001928E-02 0. -1.
        1   -1    0    0  501    0  0.00000000000E+00  0.00000000000E+00 -0.11488911275E+04  0.11488911275E+04  0.50400001928E-02 0.  1.
    10030    2    1    2    0    0  0.00000000000E+00  0.00000000000E+00 -0.36363686116E+03  0.19341453939E+04  0.18996543470E+04 0.  0.
        1    1    3    3  502    0 -0.10734339798E+03  0.90196287715E+03 -0.46455083033E+03  0.10202289502E+04  0.50400001928E-02 0.  1.
       -1    1    3    3    0  502  0.10734339798E+03 -0.90196287715E+03  0.10091396917E+03  0.91391644369E+03  0.50400001928E-02 0. -1.
</event>
<event>
 5   0  0.1413011E-05  0.1901850E+04  0.7818609E-02  0.8653936E-01
       -1   -1    0    0    0  501  0.00000000000E+00  0.00000000000E+00  0.10474042386E+04  0.10474042387E+04  0.50400001928E-02 0.  1.
        1   -1    0    0  501    0  0.00000000000E+00  0.00000000000E+00 -0.86333281992E+03  0.86333281993E+03  0.50400001928E-02 0. -1.
    10030    2    1    2    0    0  0.00000000000E+00  0.00000000000E+00  0.18407141873E+03  0.19107370586E+04  0.19018501045E+04 0.  0.
        1    1    3    3  502    0 -0.56628728853E+03  0.62521042715E+02 -0.67288146211E+03  0.88168000772E+03  0.50400001928E-02 0. -1.
       -1    1    3    3    0  502  0.56628728853E+03 -0.62521042715E+02  0.85695288084E+03  0.10290570509E+04  0.50400001928E-02 0.  1.
</event>
<event>
 5   0  0.2888776E-05  0.1913733E+04  0.7818609E-02  0.8648051E-01
       -2   -1    0    0    0  501  0.00000000000E+00  0.00000000000E+00  0.50437120736E+03  0.50437120737E+03  0.25500000920E-02 0. -1.
        2   -1    0    0  501    0  0.00000000000E+00  0.00000000000E+00 -0.18153167268E+04  0.18153167268E+04  0.25500000920E-02 0.  1.
    10030    2    1    2    0    0  0.00000000000E+00  0.00000000000E+00 -0.13109455195E+04  0.23196879342E+04  0.19137329900E+04 0.  0.
        3    1    3    3  502    0  0.43425640969E+03 -0.62139039035E+03  0.52236058352E+02  0.75989029640E+03  0.10100000352E+00 0. -1.
       -3    1    3    3    0  502 -0.43425640969E+03  0.62139039035E+03 -0.13631815778E+04  0.15597976378E+04  0.10100000352E+00 0.  1.
</event>
<event>
 5   0  0.1471485E-05  0.1890880E+04  0.7818609E-02  0.8659409E-01
        1   -1    0    0  501    0  0.00000000000E+00  0.00000000000E+00  0.15260041551E+04  0.15260041552E+04  0.50400001928E-02 0.  1.
       -1   -1    0    0    0  501  0.00000000000E+00  0.00000000000E+00 -0.58575006848E+03  0.58575006851E+03  0.50400001928E-02 0. -1.
    10030    2    1    2    0    0  0.00000000000E+00  0.00000000000E+00  0.94025408666E+03  0.21117542237E+04  0.18908802589E+04 0.  0.
        4    1    3    3  502    0  0.71392990263E+03 -0.40327354144E+03 -0.55521649127E+02  0.82183314701E+03  0.12699999809E+01 0. -1.
       -4    1    3    3    0  502 -0.71392990263E+03  0.40327354144E+03  0.99577573579E+03  0.12899210766E+04  0.12699999809E+01 0.  1.
</event>
<event>
 5   0  0.1429067E-05  0.1900058E+04  0.7818609E-02  0.8654828E-01
        1   -1    0    0  501    0  0.00000000000E+00  0.00000000000E+00  0.11297208220E+04  0.11297208220E+04  0.50400001928E-02 0. -1.
       -1   -1    0    0    0  501  0.00000000000E+00  0.00000000000E+00 -0.79891830442E+03  0.79891830444E+03  0.50400001928E-02 0.  1.
    10030    2    1    2    0    0  0.00000000000E+00  0.00000000000E+00  0.33080251758E+03  0.19286391264E+04  0.19000575187E+04 0.  0.
        3    1    3    3  502    0  0.28496671905E+03 -0.65103535951E+03 -0.47455994304E+03  0.85455264321E+03  0.10100000352E+00 0.  1.
       -3    1    3    3    0  502 -0.28496671905E+03  0.65103535951E+03  0.80536246061E+03  0.10740864832E+04  0.10100000352E+00 0. -1.
</event>
<event>
 5   0  0.1413011E-05  0.1900665E+04  0.7818609E-02  0.8654526E-01
       -1   -1    0    0    0  501  0.00000000000E+00  0.00000000000E+00  0.11425326355E+04  0.11425326355E+04  0.50400001928E-02 0. -1.
        1   -1    0    0  501    0  0.00000000000E+00  0.00000000000E+00 -0.79046445166E+03  0.79046445167E+03  0.50400001928E-02 0.  1.
    10030    2    1    2    0    0  0.00000000000E+00  0.00000000000E+00  0.35206818386E+03  0.19329970872E+04  0.19006645504E+04 0.  0.
        1    1    3    3  502    0  0.76600236312E+03  0.53083703265E+03 -0.13096787799E+02  0.93205101868E+03  0.50400001928E-02 0.  1.
       -1    1    3    3    0  502 -0.76600236312E+03 -0.53083703265E+03  0.36516497166E+03  0.10009460685E+04  0.50400001928E-02 0. -1.
</event>
<event>
 5   0  0.1429067E-05  0.1898766E+04  0.7818609E-02  0.8655471E-01
        1   -1    0    0  501    0  0.00000000000E+00  0.00000000000E+00  0.18805782506E+04  0.18805782506E+04  0.50400001928E-02 0.  1.
       -1   -1    0    0    0  501  0.00000000000E+00  0.00000000000E+00 -0.47928235552E+03  0.47928235555E+03  0.50400001928E-02 0. -1.
    10030    2    1    2    0    0  0.00000000000E+00  0.00000000000E+00  0.14012958951E+04  0.23598606061E+04  0.18987658873E+04 0.  0.
        3    1    3    3  502    0 -0.68577350057E+03 -0.52711159247E+03  0.21419739912E+03  0.89107376854E+03  0.10100000352E+00 0. -1.
       -3    1    3    3    0  502  0.68577350057E+03  0.52711159247E+03  0.11870984959E+04  0.14687868376E+04  0.10100000352E+00 0.  1.
</event>
<event>
 5   0  0.1010725E-05  0.1901334E+04  0.7818609E-02  0.8654192E-01
       -4   -1    0    0    0  501  0.00000000000E+00  0.00000000000E+00  0.97376914986E+03  0.97376997804E+03  0.12699999809E+01 0.  1.
        4   -1    0    0  501    0  0.00000000000E+00  0.00000000000E+00 -0.92811167968E+03  0.92811254859E+03  0.12699999809E+01 0. -1.
    10030    2    1    2    0    0  0.00000000000E+00  0.00000000000E+00  0.45657470183E+02  0.19018825266E+04  0.19013344105E+04 0.  0.
        4    1    3    3  502    0  0.48692651105E+03 -0.36084743665E+02 -0.79310671900E+03  0.93135354002E+03  0.12699999809E+01 0. -1.
       -4    1    3    3    0  502 -0.48692651105E+03  0.36084743665E+02  0.83876418919E+03  0.97052898661E+03  0.12699999809E+01 0.  1.
</event>
<event>
 5   0  0.1471485E-05  0.1902546E+04  0.7818609E-02  0.8653590E-01
        1   -1    0    0  501    0  0.00000000000E+00  0.00000000000E+00  0.14583417698E+04  0.14583417698E+04  0.50400001928E-02 0.  1.
       -1   -1    0    0    0  501  0.00000000000E+00  0.00000000000E+00 -0.62051339324E+03  0.62051339326E+03  0.50400001928E-02 0. -1.
    10030    2    1    2    0    0  0.00000000000E+00  0.00000000000E+00  0.83782837654E+03  0.20788551630E+04  0.19025462939E+04 0.  0.
        4    1    3    3  502    0 -0.47715291478E+03 -0.52077748241E+03  0.11151729603E+04  0.13200365277E+04  0.12699999809E+01 0.  1.
       -4    1    3    3    0  502  0.47715291478E+03  0.52077748241E+03 -0.27734458375E+03  0.75881863532E+03  0.12699999809E+01 0. -1.
</event>
<event>
 5   0  0.1413011E-05  0.1909616E+04  0.7818609E-02  0.8650085E-01
        1   -1    0    0  501    0  0.00000000000E+00  0.00000000000E+00  0.11391217977E+04  0.11391217977E+04  0.50400001928E-02 0.  1.
       -1   -1    0    0    0  501  0.00000000000E+00  0.00000000000E+00 -0.80031694867E+03  0.80031694869E+03  0.50400001928E-02 0. -1.
    10030    2    1    2    0    0  0.00000000000E+00  0.00000000000E+00  0.33880484906E+03  0.19394387464E+04  0.19096161723E+04 0.  0.
        1    1    3    3  502    0 -0.35008416610E+03 -0.13403317131E+03 -0.72245431308E+03  0.81391894491E+03  0.50400001928E-02 0. -1.
       -1    1    3    3    0  502  0.35008416610E+03  0.13403317131E+03  0.10612591621E+04  0.11255198015E+04  0.50400001928E-02 0.  1.
</event>
<event>
 5   0  0.1429067E-05  0.1902639E+04  0.7818609E-02  0.8653544E-01
        1   -1    0    0  501    0  0.00000000000E+00  0.00000000000E+00  0.10541273626E+04  0.10541273626E+04  0.50400001928E-02 0.  1.
       -1   -1    0    0    0  501  0.00000000000E+00  0.00000000000E+00 -0.85853847028E+03  0.85853847030E+03  0.50400001928E-02 0. -1.
    10030    2    1    2    0    0  0.00000000000E+00  0.00000000000E+00  0.19558889235E+03  0.19126658329E+04  0.19026391076E+04 0.  0.
        3    1    3    3  502    0  0.77419409702E+03 -0.48658466965E+03  0.36160405172E+03  0.98331004318E+03  0.10100000352E+00 0.  1.
       -3    1    3    3    0  502 -0.77419409702E+03  0.48658466965E+03 -0.16601515938E+03  0.92935578975E+03  0.10100000352E+00 0. -1.
</event>
<event>
 5   0  0.2789718E-05  0.1899037E+04  0.7818609E-02  0.8655336E-01
       -2   -1    0    0    0  501  0.00000000000E+00  0.00000000000E+00  0.78364909697E+03  0.78364909698E+03  0.25500000920E-02 0.  1.
        2   -1    0    0  501    0  0.00000000000E+00  0.00000000000E+00 -0.11504967682E+04  0.11504967682E+04  0.25500000920E-02 0. -1.
    10030    2    1    2    0    0  0.00000000000E+00  0.00000000000E+00 -0.36684767124E+03  0.19341458652E+04  0.18990373914E+04 0.  0.
        5    1    3    3  502    0  0.15357067638E+03  0.91390764092E+03 -0.39401330090E+03  0.10070152432E+04  0.46999998093E+01 0.  1.
       -5    1    3    3    0  502 -0.15357067638E+03 -0.91390764092E+03  0.27165629663E+02  0.92713062198E+03  0.46999998093E+01 0. -1.
</event>
<event>
 5   0  0.2879462E-05  0.1894547E+04  0.7818609E-02  0.8657575E-01
       -2   -1    0    0    0  501  0.00000000000E+00  0.00000000000E+00  0.42074278582E+03  0.42074278582E+03  0.25500000920E-02 0.  1.
        2   -1    0    0  501    0  0.00000000000E+00  0.00000000000E+00 -0.21327214616E+04  0.21327214616E+04  0.25500000920E-02 0. -1.
    10030    2    1    2    0    0  0.00000000000E+00  0.00000000000E+00 -0.17119786758E+04  0.25534642474E+04  0.18945470901E+04 0.  0.
        4    1    3    3  502    0 -0.27960259983E+03  0.23309871096E+03 -0.20346858238E+04  0.20669931392E+04  0.12699999809E+01 0. -1.
       -4    1    3    3    0  502  0.27960259983E+03 -0.23309871096E+03  0.32270714802E+03  0.48647110826E+03  0.12699999809E+01 0.  1.
</event>
<event>
 5   0  0.1327254E-05  0.1898238E+04  0.7818609E-02  0.8655734E-01
       -1   -1    0    0    0  501  0.00000000000E+00  0.00000000000E+00  0.98131655810E+03  0.98131655811E+03  0.50400001928E-02 0. -1.
        1   -1    0    0  501    0  0.00000000000E+00  0.00000000000E+00 -0.91797820354E+03  0.91797820355E+03  0.50400001928E-02 0.  1.
    10030    2    1    2    0    0  0.00000000000E+00  0.00000000000E+00  0.63338354562E+02  0.18992947617E+04  0.18982383529E+04 0.  0.
        5    1    3    3  502    0 -0.38887233672E+03  0.34840138101E+03  0.82470089891E+03  0.97609368363E+03  0.46999998093E+01 0. -1.
       -5    1    3    3    0  502  0.38887233672E+03 -0.34840138101E+03 -0.76136254434E+03  0.92320107804E+03  0.46999998093E+01 0.  1.
</event>
<event>
 5   0  0.2879462E-05  0.1895544E+04  0.7818609E-02  0.8657077E-01
        2   -1    0    0  501    0  0.00000000000E+00  0.00000000000E+00  0.81337095106E+03  0.81337095106E+03  0.25500000920E-02 0. -1.
       -2   -1    0    0    0  501  0.00000000000E+00  0.00000000000E+00 -0.11043818847E+04  0.11043818847E+04  0.25500000920E-02 0.  1.
    10030    2    1    2    0    0  0.00000000000E+00  0.00000000000E+00 -0.29101093368E+03  0.19177528358E+04  0.18955444009E+04 0.  0.
        4    1    3    3  502    0  0.70788620249E+03 -0.37003038456E+03  0.37061372764E+03  0.88055749908E+03  0.12699999809E+01 0. -1.
       -4    1    3    3    0  502 -0.70788620249E+03  0.37003038456E+03 -0.66162466132E+03  0.10371953367E+04  0.12699999809E+01 0.  1.
</event>
<event>
 5   0  0.1327254E-05  0.1891778E+04  0.7818609E-02  0.8658960E-01
        1   -1    0    0  501    0  0.00000000000E+00  0.00000000000E+00  0.22367372884E+04  0.22367372884E+04  0.50400001928E-02 0.  1.
       -1   -1    0    0    0  501  0.00000000000E+00  0.00000000000E+00 -0.40000484014E+03  0.40000484017E+03  0.50400001928E-02 0. -1.
    10030    2    1    2    0    0  0.00000000000E+00  0.00000000000E+00  0.18367324483E+04  0.26367421286E+04  0.18917777264E+04 0.  0.
        5    1    3    3  502    0 -0.29328669097E+03  0.36307753970E+03 -0.22831041740E+03  0.51960573479E+03  0.46999998093E+01 0. -1.
       -5    1    3    3    0  502  0.29328669097E+03 -0.36307753970E+03  0.20650428657E+04  0.21171363938E+04  0.46999998093E+01 0.  1.
</event>
<event>
 5   0  0.2813537E-05  0.1902013E+04  0.7818609E-02  0.8653855E-01
       -2   -1    0    0    0  501  0.00000000000E+00  0.00000000000E+00  0.92848139227E+03  0.92848139228E+03  0.25500000920E-02 0. -1.
        2   -1    0    0  501    0  0.00000000000E+00  0.00000000000E+00 -0.97407781988E+03  0.97407781988E+03  0.25500000920E-02 0.  1.
    10030    2    1    2    0    0  0.00000000000E+00  0.00000000000E+00 -0.45596427608E+02  0.19025592122E+04  0.19020127554E+04 0.  0.
        2    1    3    3  502    0  0.40873908545E+03  0.12049311785E+03 -0.87323474962E+03  0.97166103111E+03  0.25500000920E-02 0.  1.
       -2    1    3    3    0  502 -0.40873908545E+03 -0.12049311785E+03  0.82763832201E+03  0.93089818105E+03  0.25500000920E-02 0. -1.
</event>
<event>
 5   0  0.2855141E-05  0.1897949E+04  0.7818609E-02  0.8655878E-01
       -2   -1    0    0    0  501  0.00000000000E+00  0.00000000000E+00  0.42122765958E+03  0.42122765959E+03  0.25500000920E-02 0. -1.
        2   -1    0    0  501    0  0.00000000000E+00  0.00000000000E+00 -0.21379230040E+04  0.21379230040E+04  0.25500000920E-02 0.  1.
    10030    2    1    2    0    0  0.00000000000E+00  0.00000000000E+00 -0.17166953445E+04  0.25591506636E+04  0.18979486857E+04 0.  0.
        1    1    3    3  502    0  0.75434263508E+03 -0.41671308661E+01 -0.16346922929E+04  0.18003524846E+04  0.50400001928E-02 0.  1.
       -1    1    3    3    0  502 -0.75434263508E+03  0.41671308661E+01 -0.82003051538E+02  0.75879817908E+03  0.50400001928E-02 0. -1.
</event>
<event>
 5   0  0.1471485E-05  0.1909342E+04  0.7818609E-02  0.8650220E-01
        1   -1    0    0  501    0  0.00000000000E+00  0.00000000000E+00  0.10433125826E+04  0.10433125826E+04  0.50400001928E-02 0. -1.
       -1   -1    0    0    0  501  0.00000000000E+00  0.00000000000E+00 -0.87356036902E+03  0.87356036903E+03  0.50400001928E-02 0.  1.
    10030    2    1    2    0    0  0.00000000000E+00  0.00000000000E+00  0.16975221357E+03  0.19168729516E+04  0.19093417972E+04 0.  0.
        4    1    3    3  502    0  0.55034749734E+03  0.76436612202E+03  0.24123693918E+03  0.97228329722E+03  0.12699999809E+01 0. -1.
       -4    1    3    3    0  502 -0.55034749734E+03 -0.76436612202E+03 -0.71484725614E+02  0.94458965441E+03  0.12699999809E+01 0.  1.
</event>
<event>
 5   0  0.2855141E-05  0.1902730E+04  0.7818609E-02  0.8653499E-01
       -2   -1    0    0    0  501  0.00000000000E+00  0.00000000000E+00  0.52935812200E+03  0.52935812201E+03  0.25500000920E-02 0.  1.
        2   -1    0    0  501    0  0.00000000000E+00  0.00000000000E+00 -0.17097983412E+04  0.17097983412E+04  0.25500000920E-02 0. -1.
    10030    2    1    2    0    0  0.00000000000E+00  0.00000000000E+00 -0.11804402192E+04  0.22391564632E+04  0.19027302898E+04 0.  0.
        1    1    3    3  502    0  0.69420744749E+02 -0.87206594143E+03 -0.15024746246E+03  0.88763311452E+03  0.50400001928E-02 0.  1.
       -1    1    3    3    0  502 -0.69420744749E+02  0.87206594143E+03 -0.10301927567E+04  0.13515233487E+04  0.50400001928E-02 0. -1.
</event>
<event>
 5   0  0.1344119E-05  0.1900342E+04  0.7818609E-02  0.8654686E-01
        1   -1    0    0  501    0  0.00000000000E+00  0.00000000000E+00  0.21329192095E+04  0.21329192095E+04  0.50400001928E-02 0.  1.
       -1   -1    0    0    0  501  0.00000000000E+00  0.00000000000E+00 -0.42328114504E+03  0.42328114507E+03  0.50400001928E-02 0. -1.
    10030    2    1    2    0    0  0.00000000000E+00  0.00000000000E+00  0.17096380644E+04  0.25562003545E+04  0.19003415328E+04 0.  0.
        2    1    3    3  502    0  0.53119319244E+02 -0.52720586225E+03  0.19157283219E+04  0.19876575879E+04  0.25500000920E-02 0.  1.
       -2    1    3    3    0  502 -0.53119319244E+02  0.52720586225E+03 -0.20609025750E+03  0.56854276665E+03  0.25500000920E-02 0. -1.
</event>
<event>
 5   0  0.2879462E-05  0.1906205E+04  0.7818609E-02  0.8651774E-01
        2   -1    0    0  501    0  0.00000000000E+00  0.00000000000E+00  0.19979619061E+04  0.19979619061E+04  0.25500000920E-02 0.  1.
       -2   -1    0    0    0  501  0.00000000000E+00  0.00000000000E+00 -0.45466561280E+03  0.45466561281E+03  0.25500000920E-02 0. -1.
    10030    2    1    2    0    0  0.00000000000E+00  0.00000000000E+00  0.15432962933E+04  0.24526275190E+04  0.19062052087E+04 0.  0.
        4    1    3    3  502    0  0.52341640523E+03  0.36084468948E+03  0.16852900304E+04  0.18012156236E+04  0.12699999809E+01 0.  1.
       -4    1    3    3    0  502 -0.52341640523E+03 -0.36084468948E+03 -0.14199373705E+03  0.65141189538E+03  0.12699999809E+01 0. -1.
</event>
<event>
 5   0  0.2888776E-05  0.1899237E+04  0.7818609E-02  0.8655236E-01
        2   -1    0    0  501    0  0.00000000000E+00  0.00000000000E+00  0.12288678051E+04  0.12288678051E+04  0.25500000920E-02 0. -1.
       -2   -1    0    0    0  501  0.00000000000E+00  0.00000000000E+00 -0.73382615728E+03  0.73382615728E+03  0.25500000920E-02 0.  1.
    10030    2    1    2    0    0  0.00000000000E+00  0.00000000000E+00  0.49504164783E+03  0.19626939624E+04  0.18992370460E+04 0.  0.
        3    1    3    3  502    0  0.40987685937E+03  0.29282514675E+03 -0.58437870132E+03  0.77152063043E+03  0.10100000352E+00 0.  1.
       -3    1    3    3    0  502 -0.40987685937E+03 -0.29282514675E+03  0.10794203492E+04  0.11911733320E+04  0.10100000352E+00 0. -1.
</event>
<event>
 5   0  0.1344119E-05  0.1909338E+04  0.7818609E-02  0.8650222E-01
       -1   -1    0    0    0  501  0.00000000000E+00  0.00000000000E+00  0.50437454307E+03  0.50437454310E+03  0.50400001928E-02 0.  1.
        1   -1    0    0  501    0  0.00000000000E+00  0.00000000000E+00 -0.18069762493E+04  0.18069762493E+04  0.50400001928E-02 0. -1.
    10030    2    1    2    0    0  0.00000000000E+00  0.00000000000E+00 -0.13026017062E+04  0.23113507924E+04  0.19093379168E+04 0.  0.
        2    1    3    3  502    0  0.41560002709E+03  0.56087315714E+02 -0.16895017194E+04  0.17407714466E+04  0.25500000920E-02 0. -1.
       -2    1    3    3    0  502 -0.41560002709E+03 -0.56087315714E+02  0.38690001324E+03  0.57057934571E+03  0.25500000920E-02 0.  1.
</event>
<event>
 5   0  0.1471485E-05  0.1904894E+04  0.7818609E-02  0.8652424E-01
       -1   -1    0    0    0  501  0.00000000000E+00  0.00000000000E+00  0.86414826990E+03  0.86414826991E+03  0.50400001928E-02 0.  1.
        1   -1    0    0  501    0  0.00000000000E+00  0.00000000000E+00 -0.10497681403E+04  0.10497681404E+04  0.50400001928E-02 0. -1.
    10030    2    1    2    0    0  0.00000000000E+00  0.00000000000E+00 -0.18561987044E+03  0.19139164103E+04  0.19048940362E+04 0.  0.
        4    1    3    3  502    0  0.33270586509E+03 -0.87679582048E+03  0.74380154757E+02  0.94074338892E+03  0.12699999809E+01 0.  1.
       -4    1    3    3    0  502 -0.33270586509E+03  0.87679582048E+03 -0.26000002520E+03  0.97317302135E+03  0.12699999809E+01 0. -1.
</event>
<event>
 5   0  0.1327254E-05  0.1901036E+04  0.7818609E-02  0.8654341E-01
       -1   -1    0    0    0  501  0.00000000000E+00  0.00000000000E+00  0.45253063306E+03  0.45253063309E+03  0.50400001928E-02 0.  1.
        1   -1    0    0  501    0  0.00000000000E+00  0.00000000000E+00 -0.19965159885E+04  0.19965159885E+04  0.50400001928E-02 0. -1.
    10030    2    1    2    0    0  0.00000000000E+00  0.00000000000E+00 -0.15439853555E+04  0.24490466216E+04  0.19010361851E+04 0.  0.
        5    1    3    3  502    0  0.41095448566E+03  0.57007962967E+02  0.32970664841E+03  0.52996420741E+03  0.46999998093E+01 0.  1.
       -5    1    3    3    0  502 -0.41095448566E+03 -0.57007962967E+02 -0.18736920039E+04  0.19190824142E+04  0.46999998093E+01 0. -1.
</event>
<event>
 5   0  0.1429067E-05  0.1900298E+04  0.7818609E-02  0.8654708E-01
        1   -1    0    0  501    0  0.00000000000E+00  0.00000000000E+00  0.12052520989E+04  0.12052520990E+04  0.50400001928E-02 0.  1.
       -1   -1    0    0    0  501  0.00000000000E+00  0.00000000000E+00 -0.74904101327E+03  0.74904101329E+03  0.50400001928E-02 0. -1.
    10030    2    1    2    0    0  0.00000000000E+00  0.00000000000E+00  0.45621108568E+03  0.19542931122E+04  0.19002981382E+04 0.  0.
        3    1    3    3  502    0 -0.17978346258E+03  0.92896369795E+03  0.31709513389E+03  0.99792032731E+03  0.10100000352E+00 0. -1.
       -3    1    3    3    0  502  0.17978346258E+03 -0.92896369795E+03  0.13911595179E+03  0.95637278494E+03  0.10100000352E+00 0.  1.
</event>
<event>
 5   0  0.2888776E-05  0.1899173E+04  0.7818609E-02  0.8655268E-01
       -2   -1    0    0    0  501  0.00000000000E+00  0.00000000000E+00  0.44375399664E+03  0.44375399665E+03  0.25500000920E-02 0. -1.
        2   -1    0    0  501    0  0.00000000000E+00  0.00000000000E+00 -0.20320150280E+04  0.20320150280E+04  0.25500000920E-02 0.  1.
    10030    2    1    2    0    0  0.00000000000E+00  0.00000000000E+00 -0.15882610314E+04  0.24757690247E+04  0.18991732832E+04 0.  0.
        3    1    3    3  502    0 -0.43885141265E+03  0.17825497772E+03  0.27875134258E+03  0.54960687829E+03  0.10100000352E+00 0. -1.
       -3    1    3    3    0  502  0.43885141265E+03 -0.17825497772E+03 -0.18670123740E+04  0.19261621464E+04  0.10100000352E+00 0.  1.
</event>
<event>
 5   0  0.2789718E-05  0.1900099E+04  0.7818609E-02  0.8654807E-01
        2   -1    0    0  501    0  0.00000000000E+00  0.00000000000E+00  0.14018754119E+04  0.14018754119E+04  0.25500000920E-02 0.  1.
       -2   -1    0    0    0  501  0.00000000000E+00  0.00000000000E+00 -0.64384740629E+03  0.64384740630E+03  0.25500000920E-02 0. -1.
    10030    2    1    2    0    0  0.00000000000E+00  0.00000000000E+00  0.75802800563E+03  0.20457228182E+04  0.19000987847E+04 0.  0.
        5    1    3    3  502    0 -0.94873379579E+03 -0.43072128320E+02  0.35219000435E+03  0.10129219677E+04  0.46999998093E+01 0. -1.
       -5    1    3    3    0  502  0.94873379579E+03  0.43072128320E+02  0.40583800127E+03  0.10328008505E+04  0.46999998093E+01 0.  1.
</event>
<event>
 5   0  0.2813537E-05  0.1903274E+04  0.7818609E-02  0.8653228E-01
       -2   -1    0    0    0  501  0.00000000000E+00  0.00000000000E+00  0.38144952665E+03  0.38144952666E+03  0.25500000920E-02 0.  1.
        2   -1    0    0  501    0  0.00000000000E+00  0.00000000000E+00 -0.23741363432E+04  0.23741363432E+04  0.25500000920E-02 0. -1.
    10030    2    1    2    0    0  0.00000000000E+00  0.00000000000E+00 -0.19926868166E+04  0.27555858699E+04  0.19032742150E+04 0.  0.
        2    1    3    3  502    0 -0.45621054982E+03  0.56284329172E+03 -0.18896484245E+04  0.20237815606E+04  0.25500000920E-02 0. -1.
       -2    1    3    3    0  502  0.45621054982E+03 -0.56284329172E+03 -0.10303839204E+03  0.73180430925E+03  0.25500000920E-02 0.  1.
</event>
<event>
 5   0  0.1429067E-05  0.1900222E+04  0.7818609E-02  0.8654746E-01
        1   -1    0    0  501    0  0.00000000000E+00  0.00000000000E+00  0.18473851665E+04  0.18473851665E+04  0.50400001928E-02 0.  1.
       -1   -1    0    0    0  501  0.00000000000E+00  0.00000000000E+00 -0.48864238202E+03  0.48864238205E+03  0.50400001928E-02 0. -1.
    10030    2    1    2    0    0  0.00000000000E+00  0.00000000000E+00  0.13587427845E+04  0.23360275486E+04  0.19002217642E+04 0.  0.
        3    1    3    3  502    0  0.88461921813E+03 -0.34099847470E+03  0.60280031508E+03  0.11234764577E+04  0.10100000352E+00 0.  1.
       -3    1    3    3    0  502 -0.88461921813E+03  0.34099847470E+03  0.75594246943E+03  0.12125510909E+04  0.10100000352E+00 0. -1.
</event>
<event>
 5   0  0.2813537E-05  0.1899945E+04  0.7818609E-02  0.8654884E-01
        2   -1    0    0  501    0  0.00000000000E+00  0.00000000000E+00  0.91565408047E+03  0.91565408047E+03  0.25500000920E-02 0.  1.
       -2   -1    0    0    0  501  0.00000000000E+00  0.00000000000E+00 -0.98557754341E+03  0.98557754342E+03  0.25500000920E-02 0. -1.
    10030    2    1    2    0    0  0.00000000000E+00  0.00000000000E+00 -0.69923462947E+02  0.19012316239E+04  0.18999453668E+04 0.  0.
        2    1    3    3  502    0 -0.19067918940E+03 -0.34615086913E+03 -0.89941526262E+03  0.98240866858E+03  0.25500000920E-02 0. -1.
       -2    1    3    3    0  502  0.19067918940E+03  0.34615086913E+03  0.82949179967E+03  0.91882295531E+03  0.25500000920E-02 0.  1.
</event>
<event>
 5   0  0.1413011E-05  0.1900141E+04  0.7818609E-02  0.8654786E-01
       -1   -1    0    0    0  501  0.00000000000E+00  0.00000000000E+00  0.16149084331E+04  0.16149084331E+04  0.50400001928E-02 0. -1.
        1   -1    0    0  501    0  0.00000000000E+00  0.00000000000E+00 -0.55893803037E+03  0.55893803039E+03  0.50400001928E-02 0.  1.
    10030    2    1    2    0    0  0.00000000000E+00  0.00000000000E+00  0.10559704027E+04  0.21738464635E+04  0.19001407725E+04 0.  0.
        1    1    3    3  502    0 -0.62021965778E+00  0.15757688387E+03 -0.54388350260E+03  0.56625093680E+03  0.50400001928E-02 0.  1.
       -1    1    3    3    0  502  0.62021965778E+00 -0.15757688387E+03  0.15998539053E+04  0.16075955267E+04  0.50400001928E-02 0. -1.
</event>
<event>
 5   0  0.1327254E-05  0.1904616E+04  0.7818609E-02  0.8652562E-01
        1   -1    0    0  501    0  0.00000000000E+00  0.00000000000E+00  0.19934708548E+04  0.19934708548E+04  0.50400001928E-02 0.  1.
       -1   -1    0    0    0  501  0.00000000000E+00  0.00000000000E+00 -0.45493022865E+03  0.45493022868E+03  0.50400001928E-02 0. -1.
    10030    2    1    2    0    0  0.00000000000E+00  0.00000000000E+00  0.15385406261E+04  0.24484010834E+04  0.19046156062E+04 0.  0.
        5    1    3    3  502    0  0.60828550969E+03 -0.73256025260E+03  0.75054079863E+03  0.12124311796E+04  0.46999998093E+01 0.  1.
       -5    1    3    3    0  502 -0.60828550969E+03  0.73256025260E+03  0.78799982748E+03  0.12359699038E+04  0.46999998093E+01 0. -1.
</event>
<event>
 5   0  0.2879462E-05  0.1899200E+04  0.7818609E-02  0.8655255E-01
        2   -1    0    0  501    0  0.00000000000E+00  0.00000000000E+00  0.17624334751E+04  0.17624334751E+04  0.25500000920E-02 0.  1.
       -2   -1    0    0    0  501  0.00000000000E+00  0.00000000000E+00 -0.51164491173E+03  0.51164491173E+03  0.25500000920E-02 0. -1.
    10030    2    1    2    0    0  0.00000000000E+00  0.00000000000E+00  0.12507885634E+04  0.22740783868E+04  0.18991999577E+04 0.  0.
        4    1    3    3  502    0  0.17402758501E+03  0.20263469325E+03 -0.46573532450E+03  0.53689610228E+03  0.12699999809E+01 0. -1.
       -4    1    3    3    0  502 -0.17402758501E+03 -0.20263469325E+03  0.17165238879E+04  0.17371822845E+04  0.12699999809E+01 0.  1.
</event>
<event>
 5   0  0.1429067E-05  0.1920890E+04  0.7818609E-02  0.8644527E-01
        1   -1    0    0  501    0  0.00000000000E+00  0.00000000000E+00  0.13093930653E+04  0.13093930653E+04  0.50400001928E-02 0.  1.
       -1   -1    0    0    0  501  0.00000000000E+00  0.00000000000E+00 -0.70449018093E+03  0.70449018095E+03  0.50400001928E-02 0. -1.
    10030    2    1    2    0    0  0.00000000000E+00  0.00000000000E+00  0.60490288440E+03  0.20138832463E+04  0.19208899578E+04 0.  0.
        3    1    3    3  502    0 -0.31074811644E+03 -0.82694818198E+03 -0.92685487975E+02  0.88825576127E+03  0.10100000352E+00 0.  1.
       -3    1    3    3    0  502  0.31074811644E+03  0.82694818198E+03  0.69758837237E+03  0.11256274850E+04  0.10100000352E+00 0. -1.
</event>
<event>
 5   0  0.1413011E-05  0.1900265E+04  0.7818609E-02  0.8654725E-01
        1   -1    0    0  501    0  0.00000000000E+00  0.00000000000E+00  0.15133546675E+04  0.15133546675E+04  0.50400001928E-02 0. -1.
       -1   -1    0    0    0  501  0.00000000000E+00  0.00000000000E+00 -0.59652342334E+03  0.59652342336E+03  0.50400001928E-02 0.  1.
    10030    2    1    2    0    0  0.00000000000E+00  0.00000000000E+00  0.91683124418E+03  0.21098780909E+04  0.19002647258E+04 0.  0.
        1    1    3    3  502    0 -0.24699563463E+01 -0.78676841288E+03  0.10498467854E+04  0.13119408938E+04  0.50400001928E-02 0. -1.
       -1    1    3    3    0  502  0.24699563463E+01  0.78676841288E+03 -0.13301554118E+03  0.79793719704E+03  0.50400001928E-02 0.  1.
</event>
<event>
 5   0  0.1344119E-05  0.1901456E+04  0.7818609E-02  0.8654132E-01
        1   -1    0    0  501    0  0.00000000000E+00  0.00000000000E+00  0.16813091091E+04  0.16813091091E+04  0.50400001928E-02 0.  1.
       -1   -1    0    0    0  501  0.00000000000E+00  0.00000000000E+00 -0.53760715747E+03  0.53760715750E+03  0.50400001928E-02 0. -1.
    10030    2    1    2    0    0  0.00000000000E+00  0.00000000000E+00  0.11437019517E+04  0.22189162666E+04  0.19014560852E+04 0.  0.
        2    1    3    3  502    0 -0.33221073406E+03 -0.63865881258E+03 -0.15282305930E+03  0.73593745534E+03  0.25500000920E-02 0. -1.
       -2    1    3    3    0  502  0.33221073406E+03  0.63865881258E+03  0.12965250109E+04  0.14829788113E+04  0.25500000920E-02 0.  1.
</event>
<event>
 5   0  0.1471485E-05  0.1899566E+04  0.7818609E-02  0.8655072E-01
       -1   -1    0    0    0  501  0.00000000000E+00  0.00000000000E+00  0.92017191748E+03  0.92017191750E+03  0.50400001928E-02 0. -1.
        1   -1    0    0  501    0  0.00000000000E+00  0.00000000000E+00 -0.98034729701E+03  0.98034729703E+03  0.50400001928E-02 0.  1.
    10030    2    1    2    0    0  0.00000000000E+00  0.00000000000E+00 -0.60175379530E+02  0.19005192145E+04  0.18995663212E+04 0.  0.
        4    1    3    3  502    0 -0.48270395553E+03 -0.30202072302E+03  0.73046915751E+03  0.92617840009E+03  0.12699999809E+01 0. -1.
       -4    1    3    3    0  502  0.48270395553E+03  0.30202072302E+03 -0.79064453704E+03  0.97434081443E+03  0.12699999809E+01 0.  1.
</event>
<event>
 5   0  0.1010725E-05  0.1902893E+04  0.7818609E-02  0.8653418E-01
        3   -1    0    0  501    0  0.00000000000E+00  0.00000000000E+00  0.13901973289E+04  0.13901973326E+04  0.10100000352E+00 0. -1.
       -3   -1    0    0    0  501  0.00000000000E+00  0.00000000000E+00 -0.65116684502E+03  0.65116685285E+03  0.10100000352E+00 0.  1.
    10030    2    1    2    0    0  0.00000000000E+00  0.00000000000E+00  0.73903048387E+03  0.20413641854E+04  0.19028929769E+04 0.  0.
        1    1    3    3  502    0 -0.35149567115E+03  0.27875266752E+03 -0.53058709864E+03  0.69482006718E+03  0.50400001928E-02 0.  1.
       -1    1    3    3    0  502  0.35149567115E+03 -0.27875266752E+03  0.12696175825E+04  0.13465441182E+04  0.50400001928E-02 0. -1.
</event>
<event>
 5   0  0.2855141E-05  0.1897735E+04  0.7818609E-02  0.8655985E-01
       -2   -1    0    0    0  501  0.00000000000E+00  0.00000000000E+00  0.11783669453E+04  0.11783669453E+04  0.25500000920E-02 0. -1.
        2   -1    0    0  501    0  0.00000000000E+00  0.00000000000E+00 -0.76406532969E+03  0.76406532969E+03  0.25500000920E-02 0.  1.
    10030    2    1    2    0    0  0.00000000000E+00  0.00000000000E+00  0.41430161559E+03  0.19424322750E+04  0.18977347850E+04 0.  0.
        1    1    3    3  502    0 -0.67104930335E+03 -0.33907617223E+03  0.79963643973E+03  0.10975874698E+04  0.50400001928E-02 0. -1.
       -1    1    3    3    0  502  0.67104930335E+03  0.33907617223E+03 -0.38533482414E+03  0.84484480517E+03  0.50400001928E-02 0.  1.
</event>
<event>
 5   0  0.1344119E-05  0.1897607E+04  0.7818609E-02  0.8656049E-01
       -1   -1    0    0    0  501  0.00000000000E+00  0.00000000000E+00  0.48566072927E+03  0.48566072930E+03  0.50400001928E-02 0. -1.
        1   -1    0    0  501    0  0.00000000000E+00  0.00000000000E+00 -0.18536145303E+04  0.18536145303E+04  0.50400001928E-02 0.  1.
    10030    2    1    2    0    0  0.00000000000E+00  0.00000000000E+00 -0.13679538010E+04  0.23392752596E+04  0.18976066870E+04 0.  0.
        2    1    3    3  502    0 -0.39536588543E+03  0.55364370769E+03  0.13131037754E+03  0.69287657897E+03  0.25500000920E-02 0. -1.
       -2    1    3    3    0  502  0.39536588543E+03 -0.55364370769E+03 -0.14992641786E+04  0.16463986806E+04  0.25500000920E-02 0.  1.
</event>
<event>
 5   0  0.2888776E-05  0.1897841E+04  0.7818609E-02  0.8655932E-01
        2   -1    0    0  501    0  0.00000000000E+00  0.00000000000E+00  0.54375147632E+03  0.54375147632E+03  0.25500000920E-02 0. -1.
       -2   -1    0    0    0  501  0.00000000000E+00  0.00000000000E+00 -0.16559955911E+04  0.16559955911E+04  0.25500000920E-02 0.  1.
    10030    2    1    2    0    0  0.00000000000E+00  0.00000000000E+00 -0.11122441148E+04  0.21997470675E+04  0.18978409285E+04 0.  0.
        3    1    3    3  502    0 -0.46968946403E+03  0.57648300511E+03  0.12715381575E+03  0.75439310102E+03  0.10100000352E+00 0. -1.
       -3    1    3    3    0  502  0.46968946403E+03 -0.57648300511E+03 -0.12393979306E+04  0.14453539664E+04  0.10100000352E+00 0.  1.
</event>
<event>
 5   0  0.1471485E-05  0.1901838E+04  0.7818609E-02  0.8653942E-01
       -1   -1    0    0    0  501  0.00000000000E+00  0.00000000000E+00  0.85084153351E+03  0.85084153352E+03  0.50400001928E-02 0. -1.
        1   -1    0    0  501    0  0.00000000000E+00  0.00000000000E+00 -0.10627679177E+04  0.10627679177E+04  0.50400001928E-02 0.  1.
    10030    2    1    2    0    0  0.00000000000E+00  0.00000000000E+00 -0.21192638421E+03  0.19136094513E+04  0.19018381476E+04 0.  0.
        4    1    3    3  502    0 -0.84988965627E+03  0.24747295058E+03 -0.45551835873E+03  0.99551688944E+03  0.12699999809E+01 0.  1.
       -4    1    3    3    0  502  0.84988965627E+03 -0.24747295058E+03  0.24359197452E+03  0.91809256182E+03  0.12699999809E+01 0. -1.
</event>
<event>
 5   0  0.2855141E-05  0.1899960E+04  0.7818609E-02  0.8654876E-01
        2   -1    0    0  501    0  0.00000000000E+00  0.00000000000E+00  0.80838615494E+03  0.80838615494E+03  0.25500000920E-02 0. -1.
       -2   -1    0    0    0  501  0.00000000000E+00  0.00000000000E+00 -0.11163753967E+04  0.11163753967E+04  0.25500000920E-02 0.  1.
    10030    2    1    2    0    0  0.00000000000E+00  0.00000000000E+00 -0.30798924177E+03  0.19247615516E+04  0.18999604358E+04 0.  0.
        1    1    3    3  502    0  0.61699859426E+03 -0.37700436240E+03 -0.77818920399E+03  0.10622607928E+04  0.50400001928E-02 0.  1.
       -1    1    3    3    0  502 -0.61699859426E+03  0.37700436240E+03  0.47019996222E+03  0.86250075889E+03  0.50400001928E-02 0. -1.
</event>
<event>
 5   0  0.1429067E-05  0.1899872E+04  0.7818609E-02  0.8654920E-01
       -1   -1    0    0    0  501  0.00000000000E+00  0.00000000000E+00  0.80770873714E+03  0.80770873715E+03  0.50400001928E-02 0.  1.
        1   -1    0    0  501    0  0.00000000000E+00  0.00000000000E+00 -0.11172074683E+04  0.11172074684E+04  0.50400001928E-02 0. -1.
    10030    2    1    2    0    0  0.00000000000E+00  0.00000000000E+00 -0.30949873121E+03  0.19249162055E+04  0.18998718203E+04 0.  0.
        3    1    3    3  502    0 -0.39035263567E+03 -0.74044971780E+03 -0.60982185824E+03  0.10356271886E+04  0.10100000352E+00 0. -1.
       -3    1    3    3    0  502  0.39035263567E+03  0.74044971780E+03  0.30032312704E+03  0.88928901691E+03  0.10100000352E+00 0.  1.
</event>
<event>
 5   0  0.2879462E-05  0.1899651E+04  0.7818609E-02  0.8655030E-01
       -2   -1    0    0    0  501  0.00000000000E+00  0.00000000000E+00  0.53029125977E+03  0.53029125978E+03  0.25500000920E-02 0. -1.
        2   -1    0    0  501    0  0.00000000000E+00  0.00000000000E+00 -0.17012693000E+04  0.17012693000E+04  0.25500000920E-02 0.  1.
    10030    2    1    2    0    0  0.00000000000E+00  0.00000000000E+00 -0.11709780402E+04  0.22315605597E+04  0.18996507472E+04 0.  0.
        4    1    3    3  502    0 -0.30035293785E+03 -0.72821366366E+03 -0.12089326525E+04  0.14429230050E+04  0.12699999809E+01 0.  1.
       -4    1    3    3    0  502  0.30035293785E+03  0.72821366366E+03  0.37954612325E+02  0.78863755471E+03  0.12699999809E+01 0. -1.
</event>
<event>
 5   0  0.2879462E-05  0.1917489E+04  0.7818609E-02  0.8646200E-01
        2   -1    0    0  501    0  0.00000000000E+00  0.00000000000E+00  0.12149193326E+04  0.12149193326E+04  0.25500000920E-02 0.  1.
       -2   -1    0    0    0  501  0.00000000000E+00  0.00000000000E+00 -0.75658622358E+03  0.75658622359E+03  0.25500000920E-02 0. -1.
    10030    2    1    2    0    0  0.00000000000E+00  0.00000000000E+00  0.45833310900E+03  0.19715055562E+04  0.19174892227E+04 0.  0.
        4    1    3    3  502    0 -0.16857417981E+03 -0.51103299704E+01 -0.74121397604E+03  0.76015994418E+03  0.12699999809E+01 0. -1.
       -4    1    3    3    0  502  0.16857417981E+03  0.51103299704E+01  0.11995470850E+04  0.12113456120E+04  0.12699999809E+01 0.  1.
</event>
<event>
 5   0  0.2789718E-05  0.1903735E+04  0.7818609E-02  0.8652999E-01
       -2   -1    0    0    0  501  0.00000000000E+00  0.00000000000E+00  0.77582388875E+03  0.77582388875E+03  0.25500000920E-02 0.  1.
        2   -1    0    0  501    0  0.00000000000E+00  0.00000000000E+00 -0.11678574289E+04  0.11678574289E+04  0.25500000920E-02 0. -1.
    10030    2    1    2    0    0  0.00000000000E+00  0.00000000000E+00 -0.39203354011E+03  0.19436813176E+04  0.19037349521E+04 0.  0.
        5    1    3    3  502    0  0.50261260954E+03 -0.22421825951E+03  0.59689766537E+03  0.81191266531E+03  0.46999998093E+01 0.  1.
       -5    1    3    3    0  502 -0.50261260954E+03  0.22421825951E+03 -0.98893120548E+03  0.11317686523E+04  0.46999998093E+01 0. -1.
</event>
<event>
 5   0  0.2813537E-05  0.1900521E+04  0.7818609E-02  0.8654597E-01
        2   -1    0    0  501    0  0.00000000000E+00  0.00000000000E+00  0.10128655288E+04  0.10128655289E+04  0.25500000920E-02 0. -1.
       -2   -1    0    0    0  501  0.00000000000E+00  0.00000000000E+00 -0.89152467997E+03  0.89152467998E+03  0.25500000920E-02 0.  1.
    10030    2    1    2    0    0  0.00000000000E+00  0.00000000000E+00  0.12134084888E+03  0.19043902088E+04  0.19005205776E+04 0.  0.
        2    1    3    3  502    0  0.37440036431E+03 -0.83715719553E+02 -0.81047341707E+03  0.89668897299E+03  0.25500000920E-02 0.  1.
       -2    1    3    3    0  502 -0.37440036431E+03  0.83715719553E+02  0.93181426595E+03  0.10077012358E+04  0.25500000920E-02 0. -1.
</event>
<event>
 5   0  0.2888776E-05  0.1898619E+04  0.7818609E-02  0.8655544E-01
       -2   -1    0    0    0  501  0.00000000000E+00  0.00000000000E+00  0.39642245742E+03  0.39642245743E+03  0.25500000920E-02 0. -1.
        2   -1    0    0  501    0  0.00000000000E+00  0.00000000000E+00 -0.22733034660E+04  0.22733034660E+04  0.25500000920E-02 0.  1.
    10030    2    1    2    0    0  0.00000000000E+00  0.00000000000E+00 -0.18768810086E+04  0.26697259234E+04  0.18986190207E+04 0.  0.
        3    1    3    3  502    0 -0.19664302176E+03  0.29823229180E+03  0.29830625867E+03  0.46540048565E+03  0.10100000352E+00 0. -1.
       -3    1    3    3    0  502  0.19664302176E+03 -0.29823229180E+03 -0.21751872673E+04  0.22043254378E+04  0.10100000352E+00 0.  1.
</event>
<event>
 5   0  0.2888776E-05  0.1897027E+04  0.7818609E-02  0.8656338E-01
       -2   -1    0    0    0  501  0.00000000000E+00  0.00000000000E+00  0.57845005208E+03  0.57845005209E+03  0.25500000920E-02 0. -1.
        2   -1    0    0  501    0  0.00000000000E+00  0.00000000000E+00 -0.15553250741E+04  0.15553250741E+04  0.25500000920E-02 0.  1.
    10030    2    1    2    0    0  0.00000000000E+00  0.00000000000E+00 -0.97687502197E+03  0.21337751261E+04  0.18970270110E+04 0.  0.
        3    1    3    3  502    0  0.86687533357E+03  0.26485813069E+03 -0.80268803929E+03  0.12107562810E+04  0.10100000352E+00 0.  1.
       -3    1    3    3    0  502 -0.86687533357E+03 -0.26485813069E+03 -0.17418698268E+03  0.92301884514E+03  0.10100000352E+00 0. -1.
</event>
<event>
 5   0  0.2813537E-05  0.1901923E+04  0.7818609E-02  0.8653900E-01
       -2   -1    0    0    0  501  0.00000000000E+00  0.00000000000E+00  0.96389578169E+03  0.96389578169E+03  0.25500000920E-02 0. -1.
        2   -1    0    0  501    0  0.00000000000E+00  0.00000000000E+00 -0.93820052260E+03  0.93820052261E+03  0.25500000920E-02 0.  1.
    10030    2    1    2    0    0  0.00000000000E+00  0.00000000000E+00  0.25695259086E+02  0.19020963043E+04  0.19019227388E+04 0.  0.
        2    1    3    3  502    0  0.70322980809E+03 -0.63217839157E+03 -0.87888144796E+02  0.94968732104E+03  0.25500000920E-02 0.  1.
       -2    1    3    3    0  502 -0.70322980809E+03  0.63217839157E+03  0.11358340388E+03  0.95240898326E+03  0.25500000920E-02 0. -1.
</event>
<event>
 5   0  0.1010725E-05  0.1897638E+04  0.7818609E-02  0.8656033E-01
       -4   -1    0    0    0  501  0.00000000000E+00  0.00000000000E+00  0.73149734572E+03  0.73149844818E+03  0.12699999809E+01 0.  1.
        4   -1    0    0  501    0  0.00000000000E+00  0.00000000000E+00 -0.12307030636E+04  0.12307037189E+04  0.12699999809E+01 0. -1.
    10030    2    1    2    0    0  0.00000000000E+00  0.00000000000E+00 -0.49920571792E+03  0.19622021671E+04  0.18976382679E+04 0.  0.
        5    1    3    3  502    0 -0.36065110933E+02  0.59480945300E+03 -0.10130571215E+04  0.11753322080E+04  0.46999998093E+01 0. -1.
       -5    1    3    3    0  502  0.36065110933E+02 -0.59480945300E+03  0.51385140360E+03  0.78686995914E+03  0.46999998093E+01 0.  1.
</event>
<event>
 5   0  0.2888776E-05  0.1894431E+04  0.7818609E-02  0.8657633E-01
       -2   -1    0    0    0  501  0.00000000000E+00  0.00000000000E+00  0.92781908853E+03  0.92781908854E+03  0.25500000920E-02 0. -1.
        2   -1    0    0  501    0  0.00000000000E+00  0.00000000000E+00 -0.96701752089E+03  0.96701752089E+03  0.25500000920E-02 0.  1.
    10030    2    1    2    0    0  0.00000000000E+00  0.00000000000E+00 -0.39198432354E+02  0.18948366094E+04  0.18944311176E+04 0.  0.
        3    1    3    3  502    0 -0.16960842699E+03 -0.75041741123E+03 -0.57227879300E+03  0.95885157178E+03  0.10100000352E+00 0.  1.
       -3    1    3    3    0  502  0.16960842699E+03  0.75041741123E+03  0.53308036065E+03  0.93598503764E+03  0.10100000352E+00 0. -1.
</event>
<event>
 5   0  0.1413011E-05  0.1900688E+04  0.7818609E-02  0.8654514E-01
       -1   -1    0    0    0  501  0.00000000000E+00  0.00000000000E+00  0.41821547509E+03  0.41821547512E+03  0.50400001928E-02 0.  1.
        1   -1    0    0  501    0  0.00000000000E+00  0.00000000000E+00 -0.21595421048E+04  0.21595421048E+04  0.50400001928E-02 0. -1.
    10030    2    1    2    0    0  0.00000000000E+00  0.00000000000E+00 -0.17413266297E+04  0.25777575800E+04  0.19006882200E+04 0.  0.
        1    1    3    3  502    0 -0.36015170439E+03  0.36789211950E+03 -0.19540302689E+04  0.20207147630E+04  0.50400001928E-02 0. -1.
       -1    1    3    3    0  502  0.36015170439E+03 -0.36789211950E+03  0.21270363913E+03  0.55704281693E+03  0.50400001928E-02 0.  1.
</event>
<event>
 5   0  0.2855141E-05  0.1900487E+04  0.7818609E-02  0.8654614E-01
       -2   -1    0    0    0  501  0.00000000000E+00  0.00000000000E+00  0.57618557563E+03  0.57618557563E+03  0.25500000920E-02 0.  1.
        2   -1    0    0  501    0  0.00000000000E+00  0.00000000000E+00 -0.15671378887E+04  0.15671378887E+04  0.25500000920E-02 0. -1.
    10030    2    1    2    0    0  0.00000000000E+00  0.00000000000E+00 -0.99095231308E+03  0.21433234643E+04  0.19004865130E+04 0.  0.
        1    1    3    3  502    0 -0.65126536542E+03 -0.22198665081E+03 -0.12346107319E+04  0.14133960197E+04  0.50400001928E-02 0. -1.
       -1    1    3    3    0  502  0.65126536542E+03  0.22198665081E+03  0.24365841878E+03  0.72992744462E+03  0.50400001928E-02 0.  1.
</event>
<event>
 5   0  0.2813537E-05  0.1895522E+04  0.7818609E-02  0.8657089E-01
       -2   -1    0    0    0  501  0.00000000000E+00  0.00000000000E+00  0.52136494836E+03  0.52136494837E+03  0.25500000920E-02 0.  1.
        2   -1    0    0  501    0  0.00000000000E+00  0.00000000000E+00 -0.17228826988E+04  0.17228826988E+04  0.25500000920E-02 0. -1.
    10030    2    1    2    0    0  0.00000000000E+00  0.00000000000E+00 -0.12015177504E+04  0.22442476472E+04  0.18955217216E+04 0.  0.
        2    1    3    3  502    0  0.45635245542E+03 -0.37819616214E+02 -0.15832163905E+04  0.16481086208E+04  0.25500000920E-02 0. -1.
       -2    1    3    3    0  502 -0.45635245542E+03  0.37819616214E+02  0.38169864003E+03  0.59613902636E+03  0.25500000920E-02 0.  1.
</event>
<event>
 5   0  0.1344119E-05  0.1898562E+04  0.7818609E-02  0.8655573E-01
       -1   -1    0    0    0  501  0.00000000000E+00  0.00000000000E+00  0.40443650533E+03  0.40443650536E+03  0.50400001928E-02 0.  1.
        1   -1    0    0  501    0  0.00000000000E+00  0.00000000000E+00 -0.22281229288E+04  0.22281229288E+04  0.50400001928E-02 0. -1.
    10030    2    1    2    0    0  0.00000000000E+00  0.00000000000E+00 -0.18236864234E+04  0.26325594341E+04  0.18985618250E+04 0.  0.
        2    1    3    3  502    0  0.15674756659E+03 -0.13542266798E+03 -0.21964022224E+04  0.22061486399E+04  0.25500000920E-02 0. -1.
       -2    1    3    3    0  502 -0.15674756659E+03  0.13542266798E+03  0.37271579898E+03  0.42641079424E+03  0.25500000920E-02 0.  1.
</event>
<event>
 5   0  0.2789718E-05  0.1899242E+04  0.7818609E-02  0.8655234E-01
        2   -1    0    0  501    0  0.00000000000E+00  0.00000000000E+00  0.19967419474E+04  0.19967419474E+04  0.25500000920E-02 0. -1.
       -2   -1    0    0    0  501  0.00000000000E+00  0.00000000000E+00 -0.45162551051E+03  0.45162551051E+03  0.25500000920E-02 0.  1.
    10030    2    1    2    0    0  0.00000000000E+00  0.00000000000E+00  0.15451164369E+04  0.24483674579E+04  0.18992415342E+04 0.  0.
        5    1    3    3  502    0  0.69826174656E+03  0.23305200119E+03 -0.78471813327E+00  0.73614224695E+03  0.46999998093E+01 0.  1.
       -5    1    3    3    0  502 -0.69826174656E+03 -0.23305200119E+03  0.15459011550E+04  0.17122252109E+04  0.46999998093E+01 0. -1.
</event>
<event>
 5   0  0.1429067E-05  0.1882484E+04  0.7818609E-02  0.8663624E-01
       -1   -1    0    0    0  501  0.00000000000E+00  0.00000000000E+00  0.44354028386E+03  0.44354028389E+03  0.50400001928E-02 0. -1.
        1   -1    0    0  501    0  0.00000000000E+00  0.00000000000E+00 -0.19974215083E+04  0.19974215083E+04  0.50400001928E-02 0.  1.
    10030    2    1    2    0    0  0.00000000000E+00  0.00000000000E+00 -0.15538812245E+04  0.24409617922E+04  0.18824844253E+04 0.  0.
        3    1    3    3  502    0 -0.54379338614E+02  0.44670530490E+03  0.29501777840E+03  0.53808757807E+03  0.10100000352E+00 0. -1.
       -3    1    3    3    0  502  0.54379338614E+02 -0.44670530490E+03 -0.18488990029E+04  0.19028742141E+04  0.10100000352E+00 0.  1.
</event>
<event>
 5   0  0.1327254E-05  0.1901454E+04  0.7818609E-02  0.8654133E-01
        1   -1    0    0  501    0  0.00000000000E+00  0.00000000000E+00  0.14641667674E+04  0.14641667674E+04  0.50400001928E-02 0.  1.
       -1   -1    0    0    0  501  0.00000000000E+00  0.00000000000E+00 -0.61733512552E+03  0.61733512554E+03  0.50400001928E-02 0. -1.
    10030    2    1    2    0    0  0.00000000000E+00  0.00000000000E+00  0.84683164190E+03  0.20815018930E+04  0.19014537335E+04 0.  0.
        5    1    3    3  502    0  0.23406766203E+03 -0.39593247881E+03 -0.48742214837E+03  0.67018850997E+03  0.46999998093E+01 0. -1.
       -5    1    3    3    0  502 -0.23406766203E+03  0.39593247881E+03  0.13342537903E+04  0.14113133830E+04  0.46999998093E+01 0.  1.
</event>
<event>
 5   0  0.1471485E-05  0.1902669E+04  0.7818609E-02  0.8653529E-01
       -1   -1    0    0    0  501  0.00000000000E+00  0.00000000000E+00  0.13182786581E+04  0.13182786582E+04  0.50400001928E-02 0.  1.
        1   -1    0    0  501    0  0.00000000000E+00  0.00000000000E+00 -0.68652990493E+03  0.68652990494E+03  0.50400001928E-02 0. -1.
    10030    2    1    2    0    0  0.00000000000E+00  0.00000000000E+00  0.63174875322E+03  0.20048085631E+04  0.19026694110E+04 0.  0.
        4    1    3    3  502    0  0.54890103948E+02  0.51120227019E+03 -0.52752909388E+03  0.73663372333E+03  0.12699999809E+01 0. -1.
       -4    1    3    3    0  502 -0.54890103948E+02 -0.51120227019E+03  0.11592778471E+04  0.12681748398E+04  0.12699999809E+01 0.  1.
</event>
<event>
 5   0  0.2879462E-05  0.1899275E+04  0.7818609E-02  0.8655218E-01
        2   -1    0    0  501    0  0.00000000000E+00  0.00000000000E+00  0.83633643159E+03  0.83633643160E+03  0.25500000920E-02 0. -1.
       -2   -1    0    0    0  501  0.00000000000E+00  0.00000000000E+00 -0.10782872535E+04  0.10782872535E+04  0.25500000920E-02 0.  1.
    10030    2    1    2    0    0  0.00000000000E+00  0.00000000000E+00 -0.24195082194E+03  0.19146236851E+04  0.18992745077E+04 0.  0.
        4    1    3    3  502    0 -0.28463115503E+03 -0.17786315371E+03 -0.10165009460E+04  0.10704793234E+04  0.12699999809E+01 0.  1.
       -4    1    3    3    0  502  0.28463115503E+03  0.17786315371E+03  0.77455012402E+03  0.84414436170E+03  0.12699999809E+01 0. -1.
</event>
<event>
 5   0  0.2813537E-05  0.1901929E+04  0.7818609E-02  0.8653897E-01
       -2   -1    0    0    0  501  0.00000000000E+00  0.00000000000E+00  0.11669012574E+04  0.11669012574E+04  0.25500000920E-02 0.  1.
        2   -1    0    0  501    0  0.00000000000E+00  0.00000000000E+00 -0.77498684095E+03  0.77498684096E+03  0.25500000920E-02 0. -1.
    10030    2    1    2    0    0  0.00000000000E+00  0.00000000000E+00  0.39191441649E+03  0.19418880984E+04  0.19019286203E+04 0.  0.
        2    1    3    3  502    0 -0.63907722968E+02  0.33534608530E+03  0.11021816029E+04  0.11538394514E+04  0.25500000920E-02 0.  1.
       -2    1    3    3    0  502  0.63907722968E+02 -0.33534608530E+03 -0.71026718636E+03  0.78804864698E+03  0.25500000920E-02 0. -1.
</event>
<event>
 5   0  0.2879462E-05  0.1898977E+04  0.7818609E-02  0.8655366E-01
        2   -1    0    0  501    0  0.00000000000E+00  0.00000000000E+00  0.63814081726E+03  0.63814081727E+03  0.25500000920E-02 0. -1.
       -2   -1    0    0    0  501  0.00000000000E+00  0.00000000000E+00 -0.14127423700E+04  0.14127423700E+04  0.25500000920E-02 0.  1.
    10030    2    1    2    0    0  0.00000000000E+00  0.00000000000E+00 -0.77460155270E+03  0.20508831872E+04  0.18989771674E+04 0.  0.
        4    1    3    3  502    0  0.70809988828E+02  0.89964516075E+03 -0.68471212657E+02  0.90502231444E+03  0.12699999809E+01 0. -1.
       -4    1    3    3    0  502 -0.70809988828E+02 -0.89964516075E+03 -0.70613034004E+03  0.11458608728E+04  0.12699999809E+01 0.  1.
</event>
<event>
 5   0  0.2855141E-05  0.1897066E+04  0.7818609E-02  0.8656318E-01
       -2   -1    0    0    0  501  0.00000000000E+00  0.00000000000E+00  0.21626071502E+04  0.21626071502E+04  0.25500000920E-02 0.  1.
        2   -1    0    0  501    0  0.00000000000E+00  0.00000000000E+00 -0.41603240008E+03  0.41603240009E+03  0.25500000920E-02 0. -1.
    10030    2    1    2    0    0  0.00000000000E+00  0.00000000000E+00  0.17465747501E+04  0.25786395503E+04  0.18970657797E+04 0.  0.
        1    1    3    3  502    0 -0.31764135219E+03 -0.47397402906E+02 -0.33988020262E+03  0.46761211980E+03  0.50400001928E-02 0. -1.
       -1    1    3    3    0  502  0.31764135219E+03  0.47397402906E+02  0.20864549528E+04  0.21110274305E+04  0.50400001928E-02 0.  1.
</event>
<event>
 5   0  0.2888776E-05  0.1900737E+04  0.7818609E-02  0.8654490E-01
        2   -1    0    0  501    0  0.00000000000E+00  0.00000000000E+00  0.11907614415E+04  0.11907614415E+04  0.25500000920E-02 0.  1.
       -2   -1    0    0    0  501  0.00000000000E+00  0.00000000000E+00 -0.75850621194E+03  0.75850621195E+03  0.25500000920E-02 0. -1.
    10030    2    1    2    0    0  0.00000000000E+00  0.00000000000E+00  0.43225522954E+03  0.19492676534E+04  0.19007366470E+04 0.  0.
        3    1    3    3  502    0 -0.85144359377E+03 -0.24216141491E+03 -0.13853712620E+03  0.89598598749E+03  0.10100000352E+00 0. -1.
       -3    1    3    3    0  502  0.85144359377E+03  0.24216141491E+03  0.57079235574E+03  0.10532816659E+04  0.10100000352E+00 0.  1.
</event>
<event>
 5   0  0.1413011E-05  0.1900806E+04  0.7818609E-02  0.8654456E-01
       -1   -1    0    0    0  501  0.00000000000E+00  0.00000000000E+00  0.54161277101E+03  0.54161277103E+03  0.50400001928E-02 0.  1.
        1   -1    0    0  501    0  0.00000000000E+00  0.00000000000E+00 -0.16677329137E+04  0.16677329137E+04  0.50400001928E-02 0. -1.
    10030    2    1    2    0    0  0.00000000000E+00  0.00000000000E+00 -0.11261201427E+04  0.22093456847E+04  0.19008055605E+04 0.  0.
        1    1    3    3  502    0  0.52258130908E+03  0.16856082882E+03 -0.14647104442E+04  0.15642508313E+04  0.50400001928E-02 0. -1.
       -1    1    3    3    0  502 -0.52258130908E+03 -0.16856082882E+03  0.33859030157E+03  0.64509485346E+03  0.50400001928E-02 0.  1.
</event>
<event>
 5   0  0.2813537E-05  0.1901601E+04  0.7818609E-02  0.8654060E-01
       -2   -1    0    0    0  501  0.00000000000E+00  0.00000000000E+00  0.56119796840E+03  0.56119796840E+03  0.25500000920E-02 0. -1.
        2   -1    0    0  501    0  0.00000000000E+00  0.00000000000E+00 -0.16108774999E+04  0.16108774999E+04  0.25500000920E-02 0.  1.
    10030    2    1    2    0    0  0.00000000000E+00  0.00000000000E+00 -0.10496795315E+04  0.21720754683E+04  0.19016005682E+04 0.  0.
        2    1    3    3  502    0  0.33709707390E+03  0.84551044151E+03 -0.21098715826E+03  0.93436498484E+03  0.25500000920E-02 0.  1.
       -2    1    3    3    0  502 -0.33709707390E+03 -0.84551044151E+03 -0.83869237325E+03  0.12377104835E+04  0.25500000920E-02 0. -1.
</event>
<event>
 5   0  0.1344119E-05  0.1899852E+04  0.7818609E-02  0.8654930E-01
       -1   -1    0    0    0  501  0.00000000000E+00  0.00000000000E+00  0.11937092502E+04  0.11937092502E+04  0.50400001928E-02 0. -1.
        1   -1    0    0  501    0  0.00000000000E+00  0.00000000000E+00 -0.75592866969E+03  0.75592866970E+03  0.50400001928E-02 0.  1.
    10030    2    1    2    0    0  0.00000000000E+00  0.00000000000E+00  0.43778058054E+03  0.19496379199E+04  0.18998516211E+04 0.  0.
        2    1    3    3  502    0  0.92865276259E+03  0.14646506596E+03  0.79269491743E+02  0.94346786980E+03  0.25500000920E-02 0. -1.
       -2    1    3    3    0  502 -0.92865276259E+03 -0.14646506596E+03  0.35851108880E+03  0.10061700501E+04  0.25500000920E-02 0.  1.
</event>
<event>
 5   0  0.2879462E-05  0.1906257E+04  0.7818609E-02  0.8651748E-01
       -2   -1    0    0    0  501  0.00000000000E+00  0.00000000000E+00  0.48800906957E+03  0.48800906958E+03  0.25500000920E-02 0.  1.
        2   -1    0    0  501    0  0.00000000000E+00  0.00000000000E+00 -0.18615517790E+04  0.18615517790E+04  0.25500000920E-02 0. -1.
    10030    2    1    2    0    0  0.00000000000E+00  0.00000000000E+00 -0.13735427095E+04  0.23495608486E+04  0.19062572247E+04 0.  0.
        4    1    3    3  502    0  0.13581256809E+03  0.92608438551E+03 -0.46499696264E+03  0.10451321117E+04  0.12699999809E+01 0. -1.
       -4    1    3    3    0  502 -0.13581256809E+03 -0.92608438551E+03 -0.90854574681E+03  0.13044287369E+04  0.12699999809E+01 0.  1.
</event>
<event>
 5   0  0.2879462E-05  0.1895842E+04  0.7818609E-02  0.8656929E-01
       -2   -1    0    0    0  501  0.00000000000E+00  0.00000000000E+00  0.13689966771E+04  0.13689966771E+04  0.25500000920E-02 0.  1.
        2   -1    0    0  501    0  0.00000000000E+00  0.00000000000E+00 -0.65635999360E+03  0.65635999361E+03  0.25500000920E-02 0. -1.
    10030    2    1    2    0    0  0.00000000000E+00  0.00000000000E+00  0.71263668349E+03  0.20253566707E+04  0.18958424515E+04 0.  0.
        4    1    3    3  502    0 -0.47013493369E+03 -0.72771237501E+03 -0.54616272599E+02  0.86808796027E+03  0.12699999809E+01 0. -1.
       -4    1    3    3    0  502  0.47013493369E+03  0.72771237501E+03  0.76725295609E+03  0.11572687104E+04  0.12699999809E+01 0.  1.
</event>
<event>
 5   0  0.1413011E-05  0.1898305E+04  0.7818609E-02  0.8655700E-01
        1   -1    0    0  501    0  0.00000000000E+00  0.00000000000E+00  0.70555845453E+03  0.70555845455E+03  0.50400001928E-02 0. -1.
       -1   -1    0    0    0  501  0.00000000000E+00  0.00000000000E+00 -0.12768475901E+04  0.12768475901E+04  0.50400001928E-02 0.  1.
    10030    2    1    2    0    0  0.00000000000E+00  0.00000000000E+00 -0.57128913559E+03  0.19824060447E+04  0.18983051518E+04 0.  0.
        1    1    3    3  502    0 -0.59627088079E+03  0.70761992701E+03 -0.50625144608E+03  0.10547774415E+04  0.50400001928E-02 0.  1.
       -1    1    3    3    0  502  0.59627088079E+03 -0.70761992701E+03 -0.65037689518E+02  0.92762860319E+03  0.50400001928E-02 0. -1.
</event>
<event>
 5   0  0.1327254E-05  0.1900071E+04  0.7818609E-02  0.8654821E-01
        1   -1    0    0  501    0  0.00000000000E+00  0.00000000000E+00  0.15348714559E+04  0.15348714559E+04  0.50400001928E-02 0. -1.
       -1   -1    0    0    0  501  0.00000000000E+00  0.00000000000E+00 -0.58804090984E+03  0.58804090986E+03  0.50400001928E-02 0.  1.
    10030    2    1    2    0    0  0.00000000000E+00  0.00000000000E+00  0.94683054602E+03  0.21229123657E+04  0.19000707433E+04 0.  0.
        5    1    3    3  502    0 -0.51750263345E+03 -0.30896326902E+03  0.12938963765E+04  0.14273952502E+04  0.46999998093E+01 0. -1.
       -5    1    3    3    0  502  0.51750263345E+03  0.30896326902E+03 -0.34706583050E+03  0.69551711549E+03  0.46999998093E+01 0.  1.
</event>
<event>
 5   0  0.2888776E-05  0.1897742E+04  0.7818609E-02  0.8655981E-01
       -2   -1    0    0    0  501  0.00000000000E+00  0.00000000000E+00  0.63662011252E+03  0.63662011253E+03  0.25500000920E-02 0. -1.
        2   -1    0    0  501    0  0.00000000000E+00  0.00000000000E+00 -0.14142758761E+04  0.14142758761E+04  0.25500000920E-02 0.  1.
    10030    2    1    2    0    0  0.00000000000E+00  0.00000000000E+00 -0.77765576356E+03  0.20508959886E+04  0.18977423085E+04 0.  0.
        3    1    3    3  502    0 -0.51193908518E+03 -0.39297093475E+03 -0.11405566550E+04  0.13104874192E+04  0.10100000352E+00 0.  1.
       -3    1    3    3    0  502  0.51193908518E+03  0.39297093475E+03  0.36290089140E+03  0.74040856942E+03  0.10100000352E+00 0. -1.
</event>
<event>
 5   0  0.1327254E-05  0.1903754E+04  0.7818609E-02  0.8652990E-01
       -1   -1    0    0    0  501  0.00000000000E+00  0.00000000000E+00  0.90523933667E+03  0.90523933669E+03  0.50400001928E-02 0. -1.
        1   -1    0    0  501    0  0.00000000000E+00  0.00000000000E+00 -0.10009175244E+04  0.10009175244E+04  0.50400001928E-02 0.  1.
    10030    2    1    2    0    0  0.00000000000E+00  0.00000000000E+00 -0.95678187746E+02  0.19061568611E+04  0.19037540975E+04 0.  0.
        5    1    3    3  502    0  0.31769628239E+03 -0.10753892206E+03 -0.93977892185E+03  0.99784871576E+03  0.46999998093E+01 0.  1.
       -5    1    3    3    0  502 -0.31769628239E+03  0.10753892206E+03  0.84410073410E+03  0.90830814535E+03  0.46999998093E+01 0. -1.
</event>
<event>
 5   0  0.1471485E-05  0.1899287E+04  0.7818609E-02  0.8655211E-01
       -1   -1    0    0    0  501  0.00000000000E+00  0.00000000000E+00  0.49240061638E+03  0.49240061640E+03  0.50400001928E-02 0. -1.
        1   -1    0    0  501    0  0.00000000000E+00  0.00000000000E+00 -0.18314824256E+04  0.18314824256E+04  0.50400001928E-02 0.  1.
    10030    2    1    2    0    0  0.00000000000E+00  0.00000000000E+00 -0.13390818092E+04  0.23238830420E+04  0.18992873140E+04 0.  0.
        4    1    3    3  502    0 -0.17803252238E+03  0.65537610554E+03 -0.14817162653E+04  0.16299380732E+04  0.12699999809E+01 0.  1.
       -4    1    3    3    0  502  0.17803252238E+03 -0.65537610554E+03  0.14263445610E+03  0.69394496879E+03  0.12699999809E+01 0. -1.
</event>
<event>
 5   0  0.2879462E-05  0.1897721E+04  0.7818609E-02  0.8655992E-01
        2   -1    0    0  501    0  0.00000000000E+00  0.00000000000E+00  0.10395069608E+04  0.10395069608E+04  0.25500000920E-02 0.  1.
       -2   -1    0    0    0  501  0.00000000000E+00  0.00000000000E+00 -0.86611851617E+03  0.86611851617E+03  0.25500000920E-02 0. -1.
    10030    2    1    2    0    0  0.00000000000E+00  0.00000000000E+00  0.17338844465E+03  0.19056254770E+04  0.18977209768E+04 0.  0.
        4    1    3    3  502    0 -0.69895861896E+03 -0.62688487593E+02  0.72799476894E+03  0.10111631886E+04  0.12699999809E+01 0.  1.
       -4    1    3    3    0  502  0.69895861896E+03  0.62688487593E+02 -0.55460632429E+03  0.89446228838E+03  0.12699999809E+01 0. -1.
</event>
<event>
 5   0  0.2855141E-05  0.1899796E+04  0.7818609E-02  0.8654958E-01
        2   -1    0    0  501    0  0.00000000000E+00  0.00000000000E+00  0.30541426479E+04  0.30541426479E+04  0.25500000920E-02 0.  1.
       -2   -1    0    0    0  501  0.00000000000E+00  0.00000000000E+00 -0.29543669489E+03  0.29543669490E+03  0.25500000920E-02 0. -1.
    10030    2    1    2    0    0  0.00000000000E+00  0.00000000000E+00  0.27587059531E+04  0.33495793428E+04  0.18997955781E+04 0.  0.
        1    1    3    3  502    0  0.69238498735E+03  0.64777925826E+03  0.12782092714E+04  0.15914879452E+04  0.50400001928E-02 0.  1.
       -1    1    3    3    0  502 -0.69238498735E+03 -0.64777925826E+03  0.14804966817E+04  0.17580913977E+04  0.50400001928E-02 0. -1.
</event>
<event>
 5   0  0.1344119E-05  0.1892464E+04  0.7818609E-02  0.8658617E-01
       -1   -1    0    0    0  501  0.00000000000E+00  0.00000000000E+00  0.65683887643E+03  0.65683887645E+03  0.50400001928E-02 0. -1.
        1   -1    0    0  501    0  0.00000000000E+00  0.00000000000E+00 -0.13631275030E+04  0.13631275030E+04  0.50400001928E-02 0.  1.
    10030    2    1    2    0    0  0.00000000000E+00  0.00000000000E+00 -0.70628862655E+03  0.20199663794E+04  0.18924641476E+04 0.  0.
        2    1    3    3  502    0 -0.60461531709E+03 -0.64820563960E+03 -0.70654801542E+03  0.11335520857E+04  0.25500000920E-02 0.  1.
       -2    1    3    3    0  502  0.60461531709E+03  0.64820563960E+03  0.25938887041E+00  0.88641429375E+03  0.25500000920E-02 0. -1.
</event>
<event>
 5   0  0.2813537E-05  0.1902419E+04  0.7818609E-02  0.8653653E-01
       -2   -1    0    0    0  501  0.00000000000E+00  0.00000000000E+00  0.23906849160E+04  0.23906849160E+04  0.25500000920E-02 0. -1.
        2   -1    0    0  501    0  0.00000000000E+00  0.00000000000E+00 -0.37846892669E+03  0.37846892670E+03  0.25500000920E-02 0.  1.
    10030    2    1    2    0    0  0.00000000000E+00  0.00000000000E+00  0.20122159893E+04  0.27691538427E+04  0.19024194640E+04 0.  0.
        2    1    3    3  502    0 -0.64536832086E+03  0.64940699622E+03  0.13816693155E+04  0.16574799588E+04  0.25500000920E-02 0. -1.
       -2    1    3    3    0  502  0.64536832086E+03 -0.64940699622E+03  0.63054667376E+03  0.11116738839E+04  0.25500000920E-02 0.  1.
</event>
<event>
 5   0  0.2855141E-05  0.1898785E+04  0.7818609E-02  0.8655461E-01
       -2   -1    0    0    0  501  0.00000000000E+00  0.00000000000E+00  0.43770755605E+03  0.43770755606E+03  0.25500000920E-02 0.  1.
        2   -1    0    0  501    0  0.00000000000E+00  0.00000000000E+00 -0.20592435664E+04  0.20592435664E+04  0.25500000920E-02 0. -1.
    10030    2    1    2    0    0  0.00000000000E+00  0.00000000000E+00 -0.16215360104E+04  0.24969511225E+04  0.18987853684E+04 0.  0.
        1    1    3    3  502    0 -0.56738667808E+01  0.77653812545E+03 -0.92539163325E+02  0.78205316303E+03  0.50400001928E-02 0.  1.
       -1    1    3    3    0  502  0.56738667808E+01 -0.77653812545E+03 -0.15289968470E+04  0.17148979594E+04  0.50400001928E-02 0. -1.
</event>
<event>
 5   0  0.2888776E-05  0.1905915E+04  0.7818609E-02  0.8651918E-01
       -2   -1    0    0    0  501  0.00000000000E+00  0.00000000000E+00  0.58250556713E+03  0.58250556713E+03  0.25500000920E-02 0.  1.
        2   -1    0    0  501    0  0.00000000000E+00  0.00000000000E+00 -0.15590025833E+04  0.15590025833E+04  0.25500000920E-02 0. -1.
    10030    2    1    2    0    0  0.00000000000E+00  0.00000000000E+00 -0.97649701621E+03  0.21415081505E+04  0.19059146717E+04 0.  0.
        3    1    3    3  502    0  0.70486613771E+03 -0.52321068766E+03 -0.90495849722E+03  0.12607678564E+04  0.10100000352E+00 0.  1.
       -3    1    3    3    0  502 -0.70486613771E+03  0.52321068766E+03 -0.71538518995E+02  0.88074029411E+03  0.10100000352E+00 0. -1.
</event>
<event>
 5   0  0.2813537E-05  0.1900672E+04  0.7818609E-02  0.8654522E-01
        2   -1    0    0  501    0  0.00000000000E+00  0.00000000000E+00  0.98129960205E+03  0.98129960205E+03  0.25500000920E-02 0.  1.
       -2   -1    0    0    0  501  0.00000000000E+00  0.00000000000E+00 -0.92034937580E+03  0.92034937580E+03  0.25500000920E-02 0. -1.
    10030    2    1    2    0    0  0.00000000000E+00  0.00000000000E+00  0.60950226249E+02  0.19016489779E+04  0.19006719614E+04 0.  0.
        2    1    3    3  502    0 -0.54619198973E+03  0.22143584445E+03  0.77636416824E+03  0.97473116529E+03  0.25500000920E-02 0.  1.
       -2    1    3    3    0  502  0.54619198973E+03 -0.22143584445E+03 -0.71541394199E+03  0.92691781257E+03  0.25500000920E-02 0. -1.
</event>
<event>
 5   0  0.1327254E-05  0.1880218E+04  0.7818609E-02  0.8664766E-01
        1   -1    0    0  501    0  0.00000000000E+00  0.00000000000E+00  0.11380501669E+04  0.11380501669E+04  0.50400001928E-02 0.  1.
       -1   -1    0    0    0  501  0.00000000000E+00  0.00000000000E+00 -0.77659549655E+03  0.77659549657E+03  0.50400001928E-02 0. -1.
    10030    2    1    2    0    0  0.00000000000E+00  0.00000000000E+00  0.36145467039E+03  0.19146456635E+04  0.18802176837E+04 0.  0.
        5    1    3    3  502    0  0.28075824126E+03  0.89454192805E+03  0.25092501628E+03  0.97057503824E+03  0.46999998093E+01 0. -1.
       -5    1    3    3    0  502 -0.28075824126E+03 -0.89454192805E+03  0.11052965410E+03  0.94407062527E+03  0.46999998093E+01 0.  1.
</event>
<event>
 5   0  0.2879462E-05  0.1887440E+04  0.7818609E-02  0.8661134E-01
        2   -1    0    0  501    0  0.00000000000E+00  0.00000000000E+00  0.26928355496E+04  0.26928355496E+04  0.25500000920E-02 0. -1.
       -2   -1    0    0    0  501  0.00000000000E+00  0.00000000000E+00 -0.33073223571E+03  0.33073223572E+03  0.25500000920E-02 0.  1.
    10030    2    1    2    0    0  0.00000000000E+00  0.00000000000E+00  0.23621033139E+04  0.30235677854E+04  0.18874400883E+04 0.  0.
        4    1    3    3  502    0 -0.69038859996E+03  0.24069178084E+03  0.21369111869E+04  0.22585304926E+04  0.12699999809E+01 0. -1.
       -4    1    3    3    0  502  0.69038859996E+03 -0.24069178084E+03  0.22519212699E+03  0.76503729274E+03  0.12699999809E+01 0.  1.
</event>
<event>
 5   0  0.1429067E-05  0.1900871E+04  0.7818609E-02  0.8654423E-01
        1   -1    0    0  501    0  0.00000000000E+00  0.00000000000E+00  0.76955324235E+03  0.76955324237E+03  0.50400001928E-02 0.  1.
       -1   -1    0    0    0  501  0.00000000000E+00  0.00000000000E+00 -0.11738340949E+04  0.11738340949E+04  0.50400001928E-02 0. -1.
    10030    2    1    2    0    0  0.00000000000E+00  0.00000000000E+00 -0.40428085258E+03  0.19433873373E+04  0.19008712042E+04 0.  0.
        3    1    3    3  502    0 -0.18006747149E+03  0.46097074932E+02  0.75079008265E+03  0.77345652302E+03  0.10100000352E+00 0.  1.
       -3    1    3    3    0  502  0.18006747149E+03 -0.46097074932E+02 -0.11550709352E+04  0.11699308143E+04  0.10100000352E+00 0. -1.
</event>
<event>
 5   0  0.1429067E-05  0.1910434E+04  0.7818609E-02  0.8649680E-01
        1   -1    0    0  501    0  0.00000000000E+00  0.00000000000E+00  0.88482745312E+03  0.88482745313E+03  0.50400001928E-02 0.  1.
       -1   -1    0    0    0  501  0.00000000000E+00  0.00000000000E+00 -0.10312064867E+04  0.10312064868E+04  0.50400001928E-02 0. -1.
    10030    2    1    2    0    0  0.00000000000E+00  0.00000000000E+00 -0.14637903362E+03  0.19160339399E+04  0.19104343059E+04 0.  0.
        3    1    3    3  502    0 -0.89955861066E+03 -0.15663928742E+03 -0.35454384214E+03  0.97951156531E+03  0.10100000352E+00 0.  1.
       -3    1    3    3    0  502  0.89955861066E+03  0.15663928742E+03  0.20816480852E+03  0.93652237457E+03  0.10100000352E+00 0. -1.
</event>
<event>
 5   0  0.2888776E-05  0.1886092E+04  0.7818609E-02  0.8661811E-01
        2   -1    0    0  501    0  0.00000000000E+00  0.00000000000E+00  0.81056089906E+03  0.81056089906E+03  0.25500000920E-02 0.  1.
       -2   -1    0    0    0  501  0.00000000000E+00  0.00000000000E+00 -0.10971850451E+04  0.10971850451E+04  0.25500000920E-02 0. -1.
    10030    2    1    2    0    0  0.00000000000E+00  0.00000000000E+00 -0.28662414608E+03  0.19077459442E+04  0.18860915106E+04 0.  0.
        3    1    3    3  502    0 -0.68012768686E+03  0.36350758827E+03 -0.69233657705E+03  0.10363596785E+04  0.10100000352E+00 0. -1.
       -3    1    3    3    0  502  0.68012768686E+03 -0.36350758827E+03  0.40571243097E+03  0.87138626567E+03  0.10100000352E+00 0.  1.
</event>
<event>
 5   0  0.1010725E-05  0.1911777E+04  0.7818609E-02  0.8649016E-01
       -3   -1    0    0    0  501  0.00000000000E+00  0.00000000000E+00  0.38793629496E+03  0.38793630810E+03  0.10100000352E+00 0. -1.
        3   -1    0    0  501    0  0.00000000000E+00  0.00000000000E+00 -0.23553431242E+04  0.23553431264E+04  0.10100000352E+00 0.  1.
    10030    2    1    2    0    0  0.00000000000E+00  0.00000000000E+00 -0.19674068293E+04  0.27432794345E+04  0.19117772945E+04 0.  0.
        5    1    3    3  502    0 -0.16817025367E+03  0.77481240973E+03 -0.17498649091E+04  0.19211103026E+04  0.46999998093E+01 0.  1.
       -5    1    3    3    0  502  0.16817025367E+03 -0.77481240973E+03 -0.21754192017E+03  0.82216913194E+03  0.46999998093E+01 0. -1.
</event>
<event>
 5   0  0.1429067E-05  0.1900579E+04  0.7818609E-02  0.8654568E-01
        1   -1    0    0  501    0  0.00000000000E+00  0.00000000000E+00  0.50537224728E+03  0.50537224730E+03  0.50400001928E-02 0.  1.
       -1   -1    0    0    0  501  0.00000000000E+00  0.00000000000E+00 -0.17869004732E+04  0.17869004732E+04  0.50400001928E-02 0. -1.
    10030    2    1    2    0    0  0.00000000000E+00  0.00000000000E+00 -0.12815282259E+04  0.22922727205E+04  0.19005787622E+04 0.  0.
        3    1    3    3  502    0  0.85077461469E+03 -0.18789470219E+03 -0.10983294426E+04  0.14019448772E+04  0.10100000352E+00 0. -1.
       -3    1    3    3    0  502 -0.85077461469E+03  0.18789470219E+03 -0.18319878331E+03  0.89032784328E+03  0.10100000352E+00 0.  1.
</event>
<event>
 5   0  0.1471485E-05  0.1901432E+04  0.7818609E-02  0.8654144E-01
       -1   -1    0    0    0  501  0.00000000000E+00  0.00000000000E+00  0.71064063110E+03  0.71064063112E+03  0.50400001928E-02 0. -1.
        1   -1    0    0  501    0  0.00000000000E+00  0.00000000000E+00 -0.12718957314E+04  0.12718957314E+04  0.50400001928E-02 0.  1.
    10030    2    1    2    0    0  0.00000000000E+00  0.00000000000E+00 -0.56125510032E+03  0.19825363625E+04  0.19014318660E+04 0.  0.
        4    1    3    3  502    0 -0.37941302775E+03 -0.65824148120E+03 -0.87651443654E+03  0.11599634751E+04  0.12699999809E+01 0.  1.
       -4    1    3    3    0  502  0.37941302775E+03  0.65824148120E+03  0.31525933622E+03  0.82257288745E+03  0.12699999809E+01 0. -1.
</event>
<event>
 5   0  0.1327254E-05  0.1897539E+04  0.7818609E-02  0.8656082E-01
       -1   -1    0    0    0  501  0.00000000000E+00  0.00000000000E+00  0.56154161596E+03  0.56154161599E+03  0.50400001928E-02 0. -1.
        1   -1    0    0  501    0  0.00000000000E+00  0.00000000000E+00 -0.16030221132E+04  0.16030221132E+04  0.50400001928E-02 0.  1.
    10030    2    1    2    0    0  0.00000000000E+00  0.00000000000E+00 -0.10414804973E+04  0.21645637292E+04  0.18975390672E+04 0.  0.
        5    1    3    3  502    0 -0.13844551332E+03  0.24467956600E+03  0.51292362898E+03  0.58493417522E+03  0.46999998093E+01 0. -1.
       -5    1    3    3    0  502  0.13844551332E+03 -0.24467956600E+03 -0.15544041262E+04  0.15796295540E+04  0.46999998093E+01 0.  1.
</event>
<event>
 5   0  0.1471485E-05  0.1893393E+04  0.7818609E-02  0.8658152E-01
       -1   -1    0    0    0  501  0.00000000000E+00  0.00000000000E+00  0.15581784389E+04  0.15581784389E+04  0.50400001928E-02 0.  1.
        1   -1    0    0  501    0  0.00000000000E+00  0.00000000000E+00 -0.57518091775E+03  0.57518091777E+03  0.50400001928E-02 0. -1.
    10030    2    1    2    0    0  0.00000000000E+00  0.00000000000E+00  0.98299752113E+03  0.21333593567E+04  0.18933932550E+04 0.  0.
        4    1    3    3  502    0 -0.29761249929E+03 -0.73171355298E+03  0.10794091001E+04  0.13375737519E+04  0.12699999809E+01 0.  1.
       -4    1    3    3    0  502  0.29761249929E+03  0.73171355298E+03 -0.96411578974E+02  0.79578560480E+03  0.12699999809E+01 0. -1.
</event>
<event>
 5   0  0.2888776E-05  0.1900529E+04  0.7818609E-02  0.8654593E-01
       -2   -1    0    0    0  501  0.00000000000E+00  0.00000000000E+00  0.10234519474E+04  0.10234519474E+04  0.25500000920E-02 0.  1.
        2   -1    0    0  501    0  0.00000000000E+00  0.00000000000E+00 -0.88231084459E+03  0.88231084459E+03  0.25500000920E-02 0. -1.
    10030    2    1    2    0    0  0.00000000000E+00  0.00000000000E+00  0.14114110285E+03  0.19057627920E+04  0.19005291391E+04 0.  0.
        3    1    3    3  502    0  0.25616773995E+03 -0.83884717048E+03  0.43724986880E+03  0.98003772600E+03  0.10100000352E+00 0.  1.
       -3    1    3    3    0  502 -0.25616773995E+03  0.83884717048E+03 -0.29610876595E+03  0.92572506604E+03  0.10100000352E+00 0. -1.
</event>
<event>
 5   0  0.1413011E-05  0.1898007E+04  0.7818609E-02  0.8655849E-01
        1   -1    0    0  501    0  0.00000000000E+00  0.00000000000E+00  0.13315002048E+04  0.13315002048E+04  0.50400001928E-02 0.  1.
       -1   -1    0    0    0  501  0.00000000000E+00  0.00000000000E+00 -0.67638563414E+03  0.67638563416E+03  0.50400001928E-02 0. -1.
    10030    2    1    2    0    0  0.00000000000E+00  0.00000000000E+00  0.65511457067E+03  0.20078858390E+04  0.18980069657E+04 0.  0.
        1    1    3    3  502    0  0.93956028515E+03 -0.29044125861E+02  0.46545102395E+03  0.10489336235E+04  0.50400001928E-02 0. -1.
       -1    1    3    3    0  502 -0.93956028515E+03  0.29044125861E+02  0.18966354672E+03  0.95895221553E+03  0.50400001928E-02 0.  1.
</event>
<event>
 5   0  0.2888776E-05  0.1900551E+04  0.7818609E-02  0.8654582E-01
        2   -1    0    0  501    0  0.00000000000E+00  0.00000000000E+00  0.19968477354E+04  0.19968477354E+04  0.25500000920E-02 0. -1.
       -2   -1    0    0    0  501  0.00000000000E+00  0.00000000000E+00 -0.45222474077E+03  0.45222474078E+03  0.25500000920E-02 0.  1.
    10030    2    1    2    0    0  0.00000000000E+00  0.00000000000E+00  0.15446229947E+04  0.24490724762E+04  0.19005514458E+04 0.  0.
        3    1    3    3  502    0 -0.59091014060E+03 -0.29670964856E+03 -0.10717178912E+03  0.66984864888E+03  0.10100000352E+00 0.  1.
       -3    1    3    3    0  502  0.59091014060E+03  0.29670964856E+03  0.16517947838E+04  0.17792238273E+04  0.10100000352E+00 0. -1.
</event>
<event>
 5   0  0.2879462E-05  0.1899742E+04  0.7818609E-02  0.8654985E-01
       -2   -1    0    0    0  501  0.00000000000E+00  0.00000000000E+00  0.78356180801E+03  0.78356180802E+03  0.25500000920E-02 0. -1.
        2   -1    0    0  501    0  0.00000000000E+00  0.00000000000E+00 -0.11514788976E+04  0.11514788976E+04  0.25500000920E-02 0.  1.
    10030    2    1    2    0    0  0.00000000000E+00  0.00000000000E+00 -0.36791708962E+03  0.19350407057E+04  0.18997419687E+04 0.  0.
        4    1    3    3  502    0  0.43817334300E+03  0.83619988003E+03 -0.29091998708E+03  0.98785736301E+03  0.12699999809E+01 0.  1.
       -4    1    3    3    0  502 -0.43817334300E+03 -0.83619988003E+03 -0.76997102540E+02  0.94718334264E+03  0.12699999809E+01 0. -1.
</event>
<event>
 5   0  0.1471485E-05  0.1901106E+04  0.7818609E-02  0.8654306E-01
        1   -1    0    0  501    0  0.00000000000E+00  0.00000000000E+00  0.94986896728E+03  0.94986896730E+03  0.50400001928E-02 0. -1.
       -1   -1    0    0    0  501  0.00000000000E+00  0.00000000000E+00 -0.95123707040E+03  0.95123707041E+03  0.50400001928E-02 0.  1.
    10030    2    1    2    0    0  0.00000000000E+00  0.00000000000E+00 -0.13681031149E+01  0.19011060377E+04  0.19011055454E+04 0.  0.
        4    1    3    3  502    0  0.61565683374E+03 -0.60645753222E+03  0.39520099070E+03  0.95026812598E+03  0.12699999809E+01 0.  1.
       -4    1    3    3    0  502 -0.61565683374E+03  0.60645753222E+03 -0.39656909381E+03  0.95083791173E+03  0.12699999809E+01 0. -1.
</event>
<event>
 5   0  0.1413011E-05  0.1907222E+04  0.7818609E-02  0.8651270E-01
        1   -1    0    0  501    0  0.00000000000E+00  0.00000000000E+00  0.24025026737E+04  0.24025026737E+04  0.50400001928E-02 0. -1.
       -1   -1    0    0    0  501  0.00000000000E+00  0.00000000000E+00 -0.37851112849E+03  0.37851112852E+03  0.50400001928E-02 0.  1.
    10030    2    1    2    0    0  0.00000000000E+00  0.00000000000E+00  0.20239915452E+04  0.27810138022E+04  0.19072220618E+04 0.  0.
        1    1    3    3  502    0  0.97019152859E+02  0.89123135351E+03  0.53800101616E+03  0.10455386817E+04  0.50400001928E-02 0.  1.
       -1    1    3    3    0  502 -0.97019152859E+02 -0.89123135351E+03  0.14859905290E+04  0.17354751205E+04  0.50400001928E-02 0. -1.
</event>
<event>
 5   0  0.2813537E-05  0.1900952E+04  0.7818609E-02  0.8654382E-01
        2   -1    0    0  501    0  0.00000000000E+00  0.00000000000E+00  0.15673644724E+04  0.15673644724E+04  0.25500000920E-02 0. -1.
       -2   -1    0    0    0  501  0.00000000000E+00  0.00000000000E+00 -0.57638478502E+03  0.57638478502E+03  0.25500000920E-02 0.  1.
    10030    2    1    2    0    0  0.00000000000E+00  0.00000000000E+00  0.99097968737E+03  0.21437492574E+04  0.19009524291E+04 0.  0.
        2    1    3    3  502    0 -0.73873532847E+03 -0.25400493413E+03 -0.11510426195E+03  0.78961850485E+03  0.25500000920E-02 0.  1.
       -2    1    3    3    0  502  0.73873532847E+03  0.25400493413E+03  0.11060839493E+04  0.13541307526E+04  0.25500000920E-02 0. -1.
</event>
<event>
 5   0  0.2888776E-05  0.1898837E+04  0.7818609E-02  0.8655436E-01
        2   -1    0    0  501    0  0.00000000000E+00  0.00000000000E+00  0.68221207291E+03  0.68221207291E+03  0.25500000920E-02 0. -1.
       -2   -1    0    0    0  501  0.00000000000E+00  0.00000000000E+00 -0.13212833570E+04  0.13212833570E+04  0.25500000920E-02 0.  1.
    10030    2    1    2    0    0  0.00000000000E+00  0.00000000000E+00 -0.63907128408E+03  0.20034954299E+04  0.18988369681E+04 0.  0.
        3    1    3    3  502    0 -0.21277426928E+03  0.74179844230E+03 -0.90306181003E+03  0.11878798178E+04  0.10100000352E+00 0.  1.
       -3    1    3    3    0  502  0.21277426928E+03 -0.74179844230E+03  0.26399052595E+03  0.81561561208E+03  0.10100000352E+00 0. -1.
</event>
<event>
 5   0  0.1471485E-05  0.1911071E+04  0.7818609E-02  0.8649365E-01
        1   -1    0    0  501    0  0.00000000000E+00  0.00000000000E+00  0.14309916607E+04  0.14309916607E+04  0.50400001928E-02 0. -1.
       -1   -1    0    0    0  501  0.00000000000E+00  0.00000000000E+00 -0.63805257856E+03  0.63805257858E+03  0.50400001928E-02 0.  1.
    10030    2    1    2    0    0  0.00000000000E+00  0.00000000000E+00  0.79293908214E+03  0.20690442393E+04  0.19110708192E+04 0.  0.
        4    1    3    3  502    0 -0.13279350904E+03  0.52659387049E+03 -0.45471996701E+03  0.70831284174E+03  0.12699999809E+01 0.  1.
       -4    1    3    3    0  502  0.13279350904E+03 -0.52659387049E+03  0.12476590491E+04  0.13607313976E+04  0.12699999809E+01 0. -1.
</event>
<event>
 5   0  0.1344119E-05  0.1899696E+04  0.7818609E-02  0.8655008E-01
        1   -1    0    0  501    0  0.00000000000E+00  0.00000000000E+00  0.93275713348E+03  0.93275713350E+03  0.50400001928E-02 0. -1.
       -1   -1    0    0    0  501  0.00000000000E+00  0.00000000000E+00 -0.96725194160E+03  0.96725194162E+03  0.50400001928E-02 0.  1.
    10030    2    1    2    0    0  0.00000000000E+00  0.00000000000E+00 -0.34494808122E+02  0.19000090751E+04  0.18996959214E+04 0.  0.
        2    1    3    3  502    0  0.16030538895E+02 -0.27267689281E+03  0.89262860692E+03  0.93348566992E+03  0.25500000920E-02 0. -1.
       -2    1    3    3    0  502 -0.16030538895E+02  0.27267689281E+03 -0.92712341504E+03  0.96652340519E+03  0.25500000920E-02 0.  1.
</event>
<event>
 5   0  0.1413011E-05  0.1891451E+04  0.7818609E-02  0.8659124E-01
        1   -1    0    0  501    0  0.00000000000E+00  0.00000000000E+00  0.79195739742E+03  0.79195739744E+03  0.50400001928E-02 0. -1.
       -1   -1    0    0    0  501  0.00000000000E+00  0.00000000000E+00 -0.11293490577E+04  0.11293490577E+04  0.50400001928E-02 0.  1.
    10030    2    1    2    0    0  0.00000000000E+00  0.00000000000E+00 -0.33739166030E+03  0.19213064552E+04  0.18914505974E+04 0.  0.
        1    1    3    3  502    0 -0.51546511990E+03 -0.73124036241E+03  0.14270401802E+03  0.90596975348E+03  0.50400001928E-02 0. -1.
       -1    1    3    3    0  502  0.51546511990E+03  0.73124036241E+03 -0.48009567832E+03  0.10153367017E+04  0.50400001928E-02 0.  1.
</event>
<event>
 5   0  0.2813537E-05  0.1899017E+04  0.7818609E-02  0.8655346E-01
       -2   -1    0    0    0  501  0.00000000000E+00  0.00000000000E+00  0.59923312409E+03  0.59923312409E+03  0.25500000920E-02 0.  1.
        2   -1    0    0  501    0  0.00000000000E+00  0.00000000000E+00 -0.15045333665E+04  0.15045333665E+04  0.25500000920E-02 0. -1.
    10030    2    1    2    0    0  0.00000000000E+00  0.00000000000E+00 -0.90530024244E+03  0.21037664906E+04  0.18990168293E+04 0.  0.
        2    1    3    3  502    0 -0.36179708514E+02 -0.32689345199E+03 -0.14394162894E+04  0.14765119554E+04  0.25500000920E-02 0. -1.
       -2    1    3    3    0  502  0.36179708514E+02  0.32689345199E+03  0.53411604699E+03  0.62725453519E+03  0.25500000920E-02 0.  1.
</event>
<event>
 5   0  0.1327254E-05  0.1917786E+04  0.7818609E-02  0.8646053E-01
        1   -1    0    0  501    0  0.00000000000E+00  0.00000000000E+00  0.18936217614E+04  0.18936217614E+04  0.50400001928E-02 0.  1.
       -1   -1    0    0    0  501  0.00000000000E+00  0.00000000000E+00 -0.48556474432E+03  0.48556474434E+03  0.50400001928E-02 0. -1.
    10030    2    1    2    0    0  0.00000000000E+00  0.00000000000E+00  0.14080570171E+04  0.23791865058E+04  0.19177861888E+04 0.  0.
        5    1    3    3  502    0  0.24480055287E+02 -0.64671143479E+03  0.15818009311E+04  0.17090790587E+04  0.46999998093E+01 0.  1.
       -5    1    3    3    0  502 -0.24480055287E+02  0.64671143479E+03 -0.17374391404E+03  0.67010744710E+03  0.46999998093E+01 0. -1.
</event>
<event>
 5   0  0.1429067E-05  0.1896537E+04  0.7818609E-02  0.8656582E-01
       -1   -1    0    0    0  501  0.00000000000E+00  0.00000000000E+00  0.70524434378E+03  0.70524434379E+03  0.50400001928E-02 0.  1.
        1   -1    0    0  501    0  0.00000000000E+00  0.00000000000E+00 -0.12750379803E+04  0.12750379803E+04  0.50400001928E-02 0. -1.
    10030    2    1    2    0    0  0.00000000000E+00  0.00000000000E+00 -0.56979363651E+03  0.19802823241E+04  0.18965371852E+04 0.  0.
        3    1    3    3  502    0 -0.88217209579E+03 -0.62456292574E+02 -0.64218300630E+03  0.10929443805E+04  0.10100000352E+00 0. -1.
       -3    1    3    3    0  502  0.88217209579E+03  0.62456292574E+02  0.72389369796E+02  0.88733794359E+03  0.10100000352E+00 0.  1.
</event>
<event>
 5   0  0.2888776E-05  0.1897326E+04  0.7818609E-02  0.8656188E-01
       -2   -1    0    0    0  501  0.00000000000E+00  0.00000000000E+00  0.43484348347E+03  0.43484348348E+03  0.25500000920E-02 0. -1.
        2   -1    0    0  501    0  0.00000000000E+00  0.00000000000E+00 -0.20696221063E+04  0.20696221063E+04  0.25500000920E-02 0.  1.
    10030    2    1    2    0    0  0.00000000000E+00  0.00000000000E+00 -0.16347786228E+04  0.25044655897E+04  0.18973262093E+04 0.  0.
        3    1    3    3  502    0  0.93224065948E+03 -0.75914440005E+02 -0.10266246184E+04  0.13888101982E+04  0.10100000352E+00 0.  1.
       -3    1    3    3    0  502 -0.93224065948E+03  0.75914440005E+02 -0.60815400443E+03  0.11156553915E+04  0.10100000352E+00 0. -1.
</event>
<event>
 5   0  0.2888776E-05  0.1900940E+04  0.7818609E-02  0.8654389E-01
       -2   -1    0    0    0  501  0.00000000000E+00  0.00000000000E+00  0.60236715748E+03  0.60236715749E+03  0.25500000920E-02 0. -1.
        2   -1    0    0  501    0  0.00000000000E+00  0.00000000000E+00 -0.14997379991E+04  0.14997379991E+04  0.25500000920E-02 0.  1.
    10030    2    1    2    0    0  0.00000000000E+00  0.00000000000E+00 -0.89737084164E+03  0.21021051566E+04  0.19009396787E+04 0.  0.
        3    1    3    3  502    0  0.26295944210E+03 -0.43100020438E+03 -0.13391891750E+04  0.14312010694E+04  0.10100000352E+00 0.  1.
       -3    1    3    3    0  502 -0.26295944210E+03  0.43100020438E+03  0.44181833336E+03  0.67090408723E+03  0.10100000352E+00 0. -1.
</event>
<event>
 5   0  0.1413011E-05  0.1900470E+04  0.7818609E-02  0.8654623E-01
       -1   -1    0    0    0  501  0.00000000000E+00  0.00000000000E+00  0.71060264241E+03  0.71060264243E+03  0.50400001928E-02 0. -1.
        1   -1    0    0  501    0  0.00000000000E+00  0.00000000000E+00 -0.12706765599E+04  0.12706765599E+04  0.50400001928E-02 0.  1.
    10030    2    1    2    0    0  0.00000000000E+00  0.00000000000E+00 -0.56007391752E+03  0.19812792024E+04  0.19004695432E+04 0.  0.
        1    1    3    3  502    0 -0.19396243936E+03  0.78386575589E+03  0.24213923567E+03  0.84302927625E+03  0.50400001928E-02 0. -1.
       -1    1    3    3    0  502  0.19396243936E+03 -0.78386575589E+03 -0.80221315319E+03  0.11382499261E+04  0.50400001928E-02 0.  1.
</event>
<event>
 5   0  0.2855141E-05  0.1896152E+04  0.7818609E-02  0.8656774E-01
       -2   -1    0    0    0  501  0.00000000000E+00  0.00000000000E+00  0.44544835649E+03  0.44544835650E+03  0.25500000920E-02 0.  1.
        2   -1    0    0  501    0  0.00000000000E+00  0.00000000000E+00 -0.20178498247E+04  0.20178498247E+04  0.25500000920E-02 0. -1.
    10030    2    1    2    0    0  0.00000000000E+00  0.00000000000E+00 -0.15724014682E+04  0.24632981812E+04  0.18961517746E+04 0.  0.
        1    1    3    3  502    0 -0.49957038508E+03 -0.21189417253E+03  0.22374555297E+03  0.58696829769E+03  0.50400001928E-02 0.  1.
       -1    1    3    3    0  502  0.49957038508E+03  0.21189417253E+03 -0.17961470211E+04  0.18763298835E+04  0.50400001928E-02 0. -1.
</event>
<event>
 5   0  0.1344119E-05  0.1900323E+04  0.7818609E-02  0.8654696E-01
        1   -1    0    0  501    0  0.00000000000E+00  0.00000000000E+00  0.91265095354E+03  0.91265095356E+03  0.50400001928E-02 0.  1.
       -1   -1    0    0    0  501  0.00000000000E+00  0.00000000000E+00 -0.98921370066E+03  0.98921370067E+03  0.50400001928E-02 0. -1.
    10030    2    1    2    0    0  0.00000000000E+00  0.00000000000E+00 -0.76562747117E+02  0.19018646542E+04  0.19003229485E+04 0.  0.
        2    1    3    3  502    0 -0.38261189939E+03  0.47929434201E+03 -0.76460556956E+03  0.98017172416E+03  0.25500000920E-02 0. -1.
       -2    1    3    3    0  502  0.38261189939E+03 -0.47929434201E+03  0.68804282244E+03  0.92169293007E+03  0.25500000920E-02 0.  1.
</event>
<event>
 5   0  0.1413011E-05  0.1900121E+04  0.7818609E-02  0.8654796E-01
       -1   -1    0    0    0  501  0.00000000000E+00  0.00000000000E+00  0.12219139699E+04  0.12219139699E+04  0.50400001928E-02 0. -1.
        1   -1    0    0  501    0  0.00000000000E+00  0.00000000000E+00 -0.73868916748E+03  0.73868916750E+03  0.50400001928E-02 0.  1.
    10030    2    1    2    0    0  0.00000000000E+00  0.00000000000E+00  0.48322480240E+03  0.19606031374E+04  0.19001206416E+04 0.  0.
        1    1    3    3  502    0 -0.45488606965E+03  0.43223274714E+03  0.97766888576E+03  0.11617155135E+04  0.50400001928E-02 0. -1.
       -1    1    3    3    0  502  0.45488606965E+03 -0.43223274714E+03 -0.49444408336E+03  0.79888762392E+03  0.50400001928E-02 0.  1.
</event>
<event>
 5   0  0.1344119E-05  0.1908835E+04  0.7818609E-02  0.8650471E-01
        1   -1    0    0  501    0  0.00000000000E+00  0.00000000000E+00  0.16452830678E+04  0.16452830678E+04  0.50400001928E-02 0.  1.
       -1   -1    0    0    0  501  0.00000000000E+00  0.00000000000E+00 -0.55365094079E+03  0.55365094082E+03  0.50400001928E-02 0. -1.
    10030    2    1    2    0    0  0.00000000000E+00  0.00000000000E+00  0.10916321270E+04  0.21989340086E+04  0.19088347423E+04 0.  0.
        2    1    3    3  502    0 -0.24376165700E+03 -0.36791237789E+03 -0.42904064802E+03  0.61551209646E+03  0.25500000920E-02 0. -1.
       -2    1    3    3    0  502  0.24376165700E+03  0.36791237789E+03  0.15206727750E+04  0.15834219121E+04  0.25500000920E-02 0.  1.
</event>
<event>
 5   0  0.2888776E-05  0.1900354E+04  0.7818609E-02  0.8654680E-01
       -2   -1    0    0    0  501  0.00000000000E+00  0.00000000000E+00  0.47263253964E+03  0.47263253965E+03  0.25500000920E-02 0.  1.
        2   -1    0    0  501    0  0.00000000000E+00  0.00000000000E+00 -0.19102284124E+04  0.19102284124E+04  0.25500000920E-02 0. -1.
    10030    2    1    2    0    0  0.00000000000E+00  0.00000000000E+00 -0.14375958727E+04  0.23828609520E+04  0.19003537627E+04 0.  0.
        3    1    3    3  502    0  0.15197973225E+03 -0.93783576630E+03 -0.73663390197E+03  0.12021910328E+04  0.10100000352E+00 0. -1.
       -3    1    3    3    0  502 -0.15197973225E+03  0.93783576630E+03 -0.70096197076E+03  0.11806699192E+04  0.10100000352E+00 0.  1.
</event>
<event>
 5   0  0.1471485E-05  0.1900965E+04  0.7818609E-02  0.8654376E-01
       -1   -1    0    0    0  501  0.00000000000E+00  0.00000000000E+00  0.51129186712E+03  0.51129186714E+03  0.50400001928E-02 0.  1.
        1   -1    0    0  501    0  0.00000000000E+00  0.00000000000E+00 -0.17669296770E+04  0.17669296770E+04  0.50400001928E-02 0. -1.
    10030    2    1    2    0    0  0.00000000000E+00  0.00000000000E+00 -0.12556378099E+04  0.22782215442E+04  0.19009647800E+04 0.  0.
        4    1    3    3  502    0  0.16299549006E+03 -0.68197661559E+03  0.14120812101E+03  0.71526287498E+03  0.12699999809E+01 0.  1.
       -4    1    3    3    0  502 -0.16299549006E+03  0.68197661559E+03 -0.13968459309E+04  0.15629586692E+04  0.12699999809E+01 0. -1.
</event>
<event>
 5   0  0.1344119E-05  0.1899004E+04  0.7818609E-02  0.8655352E-01
       -1   -1    0    0    0  501  0.00000000000E+00  0.00000000000E+00  0.67278222061E+03  0.67278222063E+03  0.50400001928E-02 0. -1.
        1   -1    0    0  501    0  0.00000000000E+00  0.00000000000E+00 -0.13400390289E+04  0.13400390289E+04  0.50400001928E-02 0.  1.
    10030    2    1    2    0    0  0.00000000000E+00  0.00000000000E+00 -0.66725680831E+03  0.20128212496E+04  0.18990044061E+04 0.  0.
        2    1    3    3  502    0 -0.26166020432E+03  0.91220246995E+03 -0.30053152137E+03  0.99543890021E+03  0.25500000920E-02 0.  1.
       -2    1    3    3    0  502  0.26166020432E+03 -0.91220246995E+03 -0.36672528694E+03  0.10173823494E+04  0.25500000920E-02 0. -1.
</event>
<event>
 5   0  0.2813537E-05  0.1900200E+04  0.7818609E-02  0.8654757E-01
       -2   -1    0    0    0  501  0.00000000000E+00  0.00000000000E+00  0.19280728392E+04  0.19280728392E+04  0.25500000920E-02 0. -1.
        2   -1    0    0  501    0  0.00000000000E+00  0.00000000000E+00 -0.46818263499E+03  0.46818263500E+03  0.25500000920E-02 0.  1.
    10030    2    1    2    0    0  0.00000000000E+00  0.00000000000E+00  0.14598902042E+04  0.23962554742E+04  0.19002002235E+04 0.  0.
        2    1    3    3  502    0 -0.52713068301E+03  0.31485909758E+03 -0.18437329895E+03  0.64109010417E+03  0.25500000920E-02 0.  1.
       -2    1    3    3    0  502  0.52713068301E+03 -0.31485909758E+03  0.16442635032E+04  0.17551653700E+04  0.25500000920E-02 0. -1.
</event>
<event>
 5   0  0.1429067E-05  0.1898950E+04  0.7818609E-02  0.8655379E-01
        1   -1    0    0  501    0  0.00000000000E+00  0.00000000000E+00  0.11130801437E+04  0.11130801437E+04  0.50400001928E-02 0. -1.
       -1   -1    0    0    0  501  0.00000000000E+00  0.00000000000E+00 -0.80991749032E+03  0.80991749033E+03  0.50400001928E-02 0.  1.
    10030    2    1    2    0    0  0.00000000000E+00  0.00000000000E+00  0.30316265341E+03  0.19229976341E+04  0.18989503169E+04 0.  0.
        3    1    3    3  502    0 -0.80226364353E+03 -0.30609593062E+03 -0.25874285955E+03  0.89681076602E+03  0.10100000352E+00 0.  1.
       -3    1    3    3    0  502  0.80226364353E+03  0.30609593062E+03  0.56190551296E+03  0.10261868681E+04  0.10100000352E+00 0. -1.
</event>
<event>
 5   0  0.2789718E-05  0.1911914E+04  0.7818609E-02  0.8648949E-01
       -2   -1    0    0    0  501  0.00000000000E+00  0.00000000000E+00  0.56000662372E+03  0.56000662373E+03  0.25500000920E-02 0. -1.
        2   -1    0    0  501    0  0.00000000000E+00  0.00000000000E+00 -0.16318621846E+04  0.16318621846E+04  0.25500000920E-02 0.  1.
    10030    2    1    2    0    0  0.00000000000E+00  0.00000000000E+00 -0.10718555609E+04  0.21918688084E+04  0.19119138395E+04 0.  0.
        5    1    3    3  502    0 -0.40595761967E+03 -0.80934949278E+02 -0.15237720150E+04  0.15790045278E+04  0.46999998093E+01 0.  1.
       -5    1    3    3    0  502  0.40595761967E+03  0.80934949278E+02  0.45191645408E+03  0.61286428061E+03  0.46999998093E+01 0. -1.
</event>
<event>
 5   0  0.1429067E-05  0.1919100E+04  0.7818609E-02  0.8645407E-01
       -1   -1    0    0    0  501  0.00000000000E+00  0.00000000000E+00  0.12172625413E+04  0.12172625413E+04  0.50400001928E-02 0. -1.
        1   -1    0    0  501    0  0.00000000000E+00  0.00000000000E+00 -0.75639921991E+03  0.75639921993E+03  0.50400001928E-02 0.  1.
    10030    2    1    2    0    0  0.00000000000E+00  0.00000000000E+00  0.46086332140E+03  0.19736617613E+04  0.19191002441E+04 0.  0.
        3    1    3    3  502    0  0.12360035688E+03  0.69973615276E+02 -0.74552859789E+03  0.75893758342E+03  0.10100000352E+00 0.  1.
       -3    1    3    3    0  502 -0.12360035688E+03 -0.69973615276E+02  0.12063919193E+04  0.12147241778E+04  0.10100000352E+00 0. -1.
</event>
<event>
 5   0  0.2813537E-05  0.1900247E+04  0.7818609E-02  0.8654733E-01
       -2   -1    0    0    0  501  0.00000000000E+00  0.00000000000E+00  0.53612957030E+03  0.53612957030E+03  0.25500000920E-02 0.  1.
        2   -1    0    0  501    0  0.00000000000E+00  0.00000000000E+00 -0.16837994073E+04  0.16837994073E+04  0.25500000920E-02 0. -1.
    10030    2    1    2    0    0  0.00000000000E+00  0.00000000000E+00 -0.11476698371E+04  0.22199289777E+04  0.19002469868E+04 0.  0.
        2    1    3    3  502    0  0.81880803774E+02 -0.91066918993E+02 -0.16745405515E+04  0.16790127184E+04  0.25500000920E-02 0. -1.
       -2    1    3    3    0  502 -0.81880803774E+02  0.91066918993E+02  0.52687071448E+03  0.54091625927E+03  0.25500000920E-02 0.  1.
</event>
<event>
 5   0  0.2813537E-05  0.1897602E+04  0.7818609E-02  0.8656051E-01
       -2   -1    0    0    0  501  0.00000000000E+00  0.00000000000E+00  0.69756470235E+03  0.69756470235E+03  0.25500000920E-02 0.  1.
        2   -1    0    0  501    0  0.00000000000E+00  0.00000000000E+00 -0.12905224073E+04  0.12905224073E+04  0.25500000920E-02 0. -1.
    10030    2    1    2    0    0  0.00000000000E+00  0.00000000000E+00 -0.59295770498E+03  0.19880871097E+04  0.18976015166E+04 0.  0.
        2    1    3    3  502    0  0.53042194061E+03 -0.32168487215E+03  0.45566375391E+03  0.76971296513E+03  0.25500000920E-02 0.  1.
       -2    1    3    3    0  502 -0.53042194061E+03  0.32168487215E+03 -0.10486214589E+04  0.12183741445E+04  0.25500000920E-02 0. -1.
</event>
<event>
 5   0  0.1413011E-05  0.1899324E+04  0.7818609E-02  0.8655193E-01
       -1   -1    0    0    0  501  0.00000000000E+00  0.00000000000E+00  0.46959254727E+03  0.46959254729E+03  0.50400001928E-02 0. -1.
        1   -1    0    0  501    0  0.00000000000E+00  0.00000000000E+00 -0.19205124104E+04  0.19205124104E+04  0.50400001928E-02 0.  1.
    10030    2    1    2    0    0  0.00000000000E+00  0.00000000000E+00 -0.14509198631E+04  0.23901049577E+04  0.18993244219E+04 0.  0.
        1    1    3    3  502    0 -0.92613195018E+03 -0.66403108886E+02 -0.47463587171E+03  0.10427890356E+04  0.50400001928E-02 0. -1.
       -1    1    3    3    0  502  0.92613195018E+03  0.66403108886E+02 -0.97628399141E+03  0.13473159221E+04  0.50400001928E-02 0.  1.
</event>
<event>
 5   0  0.2888776E-05  0.1910137E+04  0.7818609E-02  0.8649827E-01
       -2   -1    0    0    0  501  0.00000000000E+00  0.00000000000E+00  0.10616361398E+04  0.10616361398E+04  0.25500000920E-02 0.  1.
        2   -1    0    0  501    0  0.00000000000E+00  0.00000000000E+00 -0.85919811065E+03  0.85919811066E+03  0.25500000920E-02 0. -1.
    10030    2    1    2    0    0  0.00000000000E+00  0.00000000000E+00  0.20243802915E+03  0.19208342505E+04  0.19101369223E+04 0.  0.
        3    1    3    3  502    0 -0.63364192063E+03 -0.66713057182E+03 -0.15632162467E+03  0.93327474196E+03  0.10100000352E+00 0. -1.
       -3    1    3    3    0  502  0.63364192063E+03  0.66713057182E+03  0.35875965381E+03  0.98755950850E+03  0.10100000352E+00 0.  1.
</event>
<event>
 5   0  0.2813537E-05  0.1901189E+04  0.7818609E-02  0.8654265E-01
        2   -1    0    0  501    0  0.00000000000E+00  0.00000000000E+00  0.92050385022E+03  0.92050385022E+03  0.25500000920E-02 0. -1.
       -2   -1    0    0    0  501  0.00000000000E+00  0.00000000000E+00 -0.98166882849E+03  0.98166882849E+03  0.25500000920E-02 0.  1.
    10030    2    1    2    0    0  0.00000000000E+00  0.00000000000E+00 -0.61164978274E+02  0.19021726787E+04  0.19011890345E+04 0.  0.
        2    1    3    3  502    0  0.81762449511E+03 -0.58000693189E+02 -0.51224203329E+03  0.96657425793E+03  0.25500000920E-02 0.  1.
       -2    1    3    3    0  502 -0.81762449511E+03  0.58000693189E+02  0.45107705502E+03  0.93559842079E+03  0.25500000920E-02 0. -1.
</event>
<event>
 5   0  0.1429067E-05  0.1897653E+04  0.7818609E-02  0.8656026E-01
       -1   -1    0    0    0  501  0.00000000000E+00  0.00000000000E+00  0.68219533375E+03  0.68219533377E+03  0.50400001928E-02 0.  1.
        1   -1    0    0  501    0  0.00000000000E+00  0.00000000000E+00 -0.13196682859E+04  0.13196682859E+04  0.50400001928E-02 0. -1.
    10030    2    1    2    0    0  0.00000000000E+00  0.00000000000E+00 -0.63747295217E+03  0.20018636197E+04  0.18976528100E+04 0.  0.
        3    1    3    3  502    0 -0.27526212910E+03  0.81126981757E+03  0.11151339731E+03  0.86392314739E+03  0.10100000352E+00 0.  1.
       -3    1    3    3    0  502  0.27526212910E+03 -0.81126981757E+03 -0.74898634949E+03  0.11379404723E+04  0.10100000352E+00 0. -1.
</event>
<event>
 5   0  0.1327254E-05  0.1897215E+04  0.7818609E-02  0.8656244E-01
        1   -1    0    0  501    0  0.00000000000E+00  0.00000000000E+00  0.75134560185E+03  0.75134560187E+03  0.50400001928E-02 0.  1.
       -1   -1    0    0    0  501  0.00000000000E+00  0.00000000000E+00 -0.11976598651E+04  0.11976598652E+04  0.50400001928E-02 0. -1.
    10030    2    1    2    0    0  0.00000000000E+00  0.00000000000E+00 -0.44631426330E+03  0.19490054670E+04  0.18972152985E+04 0.  0.
        5    1    3    3  502    0 -0.84724289055E+03 -0.18085059231E+03  0.17379343116E+03  0.88360268166E+03  0.46999998093E+01 0.  1.
       -5    1    3    3    0  502  0.84724289055E+03  0.18085059231E+03 -0.62010769446E+03  0.10654027854E+04  0.46999998093E+01 0. -1.
</event>
<event>
 5   0  0.1471485E-05  0.1899290E+04  0.7818609E-02  0.8655210E-01
       -1   -1    0    0    0  501  0.00000000000E+00  0.00000000000E+00  0.65844600939E+03  0.65844600940E+03  0.50400001928E-02 0. -1.
        1   -1    0    0  501    0  0.00000000000E+00  0.00000000000E+00 -0.13696267124E+04  0.13696267124E+04  0.50400001928E-02 0.  1.
    10030    2    1    2    0    0  0.00000000000E+00  0.00000000000E+00 -0.71118070298E+03  0.20280727218E+04  0.18992895968E+04 0.  0.
        4    1    3    3  502    0  0.83537559001E+03 -0.44424722643E+03 -0.26873856011E+03  0.98358019560E+03  0.12699999809E+01 0.  1.
       -4    1    3    3    0  502 -0.83537559001E+03  0.44424722643E+03 -0.44244214287E+03  0.10444925262E+04  0.12699999809E+01 0. -1.
</event>
<event>
 5   0  0.2888776E-05  0.1899671E+04  0.7818609E-02  0.8655020E-01
       -2   -1    0    0    0  501  0.00000000000E+00  0.00000000000E+00  0.17615446704E+04  0.17615446704E+04  0.25500000920E-02 0. -1.
        2   -1    0    0  501    0  0.00000000000E+00  0.00000000000E+00 -0.51215709110E+03  0.51215709111E+03  0.25500000920E-02 0.  1.
    10030    2    1    2    0    0  0.00000000000E+00  0.00000000000E+00  0.12493875793E+04  0.22737017616E+04  0.18996711234E+04 0.  0.
        3    1    3    3  502    0  0.88070605534E+03 -0.32522644242E+03  0.79719661522E+03  0.12316403080E+04  0.10100000352E+00 0. -1.
       -3    1    3    3    0  502 -0.88070605534E+03  0.32522644242E+03  0.45219096411E+03  0.10420614536E+04  0.10100000352E+00 0.  1.
</event>
<event>
 5   0  0.2813537E-05  0.1901561E+04  0.7818609E-02  0.8654080E-01
        2   -1    0    0  501    0  0.00000000000E+00  0.00000000000E+00  0.14848869392E+04  0.14848869392E+04  0.25500000920E-02 0.  1.
       -2   -1    0    0    0  501  0.00000000000E+00  0.00000000000E+00 -0.60878977748E+03  0.60878977749E+03  0.25500000920E-02 0. -1.
    10030    2    1    2    0    0  0.00000000000E+00  0.00000000000E+00  0.87609716175E+03  0.20936767167E+04  0.19015614524E+04 0.  0.
        2    1    3    3  502    0  0.40511009062E+03  0.51302642316E+03  0.11982170482E+04  0.13649301781E+04  0.25500000920E-02 0.  1.
       -2    1    3    3    0  502 -0.40511009062E+03 -0.51302642316E+03 -0.32211988644E+03  0.72874653867E+03  0.25500000920E-02 0. -1.
</event>
<event>
 5   0  0.2879462E-05  0.1900766E+04  0.7818609E-02  0.8654475E-01
        2   -1    0    0  501    0  0.00000000000E+00  0.00000000000E+00  0.16508469106E+04  0.16508469106E+04  0.25500000920E-02 0. -1.
       -2   -1    0    0    0  501  0.00000000000E+00  0.00000000000E+00 -0.54712980950E+03  0.54712980951E+03  0.25500000920E-02 0.  1.
    10030    2    1    2    0    0  0.00000000000E+00  0.00000000000E+00  0.11037171011E+04  0.21979767201E+04  0.19007656938E+04 0.  0.
        4    1    3    3  502    0 -0.66858010458E+03 -0.16824094635E+03 -0.20458511896E+03  0.71913910759E+03  0.12699999809E+01 0.  1.
       -4    1    3    3    0  502  0.66858010458E+03  0.16824094635E+03  0.13083022201E+04  0.14788376125E+04  0.12699999809E+01 0. -1.
</event>
<event>
 5   0  0.1344119E-05  0.1902455E+04  0.7818609E-02  0.8653636E-01
        1   -1    0    0  501    0  0.00000000000E+00  0.00000000000E+00  0.15058745288E+04  0.15058745288E+04  0.50400001928E-02 0. -1.
       -1   -1    0    0    0  501  0.00000000000E+00  0.00000000000E+00 -0.60086905520E+03  0.60086905522E+03  0.50400001928E-02 0.  1.
    10030    2    1    2    0    0  0.00000000000E+00  0.00000000000E+00  0.90500547356E+03  0.21067435840E+04  0.19024546306E+04 0.  0.
        2    1    3    3  502    0 -0.58435472221E+03  0.70703435769E+03  0.73147807793E+03  0.11732127696E+04  0.25500000920E-02 0. -1.
       -2    1    3    3    0  502  0.58435472221E+03 -0.70703435769E+03  0.17352739563E+03  0.93353081436E+03  0.25500000920E-02 0.  1.
</event>
<event>
 5   0  0.2888776E-05  0.1898068E+04  0.7818609E-02  0.8655819E-01
        2   -1    0    0  501    0  0.00000000000E+00  0.00000000000E+00  0.77307953738E+03  0.77307953739E+03  0.25500000920E-02 0. -1.
       -2   -1    0    0    0  501  0.00000000000E+00  0.00000000000E+00 -0.11650356829E+04  0.11650356829E+04  0.25500000920E-02 0.  1.
    10030    2    1    2    0    0  0.00000000000E+00  0.00000000000E+00 -0.39195614551E+03  0.19381152203E+04  0.18980676982E+04 0.  0.
        3    1    3    3  502    0  0.33444137819E+03 -0.88782081080E+03 -0.22074702075E+03  0.97406677641E+03  0.10100000352E+00 0. -1.
       -3    1    3    3    0  502 -0.33444137819E+03  0.88782081080E+03 -0.17120912476E+03  0.96404844387E+03  0.10100000352E+00 0.  1.
</event>
<event>
 5   0  0.2813537E-05  0.1900798E+04  0.7818609E-02  0.8654459E-01
       -2   -1    0    0    0  501  0.00000000000E+00  0.00000000000E+00  0.32328117639E+03  0.32328117640E+03  0.25500000920E-02 0.  1.
        2   -1    0    0  501    0  0.00000000000E+00  0.00000000000E+00 -0.27940332077E+04  0.27940332078E+04  0.25500000920E-02 0. -1.
    10030    2    1    2    0    0  0.00000000000E+00  0.00000000000E+00 -0.24707520314E+04  0.31173143842E+04  0.19007980874E+04 0.  0.
        2    1    3    3  502    0  0.33375979625E+03  0.88936885220E+03 -0.12841860243E+04  0.15973435140E+04  0.25500000920E-02 0.  1.
       -2    1    3    3    0  502 -0.33375979625E+03 -0.88936885220E+03 -0.11865660071E+04  0.15199708701E+04  0.25500000920E-02 0. -1.
</event>
<event>
 5   0  0.1413011E-05  0.1900052E+04  0.7818609E-02  0.8654831E-01
        1   -1    0    0  501    0  0.00000000000E+00  0.00000000000E+00  0.18453978899E+04  0.18453978899E+04  0.50400001928E-02 0. -1.
       -1   -1    0    0    0  501  0.00000000000E+00  0.00000000000E+00 -0.48908105400E+03  0.48908105403E+03  0.50400001928E-02 0.  1.
    10030    2    1    2    0    0  0.00000000000E+00  0.00000000000E+00  0.13563168359E+04  0.23344789440E+04  0.19000517310E+04 0.  0.
        1    1    3    3  502    0  0.31200815801E+03  0.72164022214E+03  0.22894290876E+02  0.78653534533E+03  0.50400001928E-02 0.  1.
       -1    1    3    3    0  502 -0.31200815801E+03 -0.72164022214E+03  0.13334225451E+04  0.15479435986E+04  0.50400001928E-02 0. -1.
</event>
<event>
 5   0  0.1327254E-05  0.1900607E+04  0.7818609E-02  0.8654554E-01
       -1   -1    0    0    0  501  0.00000000000E+00  0.00000000000E+00  0.79111417959E+03  0.79111417961E+03  0.50400001928E-02 0. -1.
        1   -1    0    0  501    0  0.00000000000E+00  0.00000000000E+00 -0.11415247678E+04  0.11415247678E+04  0.50400001928E-02 0.  1.
    10030    2    1    2    0    0  0.00000000000E+00  0.00000000000E+00 -0.35041058822E+03  0.19326389474E+04  0.19006066718E+04 0.  0.
        5    1    3    3  502    0 -0.53574312956E+03 -0.59659618445E+03  0.34339671005E+03  0.87229071911E+03  0.46999998093E+01 0.  1.
       -5    1    3    3    0  502  0.53574312956E+03  0.59659618445E+03 -0.69380729827E+03  0.10603482283E+04  0.46999998093E+01 0. -1.
</event>
<event>
 5   0  0.1471485E-05  0.1895571E+04  0.7818609E-02  0.8657064E-01
       -1   -1    0    0    0  501  0.00000000000E+00  0.00000000000E+00  0.70778144616E+03  0.70778144618E+03  0.50400001928E-02 0. -1.
        1   -1    0    0  501    0  0.00000000000E+00  0.00000000000E+00 -0.12691737573E+04  0.12691737573E+04  0.50400001928E-02 0.  1.
    10030    2    1    2    0    0  0.00000000000E+00  0.00000000000E+00 -0.56139231114E+03  0.19769552035E+04  0.18955712990E+04 0.  0.
        4    1    3    3  502    0  0.89915713625E+03 -0.21315430354E+02 -0.59245854319E+03  0.10770081901E+04  0.12699999809E+01 0.  1.
       -4    1    3    3    0  502 -0.89915713625E+03  0.21315430354E+02  0.31066232058E+02  0.89994701339E+03  0.12699999809E+01 0. -1.
</event>
<event>
 5   0  0.1429067E-05  0.1901595E+04  0.7818609E-02  0.8654063E-01
        1   -1    0    0  501    0  0.00000000000E+00  0.00000000000E+00  0.78556706500E+03  0.78556706501E+03  0.50400001928E-02 0.  1.
       -1   -1    0    0    0  501  0.00000000000E+00  0.00000000000E+00 -0.11507808830E+04  0.11507808830E+04  0.50400001928E-02 0. -1.
    10030    2    1    2    0    0  0.00000000000E+00  0.00000000000E+00 -0.36521381796E+03  0.19363479480E+04  0.19015946579E+04 0.  0.
        3    1    3    3  502    0 -0.72451498809E+03  0.73252818583E+02 -0.80511219134E+03  0.10855844482E+04  0.10100000352E+00 0. -1.
       -3    1    3    3    0  502  0.72451498809E+03 -0.73252818583E+02  0.43989837338E+03  0.85076349975E+03  0.10100000352E+00 0.  1.
</event>
<event>
 5   0  0.2888776E-05  0.1900481E+04  0.7818609E-02  0.8654617E-01
        2   -1    0    0  501    0  0.00000000000E+00  0.00000000000E+00  0.14456140213E+04  0.14456140213E+04  0.25500000920E-02 0.  1.
       -2   -1    0    0    0  501  0.00000000000E+00  0.00000000000E+00 -0.62461854503E+03  0.62461854504E+03  0.25500000920E-02 0. -1.
    10030    2    1    2    0    0  0.00000000000E+00  0.00000000000E+00  0.82099547627E+03  0.20702325663E+04  0.19004813355E+04 0.  0.
        3    1    3    3  502    0 -0.89660333353E+03  0.22257861133E+03  0.16809392600E+03  0.93898581144E+03  0.10100000352E+00 0. -1.
       -3    1    3    3    0  502  0.89660333353E+03 -0.22257861133E+03  0.65290155026E+03  0.11312467549E+04  0.10100000352E+00 0.  1.
</event>
<event>
 5   0  0.1344119E-05  0.1899970E+04  0.7818609E-02  0.8654871E-01
        1   -1    0    0  501    0  0.00000000000E+00  0.00000000000E+00  0.10324352728E+04  0.10324352728E+04  0.50400001928E-02 0.  1.
       -1   -1    0    0    0  501  0.00000000000E+00  0.00000000000E+00 -0.87411965017E+03  0.87411965018E+03  0.50400001928E-02 0. -1.
    10030    2    1    2    0    0  0.00000000000E+00  0.00000000000E+00  0.15831562263E+03  0.19065549230E+04  0.18999704835E+04 0.  0.
        2    1    3    3  502    0  0.91914705108E+03  0.15452009297E+03 -0.10522935553E+03  0.93796640553E+03  0.25500000920E-02 0. -1.
       -2    1    3    3    0  502 -0.91914705108E+03 -0.15452009297E+03  0.26354497816E+03  0.96858851746E+03  0.25500000920E-02 0.  1.
</event>
<event>
 5   0  0.2855141E-05  0.1902775E+04  0.7818609E-02  0.8653476E-01
       -2   -1    0    0    0  501  0.00000000000E+00  0.00000000000E+00  0.65357778841E+03  0.65357778841E+03  0.25500000920E-02 0.  1.
        2   -1    0    0  501    0  0.00000000000E+00  0.00000000000E+00 -0.13848972594E+04  0.13848972594E+04  0.25500000920E-02 0. -1.
    10030    2    1    2    0    0  0.00000000000E+00  0.00000000000E+00 -0.73131947099E+03  0.20384750478E+04  0.19027749084E+04 0.  0.
        1    1    3    3  502    0 -0.33679812979E+03 -0.64571643142E+03 -0.10214907224E+04  0.12545222143E+04  0.50400001928E-02 0. -1.
       -1    1    3    3    0  502  0.33679812979E+03  0.64571643142E+03  0.29017125145E+03  0.78395283355E+03  0.50400001928E-02 0.  1.
</event>
<event>
 5   0  0.1344119E-05  0.1899179E+04  0.7818609E-02  0.8655265E-01
        1   -1    0    0  501    0  0.00000000000E+00  0.00000000000E+00  0.16534607858E+04  0.16534607858E+04  0.50400001928E-02 0.  1.
       -1   -1    0    0    0  501  0.00000000000E+00  0.00000000000E+00 -0.54535353699E+03  0.54535353701E+03  0.50400001928E-02 0. -1.
    10030    2    1    2    0    0  0.00000000000E+00  0.00000000000E+00  0.11081072488E+04  0.21988143228E+04  0.18991794943E+04 0.  0.
        2    1    3    3  502    0 -0.39585732224E+03  0.19675108585E+03 -0.41896062667E+03  0.60905009323E+03  0.25500000920E-02 0. -1.
       -2    1    3    3    0  502  0.39585732224E+03 -0.19675108585E+03  0.15270678755E+04  0.15897642296E+04  0.25500000920E-02 0.  1.
</event>
<event>
 5   0  0.1429067E-05  0.1899908E+04  0.7818609E-02  0.8654902E-01
        1   -1    0    0  501    0  0.00000000000E+00  0.00000000000E+00  0.23425549393E+04  0.23425549393E+04  0.50400001928E-02 0.  1.
       -1   -1    0    0    0  501  0.00000000000E+00  0.00000000000E+00 -0.38522579960E+03  0.38522579964E+03  0.50400001928E-02 0. -1.
    10030    2    1    2    0    0  0.00000000000E+00  0.00000000000E+00  0.19573291397E+04  0.27277807389E+04  0.18999079974E+04 0.  0.
        3    1    3    3  502    0 -0.24723200859E+03 -0.39434980261E+03  0.21676277207E+04  0.22170352678E+04  0.10100000352E+00 0.  1.
       -3    1    3    3    0  502  0.24723200859E+03  0.39434980261E+03 -0.21029858103E+03  0.51074547112E+03  0.10100000352E+00 0. -1.
</event>
<event>
 5   0  0.2855141E-05  0.1900131E+04  0.7818609E-02  0.8654791E-01
        2   -1    0    0  501    0  0.00000000000E+00  0.00000000000E+00  0.16589785162E+04  0.16589785162E+04  0.25500000920E-02 0.  1.
       -2   -1    0    0    0  501  0.00000000000E+00  0.00000000000E+00 -0.54408449685E+03  0.54408449686E+03  0.25500000920E-02 0. -1.
    10030    2    1    2    0    0  0.00000000000E+00  0.00000000000E+00  0.11148940193E+04  0.22030630130E+04  0.19001310389E+04 0.  0.
        1    1    3    3  502    0  0.87933759779E+03 -0.19262825966E+03  0.20523259759E+03  0.92328797048E+03  0.50400001928E-02 0. -1.
       -1    1    3    3    0  502 -0.87933759779E+03  0.19262825966E+03  0.90966142172E+03  0.12797750425E+04  0.50400001928E-02 0.  1.
</event>
<event>
 5   0  0.1471485E-05  0.1901963E+04  0.7818609E-02  0.8653880E-01
        1   -1    0    0  501    0  0.00000000000E+00  0.00000000000E+00  0.24371649156E+04  0.24371649156E+04  0.50400001928E-02 0. -1.
       -1   -1    0    0    0  501  0.00000000000E+00  0.00000000000E+00 -0.37107305212E+03  0.37107305215E+03  0.50400001928E-02 0.  1.
    10030    2    1    2    0    0  0.00000000000E+00  0.00000000000E+00  0.20660918635E+04  0.28082379678E+04  0.19019634316E+04 0.  0.
        4    1    3    3  502    0 -0.42844599177E+03  0.65935924065E+03  0.24337129043E+03  0.82313533152E+03  0.12699999809E+01 0.  1.
       -4    1    3    3    0  502  0.42844599177E+03 -0.65935924065E+03  0.18227205731E+04  0.19851026363E+04  0.12699999809E+01 0. -1.
</event>
<event>
 5   0  0.2813537E-05  0.1900417E+04  0.7818609E-02  0.8654649E-01
       -2   -1    0    0    0  501  0.00000000000E+00  0.00000000000E+00  0.53686175001E+03  0.53686175002E+03  0.25500000920E-02 0. -1.
        2   -1    0    0  501    0  0.00000000000E+00  0.00000000000E+00 -0.16818038973E+04  0.16818038973E+04  0.25500000920E-02 0.  1.
    10030    2    1    2    0    0  0.00000000000E+00  0.00000000000E+00 -0.11449421473E+04  0.22186656473E+04  0.19004169895E+04 0.  0.
        2    1    3    3  502    0 -0.43772603225E+03 -0.39126835208E+01 -0.15570766133E+04  0.16174383970E+04  0.25500000920E-02 0.  1.
       -2    1    3    3    0  502  0.43772603225E+03  0.39126835208E+01  0.41213446603E+03  0.60122725030E+03  0.25500000920E-02 0. -1.
</event>
<event>
 5   0  0.1327254E-05  0.1899397E+04  0.7818609E-02  0.8655157E-01
        1   -1    0    0  501    0  0.00000000000E+00  0.00000000000E+00  0.15529639323E+04  0.15529639323E+04  0.50400001928E-02 0.  1.
       -1   -1    0    0    0  501  0.00000000000E+00  0.00000000000E+00 -0.58077800001E+03  0.58077800003E+03  0.50400001928E-02 0. -1.
    10030    2    1    2    0    0  0.00000000000E+00  0.00000000000E+00  0.97218593224E+03  0.21337419323E+04  0.18993970482E+04 0.  0.
        5    1    3    3  502    0  0.81821548400E+03  0.33235860656E+03  0.93767778086E+02  0.88811784568E+03  0.46999998093E+01 0.  1.
       -5    1    3    3    0  502 -0.81821548400E+03 -0.33235860656E+03  0.87841815415E+03  0.12456240866E+04  0.46999998093E+01 0. -1.
</event>
<event>
 5   0  0.2888776E-05  0.1899586E+04  0.7818609E-02  0.8655062E-01
       -2   -1    0    0    0  501  0.00000000000E+00  0.00000000000E+00  0.64774300441E+03  0.64774300442E+03  0.25500000920E-02 0.  1.
        2   -1    0    0  501    0  0.00000000000E+00  0.00000000000E+00 -0.13926926475E+04  0.13926926475E+04  0.25500000920E-02 0. -1.
    10030    2    1    2    0    0  0.00000000000E+00  0.00000000000E+00 -0.74494964311E+03  0.20404356519E+04  0.18995861862E+04 0.  0.
        3    1    3    3  502    0  0.66463510956E+03 -0.35398036016E+03  0.24929325950E+03  0.79321438696E+03  0.10100000352E+00 0.  1.
       -3    1    3    3    0  502 -0.66463510956E+03  0.35398036016E+03 -0.99424290261E+03  0.12472212650E+04  0.10100000352E+00 0. -1.
</event>
<event>
 5   0  0.1344119E-05  0.1899833E+04  0.7818609E-02  0.8654940E-01
       -1   -1    0    0    0  501  0.00000000000E+00  0.00000000000E+00  0.10026274810E+04  0.10026274810E+04  0.50400001928E-02 0.  1.
        1   -1    0    0  501    0  0.00000000000E+00  0.00000000000E+00 -0.89997643705E+03  0.89997643706E+03  0.50400001928E-02 0. -1.
    10030    2    1    2    0    0  0.00000000000E+00  0.00000000000E+00  0.10265104391E+03  0.19026039180E+04  0.18998327379E+04 0.  0.
        2    1    3    3  502    0  0.72406377680E+03 -0.61145607849E+03 -0.13531735981E+02  0.94780272033E+03  0.25500000920E-02 0. -1.
       -2    1    3    3    0  502 -0.72406377680E+03  0.61145607849E+03  0.11618277989E+03  0.95480119770E+03  0.25500000920E-02 0.  1.
</event>
<event>
 5   0  0.2813537E-05  0.1898693E+04  0.7818609E-02  0.8655507E-01
        2   -1    0    0  501    0  0.00000000000E+00  0.00000000000E+00  0.89457604041E+03  0.89457604041E+03  0.25500000920E-02 0. -1.
       -2   -1    0    0    0  501  0.00000000000E+00  0.00000000000E+00 -0.10074697775E+04  0.10074697775E+04  0.25500000920E-02 0.  1.
    10030    2    1    2    0    0  0.00000000000E+00  0.00000000000E+00 -0.11289373710E+03  0.19020458179E+04  0.18986925232E+04 0.  0.
        2    1    3    3  502    0 -0.81477654897E+03  0.39867664740E+03 -0.33703873061E+03  0.96767711551E+03  0.25500000920E-02 0. -1.
       -2    1    3    3    0  502  0.81477654897E+03 -0.39867664740E+03  0.22414499351E+03  0.93436870242E+03  0.25500000920E-02 0.  1.
</event>
<event>
 5   0  0.2855141E-05  0.1901029E+04  0.7818609E-02  0.8654344E-01
       -2   -1    0    0    0  501  0.00000000000E+00  0.00000000000E+00  0.78283941991E+03  0.78283941992E+03  0.25500000920E-02 0.  1.
        2   -1    0    0  501    0  0.00000000000E+00  0.00000000000E+00 -0.11541038046E+04  0.11541038046E+04  0.25500000920E-02 0. -1.
    10030    2    1    2    0    0  0.00000000000E+00  0.00000000000E+00 -0.37126438473E+03  0.19369432246E+04  0.19010291454E+04 0.  0.
        1    1    3    3  502    0  0.32688242835E+03 -0.46908659982E+03  0.58804404054E+03  0.82017690393E+03  0.50400001928E-02 0.  1.
       -1    1    3    3    0  502 -0.32688242835E+03  0.46908659982E+03 -0.95930842527E+03  0.11167663206E+04  0.50400001928E-02 0. -1.
</event>
<event>
 5   0  0.1429067E-05  0.1898157E+04  0.7818609E-02  0.8655774E-01
        1   -1    0    0  501    0  0.00000000000E+00  0.00000000000E+00  0.97484455920E+03  0.97484455921E+03  0.50400001928E-02 0. -1.
       -1   -1    0    0    0  501  0.00000000000E+00  0.00000000000E+00 -0.92399366855E+03  0.92399366856E+03  0.50400001928E-02 0.  1.
    10030    2    1    2    0    0  0.00000000000E+00  0.00000000000E+00  0.50850890655E+02  0.18988382278E+04  0.18981572122E+04 0.  0.
        3    1    3    3  502    0  0.10115812147E+03 -0.14922033381E+03  0.95755936574E+03  0.97438166171E+03  0.10100000352E+00 0. -1.
       -3    1    3    3    0  502 -0.10115812147E+03  0.14922033381E+03 -0.90670847508E+03  0.92445656607E+03  0.10100000352E+00 0.  1.
</event>
<event>
 5   0  0.1471485E-05  0.1898162E+04  0.7818609E-02  0.8655772E-01
        1   -1    0    0  501    0  0.00000000000E+00  0.00000000000E+00  0.15624393565E+04  0.15624393565E+04  0.50400001928E-02 0. -1.
       -1   -1    0    0    0  501  0.00000000000E+00  0.00000000000E+00 -0.57650534632E+03  0.57650534634E+03  0.50400001928E-02 0.  1.
    10030    2    1    2    0    0  0.00000000000E+00  0.00000000000E+00  0.98593401017E+03  0.21389447028E+04  0.18981618923E+04 0.  0.
        4    1    3    3  502    0 -0.26458985237E+03  0.48406106807E+03 -0.37728712143E+03  0.66833381816E+03  0.12699999809E+01 0.  1.
       -4    1    3    3    0  502  0.26458985237E+03 -0.48406106807E+03  0.13632211316E+04  0.14706108847E+04  0.12699999809E+01 0. -1.
</event>
<event>
 5   0  0.2813537E-05  0.1896378E+04  0.7818609E-02  0.8656661E-01
       -2   -1    0    0    0  501  0.00000000000E+00  0.00000000000E+00  0.18953204160E+04  0.18953204160E+04  0.25500000920E-02 0.  1.
        2   -1    0    0  501    0  0.00000000000E+00  0.00000000000E+00 -0.47435898124E+03  0.47435898124E+03  0.25500000920E-02 0. -1.
    10030    2    1    2    0    0  0.00000000000E+00  0.00000000000E+00  0.14209614348E+04  0.23696793973E+04  0.18963778755E+04 0.  0.
        2    1    3    3  502    0 -0.81954642353E+03  0.47327406527E+03  0.78353136805E+03  0.12286440029E+04  0.25500000920E-02 0.  1.
       -2    1    3    3    0  502  0.81954642353E+03 -0.47327406527E+03  0.63743006675E+03  0.11410353944E+04  0.25500000920E-02 0. -1.
</event>
<event>
 5   0  0.2879462E-05  0.1900226E+04  0.7818609E-02  0.8654744E-01
        2   -1    0    0  501    0  0.00000000000E+00  0.00000000000E+00  0.19387193653E+04  0.19387193653E+04  0.25500000920E-02 0.  1.
       -2   -1    0    0    0  501  0.00000000000E+00  0.00000000000E+00 -0.46562428415E+03  0.46562428416E+03  0.25500000920E-02 0. -1.
    10030    2    1    2    0    0  0.00000000000E+00  0.00000000000E+00  0.14730950811E+04  0.24043436495E+04  0.19002261093E+04 0.  0.
        4    1    3    3  502    0 -0.33719284951E+03 -0.87896422290E+03  0.89876231022E+03  0.13015576922E+04  0.12699999809E+01 0.  1.
       -4    1    3    3    0  502  0.33719284951E+03  0.87896422290E+03  0.57433277092E+03  0.11027859573E+04  0.12699999809E+01 0. -1.
</event>
<event>
 5   0  0.2888776E-05  0.1894161E+04  0.7818609E-02  0.8657768E-01
       -2   -1    0    0    0  501  0.00000000000E+00  0.00000000000E+00  0.20196701643E+04  0.20196701643E+04  0.25500000920E-02 0.  1.
        2   -1    0    0  501    0  0.00000000000E+00  0.00000000000E+00 -0.44411281939E+03  0.44411281940E+03  0.25500000920E-02 0. -1.
    10030    2    1    2    0    0  0.00000000000E+00  0.00000000000E+00  0.15755573449E+04  0.24637829837E+04  0.18941609339E+04 0.  0.
        3    1    3    3  502    0  0.71792888713E+03 -0.29926461171E+03  0.84929267658E+02  0.78242839002E+03  0.10100000352E+00 0. -1.
       -3    1    3    3    0  502 -0.71792888713E+03  0.29926461171E+03  0.14906280772E+04  0.16813545937E+04  0.10100000352E+00 0.  1.
</event>
<event>
 5   0  0.2789718E-05  0.1898126E+04  0.7818609E-02  0.8655790E-01
        2   -1    0    0  501    0  0.00000000000E+00  0.00000000000E+00  0.97846553111E+03  0.97846553111E+03  0.25500000920E-02 0. -1.
       -2   -1    0    0    0  501  0.00000000000E+00  0.00000000000E+00 -0.92054373003E+03  0.92054373004E+03  0.25500000920E-02 0.  1.
    10030    2    1    2    0    0  0.00000000000E+00  0.00000000000E+00  0.57921801077E+02  0.18990092611E+04  0.18981257174E+04 0.  0.
        5    1    3    3  502    0  0.47001309770E+03 -0.31012934436E+03  0.79325740066E+03  0.97281648626E+03  0.46999998093E+01 0. -1.
       -5    1    3    3    0  502 -0.47001309770E+03  0.31012934436E+03 -0.73533559958E+03  0.92619277489E+03  0.46999998093E+01 0.  1.
</event>
<event>
 5   0  0.1471485E-05  0.1897839E+04  0.7818609E-02  0.8655933E-01
       -1   -1    0    0    0  501  0.00000000000E+00  0.00000000000E+00  0.41799466179E+03  0.41799466182E+03  0.50400001928E-02 0.  1.
        1   -1    0    0  501    0  0.00000000000E+00  0.00000000000E+00 -0.21542109315E+04  0.21542109315E+04  0.50400001928E-02 0. -1.
    10030    2    1    2    0    0  0.00000000000E+00  0.00000000000E+00 -0.17362162698E+04  0.25722055934E+04  0.18978394767E+04 0.  0.
        4    1    3    3  502    0  0.15912275799E+03  0.61018736809E+03  0.92935567870E+02  0.63740670608E+03  0.12699999809E+01 0.  1.
       -4    1    3    3    0  502 -0.15912275799E+03 -0.61018736809E+03 -0.18291518376E+04  0.19347988873E+04  0.12699999809E+01 0. -1.
</event>
<event>
 5   0  0.1327254E-05  0.1918771E+04  0.7818609E-02  0.8645569E-01
        1   -1    0    0  501    0  0.00000000000E+00  0.00000000000E+00  0.56007840974E+03  0.56007840976E+03  0.50400001928E-02 0.  1.
       -1   -1    0    0    0  501  0.00000000000E+00  0.00000000000E+00 -0.16433785089E+04  0.16433785089E+04  0.50400001928E-02 0. -1.
    10030    2    1    2    0    0  0.00000000000E+00  0.00000000000E+00 -0.10833000992E+04  0.22034569187E+04  0.19187712963E+04 0.  0.
        5    1    3    3  502    0  0.65026048098E+03  0.40988357878E+03 -0.12008932006E+04  0.14258365301E+04  0.46999998093E+01 0. -1.
       -5    1    3    3    0  502 -0.65026048098E+03 -0.40988357878E+03  0.11759310141E+03  0.77762038860E+03  0.46999998093E+01 0.  1.
</event>
<event>
 5   0  0.1413011E-05  0.1897452E+04  0.7818609E-02  0.8656126E-01
        1   -1    0    0  501    0  0.00000000000E+00  0.00000000000E+00  0.23290835680E+04  0.23290835680E+04  0.50400001928E-02 0.  1.
       -1   -1    0    0    0  501  0.00000000000E+00  0.00000000000E+00 -0.38645280405E+03  0.38645280408E+03  0.50400001928E-02 0. -1.
    10030    2    1    2    0    0  0.00000000000E+00  0.00000000000E+00  0.19426307640E+04  0.27155363721E+04  0.18974518447E+04 0.  0.
        1    1    3    3  502    0  0.47558418526E+03 -0.81953314841E+03  0.90318942398E+03  0.13090324802E+04  0.50400001928E-02 0. -1.
       -1    1    3    3    0  502 -0.47558418526E+03  0.81953314841E+03  0.10394413400E+04  0.14065038919E+04  0.50400001928E-02 0.  1.
</event>
<event>
 5   0  0.2879462E-05  0.1901431E+04  0.7818609E-02  0.8654144E-01
        2   -1    0    0  501    0  0.00000000000E+00  0.00000000000E+00  0.15962132024E+04  0.15962132024E+04  0.25500000920E-02 0.  1.
       -2   -1    0    0    0  501  0.00000000000E+00  0.00000000000E+00 -0.56625265118E+03  0.56625265119E+03  0.25500000920E-02 0. -1.
    10030    2    1    2    0    0  0.00000000000E+00  0.00000000000E+00  0.10299605512E+04  0.21624658536E+04  0.19014309955E+04 0.  0.
        4    1    3    3  502    0 -0.84385391874E+03 -0.33050651748E+03  0.84170805295E+03  0.12368500530E+04  0.12699999809E+01 0.  1.
       -4    1    3    3    0  502  0.84385391874E+03  0.33050651748E+03  0.18825249823E+03  0.92561580057E+03  0.12699999809E+01 0. -1.
</event>
<event>
 5   0  0.2879462E-05  0.1903750E+04  0.7818609E-02  0.8652992E-01
        2   -1    0    0  501    0  0.00000000000E+00  0.00000000000E+00  0.93722941419E+03  0.93722941419E+03  0.25500000920E-02 0. -1.
       -2   -1    0    0    0  501  0.00000000000E+00  0.00000000000E+00 -0.96674909627E+03  0.96674909627E+03  0.25500000920E-02 0.  1.
    10030    2    1    2    0    0  0.00000000000E+00  0.00000000000E+00 -0.29519682084E+02  0.19039785105E+04  0.19037496570E+04 0.  0.
        4    1    3    3  502    0 -0.70034343055E+03 -0.18873204557E+02 -0.65921836893E+03  0.96198107539E+03  0.12699999809E+01 0.  1.
       -4    1    3    3    0  502  0.70034343055E+03  0.18873204557E+02  0.62969868685E+03  0.94199743507E+03  0.12699999809E+01 0. -1.
</event>
<event>
 5   0  0.1010725E-05  0.1898120E+04  0.7818609E-02  0.8655793E-01
       -3   -1    0    0    0  501  0.00000000000E+00  0.00000000000E+00  0.89296255313E+03  0.89296255885E+03  0.10100000352E+00 0. -1.
        3   -1    0    0  501    0  0.00000000000E+00  0.00000000000E+00 -0.10086818304E+04  0.10086818354E+04  0.10100000352E+00 0.  1.
    10030    2    1    2    0    0  0.00000000000E+00  0.00000000000E+00 -0.11571927722E+03  0.19016443943E+04  0.18981202415E+04 0.  0.
        3    1    3    3  502    0  0.68900702202E+03  0.61758527964E+03  0.15365517157E+03  0.93795105201E+03  0.10100000352E+00 0. -1.
       -3    1    3    3    0  502 -0.68900702202E+03 -0.61758527964E+03 -0.26937444880E+03  0.96369334225E+03  0.10100000352E+00 0.  1.
</event>
<event>
 5   0  0.2813537E-05  0.1901792E+04  0.7818609E-02  0.8653965E-01
        2   -1    0    0  501    0  0.00000000000E+00  0.00000000000E+00  0.12617058697E+04  0.12617058697E+04  0.25500000920E-02 0. -1.
       -2   -1    0    0    0  501  0.00000000000E+00  0.00000000000E+00 -0.71665112772E+03  0.71665112773E+03  0.25500000920E-02 0.  1.
    10030    2    1    2    0    0  0.00000000000E+00  0.00000000000E+00  0.54505474202E+03  0.19783569975E+04  0.19017917177E+04 0.  0.
        2    1    3    3  502    0 -0.52476492876E+03  0.41376712985E+03 -0.43118454627E+03  0.79529968009E+03  0.25500000920E-02 0.  1.
       -2    1    3    3    0  502  0.52476492876E+03 -0.41376712985E+03  0.97623928829E+03  0.11830573174E+04  0.25500000920E-02 0. -1.
</event>
<event>
 5   0  0.1344119E-05  0.1899794E+04  0.7818609E-02  0.8654959E-01
       -1   -1    0    0    0  501  0.00000000000E+00  0.00000000000E+00  0.68688758219E+03  0.68688758221E+03  0.50400001928E-02 0.  1.
        1   -1    0    0  501    0  0.00000000000E+00  0.00000000000E+00 -0.13136128362E+04  0.13136128362E+04  0.50400001928E-02 0. -1.
    10030    2    1    2    0    0  0.00000000000E+00  0.00000000000E+00 -0.62672525403E+03  0.20005004184E+04  0.18997940363E+04 0.  0.
        2    1    3    3  502    0 -0.17069909108E+02 -0.90112206418E+03 -0.62925129833E+03  0.10992131517E+04  0.25500000920E-02 0. -1.
       -2    1    3    3    0  502  0.17069909108E+02  0.90112206418E+03  0.25260442935E+01  0.90128726678E+03  0.25500000920E-02 0.  1.
</event>
<event>
 5   0  0.1429067E-05  0.1900814E+04  0.7818609E-02  0.8654451E-01
       -1   -1    0    0    0  501  0.00000000000E+00  0.00000000000E+00  0.83009390258E+03  0.83009390259E+03  0.50400001928E-02 0. -1.
        1   -1    0    0  501    0  0.00000000000E+00  0.00000000000E+00 -0.10881582922E+04  0.10881582922E+04  0.50400001928E-02 0.  1.
    10030    2    1    2    0    0  0.00000000000E+00  0.00000000000E+00 -0.25806438963E+03  0.19182521948E+04  0.19008141029E+04 0.  0.
        3    1    3    3  502    0  0.29504069818E+03  0.35204263945E+03 -0.96870531456E+03  0.10720881635E+04  0.10100000352E+00 0.  1.
       -3    1    3    3    0  502 -0.29504069818E+03 -0.35204263945E+03  0.71064092493E+03  0.84616403135E+03  0.10100000352E+00 0. -1.
</event>
<event>
 5   0  0.2789718E-05  0.1901048E+04  0.7818609E-02  0.8654335E-01
       -2   -1    0    0    0  501  0.00000000000E+00  0.00000000000E+00  0.65372325707E+03  0.65372325708E+03  0.25500000920E-02 0.  1.
        2   -1    0    0  501    0  0.00000000000E+00  0.00000000000E+00 -0.13820768666E+04  0.13820768666E+04  0.25500000920E-02 0. -1.
    10030    2    1    2    0    0  0.00000000000E+00  0.00000000000E+00 -0.72835360949E+03  0.20358001236E+04  0.19010479118E+04 0.  0.
        5    1    3    3  502    0 -0.76197207553E+03  0.42145521442E+03  0.43951574307E+02  0.87188288923E+03  0.46999998093E+01 0. -1.
       -5    1    3    3    0  502  0.76197207553E+03 -0.42145521442E+03 -0.77230518379E+03  0.11639172344E+04  0.46999998093E+01 0.  1.
</event>
<event>
 5   0  0.2855141E-05  0.1901841E+04  0.7818609E-02  0.8653940E-01
       -2   -1    0    0    0  501  0.00000000000E+00  0.00000000000E+00  0.70165971915E+03  0.70165971915E+03  0.25500000920E-02 0. -1.
        2   -1    0    0  501    0  0.00000000000E+00  0.00000000000E+00 -0.12887303433E+04  0.12887303433E+04  0.25500000920E-02 0.  1.
    10030    2    1    2    0    0  0.00000000000E+00  0.00000000000E+00 -0.58707062417E+03  0.19903900625E+04  0.19018413927E+04 0.  0.
        1    1    3    3  502    0 -0.42017832124E+02 -0.85079978512E+03 -0.73585298144E+03  0.11256577557E+04  0.50400001928E-02 0.  1.
       -1    1    3    3    0  502  0.42017832124E+02  0.85079978512E+03  0.14878235727E+03  0.86473230681E+03  0.50400001928E-02 0. -1.
</event>
<event>
 5   0  0.1471485E-05  0.1921333E+04  0.7818609E-02  0.8644310E-01
        1   -1    0    0  501    0  0.00000000000E+00  0.00000000000E+00  0.81749924163E+03  0.81749924165E+03  0.50400001928E-02 0.  1.
       -1   -1    0    0    0  501  0.00000000000E+00  0.00000000000E+00 -0.11289064308E+04  0.11289064308E+04  0.50400001928E-02 0. -1.
    10030    2    1    2    0    0  0.00000000000E+00  0.00000000000E+00 -0.31140718912E+03  0.19464056724E+04  0.19213330279E+04 0.  0.
        4    1    3    3  502    0  0.67530691535E+03  0.46399953300E+03 -0.66378967702E+03  0.10544919842E+04  0.12699999809E+01 0.  1.
       -4    1    3    3    0  502 -0.67530691535E+03 -0.46399953300E+03  0.35238248790E+03  0.89191368821E+03  0.12699999809E+01 0. -1.
</event>
<event>
 5   0  0.1471485E-05  0.1864575E+04  0.7818609E-02  0.8672693E-01
       -1   -1    0    0    0  501  0.00000000000E+00  0.00000000000E+00  0.60910439736E+03  0.60910439738E+03  0.50400001928E-02 0. -1.
        1   -1    0    0  501    0  0.00000000000E+00  0.00000000000E+00 -0.14269478274E+04  0.14269478274E+04  0.50400001928E-02 0.  1.
    10030    2    1    2    0    0  0.00000000000E+00  0.00000000000E+00 -0.81784343005E+03  0.20360522248E+04  0.18645752294E+04 0.  0.
        4    1    3    3  502    0  0.92688834886E+03  0.16565954844E+02 -0.30103162586E+03  0.97468871686E+03  0.12699999809E+01 0.  1.
       -4    1    3    3    0  502 -0.92688834886E+03 -0.16565954844E+02 -0.51681180419E+03  0.10613635079E+04  0.12699999809E+01 0. -1.
</event>
<event>
 5   0  0.1327254E-05  0.1903977E+04  0.7818609E-02  0.8652879E-01
       -1   -1    0    0    0  501  0.00000000000E+00  0.00000000000E+00  0.94640339966E+03  0.94640339968E+03  0.50400001928E-02 0.  1.
        1   -1    0    0  501    0  0.00000000000E+00  0.00000000000E+00 -0.95760677930E+03  0.95760677931E+03  0.50400001928E-02 0. -1.
    10030    2    1    2    0    0  0.00000000000E+00  0.00000000000E+00 -0.11203379631E+02  0.19040101790E+04  0.19039772178E+04 0.  0.
        5    1    3    3  502    0 -0.23329756306E+03 -0.16553261821E+03  0.90239608871E+03  0.94666234294E+03  0.46999998093E+01 0.  1.
       -5    1    3    3    0  502  0.23329756306E+03  0.16553261821E+03 -0.91359946835E+03  0.95734783604E+03  0.46999998093E+01 0. -1.
</event>
<event>
 5   0  0.2879462E-05  0.1900426E+04  0.7818609E-02  0.8654644E-01
        2   -1    0    0  501    0  0.00000000000E+00  0.00000000000E+00  0.13800444196E+04  0.13800444196E+04  0.25500000920E-02 0.  1.
       -2   -1    0    0    0  501  0.00000000000E+00  0.00000000000E+00 -0.65425783433E+03  0.65425783434E+03  0.25500000920E-02 0. -1.
    10030    2    1    2    0    0  0.00000000000E+00  0.00000000000E+00  0.72578658528E+03  0.20343022539E+04  0.19004261346E+04 0.  0.
        4    1    3    3  502    0 -0.11149410896E+03 -0.68763262535E+03 -0.32887754869E+03  0.77034512961E+03  0.12699999809E+01 0. -1.
       -4    1    3    3    0  502  0.11149410896E+03  0.68763262535E+03  0.10546641340E+04  0.12639571243E+04  0.12699999809E+01 0.  1.
</event>
<event>
 5   0  0.1327254E-05  0.1899824E+04  0.7818609E-02  0.8654944E-01
        1   -1    0    0  501    0  0.00000000000E+00  0.00000000000E+00  0.16245460101E+04  0.16245460101E+04  0.50400001928E-02 0. -1.
       -1   -1    0    0    0  501  0.00000000000E+00  0.00000000000E+00 -0.55543688981E+03  0.55543688983E+03  0.50400001928E-02 0.  1.
    10030    2    1    2    0    0  0.00000000000E+00  0.00000000000E+00  0.10691091203E+04  0.21799828999E+04  0.18998239742E+04 0.  0.
        5    1    3    3  502    0 -0.38604993116E+03 -0.31748116124E+03 -0.39232636135E+03  0.63542969785E+03  0.46999998093E+01 0.  1.
       -5    1    3    3    0  502  0.38604993116E+03  0.31748116124E+03  0.14614354816E+04  0.15445532021E+04  0.46999998093E+01 0. -1.
</event>
<event>
 5   0  0.2888776E-05  0.1896173E+04  0.7818609E-02  0.8656764E-01
        2   -1    0    0  501    0  0.00000000000E+00  0.00000000000E+00  0.10937072434E+04  0.10937072434E+04  0.25500000920E-02 0.  1.
       -2   -1    0    0    0  501  0.00000000000E+00  0.00000000000E+00 -0.82185400962E+03  0.82185400962E+03  0.25500000920E-02 0. -1.
    10030    2    1    2    0    0  0.00000000000E+00  0.00000000000E+00  0.27185323375E+03  0.19155612530E+04  0.18961726539E+04 0.  0.
        3    1    3    3  502    0 -0.27427036057E+03 -0.13634878755E+03 -0.77049499717E+03  0.82914279435E+03  0.10100000352E+00 0. -1.
       -3    1    3    3    0  502  0.27427036057E+03  0.13634878755E+03  0.10423482309E+04  0.10864184586E+04  0.10100000352E+00 0.  1.
</event>
<event>
 5   0  0.2888776E-05  0.1898566E+04  0.7818609E-02  0.8655570E-01
       -2   -1    0    0    0  501  0.00000000000E+00  0.00000000000E+00  0.83989206284E+03  0.83989206284E+03  0.25500000920E-02 0.  1.
        2   -1    0    0  501    0  0.00000000000E+00  0.00000000000E+00 -0.10729219532E+04  0.10729219532E+04  0.25500000920E-02 0. -1.
    10030    2    1    2    0    0  0.00000000000E+00  0.00000000000E+00 -0.23302989035E+03  0.19128140160E+04  0.18985664408E+04 0.  0.
        3    1    3    3  502    0 -0.43764278727E+03 -0.42162627544E+03 -0.85126040689E+03  0.10459178820E+04  0.10100000352E+00 0. -1.
       -3    1    3    3    0  502  0.43764278727E+03  0.42162627544E+03  0.61823051654E+03  0.86689613402E+03  0.10100000352E+00 0.  1.
</event>
<event>
 5   0  0.1327254E-05  0.1896790E+04  0.7818609E-02  0.8656456E-01
        1   -1    0    0  501    0  0.00000000000E+00  0.00000000000E+00  0.75482532915E+03  0.75482532916E+03  0.50400001928E-02 0.  1.
       -1   -1    0    0    0  501  0.00000000000E+00  0.00000000000E+00 -0.11916044458E+04  0.11916044458E+04  0.50400001928E-02 0. -1.
    10030    2    1    2    0    0  0.00000000000E+00  0.00000000000E+00 -0.43677911661E+03  0.19464297749E+04  0.18967901497E+04 0.  0.
        5    1    3    3  502    0 -0.10699027282E+03 -0.70471133881E+03  0.42357503744E+03  0.82915794144E+03  0.46999998093E+01 0.  1.
       -5    1    3    3    0  502  0.10699027282E+03  0.70471133881E+03 -0.86035415405E+03  0.11172718335E+04  0.46999998093E+01 0. -1.
</event>
<event>
 5   0  0.2888776E-05  0.1899507E+04  0.7818609E-02  0.8655102E-01
        2   -1    0    0  501    0  0.00000000000E+00  0.00000000000E+00  0.98628738294E+03  0.98628738295E+03  0.25500000920E-02 0.  1.
       -2   -1    0    0    0  501  0.00000000000E+00  0.00000000000E+00 -0.91457331062E+03  0.91457331062E+03  0.25500000920E-02 0. -1.
    10030    2    1    2    0    0  0.00000000000E+00  0.00000000000E+00  0.71714072326E+02  0.19008606936E+04  0.18995074278E+04 0.  0.
        3    1    3    3  502    0  0.61809147540E+03  0.21395488944E+02 -0.68544581240E+03  0.92321764002E+03  0.10100000352E+00 0. -1.
       -3    1    3    3    0  502 -0.61809147540E+03 -0.21395488944E+02  0.75715988472E+03  0.97764305355E+03  0.10100000352E+00 0.  1.
</event>
<event>
 5   0  0.2813537E-05  0.1901343E+04  0.7818609E-02  0.8654188E-01
        2   -1    0    0  501    0  0.00000000000E+00  0.00000000000E+00  0.10915683011E+04  0.10915683011E+04  0.25500000920E-02 0.  1.
       -2   -1    0    0    0  501  0.00000000000E+00  0.00000000000E+00 -0.82796132575E+03  0.82796132575E+03  0.25500000920E-02 0. -1.
    10030    2    1    2    0    0  0.00000000000E+00  0.00000000000E+00  0.26360697533E+03  0.19195296268E+04  0.19013430387E+04 0.  0.
        2    1    3    3  502    0  0.28726410275E+03 -0.88662877432E+03 -0.57459925344E+02  0.93377346890E+03  0.25500000920E-02 0. -1.
       -2    1    3    3    0  502 -0.28726410275E+03  0.88662877432E+03  0.32106690067E+03  0.98575615793E+03  0.25500000920E-02 0.  1.
</event>
<event>
 5   0  0.2855141E-05  0.1904430E+04  0.7818609E-02  0.8652654E-01
        2   -1    0    0  501    0  0.00000000000E+00  0.00000000000E+00  0.64197108129E+03  0.64197108130E+03  0.25500000920E-02 0.  1.
       -2   -1    0    0    0  501  0.00000000000E+00  0.00000000000E+00 -0.14123898404E+04  0.14123898404E+04  0.25500000920E-02 0. -1.
    10030    2    1    2    0    0  0.00000000000E+00  0.00000000000E+00 -0.77041875912E+03  0.20543609217E+04  0.19044300282E+04 0.  0.
        1    1    3    3  502    0  0.30788793552E+03 -0.61008633577E+03 -0.11005229006E+04  0.12954346656E+04  0.50400001928E-02 0. -1.
       -1    1    3    3    0  502 -0.30788793552E+03  0.61008633577E+03  0.33010414153E+03  0.75892625611E+03  0.50400001928E-02 0.  1.
</event>
<event>
 5   0  0.1429067E-05  0.1901461E+04  0.7818609E-02  0.8654130E-01
        1   -1    0    0  501    0  0.00000000000E+00  0.00000000000E+00  0.74330002191E+03  0.74330002193E+03  0.50400001928E-02 0. -1.
       -1   -1    0    0    0  501  0.00000000000E+00  0.00000000000E+00 -0.12160476295E+04  0.12160476295E+04  0.50400001928E-02 0.  1.
    10030    2    1    2    0    0  0.00000000000E+00  0.00000000000E+00 -0.47274760761E+03  0.19593476515E+04  0.19014607329E+04 0.  0.
        3    1    3    3  502    0  0.56565673137E+03 -0.76032919283E+03 -0.15776103289E+03  0.96070628857E+03  0.10100000352E+00 0. -1.
       -3    1    3    3    0  502 -0.56565673137E+03  0.76032919283E+03 -0.31498657472E+03  0.99864136288E+03  0.10100000352E+00 0.  1.
</event>
<event>
 5   0  0.2879462E-05  0.1899593E+04  0.7818609E-02  0.8655059E-01
        2   -1    0    0  501    0  0.00000000000E+00  0.00000000000E+00  0.19081170616E+04  0.19081170616E+04  0.25500000920E-02 0.  1.
       -2   -1    0    0    0  501  0.00000000000E+00  0.00000000000E+00 -0.47277657175E+03  0.47277657176E+03  0.25500000920E-02 0. -1.
    10030    2    1    2    0    0  0.00000000000E+00  0.00000000000E+00  0.14353404899E+04  0.23808936334E+04  0.18995926331E+04 0.  0.
        4    1    3    3  502    0 -0.11693673630E+03  0.27757687798E+03 -0.41132961824E+03  0.50982035192E+03  0.12699999809E+01 0. -1.
       -4    1    3    3    0  502  0.11693673630E+03 -0.27757687798E+03  0.18466701081E+04  0.18710732815E+04  0.12699999809E+01 0.  1.
</event>
<event>
 5   0  0.2879462E-05  0.1900019E+04  0.7818609E-02  0.8654847E-01
        2   -1    0    0  501    0  0.00000000000E+00  0.00000000000E+00  0.14716314973E+04  0.14716314973E+04  0.25500000920E-02 0.  1.
       -2   -1    0    0    0  501  0.00000000000E+00  0.00000000000E+00 -0.61327727059E+03  0.61327727060E+03  0.25500000920E-02 0. -1.
    10030    2    1    2    0    0  0.00000000000E+00  0.00000000000E+00  0.85835422670E+03  0.20849087679E+04  0.19000191030E+04 0.  0.
        4    1    3    3  502    0 -0.28145075479E+03  0.20807177696E+03 -0.53994534211E+03  0.64346793013E+03  0.12699999809E+01 0. -1.
       -4    1    3    3    0  502  0.28145075479E+03 -0.20807177696E+03  0.13982995688E+04  0.14414408378E+04  0.12699999809E+01 0.  1.
</event>
<event>
 5   0  0.2789718E-05  0.1892756E+04  0.7818609E-02  0.8658471E-01
        2   -1    0    0  501    0  0.00000000000E+00  0.00000000000E+00  0.21760571043E+04  0.21760571043E+04  0.25500000920E-02 0. -1.
       -2   -1    0    0    0  501  0.00000000000E+00  0.00000000000E+00 -0.41158428934E+03  0.41158428935E+03  0.25500000920E-02 0.  1.
    10030    2    1    2    0    0  0.00000000000E+00  0.00000000000E+00  0.17644728149E+04  0.25876413936E+04  0.18927555752E+04 0.  0.
        5    1    3    3  502    0 -0.43132137322E+03 -0.84227413178E+03  0.86577474246E+03  0.12825957410E+04  0.46999998093E+01 0. -1.
       -5    1    3    3    0  502  0.43132137322E+03  0.84227413178E+03  0.89869807247E+03  0.13050456527E+04  0.46999998093E+01 0.  1.
</event>
<event>
 5   0  0.1471485E-05  0.1900806E+04  0.7818609E-02  0.8654456E-01
       -1   -1    0    0    0  501  0.00000000000E+00  0.00000000000E+00  0.11649813435E+04  0.11649813435E+04  0.50400001928E-02 0. -1.
        1   -1    0    0  501    0  0.00000000000E+00  0.00000000000E+00 -0.77534754778E+03  0.77534754780E+03  0.50400001928E-02 0.  1.
    10030    2    1    2    0    0  0.00000000000E+00  0.00000000000E+00  0.38963379570E+03  0.19403288913E+04  0.19008055428E+04 0.  0.
        4    1    3    3  502    0  0.55132856719E+03 -0.33862064789E+03 -0.51581680763E+03  0.82746342766E+03  0.12699999809E+01 0.  1.
       -4    1    3    3    0  502 -0.55132856719E+03  0.33862064789E+03  0.90545060333E+03  0.11128654636E+04  0.12699999809E+01 0. -1.
</event>
<event>
 5   0  0.1344119E-05  0.1888288E+04  0.7818609E-02  0.8660708E-01
       -1   -1    0    0    0  501  0.00000000000E+00  0.00000000000E+00  0.10101737903E+04  0.10101737904E+04  0.50400001928E-02 0. -1.
        1   -1    0    0  501    0  0.00000000000E+00  0.00000000000E+00 -0.88242982313E+03  0.88242982315E+03  0.50400001928E-02 0.  1.
    10030    2    1    2    0    0  0.00000000000E+00  0.00000000000E+00  0.12774396721E+03  0.18926036135E+04  0.18882875620E+04 0.  0.
        2    1    3    3  502    0 -0.28689337302E+03  0.76262572694E+03 -0.41418958171E+03  0.91403436285E+03  0.25500000920E-02 0.  1.
       -2    1    3    3    0  502  0.28689337302E+03 -0.76262572694E+03  0.54193354891E+03  0.97856925065E+03  0.25500000920E-02 0. -1.
</event>
<event>
 5   0  0.2888776E-05  0.1901099E+04  0.7818609E-02  0.8654309E-01
       -2   -1    0    0    0  501  0.00000000000E+00  0.00000000000E+00  0.91802848963E+03  0.91802848963E+03  0.25500000920E-02 0.  1.
        2   -1    0    0  501    0  0.00000000000E+00  0.00000000000E+00 -0.98422304495E+03  0.98422304495E+03  0.25500000920E-02 0. -1.
    10030    2    1    2    0    0  0.00000000000E+00  0.00000000000E+00 -0.66194555317E+02  0.19022515346E+04  0.19010994665E+04 0.  0.
        3    1    3    3  502    0 -0.66523238909E+02 -0.50574142192E+02  0.91434594689E+03  0.91815663477E+03  0.10100000352E+00 0.  1.
       -3    1    3    3    0  502  0.66523238909E+02  0.50574142192E+02 -0.98054050221E+03  0.98409489981E+03  0.10100000352E+00 0. -1.
</event>
<event>
 5   0  0.2855141E-05  0.1900244E+04  0.7818609E-02  0.8654735E-01
       -2   -1    0    0    0  501  0.00000000000E+00  0.00000000000E+00  0.53228212683E+03  0.53228212683E+03  0.25500000920E-02 0.  1.
        2   -1    0    0  501    0  0.00000000000E+00  0.00000000000E+00 -0.16959647196E+04  0.16959647196E+04  0.25500000920E-02 0. -1.
    10030    2    1    2    0    0  0.00000000000E+00  0.00000000000E+00 -0.11636825928E+04  0.22282468465E+04  0.19002438875E+04 0.  0.
        1    1    3    3  502    0  0.66523324378E+03  0.47196663807E+02 -0.13753870216E+04  0.15285457968E+04  0.50400001928E-02 0. -1.
       -1    1    3    3    0  502 -0.66523324378E+03 -0.47196663807E+02  0.21170442880E+03  0.69970104966E+03  0.50400001928E-02 0.  1.
</event>
<event>
 5   0  0.2879462E-05  0.1903331E+04  0.7818609E-02  0.8653200E-01
        2   -1    0    0  501    0  0.00000000000E+00  0.00000000000E+00  0.17534778414E+04  0.17534778414E+04  0.25500000920E-02 0.  1.
       -2   -1    0    0    0  501  0.00000000000E+00  0.00000000000E+00 -0.51649775893E+03  0.51649775894E+03  0.25500000920E-02 0. -1.
    10030    2    1    2    0    0  0.00000000000E+00  0.00000000000E+00  0.12369800825E+04  0.22699756003E+04  0.19033311592E+04 0.  0.
        4    1    3    3  502    0  0.21067232660E+03 -0.38582871652E+03  0.16251310514E+04  0.16835376963E+04  0.12699999809E+01 0.  1.
       -4    1    3    3    0  502 -0.21067232660E+03  0.38582871652E+03 -0.38815096896E+03  0.58643790403E+03  0.12699999809E+01 0. -1.
</event>
<event>
 5   0  0.1429067E-05  0.1898718E+04  0.7818609E-02  0.8655495E-01
       -1   -1    0    0    0  501  0.00000000000E+00  0.00000000000E+00  0.44469411500E+03  0.44469411502E+03  0.50400001928E-02 0. -1.
        1   -1    0    0  501    0  0.00000000000E+00  0.00000000000E+00 -0.20267462390E+04  0.20267462390E+04  0.50400001928E-02 0.  1.
    10030    2    1    2    0    0  0.00000000000E+00  0.00000000000E+00 -0.15820521240E+04  0.24714403540E+04  0.18987175937E+04 0.  0.
        3    1    3    3  502    0 -0.53304651524E+03 -0.53496577018E+03 -0.42211412377E+02  0.75637872538E+03  0.10100000352E+00 0. -1.
       -3    1    3    3    0  502  0.53304651524E+03  0.53496577018E+03 -0.15398407116E+04  0.17150616287E+04  0.10100000352E+00 0.  1.
</event>
<event>
 5   0  0.1413011E-05  0.1898590E+04  0.7818609E-02  0.8655559E-01
        1   -1    0    0  501    0  0.00000000000E+00  0.00000000000E+00  0.92715048072E+03  0.92715048073E+03  0.50400001928E-02 0. -1.
       -1   -1    0    0    0  501  0.00000000000E+00  0.00000000000E+00 -0.97196811884E+03  0.97196811886E+03  0.50400001928E-02 0.  1.
    10030    2    1    2    0    0  0.00000000000E+00  0.00000000000E+00 -0.44817638126E+02  0.18991185996E+04  0.18985896962E+04 0.  0.
        1    1    3    3  502    0  0.73912140998E+03 -0.15080063409E+03  0.55404975370E+03  0.93595535125E+03  0.50400001928E-02 0. -1.
       -1    1    3    3    0  502 -0.73912140998E+03  0.15080063409E+03 -0.59886739183E+03  0.96316324834E+03  0.50400001928E-02 0.  1.
</event>
<event>
 5   0  0.1471485E-05  0.1900715E+04  0.7818609E-02  0.8654501E-01
       -1   -1    0    0    0  501  0.00000000000E+00  0.00000000000E+00  0.30494617093E+04  0.30494617093E+04  0.50400001928E-02 0. -1.
        1   -1    0    0  501    0  0.00000000000E+00  0.00000000000E+00 -0.29617663634E+03  0.29617663638E+03  0.50400001928E-02 0.  1.
    10030    2    1    2    0    0  0.00000000000E+00  0.00000000000E+00  0.27532850730E+04  0.33456383457E+04  0.19007149305E+04 0.  0.
        4    1    3    3  502    0  0.49317548677E+03 -0.44500774265E+03  0.18032311942E+03  0.68831097047E+03  0.12699999809E+01 0.  1.
       -4    1    3    3    0  502 -0.49317548677E+03  0.44500774265E+03  0.25729619536E+04  0.26573273752E+04  0.12699999809E+01 0. -1.
</event>
<event>
 5   0  0.2855141E-05  0.1895843E+04  0.7818609E-02  0.8656928E-01
        2   -1    0    0  501    0  0.00000000000E+00  0.00000000000E+00  0.25996908206E+04  0.25996908206E+04  0.25500000920E-02 0.  1.
       -2   -1    0    0    0  501  0.00000000000E+00  0.00000000000E+00 -0.34563934217E+03  0.34563934218E+03  0.25500000920E-02 0. -1.
    10030    2    1    2    0    0  0.00000000000E+00  0.00000000000E+00  0.22540514784E+04  0.29453301628E+04  0.18958432689E+04 0.  0.
        1    1    3    3  502    0  0.49434776749E+03 -0.53690057310E+02  0.23808012663E+04  0.24321753653E+04  0.50400001928E-02 0.  1.
       -1    1    3    3    0  502 -0.49434776749E+03  0.53690057310E+02 -0.12674978791E+03  0.51315479754E+03  0.50400001928E-02 0. -1.
</event>
<event>
 5   0  0.2879462E-05  0.1899105E+04  0.7818609E-02  0.8655302E-01
        2   -1    0    0  501    0  0.00000000000E+00  0.00000000000E+00  0.14918880839E+04  0.14918880839E+04  0.25500000920E-02 0. -1.
       -2   -1    0    0    0  501  0.00000000000E+00  0.00000000000E+00 -0.60436808357E+03  0.60436808357E+03  0.25500000920E-02 0.  1.
    10030    2    1    2    0    0  0.00000000000E+00  0.00000000000E+00  0.88752000030E+03  0.20962561674E+04  0.18991045702E+04 0.  0.
        4    1    3    3  502    0 -0.15592224859E+03 -0.93665591063E+03  0.43995436823E+03  0.10465168425E+04  0.12699999809E+01 0. -1.
       -4    1    3    3    0  502  0.15592224859E+03  0.93665591063E+03  0.44756563207E+03  0.10497393250E+04  0.12699999809E+01 0.  1.
</event>
<event>
 5   0  0.1327254E-05  0.1900520E+04  0.7818609E-02  0.8654598E-01
       -1   -1    0    0    0  501  0.00000000000E+00  0.00000000000E+00  0.96329947526E+03  0.96329947528E+03  0.50400001928E-02 0. -1.
        1   -1    0    0  501    0  0.00000000000E+00  0.00000000000E+00 -0.93739672279E+03  0.93739672281E+03  0.50400001928E-02 0.  1.
    10030    2    1    2    0    0  0.00000000000E+00  0.00000000000E+00  0.25902752473E+02  0.19006961981E+04  0.19005196881E+04 0.  0.
        5    1    3    3  502    0  0.67633827883E+02 -0.14745642925E+02  0.96076293793E+03  0.96326490726E+03  0.46999998093E+01 0. -1.
       -5    1    3    3    0  502 -0.67633827883E+02  0.14745642925E+02 -0.93486018546E+03  0.93743129082E+03  0.46999998093E+01 0.  1.
</event>
<event>
 5   0  0.2855141E-05  0.1900345E+04  0.7818609E-02  0.8654684E-01
        2   -1    0    0  501    0  0.00000000000E+00  0.00000000000E+00  0.10704323187E+04  0.10704323187E+04  0.25500000920E-02 0.  1.
       -2   -1    0    0    0  501  0.00000000000E+00  0.00000000000E+00 -0.84342393057E+03  0.84342393057E+03  0.25500000920E-02 0. -1.
    10030    2    1    2    0    0  0.00000000000E+00  0.00000000000E+00  0.22700838818E+03  0.19138562493E+04  0.19003454777E+04 0.  0.
        1    1    3    3  502    0  0.15010661935E+03  0.41469923746E+03  0.96110574754E+03  0.10574647572E+04  0.50400001928E-02 0.  1.
       -1    1    3    3    0  502 -0.15010661935E+03 -0.41469923746E+03 -0.73409735937E+03  0.85639149212E+03  0.50400001928E-02 0. -1.
</event>
<event>
 5   0  0.1429067E-05  0.1891541E+04  0.7818609E-02  0.8659078E-01
        1   -1    0    0  501    0  0.00000000000E+00  0.00000000000E+00  0.10316188801E+04  0.10316188801E+04  0.50400001928E-02 0.  1.
       -1   -1    0    0    0  501  0.00000000000E+00  0.00000000000E+00 -0.86706623449E+03  0.86706623451E+03  0.50400001928E-02 0. -1.
    10030    2    1    2    0    0  0.00000000000E+00  0.00000000000E+00  0.16455264564E+03  0.18986851147E+04  0.18915410626E+04 0.  0.
        3    1    3    3  502    0 -0.55133577005E+03  0.23712388948E+03 -0.65143100570E+03  0.88575461370E+03  0.10100000352E+00 0. -1.
       -3    1    3    3    0  502  0.55133577005E+03 -0.23712388948E+03  0.81598365134E+03  0.10129305010E+04  0.10100000352E+00 0.  1.
</event>
<event>
 5   0  0.1010725E-05  0.1898909E+04  0.7818609E-02  0.8655400E-01
        3   -1    0    0  501    0  0.00000000000E+00  0.00000000000E+00  0.10467502363E+04  0.10467502412E+04  0.10100000352E+00 0.  1.
       -3   -1    0    0    0  501  0.00000000000E+00  0.00000000000E+00 -0.86120206601E+03  0.86120207193E+03  0.10100000352E+00 0. -1.
    10030    2    1    2    0    0  0.00000000000E+00  0.00000000000E+00  0.18554817028E+03  0.19079523131E+04  0.18989086091E+04 0.  0.
        1    1    3    3  502    0  0.12124783064E+02  0.58594173999E+03  0.84331810897E+03  0.10269664873E+04  0.50400001928E-02 0.  1.
       -1    1    3    3    0  502 -0.12124783064E+02 -0.58594173999E+03 -0.65776993869E+03  0.88098582582E+03  0.50400001928E-02 0. -1.
</event>
<event>
 5   0  0.1327254E-05  0.1901168E+04  0.7818609E-02  0.8654275E-01
       -1   -1    0    0    0  501  0.00000000000E+00  0.00000000000E+00  0.74264313134E+03  0.74264313136E+03  0.50400001928E-02 0.  1.
        1   -1    0    0  501    0  0.00000000000E+00  0.00000000000E+00 -0.12167482888E+04  0.12167482888E+04  0.50400001928E-02 0. -1.
    10030    2    1    2    0    0  0.00000000000E+00  0.00000000000E+00 -0.47410515743E+03  0.19593914201E+04  0.19011678088E+04 0.  0.
        5    1    3    3  502    0  0.40405992143E+03  0.27087632955E+03 -0.10787328518E+04  0.11833533123E+04  0.46999998093E+01 0. -1.
       -5    1    3    3    0  502 -0.40405992143E+03 -0.27087632955E+03  0.60462769442E+03  0.77603810787E+03  0.46999998093E+01 0.  1.
</event>
<event>
 5   0  0.1010725E-05  0.1899782E+04  0.7818609E-02  0.8654965E-01
       -4   -1    0    0    0  501  0.00000000000E+00  0.00000000000E+00  0.12642081069E+04  0.12642087448E+04  0.12699999809E+01 0. -1.
        4   -1    0    0  501    0  0.00000000000E+00  0.00000000000E+00 -0.71372052393E+03  0.71372165385E+03  0.12699999809E+01 0.  1.
    10030    2    1    2    0    0  0.00000000000E+00  0.00000000000E+00  0.55048758296E+03  0.19779303986E+04  0.18997821146E+04 0.  0.
        5    1    3    3  502    0  0.39740816724E+03  0.71504521517E+03  0.77785239540E+03  0.11288486835E+04  0.46999998093E+01 0. -1.
       -5    1    3    3    0  502 -0.39740816724E+03 -0.71504521517E+03 -0.22736481244E+03  0.84908171518E+03  0.46999998093E+01 0.  1.
</event>
<event>
 5   0  0.2789718E-05  0.1897205E+04  0.7818609E-02  0.8656249E-01
        2   -1    0    0  501    0  0.00000000000E+00  0.00000000000E+00  0.95855375751E+03  0.95855375751E+03  0.25500000920E-02 0.  1.
       -2   -1    0    0    0  501  0.00000000000E+00  0.00000000000E+00 -0.93875422358E+03  0.93875422358E+03  0.25500000920E-02 0. -1.
    10030    2    1    2    0    0  0.00000000000E+00  0.00000000000E+00  0.19799533934E+02  0.18973079811E+04  0.18972046683E+04 0.  0.
        5    1    3    3  502    0  0.46330516833E+03  0.26139395056E+03  0.79533786435E+03  0.95685050288E+03  0.46999998093E+01 0.  1.
       -5    1    3    3    0  502 -0.46330516833E+03 -0.26139395056E+03 -0.77553833041E+03  0.94045747822E+03  0.46999998093E+01 0. -1.
</event>
<event>
 5   0  0.2879462E-05  0.1898511E+04  0.7818609E-02  0.8655598E-01
       -2   -1    0    0    0  501  0.00000000000E+00  0.00000000000E+00  0.51132337360E+03  0.51132337361E+03  0.25500000920E-02 0. -1.
        2   -1    0    0  501    0  0.00000000000E+00  0.00000000000E+00 -0.17622633492E+04  0.17622633492E+04  0.25500000920E-02 0.  1.
    10030    2    1    2    0    0  0.00000000000E+00  0.00000000000E+00 -0.12509399756E+04  0.22735867228E+04  0.18985114599E+04 0.  0.
        4    1    3    3  502    0 -0.54494954404E+02 -0.11822614278E+03 -0.17515214993E+04  0.17563531240E+04  0.12699999809E+01 0.  1.
       -4    1    3    3    0  502  0.54494954404E+02  0.11822614278E+03  0.50058152372E+03  0.51723359875E+03  0.12699999809E+01 0. -1.
</event>
<event>
 5   0  0.1413011E-05  0.1899842E+04  0.7818609E-02  0.8654935E-01
       -1   -1    0    0    0  501  0.00000000000E+00  0.00000000000E+00  0.80549174051E+03  0.80549174052E+03  0.50400001928E-02 0. -1.
        1   -1    0    0  501    0  0.00000000000E+00  0.00000000000E+00 -0.11202470870E+04  0.11202470870E+04  0.50400001928E-02 0.  1.
    10030    2    1    2    0    0  0.00000000000E+00  0.00000000000E+00 -0.31475534650E+03  0.19257388275E+04  0.18998418628E+04 0.  0.
        1    1    3    3  502    0  0.26997994192E+03 -0.43166375048E+03  0.65550582940E+03  0.83000641860E+03  0.50400001928E-02 0. -1.
       -1    1    3    3    0  502 -0.26997994192E+03  0.43166375048E+03 -0.97026117590E+03  0.10957324089E+04  0.50400001928E-02 0.  1.
</event>
<event>
 5   0  0.2789718E-05  0.1897831E+04  0.7818609E-02  0.8655937E-01
       -2   -1    0    0    0  501  0.00000000000E+00  0.00000000000E+00  0.48486753882E+03  0.48486753883E+03  0.25500000920E-02 0. -1.
        2   -1    0    0  501    0  0.00000000000E+00  0.00000000000E+00 -0.18570848658E+04  0.18570848658E+04  0.25500000920E-02 0.  1.
    10030    2    1    2    0    0  0.00000000000E+00  0.00000000000E+00 -0.13722173269E+04  0.23419524046E+04  0.18978305175E+04 0.  0.
        5    1    3    3  502    0  0.16292306286E+03  0.38308792699E+03  0.36615124811E+03  0.55442683080E+03  0.46999998093E+01 0. -1.
       -5    1    3    3    0  502 -0.16292306286E+03 -0.38308792699E+03 -0.17383685751E+04  0.17875255738E+04  0.46999998093E+01 0.  1.
</event>
<event>
 5   0  0.1327254E-05  0.1899994E+04  0.7818609E-02  0.8654859E-01
       -1   -1    0    0    0  501  0.00000000000E+00  0.00000000000E+00  0.95915826035E+03  0.95915826036E+03  0.50400001928E-02 0. -1.
        1   -1    0    0  501    0  0.00000000000E+00  0.00000000000E+00 -0.94092346797E+03  0.94092346799E+03  0.50400001928E-02 0.  1.
    10030    2    1    2    0    0  0.00000000000E+00  0.00000000000E+00  0.18234792373E+02  0.19000817283E+04  0.18999942281E+04 0.  0.
        5    1    3    3  502    0  0.38112723529E+03  0.41205399129E+03 -0.75735508999E+03  0.94268514550E+03  0.46999998093E+01 0.  1.
       -5    1    3    3    0  502 -0.38112723529E+03 -0.41205399129E+03  0.77558988237E+03  0.95739658285E+03  0.46999998093E+01 0. -1.
</event>
<event>
 5   0  0.2888776E-05  0.1900239E+04  0.7818609E-02  0.8654737E-01
        2   -1    0    0  501    0  0.00000000000E+00  0.00000000000E+00  0.19385627569E+04  0.19385627569E+04  0.25500000920E-02 0.  1.
       -2   -1    0    0    0  501  0.00000000000E+00  0.00000000000E+00 -0.46566827952E+03  0.46566827953E+03  0.25500000920E-02 0. -1.
    10030    2    1    2    0    0  0.00000000000E+00  0.00000000000E+00  0.14728944773E+04  0.24042310364E+04  0.19002391257E+04 0.  0.
        3    1    3    3  502    0 -0.12583181758E+03 -0.11247573625E+03 -0.44655062268E+03  0.47738025344E+03  0.10100000352E+00 0. -1.
       -3    1    3    3    0  502  0.12583181758E+03  0.11247573625E+03  0.19194451000E+04  0.19268507830E+04  0.10100000352E+00 0.  1.
</event>
<event>
 5   0  0.2789718E-05  0.1898884E+04  0.7818609E-02  0.8655412E-01
       -2   -1    0    0    0  501  0.00000000000E+00  0.00000000000E+00  0.71059350736E+03  0.71059350736E+03  0.25500000920E-02 0.  1.
        2   -1    0    0  501    0  0.00000000000E+00  0.00000000000E+00 -0.12685729211E+04  0.12685729211E+04  0.25500000920E-02 0. -1.
    10030    2    1    2    0    0  0.00000000000E+00  0.00000000000E+00 -0.55797941371E+03  0.19791664284E+04  0.18988835471E+04 0.  0.
        5    1    3    3  502    0 -0.20009464388E+03  0.77125231525E+03  0.25912268636E+03  0.83787508429E+03  0.46999998093E+01 0.  1.
       -5    1    3    3    0  502  0.20009464388E+03 -0.77125231525E+03 -0.81710210007E+03  0.11412913441E+04  0.46999998093E+01 0. -1.
</event>
<event>
 5   0  0.1471485E-05  0.1901337E+04  0.7818609E-02  0.8654191E-01
        1   -1    0    0  501    0  0.00000000000E+00  0.00000000000E+00  0.13807129995E+04  0.13807129995E+04  0.50400001928E-02 0.  1.
       -1   -1    0    0    0  501  0.00000000000E+00  0.00000000000E+00 -0.65456823451E+03  0.65456823453E+03  0.50400001928E-02 0. -1.
    10030    2    1    2    0    0  0.00000000000E+00  0.00000000000E+00  0.72614476501E+03  0.20352812341E+04  0.19013372878E+04 0.  0.
        4    1    3    3  502    0  0.53988359001E+03  0.77570315245E+03  0.47317549644E+03  0.10569230506E+04  0.12699999809E+01 0.  1.
       -4    1    3    3    0  502 -0.53988359001E+03 -0.77570315245E+03  0.25296926857E+03  0.97835818350E+03  0.12699999809E+01 0. -1.
</event>
<event>
 5   0  0.2888776E-05  0.1901295E+04  0.7818609E-02  0.8654212E-01
        2   -1    0    0  501    0  0.00000000000E+00  0.00000000000E+00  0.61120896127E+03  0.61120896127E+03  0.25500000920E-02 0. -1.
       -2   -1    0    0    0  501  0.00000000000E+00  0.00000000000E+00 -0.14785954995E+04  0.14785954995E+04  0.25500000920E-02 0.  1.
    10030    2    1    2    0    0  0.00000000000E+00  0.00000000000E+00 -0.86738653826E+03  0.20898044608E+04  0.19012951579E+04 0.  0.
        3    1    3    3  502    0 -0.46366635119E+03  0.66487026089E+03  0.11223240564E+03  0.81831233165E+03  0.10100000352E+00 0. -1.
       -3    1    3    3    0  502  0.46366635119E+03 -0.66487026089E+03 -0.97961894390E+03  0.12714921292E+04  0.10100000352E+00 0.  1.
</event>
<event>
 5   0  0.2813537E-05  0.1889817E+04  0.7818609E-02  0.8659942E-01
       -2   -1    0    0    0  501  0.00000000000E+00  0.00000000000E+00  0.46606847982E+03  0.46606847983E+03  0.25500000920E-02 0. -1.
        2   -1    0    0  501    0  0.00000000000E+00  0.00000000000E+00 -0.19157092766E+04  0.19157092766E+04  0.25500000920E-02 0.  1.
    10030    2    1    2    0    0  0.00000000000E+00  0.00000000000E+00 -0.14496407968E+04  0.23817777564E+04  0.18898166158E+04 0.  0.
        2    1    3    3  502    0  0.26187455626E+03  0.30088467045E+03  0.35475558570E+03  0.53381775328E+03  0.25500000920E-02 0. -1.
       -2    1    3    3    0  502 -0.26187455626E+03 -0.30088467045E+03 -0.18043963825E+04  0.18479600032E+04  0.25500000920E-02 0.  1.
</event>
<event>
 5   0  0.2879462E-05  0.1900427E+04  0.7818609E-02  0.8654644E-01
        2   -1    0    0  501    0  0.00000000000E+00  0.00000000000E+00  0.16584717572E+04  0.16584717572E+04  0.25500000920E-02 0. -1.
       -2   -1    0    0    0  501  0.00000000000E+00  0.00000000000E+00 -0.54442002345E+03  0.54442002346E+03  0.25500000920E-02 0.  1.
    10030    2    1    2    0    0  0.00000000000E+00  0.00000000000E+00  0.11140517338E+04  0.22028917807E+04  0.19004265132E+04 0.  0.
        4    1    3    3  502    0 -0.18858868035E+02 -0.84437820863E+03  0.10617229398E+04  0.13566825089E+04  0.12699999809E+01 0. -1.
       -4    1    3    3    0  502  0.18858868035E+02  0.84437820863E+03  0.52328793973E+02  0.84620927181E+03  0.12699999809E+01 0.  1.
</event>
<event>
 5   0  0.2789718E-05  0.1900795E+04  0.7818609E-02  0.8654461E-01
        2   -1    0    0  501    0  0.00000000000E+00  0.00000000000E+00  0.10430946313E+04  0.10430946313E+04  0.25500000920E-02 0. -1.
       -2   -1    0    0    0  501  0.00000000000E+00  0.00000000000E+00 -0.86593796981E+03  0.86593796982E+03  0.25500000920E-02 0.  1.
    10030    2    1    2    0    0  0.00000000000E+00  0.00000000000E+00  0.17715666148E+03  0.19090326011E+04  0.19007948310E+04 0.  0.
        5    1    3    3  502    0 -0.24963613104E+03 -0.76913635672E+02 -0.82916480735E+03  0.86935048917E+03  0.46999998093E+01 0.  1.
       -5    1    3    3    0  502  0.24963613104E+03  0.76913635672E+02  0.10063214688E+04  0.10396821119E+04  0.46999998093E+01 0. -1.
</event>
<event>
 5   0  0.2855141E-05  0.1899917E+04  0.7818609E-02  0.8654898E-01
        2   -1    0    0  501    0  0.00000000000E+00  0.00000000000E+00  0.22757451000E+04  0.22757451000E+04  0.25500000920E-02 0.  1.
       -2   -1    0    0    0  501  0.00000000000E+00  0.00000000000E+00 -0.39653871014E+03  0.39653871015E+03  0.25500000920E-02 0. -1.
    10030    2    1    2    0    0  0.00000000000E+00  0.00000000000E+00  0.18792063898E+04  0.26722838101E+04  0.18999168683E+04 0.  0.
        1    1    3    3  502    0 -0.65027126742E+03  0.68943858678E+03  0.10312191703E+04  0.14005681930E+04  0.50400001928E-02 0.  1.
       -1    1    3    3    0  502  0.65027126742E+03 -0.68943858678E+03  0.84798721955E+03  0.12717156171E+04  0.50400001928E-02 0. -1.
</event>
<event>
 5   0  0.2855141E-05  0.1903161E+04  0.7818609E-02  0.8653285E-01
        2   -1    0    0  501    0  0.00000000000E+00  0.00000000000E+00  0.11863040771E+04  0.11863040771E+04  0.25500000920E-02 0.  1.
       -2   -1    0    0    0  501  0.00000000000E+00  0.00000000000E+00 -0.76329954545E+03  0.76329954546E+03  0.25500000920E-02 0. -1.
    10030    2    1    2    0    0  0.00000000000E+00  0.00000000000E+00  0.42300453167E+03  0.19496036226E+04  0.19031609105E+04 0.  0.
        1    1    3    3  502    0  0.30614626528E+03 -0.20388045652E+03 -0.68753174133E+03  0.77973884837E+03  0.50400001928E-02 0. -1.
       -1    1    3    3    0  502 -0.30614626528E+03  0.20388045652E+03  0.11105362730E+04  0.11698647742E+04  0.50400001928E-02 0.  1.
</event>
<event>
 5   0  0.1413011E-05  0.1902437E+04  0.7818609E-02  0.8653644E-01
       -1   -1    0    0    0  501  0.00000000000E+00  0.00000000000E+00  0.82499271477E+03  0.82499271478E+03  0.50400001928E-02 0. -1.
        1   -1    0    0  501    0  0.00000000000E+00  0.00000000000E+00 -0.10967570904E+04  0.10967570904E+04  0.50400001928E-02 0.  1.
    10030    2    1    2    0    0  0.00000000000E+00  0.00000000000E+00 -0.27176437564E+03  0.19217498052E+04  0.19024369734E+04 0.  0.
        1    1    3    3  502    0 -0.60327913647E+03 -0.26960444442E+03 -0.82706830718E+03  0.10586190333E+04  0.50400001928E-02 0.  1.
       -1    1    3    3    0  502  0.60327913647E+03  0.26960444442E+03  0.55530393154E+03  0.86313077188E+03  0.50400001928E-02 0. -1.
</event>
<event>
 5   0  0.1344119E-05  0.1906473E+04  0.7818609E-02  0.8651641E-01
       -1   -1    0    0    0  501  0.00000000000E+00  0.00000000000E+00  0.10777511039E+04  0.10777511039E+04  0.50400001928E-02 0.  1.
        1   -1    0    0  501    0  0.00000000000E+00  0.00000000000E+00 -0.84310695795E+03  0.84310695796E+03  0.50400001928E-02 0. -1.
    10030    2    1    2    0    0  0.00000000000E+00  0.00000000000E+00  0.23464414596E+03  0.19208580619E+04  0.19064726116E+04 0.  0.
        2    1    3    3  502    0  0.44270690480E+02  0.93752193267E+03 -0.50524819825E+02  0.93992554263E+03  0.25500000920E-02 0. -1.
       -2    1    3    3    0  502 -0.44270690480E+02 -0.93752193267E+03  0.28516896578E+03  0.98093251925E+03  0.25500000920E-02 0.  1.
</event>
<event>
 5   0  0.2855141E-05  0.1901973E+04  0.7818609E-02  0.8653875E-01
        2   -1    0    0  501    0  0.00000000000E+00  0.00000000000E+00  0.23446190632E+04  0.23446190632E+04  0.25500000920E-02 0.  1.
       -2   -1    0    0    0  501  0.00000000000E+00  0.00000000000E+00 -0.38572387986E+03  0.38572387987E+03  0.25500000920E-02 0. -1.
    10030    2    1    2    0    0  0.00000000000E+00  0.00000000000E+00  0.19588951834E+04  0.27303429431E+04  0.19019732510E+04 0.  0.
        1    1    3    3  502    0  0.82420401126E+03 -0.13911379631E+03  0.32835733675E+03  0.89804423117E+03  0.50400001928E-02 0. -1.
       -1    1    3    3    0  502 -0.82420401126E+03  0.13911379631E+03  0.16305378466E+04  0.18322987119E+04  0.50400001928E-02 0.  1.
</event>
<event>
 5   0  0.1327254E-05  0.1885994E+04  0.7818609E-02  0.8661860E-01
        1   -1    0    0  501    0  0.00000000000E+00  0.00000000000E+00  0.14119620572E+04  0.14119620572E+04  0.50400001928E-02 0. -1.
       -1   -1    0    0    0  501  0.00000000000E+00  0.00000000000E+00 -0.62979277561E+03  0.62979277563E+03  0.50400001928E-02 0.  1.
    10030    2    1    2    0    0  0.00000000000E+00  0.00000000000E+00  0.78216928162E+03  0.20417548329E+04  0.18859941708E+04 0.  0.
        5    1    3    3  502    0 -0.63854676414E+03  0.27844312128E+03 -0.29697557235E+03  0.75729064589E+03  0.46999998093E+01 0.  1.
       -5    1    3    3    0  502  0.63854676414E+03 -0.27844312128E+03  0.10791448540E+04  0.12844641870E+04  0.46999998093E+01 0. -1.
</event>
<event>
 5   0  0.2789718E-05  0.1896159E+04  0.7818609E-02  0.8656771E-01
        2   -1    0    0  501    0  0.00000000000E+00  0.00000000000E+00  0.19834164914E+04  0.19834164914E+04  0.25500000920E-02 0.  1.
       -2   -1    0    0    0  501  0.00000000000E+00  0.00000000000E+00 -0.45318511945E+03  0.45318511946E+03  0.25500000920E-02 0. -1.
    10030    2    1    2    0    0  0.00000000000E+00  0.00000000000E+00  0.15302313720E+04  0.24366016109E+04  0.18961591068E+04 0.  0.
        5    1    3    3  502    0  0.93940093904E+03 -0.22516862378E+02  0.92690376759E+03  0.13199067459E+04  0.46999998093E+01 0. -1.
       -5    1    3    3    0  502 -0.93940093904E+03  0.22516862378E+02  0.60332760437E+03  0.11166948650E+04  0.46999998093E+01 0.  1.
</event>
<event>
 5   0  0.1429067E-05  0.1898501E+04  0.7818609E-02  0.8655603E-01
        1   -1    0    0  501    0  0.00000000000E+00  0.00000000000E+00  0.10015491785E+04  0.10015491786E+04  0.50400001928E-02 0. -1.
       -1   -1    0    0    0  501  0.00000000000E+00  0.00000000000E+00 -0.89968246016E+03  0.89968246017E+03  0.50400001928E-02 0.  1.
    10030    2    1    2    0    0  0.00000000000E+00  0.00000000000E+00  0.10186671838E+03  0.19012316387E+04  0.18985007021E+04 0.  0.
        3    1    3    3  502    0  0.15442895691E+03 -0.39680503909E+03  0.90054851457E+03  0.99613763059E+03  0.10100000352E+00 0. -1.
       -3    1    3    3    0  502 -0.15442895691E+03  0.39680503909E+03 -0.79868179619E+03  0.90509400813E+03  0.10100000352E+00 0.  1.
</event>
<event>
 5   0  0.2813537E-05  0.1899316E+04  0.7818609E-02  0.8655197E-01
       -2   -1    0    0    0  501  0.00000000000E+00  0.00000000000E+00  0.52481546674E+03  0.52481546675E+03  0.25500000920E-02 0.  1.
        2   -1    0    0  501    0  0.00000000000E+00  0.00000000000E+00 -0.17184145681E+04  0.17184145681E+04  0.25500000920E-02 0. -1.
    10030    2    1    2    0    0  0.00000000000E+00  0.00000000000E+00 -0.11935991014E+04  0.22432300349E+04  0.18993162387E+04 0.  0.
        2    1    3    3  502    0 -0.59747467537E+03  0.23112636120E+03  0.23117784397E+03  0.68105695657E+03  0.25500000920E-02 0.  1.
       -2    1    3    3    0  502  0.59747467537E+03 -0.23112636120E+03 -0.14247769454E+04  0.15621730783E+04  0.25500000920E-02 0. -1.
</event>
<event>
 5   0  0.1471485E-05  0.1901088E+04  0.7818609E-02  0.8654315E-01
       -1   -1    0    0    0  501  0.00000000000E+00  0.00000000000E+00  0.81252430800E+03  0.81252430801E+03  0.50400001928E-02 0.  1.
        1   -1    0    0  501    0  0.00000000000E+00  0.00000000000E+00 -0.11120089954E+04  0.11120089955E+04  0.50400001928E-02 0. -1.
    10030    2    1    2    0    0  0.00000000000E+00  0.00000000000E+00 -0.29948468744E+03  0.19245333035E+04  0.19010884667E+04 0.  0.
        4    1    3    3  502    0 -0.16502854376E+03  0.93506028358E+03 -0.10491793698E+03  0.95529133807E+03  0.12699999809E+01 0. -1.
       -4    1    3    3    0  502  0.16502854376E+03 -0.93506028358E+03 -0.19456675046E+03  0.96924196539E+03  0.12699999809E+01 0.  1.
</event>
<event>
 5   0  0.1327254E-05  0.1900990E+04  0.7818609E-02  0.8654364E-01
        1   -1    0    0  501    0  0.00000000000E+00  0.00000000000E+00  0.16089728922E+04  0.16089728922E+04  0.50400001928E-02 0.  1.
       -1   -1    0    0    0  501  0.00000000000E+00  0.00000000000E+00 -0.56150181169E+03  0.56150181172E+03  0.50400001928E-02 0. -1.
    10030    2    1    2    0    0  0.00000000000E+00  0.00000000000E+00  0.10474710805E+04  0.21704747039E+04  0.19009904723E+04 0.  0.
        5    1    3    3  502    0 -0.23858391385E+03 -0.90599473394E+03  0.34080307557E+03  0.99695414548E+03  0.46999998093E+01 0. -1.
       -5    1    3    3    0  502  0.23858391385E+03  0.90599473394E+03  0.70666800489E+03  0.11735205584E+04  0.46999998093E+01 0.  1.
</event>
<event>
 5   0  0.1429067E-05  0.1901412E+04  0.7818609E-02  0.8654154E-01
       -1   -1    0    0    0  501  0.00000000000E+00  0.00000000000E+00  0.10454086974E+04  0.10454086974E+04  0.50400001928E-02 0.  1.
        1   -1    0    0  501    0  0.00000000000E+00  0.00000000000E+00 -0.86458224699E+03  0.86458224701E+03  0.50400001928E-02 0. -1.
    10030    2    1    2    0    0  0.00000000000E+00  0.00000000000E+00  0.18082645037E+03  0.19099909444E+04  0.19014118971E+04 0.  0.
        3    1    3    3  502    0 -0.36963409379E+03  0.55835595085E+03  0.76832934276E+03  0.10191764912E+04  0.10100000352E+00 0.  1.
       -3    1    3    3    0  502  0.36963409379E+03 -0.55835595085E+03 -0.58750289240E+03  0.89081445314E+03  0.10100000352E+00 0. -1.
</event>
<event>
 5   0  0.1344119E-05  0.1900849E+04  0.7818609E-02  0.8654434E-01
        1   -1    0    0  501    0  0.00000000000E+00  0.00000000000E+00  0.11879036763E+04  0.11879036763E+04  0.50400001928E-02 0. -1.
       -1   -1    0    0    0  501  0.00000000000E+00  0.00000000000E+00 -0.76042059738E+03  0.76042059740E+03  0.50400001928E-02 0.  1.
    10030    2    1    2    0    0  0.00000000000E+00  0.00000000000E+00  0.42748307895E+03  0.19483242737E+04  0.19008486770E+04 0.  0.
        2    1    3    3  502    0  0.37340413456E+03 -0.64580792704E+03  0.81735398464E+03  0.11066011307E+04  0.25500000920E-02 0.  1.
       -2    1    3    3    0  502 -0.37340413456E+03  0.64580792704E+03 -0.38987090569E+03  0.84172314299E+03  0.25500000920E-02 0. -1.
</event>
<event>
 5   0  0.2888776E-05  0.1902740E+04  0.7818609E-02  0.8653494E-01
       -2   -1    0    0    0  501  0.00000000000E+00  0.00000000000E+00  0.11234660442E+04  0.11234660443E+04  0.25500000920E-02 0.  1.
        2   -1    0    0  501    0  0.00000000000E+00  0.00000000000E+00 -0.80563608759E+03  0.80563608760E+03  0.25500000920E-02 0. -1.
    10030    2    1    2    0    0  0.00000000000E+00  0.00000000000E+00  0.31782995666E+03  0.19291021318E+04  0.19027399070E+04 0.  0.
        3    1    3    3  502    0 -0.90037496185E+02 -0.20807142267E+03  0.10956775522E+04  0.11188877407E+04  0.10100000352E+00 0.  1.
       -3    1    3    3    0  502  0.90037496185E+02  0.20807142267E+03 -0.77784759551E+03  0.81021439120E+03  0.10100000352E+00 0. -1.
</event>
<event>
 5   0  0.2855141E-05  0.1900332E+04  0.7818609E-02  0.8654691E-01
        2   -1    0    0  501    0  0.00000000000E+00  0.00000000000E+00  0.85835284332E+03  0.85835284332E+03  0.25500000920E-02 0.  1.
       -2   -1    0    0    0  501  0.00000000000E+00  0.00000000000E+00 -0.10518001825E+04  0.10518001825E+04  0.25500000920E-02 0. -1.
    10030    2    1    2    0    0  0.00000000000E+00  0.00000000000E+00 -0.19344733920E+03  0.19101530259E+04  0.19003322628E+04 0.  0.
        1    1    3    3  502    0  0.90318226753E+02  0.92682812272E+03  0.93058651380E+02  0.93585664702E+03  0.50400001928E-02 0. -1.
       -1    1    3    3    0  502 -0.90318226753E+02 -0.92682812272E+03 -0.28650599058E+03  0.97429637883E+03  0.50400001928E-02 0.  1.
</event>
<event>
 5   0  0.1344119E-05  0.1900283E+04  0.7818609E-02  0.8654715E-01
        1   -1    0    0  501    0  0.00000000000E+00  0.00000000000E+00  0.95338386941E+03  0.95338386943E+03  0.50400001928E-02 0.  1.
       -1   -1    0    0    0  501  0.00000000000E+00  0.00000000000E+00 -0.94691051154E+03  0.94691051155E+03  0.50400001928E-02 0. -1.
    10030    2    1    2    0    0  0.00000000000E+00  0.00000000000E+00  0.64733578751E+01  0.19002943810E+04  0.19002833552E+04 0.  0.
        2    1    3    3  502    0  0.10583352938E+03  0.48455534585E+02  0.94622705619E+03  0.95335948972E+03  0.25500000920E-02 0.  1.
       -2    1    3    3    0  502 -0.10583352938E+03 -0.48455534585E+02 -0.93975369832E+03  0.94693489126E+03  0.25500000920E-02 0. -1.
</event>
<event>
 5   0  0.1471485E-05  0.1898977E+04  0.7818609E-02  0.8655366E-01
        1   -1    0    0  501    0  0.00000000000E+00  0.00000000000E+00  0.81552457371E+03  0.81552457373E+03  0.50400001928E-02 0.  1.
       -1   -1    0    0    0  501  0.00000000000E+00  0.00000000000E+00 -0.11054584585E+04  0.11054584585E+04  0.50400001928E-02 0. -1.
    10030    2    1    2    0    0  0.00000000000E+00  0.00000000000E+00 -0.28993388481E+03  0.19209830323E+04  0.18989771333E+04 0.  0.
        4    1    3    3  502    0 -0.58187176713E+03  0.73178582325E+03 -0.31254191136E+03  0.98578359884E+03  0.12699999809E+01 0. -1.
       -4    1    3    3    0  502  0.58187176713E+03 -0.73178582325E+03  0.22608026555E+02  0.93519943341E+03  0.12699999809E+01 0.  1.
</event>
<event>
 5   0  0.1429067E-05  0.1898217E+04  0.7818609E-02  0.8655745E-01
       -1   -1    0    0    0  501  0.00000000000E+00  0.00000000000E+00  0.68663172487E+03  0.68663172489E+03  0.50400001928E-02 0. -1.
        1   -1    0    0  501    0  0.00000000000E+00  0.00000000000E+00 -0.13119209777E+04  0.13119209777E+04  0.50400001928E-02 0.  1.
    10030    2    1    2    0    0  0.00000000000E+00  0.00000000000E+00 -0.62528925280E+03  0.19985527026E+04  0.18982165986E+04 0.  0.
        3    1    3    3  502    0  0.80639536459E+03 -0.36566279541E+02  0.21293721457E+03  0.83483701666E+03  0.10100000352E+00 0. -1.
       -3    1    3    3    0  502 -0.80639536459E+03  0.36566279541E+02 -0.83822646738E+03  0.11637156859E+04  0.10100000352E+00 0.  1.
</event>
<event>
 5   0  0.1471485E-05  0.1901622E+04  0.7818609E-02  0.8654049E-01
       -1   -1    0    0    0  501  0.00000000000E+00  0.00000000000E+00  0.11845821870E+04  0.11845821871E+04  0.50400001928E-02 0.  1.
        1   -1    0    0  501    0  0.00000000000E+00  0.00000000000E+00 -0.76317338968E+03  0.76317338970E+03  0.50400001928E-02 0. -1.
    10030    2    1    2    0    0  0.00000000000E+00  0.00000000000E+00  0.42140879736E+03  0.19477555767E+04  0.19016220477E+04 0.  0.
        4    1    3    3  502    0  0.53101446816E+03  0.66244044251E+03 -0.22774147926E+03  0.87901734883E+03  0.12699999809E+01 0. -1.
       -4    1    3    3    0  502 -0.53101446816E+03 -0.66244044251E+03  0.64915027662E+03  0.10687382279E+04  0.12699999809E+01 0.  1.
</event>
<event>
 5   0  0.2813537E-05  0.1900241E+04  0.7818609E-02  0.8654736E-01
       -2   -1    0    0    0  501  0.00000000000E+00  0.00000000000E+00  0.10006446105E+04  0.10006446105E+04  0.25500000920E-02 0. -1.
        2   -1    0    0  501    0  0.00000000000E+00  0.00000000000E+00 -0.90214731169E+03  0.90214731170E+03  0.25500000920E-02 0.  1.
    10030    2    1    2    0    0  0.00000000000E+00  0.00000000000E+00  0.98497298759E+02  0.19027919222E+04  0.19002408745E+04 0.  0.
        2    1    3    3  502    0  0.89158592776E+03 -0.32008163630E+03 -0.24000938135E+02  0.94760422409E+03  0.25500000920E-02 0. -1.
       -2    1    3    3    0  502 -0.89158592776E+03  0.32008163630E+03  0.12249823689E+03  0.95518769806E+03  0.25500000920E-02 0.  1.
</event>
<event>
 5   0  0.2855141E-05  0.1895519E+04  0.7818609E-02  0.8657090E-01
       -2   -1    0    0    0  501  0.00000000000E+00  0.00000000000E+00  0.93989395633E+03  0.93989395633E+03  0.25500000920E-02 0. -1.
        2   -1    0    0  501    0  0.00000000000E+00  0.00000000000E+00 -0.95569105783E+03  0.95569105783E+03  0.25500000920E-02 0.  1.
    10030    2    1    2    0    0  0.00000000000E+00  0.00000000000E+00 -0.15797101500E+02  0.18955850142E+04  0.18955191894E+04 0.  0.
        1    1    3    3  502    0  0.11749111951E+03 -0.50117724639E+03 -0.80370596264E+03  0.95442447049E+03  0.50400001928E-02 0.  1.
       -1    1    3    3    0  502 -0.11749111951E+03  0.50117724639E+03  0.78790886115E+03  0.94116054367E+03  0.50400001928E-02 0. -1.
</event>
<event>
 5   0  0.1413011E-05  0.1892367E+04  0.7818609E-02  0.8658665E-01
       -1   -1    0    0    0  501  0.00000000000E+00  0.00000000000E+00  0.95561714326E+03  0.95561714328E+03  0.50400001928E-02 0.  1.
        1   -1    0    0  501    0  0.00000000000E+00  0.00000000000E+00 -0.93684255519E+03  0.93684255520E+03  0.50400001928E-02 0. -1.
    10030    2    1    2    0    0  0.00000000000E+00  0.00000000000E+00  0.18774588075E+02  0.18924596985E+04  0.18923665673E+04 0.  0.
        1    1    3    3  502    0  0.36580813487E+03 -0.74785018676E+03 -0.44026502983E+03  0.94176896843E+03  0.50400001928E-02 0.  1.
       -1    1    3    3    0  502 -0.36580813487E+03  0.74785018676E+03  0.45903961791E+03  0.95069073005E+03  0.50400001928E-02 0. -1.
</event>
<event>
 5   0  0.2813537E-05  0.1903451E+04  0.7818609E-02  0.8653141E-01
       -2   -1    0    0    0  501  0.00000000000E+00  0.00000000000E+00  0.53998295540E+03  0.53998295541E+03  0.25500000920E-02 0.  1.
        2   -1    0    0  501    0  0.00000000000E+00  0.00000000000E+00 -0.16774257292E+04  0.16774257292E+04  0.25500000920E-02 0. -1.
    10030    2    1    2    0    0  0.00000000000E+00  0.00000000000E+00 -0.11374427738E+04  0.22174086846E+04  0.19034508691E+04 0.  0.
        2    1    3    3  502    0  0.29074946927E+02 -0.26049642456E+03 -0.16345488912E+04  0.16554316106E+04  0.25500000920E-02 0. -1.
       -2    1    3    3    0  502 -0.29074946927E+02  0.26049642456E+03  0.49710611739E+03  0.56197707400E+03  0.25500000920E-02 0.  1.
</event>
<event>
 5   0  0.1429067E-05  0.1887970E+04  0.7818609E-02  0.8660868E-01
        1   -1    0    0  501    0  0.00000000000E+00  0.00000000000E+00  0.22763679081E+04  0.22763679081E+04  0.50400001928E-02 0. -1.
       -1   -1    0    0    0  501  0.00000000000E+00  0.00000000000E+00 -0.39146022897E+03  0.39146022900E+03  0.50400001928E-02 0.  1.
    10030    2    1    2    0    0  0.00000000000E+00  0.00000000000E+00  0.18849076791E+04  0.26678281371E+04  0.18879698118E+04 0.  0.
        3    1    3    3  502    0  0.58428141716E+02  0.54545136092E+03  0.20280136175E+04  0.21008974935E+04  0.10100000352E+00 0. -1.
       -3    1    3    3    0  502 -0.58428141716E+02 -0.54545136092E+03 -0.14310593843E+03  0.56693064363E+03  0.10100000352E+00 0.  1.
</event>
<event>
 5   0  0.2855141E-05  0.1898229E+04  0.7818609E-02  0.8655739E-01
       -2   -1    0    0    0  501  0.00000000000E+00  0.00000000000E+00  0.77907216646E+03  0.77907216646E+03  0.25500000920E-02 0. -1.
        2   -1    0    0  501    0  0.00000000000E+00  0.00000000000E+00 -0.11562703952E+04  0.11562703953E+04  0.25500000920E-02 0.  1.
    10030    2    1    2    0    0  0.00000000000E+00  0.00000000000E+00 -0.37719822879E+03  0.19353425617E+04  0.18982287342E+04 0.  0.
        1    1    3    3  502    0  0.92378770777E+03  0.19552748244E+03 -0.28640892652E+03  0.98673441139E+03  0.50400001928E-02 0.  1.
       -1    1    3    3    0  502 -0.92378770777E+03 -0.19552748244E+03 -0.90789302279E+02  0.94860815032E+03  0.50400001928E-02 0. -1.
</event>
<event>
 5   0  0.1429067E-05  0.1881720E+04  0.7818609E-02  0.8664010E-01
        1   -1    0    0  501    0  0.00000000000E+00  0.00000000000E+00  0.17745395006E+04  0.17745395006E+04  0.50400001928E-02 0. -1.
       -1   -1    0    0    0  501  0.00000000000E+00  0.00000000000E+00 -0.49884335331E+03  0.49884335333E+03  0.50400001928E-02 0.  1.
    10030    2    1    2    0    0  0.00000000000E+00  0.00000000000E+00  0.12756961473E+04  0.22733828540E+04  0.18817196764E+04 0.  0.
        3    1    3    3  502    0  0.32689010811E+03 -0.25202259635E+03  0.16593131027E+04  0.17098808482E+04  0.10100000352E+00 0. -1.
       -3    1    3    3    0  502 -0.32689010811E+03  0.25202259635E+03 -0.38361695541E+03  0.56350200580E+03  0.10100000352E+00 0.  1.
</event>
<event>
 5   0  0.2789718E-05  0.1898971E+04  0.7818609E-02  0.8655369E-01
       -2   -1    0    0    0  501  0.00000000000E+00  0.00000000000E+00  0.67236050471E+03  0.67236050471E+03  0.25500000920E-02 0.  1.
        2   -1    0    0  501    0  0.00000000000E+00  0.00000000000E+00 -0.13408324012E+04  0.13408324012E+04  0.25500000920E-02 0. -1.
    10030    2    1    2    0    0  0.00000000000E+00  0.00000000000E+00 -0.66847189654E+03  0.20131929060E+04  0.18989710372E+04 0.  0.
        5    1    3    3  502    0 -0.39532118998E+03  0.83736782449E+03 -0.11176380773E+03  0.93272555205E+03  0.46999998093E+01 0.  1.
       -5    1    3    3    0  502  0.39532118998E+03 -0.83736782449E+03 -0.55670808880E+03  0.10804673539E+04  0.46999998093E+01 0. -1.
</event>
<event>
 5   0  0.2855141E-05  0.1899916E+04  0.7818609E-02  0.8654898E-01
        2   -1    0    0  501    0  0.00000000000E+00  0.00000000000E+00  0.13108260466E+04  0.13108260466E+04  0.25500000920E-02 0. -1.
       -2   -1    0    0    0  501  0.00000000000E+00  0.00000000000E+00 -0.68843614643E+03  0.68843614643E+03  0.25500000920E-02 0.  1.
    10030    2    1    2    0    0  0.00000000000E+00  0.00000000000E+00  0.62238990018E+03  0.19992621930E+04  0.18999158215E+04 0.  0.
        1    1    3    3  502    0 -0.12262485239E+03  0.27493003490E+03  0.12593055945E+04  0.12947872253E+04  0.50400001928E-02 0. -1.
       -1    1    3    3    0  502  0.12262485239E+03 -0.27493003490E+03 -0.63691569429E+03  0.70447496774E+03  0.50400001928E-02 0.  1.
</event>
<event>
 5   0  0.1344119E-05  0.1899835E+04  0.7818609E-02  0.8654938E-01
       -1   -1    0    0    0  501  0.00000000000E+00  0.00000000000E+00  0.10211646639E+04  0.10211646640E+04  0.50400001928E-02 0.  1.
        1   -1    0    0  501    0  0.00000000000E+00  0.00000000000E+00 -0.88364161741E+03  0.88364161743E+03  0.50400001928E-02 0. -1.
    10030    2    1    2    0    0  0.00000000000E+00  0.00000000000E+00  0.13752304653E+03  0.19048062814E+04  0.18998353564E+04 0.  0.
        2    1    3    3  502    0 -0.66654711778E+02  0.19156723724E+03  0.99919976055E+03  0.10195788437E+04  0.25500000920E-02 0.  1.
       -2    1    3    3    0  502  0.66654711778E+02 -0.19156723724E+03 -0.86167671401E+03  0.88522743771E+03  0.25500000920E-02 0. -1.
</event>
<event>
 5   0  0.2813537E-05  0.1897068E+04  0.7818609E-02  0.8656317E-01
        2   -1    0    0  501    0  0.00000000000E+00  0.00000000000E+00  0.70645100859E+03  0.70645100859E+03  0.25500000920E-02 0. -1.
       -2   -1    0    0    0  501  0.00000000000E+00  0.00000000000E+00 -0.12735728019E+04  0.12735728019E+04  0.25500000920E-02 0.  1.
    10030    2    1    2    0    0  0.00000000000E+00  0.00000000000E+00 -0.56712179332E+03  0.19800238105E+04  0.18970680435E+04 0.  0.
        2    1    3    3  502    0 -0.10000697870E+03 -0.82779972694E+03 -0.75550968561E+03  0.11251882815E+04  0.25500000920E-02 0.  1.
       -2    1    3    3    0  502  0.10000697870E+03  0.82779972694E+03  0.18838789230E+03  0.85483552903E+03  0.25500000920E-02 0. -1.
</event>
<event>
 5   0  0.2855141E-05  0.1904888E+04  0.7818609E-02  0.8652427E-01
        2   -1    0    0  501    0  0.00000000000E+00  0.00000000000E+00  0.12331549708E+04  0.12331549708E+04  0.25500000920E-02 0.  1.
       -2   -1    0    0    0  501  0.00000000000E+00  0.00000000000E+00 -0.73563295477E+03  0.73563295477E+03  0.25500000920E-02 0. -1.
    10030    2    1    2    0    0  0.00000000000E+00  0.00000000000E+00  0.49752201603E+03  0.19687879256E+04  0.19048878548E+04 0.  0.
        1    1    3    3  502    0  0.73157969915E+03 -0.32200617664E+03 -0.28654423250E+03  0.84911979791E+03  0.50400001928E-02 0. -1.
       -1    1    3    3    0  502 -0.73157969915E+03  0.32200617664E+03  0.78406624853E+03  0.11196681277E+04  0.50400001928E-02 0.  1.
</event>
<event>
 5   0  0.1344119E-05  0.1907269E+04  0.7818609E-02  0.8651247E-01
       -1   -1    0    0    0  501  0.00000000000E+00  0.00000000000E+00  0.53653114612E+03  0.53653114614E+03  0.50400001928E-02 0.  1.
        1   -1    0    0  501    0  0.00000000000E+00  0.00000000000E+00 -0.16949963105E+04  0.16949963105E+04  0.50400001928E-02 0. -1.
    10030    2    1    2    0    0  0.00000000000E+00  0.00000000000E+00 -0.11584651644E+04  0.22315274567E+04  0.19072685319E+04 0.  0.
        2    1    3    3  502    0 -0.89227847318E+03 -0.33223911081E+03 -0.64196327199E+03  0.11483294575E+04  0.25500000920E-02 0. -1.
       -2    1    3    3    0  502  0.89227847318E+03  0.33223911081E+03 -0.51650189242E+03  0.10831979991E+04  0.25500000920E-02 0.  1.
</event>
<event>
 5   0  0.1471485E-05  0.1882387E+04  0.7818609E-02  0.8663673E-01
       -1   -1    0    0    0  501  0.00000000000E+00  0.00000000000E+00  0.65140988043E+03  0.65140988045E+03  0.50400001928E-02 0.  1.
        1   -1    0    0  501    0  0.00000000000E+00  0.00000000000E+00 -0.13598896489E+04  0.13598896489E+04  0.50400001928E-02 0. -1.
    10030    2    1    2    0    0  0.00000000000E+00  0.00000000000E+00 -0.70847976847E+03  0.20112995294E+04  0.18823873710E+04 0.  0.
        4    1    3    3  502    0  0.18538388535E+03  0.77620022523E+03  0.17892148491E+03  0.81784380249E+03  0.12699999809E+01 0.  1.
       -4    1    3    3    0  502 -0.18538388535E+03 -0.77620022523E+03 -0.88740125338E+03  0.11934557269E+04  0.12699999809E+01 0. -1.
</event>
<event>
 5   0  0.2789718E-05  0.1900247E+04  0.7818609E-02  0.8654733E-01
        2   -1    0    0  501    0  0.00000000000E+00  0.00000000000E+00  0.15539333308E+04  0.15539333308E+04  0.25500000920E-02 0.  1.
       -2   -1    0    0    0  501  0.00000000000E+00  0.00000000000E+00 -0.58093529827E+03  0.58093529827E+03  0.25500000920E-02 0. -1.
    10030    2    1    2    0    0  0.00000000000E+00  0.00000000000E+00  0.97299803252E+03  0.21348686291E+04  0.19002470608E+04 0.  0.
        5    1    3    3  502    0 -0.35214615772E+02  0.85879511564E+03  0.94139091745E+03  0.12747580434E+04  0.46999998093E+01 0.  1.
       -5    1    3    3    0  502  0.35214615772E+02 -0.85879511564E+03  0.31607115072E+02  0.86011058564E+03  0.46999998093E+01 0. -1.
</event>
<event>
 5   0  0.1327254E-05  0.1896591E+04  0.7818609E-02  0.8656555E-01
        1   -1    0    0  501    0  0.00000000000E+00  0.00000000000E+00  0.11680017706E+04  0.11680017706E+04  0.50400001928E-02 0. -1.
       -1   -1    0    0    0  501  0.00000000000E+00  0.00000000000E+00 -0.76991679802E+03  0.76991679803E+03  0.50400001928E-02 0.  1.
    10030    2    1    2    0    0  0.00000000000E+00  0.00000000000E+00  0.39808497259E+03  0.19379185686E+04  0.18965908186E+04 0.  0.
        5    1    3    3  502    0  0.62776142344E+03  0.60251229789E+03 -0.18618287511E+03  0.88982673979E+03  0.46999998093E+01 0.  1.
       -5    1    3    3    0  502 -0.62776142344E+03 -0.60251229789E+03  0.58426784770E+03  0.10480918289E+04  0.46999998093E+01 0. -1.
</event>
<event>
 5   0  0.1429067E-05  0.1900919E+04  0.7818609E-02  0.8654399E-01
       -1   -1    0    0    0  501  0.00000000000E+00  0.00000000000E+00  0.73490679593E+03  0.73490679595E+03  0.50400001928E-02 0.  1.
        1   -1    0    0  501    0  0.00000000000E+00  0.00000000000E+00 -0.12292353796E+04  0.12292353797E+04  0.50400001928E-02 0. -1.
    10030    2    1    2    0    0  0.00000000000E+00  0.00000000000E+00 -0.49432858371E+03  0.19641421756E+04  0.19009191822E+04 0.  0.
        3    1    3    3  502    0 -0.33796577751E+03 -0.27460897278E+03  0.62576695127E+03  0.76237473870E+03  0.10100000352E+00 0.  1.
       -3    1    3    3    0  502  0.33796577751E+03  0.27460897278E+03 -0.11200955350E+04  0.12017674369E+04  0.10100000352E+00 0. -1.
</event>
<event>
 5   0  0.2888776E-05  0.1937940E+04  0.7818609E-02  0.8636198E-01
       -2   -1    0    0    0  501  0.00000000000E+00  0.00000000000E+00  0.46708332839E+03  0.46708332839E+03  0.25500000920E-02 0.  1.
        2   -1    0    0  501    0  0.00000000000E+00  0.00000000000E+00 -0.20101400667E+04  0.20101400667E+04  0.25500000920E-02 0. -1.
    10030    2    1    2    0    0  0.00000000000E+00  0.00000000000E+00 -0.15430567383E+04  0.24772233951E+04  0.19379400537E+04 0.  0.
        3    1    3    3  502    0 -0.59359803924E+02  0.66941850093E+02 -0.20048487465E+04  0.20068441156E+04  0.10100000352E+00 0. -1.
       -3    1    3    3    0  502  0.59359803924E+02 -0.66941850093E+02  0.46179200817E+03  0.47037927955E+03  0.10100000352E+00 0.  1.
</event>
<event>
 5   0  0.2789718E-05  0.1840346E+04  0.7818609E-02  0.8685133E-01
        2   -1    0    0  501    0  0.00000000000E+00  0.00000000000E+00  0.10773440030E+04  0.10773440030E+04  0.25500000920E-02 0.  1.
       -2   -1    0    0    0  501  0.00000000000E+00  0.00000000000E+00 -0.78593149483E+03  0.78593149484E+03  0.25500000920E-02 0. -1.
    10030    2    1    2    0    0  0.00000000000E+00  0.00000000000E+00  0.29141250816E+03  0.18632754978E+04  0.18403462530E+04 0.  0.
        5    1    3    3  502    0 -0.10057259393E+01 -0.48924827251E+03  0.93473072774E+03  0.10550395760E+04  0.46999998093E+01 0.  1.
       -5    1    3    3    0  502  0.10057259393E+01  0.48924827251E+03 -0.64331821958E+03  0.80823592179E+03  0.46999998093E+01 0. -1.
</event>
<event>
 5   0  0.1327254E-05  0.1901538E+04  0.7818609E-02  0.8654091E-01
        1   -1    0    0  501    0  0.00000000000E+00  0.00000000000E+00  0.15095942517E+04  0.15095942518E+04  0.50400001928E-02 0. -1.
       -1   -1    0    0    0  501  0.00000000000E+00  0.00000000000E+00 -0.59881134362E+03  0.59881134365E+03  0.50400001928E-02 0.  1.
    10030    2    1    2    0    0  0.00000000000E+00  0.00000000000E+00  0.91078290812E+03  0.21084055954E+04  0.19015384953E+04 0.  0.
        5    1    3    3  502    0  0.58397325597E+02 -0.66248139859E+03 -0.29797212647E+03  0.72876699244E+03  0.46999998093E+01 0.  1.
       -5    1    3    3    0  502 -0.58397325597E+02  0.66248139859E+03  0.12087550346E+04  0.13796386030E+04  0.46999998093E+01 0. -1.
</event>
<event>
 5   0  0.1344119E-05  0.1899095E+04  0.7818609E-02  0.8655307E-01
       -1   -1    0    0    0  501  0.00000000000E+00  0.00000000000E+00  0.82322557129E+03  0.82322557131E+03  0.50400001928E-02 0. -1.
        1   -1    0    0  501    0  0.00000000000E+00  0.00000000000E+00 -0.10952534535E+04  0.10952534535E+04  0.50400001928E-02 0.  1.
    10030    2    1    2    0    0  0.00000000000E+00  0.00000000000E+00 -0.27202788224E+03  0.19184790249E+04  0.18990952056E+04 0.  0.
        2    1    3    3  502    0 -0.13782888973E+02 -0.22376273175E+03 -0.10681349037E+04  0.10914082191E+04  0.25500000920E-02 0.  1.
       -2    1    3    3    0  502  0.13782888973E+02  0.22376273175E+03  0.79610702146E+03  0.82707080578E+03  0.25500000920E-02 0. -1.
</event>
<event>
 5   0  0.2879462E-05  0.1899409E+04  0.7818609E-02  0.8655151E-01
        2   -1    0    0  501    0  0.00000000000E+00  0.00000000000E+00  0.88042447229E+03  0.88042447229E+03  0.25500000920E-02 0. -1.
       -2   -1    0    0    0  501  0.00000000000E+00  0.00000000000E+00 -0.10244360275E+04  0.10244360275E+04  0.25500000920E-02 0.  1.
    10030    2    1    2    0    0  0.00000000000E+00  0.00000000000E+00 -0.14401155523E+03  0.19048604998E+04  0.18994089069E+04 0.  0.
        4    1    3    3  502    0  0.36996858761E+03 -0.88803282247E+01 -0.94914821049E+03  0.10187441064E+04  0.12699999809E+01 0.  1.
       -4    1    3    3    0  502 -0.36996858761E+03  0.88803282247E+01  0.80513665526E+03  0.88611639337E+03  0.12699999809E+01 0. -1.
</event>
<event>
 5   0  0.1010725E-05  0.1900487E+04  0.7818609E-02  0.8654614E-01
        4   -1    0    0  501    0  0.00000000000E+00  0.00000000000E+00  0.16161709140E+04  0.16161714130E+04  0.12699999809E+01 0.  1.
       -4   -1    0    0    0  501  0.00000000000E+00  0.00000000000E+00 -0.55870382364E+03  0.55870526707E+03  0.12699999809E+01 0. -1.
    10030    2    1    2    0    0  0.00000000000E+00  0.00000000000E+00  0.10574670904E+04  0.21748766801E+04  0.19004872865E+04 0.  0.
        2    1    3    3  502    0  0.23886992615E+03  0.33207436828E+03 -0.45278747864E+03  0.61020384177E+03  0.25500000920E-02 0. -1.
       -2    1    3    3    0  502 -0.23886992615E+03 -0.33207436828E+03  0.15102545690E+04  0.15646728383E+04  0.25500000920E-02 0.  1.
</event>
<event>
 5   0  0.1413011E-05  0.1896190E+04  0.7818609E-02  0.8656755E-01
        1   -1    0    0  501    0  0.00000000000E+00  0.00000000000E+00  0.10866888629E+04  0.10866888629E+04  0.50400001928E-02 0. -1.
       -1   -1    0    0    0  501  0.00000000000E+00  0.00000000000E+00 -0.82717710645E+03  0.82717710647E+03  0.50400001928E-02 0.  1.
    10030    2    1    2    0    0  0.00000000000E+00  0.00000000000E+00  0.25951175648E+03  0.19138659694E+04  0.18961900214E+04 0.  0.
        1    1    3    3  502    0  0.69422769377E+03 -0.61857423874E+03 -0.57167606657E+02  0.93158698730E+03  0.50400001928E-02 0.  1.
       -1    1    3    3    0  502 -0.69422769377E+03  0.61857423874E+03  0.31667936314E+03  0.98227898211E+03  0.50400001928E-02 0. -1.
</event>
<event>
 5   0  0.2813537E-05  0.1902546E+04  0.7818609E-02  0.8653590E-01
        2   -1    0    0  501    0  0.00000000000E+00  0.00000000000E+00  0.14505229939E+04  0.14505229940E+04  0.25500000920E-02 0. -1.
       -2   -1    0    0    0  501  0.00000000000E+00  0.00000000000E+00 -0.62385823142E+03  0.62385823143E+03  0.25500000920E-02 0.  1.
    10030    2    1    2    0    0  0.00000000000E+00  0.00000000000E+00  0.82666476253E+03  0.20743812254E+04  0.19025464091E+04 0.  0.
        2    1    3    3  502    0  0.73158641775E+03  0.58006821384E+03  0.21459845175E+03  0.95799285741E+03  0.25500000920E-02 0.  1.
       -2    1    3    3    0  502 -0.73158641775E+03 -0.58006821384E+03  0.61206631077E+03  0.11163883680E+04  0.25500000920E-02 0. -1.
</event>
<event>
 5   0  0.1344119E-05  0.1898754E+04  0.7818609E-02  0.8655477E-01
       -1   -1    0    0    0  501  0.00000000000E+00  0.00000000000E+00  0.12840074561E+04  0.12840074561E+04  0.50400001928E-02 0.  1.
        1   -1    0    0  501    0  0.00000000000E+00  0.00000000000E+00 -0.70195577238E+03  0.70195577240E+03  0.50400001928E-02 0. -1.
    10030    2    1    2    0    0  0.00000000000E+00  0.00000000000E+00  0.58205168372E+03  0.19859632285E+04  0.18987537446E+04 0.  0.
        2    1    3    3  502    0 -0.18329543691E+03  0.88902763335E+03  0.13491223211E+00  0.90772648318E+03  0.25500000920E-02 0. -1.
       -2    1    3    3    0  502  0.18329543691E+03 -0.88902763335E+03  0.58191677149E+03  0.10782367453E+04  0.25500000920E-02 0.  1.
</event>
<event>
 5   0  0.2855141E-05  0.1900194E+04  0.7818609E-02  0.8654760E-01
        2   -1    0    0  501    0  0.00000000000E+00  0.00000000000E+00  0.90092480752E+03  0.90092480752E+03  0.25500000920E-02 0.  1.
       -2   -1    0    0    0  501  0.00000000000E+00  0.00000000000E+00 -0.10019527716E+04  0.10019527716E+04  0.25500000920E-02 0. -1.
    10030    2    1    2    0    0  0.00000000000E+00  0.00000000000E+00 -0.10102796403E+03  0.19028775791E+04  0.19001937879E+04 0.  0.
        1    1    3    3  502    0  0.89206231633E+03 -0.29792843620E+03  0.84389232162E+02  0.94427648061E+03  0.50400001928E-02 0.  1.
       -1    1    3    3    0  502 -0.89206231633E+03  0.29792843620E+03 -0.18541719619E+03  0.95860109847E+03  0.50400001928E-02 0. -1.
</event>
<event>
 5   0  0.1429067E-05  0.1898629E+04  0.7818609E-02  0.8655539E-01
       -1   -1    0    0    0  501  0.00000000000E+00  0.00000000000E+00  0.50481141625E+03  0.50481141628E+03  0.50400001928E-02 0.  1.
        1   -1    0    0  501    0  0.00000000000E+00  0.00000000000E+00 -0.17852166274E+04  0.17852166274E+04  0.50400001928E-02 0. -1.
    10030    2    1    2    0    0  0.00000000000E+00  0.00000000000E+00 -0.12804052112E+04  0.22900280437E+04  0.18986286989E+04 0.  0.
        3    1    3    3  502    0  0.59931646948E+03 -0.36664738622E+02  0.24668416589E+03  0.64913605781E+03  0.10100000352E+00 0.  1.
       -3    1    3    3    0  502 -0.59931646948E+03  0.36664738622E+02 -0.15270893771E+04  0.16408919859E+04  0.10100000352E+00 0. -1.
</event>
<event>
 5   0  0.1429067E-05  0.1873537E+04  0.7818609E-02  0.8668142E-01
        1   -1    0    0  501    0  0.00000000000E+00  0.00000000000E+00  0.99402485094E+03  0.99402485095E+03  0.50400001928E-02 0. -1.
       -1   -1    0    0    0  501  0.00000000000E+00  0.00000000000E+00 -0.88280973767E+03  0.88280973768E+03  0.50400001928E-02 0.  1.
    10030    2    1    2    0    0  0.00000000000E+00  0.00000000000E+00  0.11121511327E+03  0.18768345886E+04  0.18735365680E+04 0.  0.
        3    1    3    3  502    0  0.25132979685E+03 -0.85458882819E+03  0.34602489734E+03  0.95562648134E+03  0.10100000352E+00 0. -1.
       -3    1    3    3    0  502 -0.25132979685E+03  0.85458882819E+03 -0.23480978407E+03  0.92120810730E+03  0.10100000352E+00 0.  1.
</event>
<event>
 5   0  0.2879462E-05  0.1901601E+04  0.7818609E-02  0.8654060E-01
       -2   -1    0    0    0  501  0.00000000000E+00  0.00000000000E+00  0.13016478051E+04  0.13016478051E+04  0.25500000920E-02 0.  1.
        2   -1    0    0  501    0  0.00000000000E+00  0.00000000000E+00 -0.69452065387E+03  0.69452065387E+03  0.25500000920E-02 0. -1.
    10030    2    1    2    0    0  0.00000000000E+00  0.00000000000E+00  0.60712715127E+03  0.19961684590E+04  0.19016006781E+04 0.  0.
        4    1    3    3  502    0  0.38361875827E+03  0.78439624904E+02 -0.60595610086E+03  0.72145723056E+03  0.12699999809E+01 0. -1.
       -4    1    3    3    0  502 -0.38361875827E+03 -0.78439624904E+02  0.12130832521E+04  0.12747112285E+04  0.12699999809E+01 0.  1.
</event>
<event>
 5   0  0.2855141E-05  0.1903374E+04  0.7818609E-02  0.8653179E-01
        2   -1    0    0  501    0  0.00000000000E+00  0.00000000000E+00  0.88334319823E+03  0.88334319824E+03  0.25500000920E-02 0.  1.
       -2   -1    0    0    0  501  0.00000000000E+00  0.00000000000E+00 -0.10253181048E+04  0.10253181048E+04  0.25500000920E-02 0. -1.
    10030    2    1    2    0    0  0.00000000000E+00  0.00000000000E+00 -0.14197490653E+03  0.19086613030E+04  0.19033736090E+04 0.  0.
        1    1    3    3  502    0  0.49996245879E+03 -0.39090670709E+01  0.74103373718E+03  0.89392882304E+03  0.50400001928E-02 0.  1.
       -1    1    3    3    0  502 -0.49996245879E+03  0.39090670709E+01 -0.88300864371E+03  0.10147324800E+04  0.50400001928E-02 0. -1.
</event>
<event>
 5   0  0.1344119E-05  0.1858481E+04  0.7818609E-02  0.8675803E-01
        1   -1    0    0  501    0  0.00000000000E+00  0.00000000000E+00  0.18890891132E+04  0.18890891132E+04  0.50400001928E-02 0. -1.
       -1   -1    0    0    0  501  0.00000000000E+00  0.00000000000E+00 -0.45709241617E+03  0.45709241620E+03  0.50400001928E-02 0.  1.
    10030    2    1    2    0    0  0.00000000000E+00  0.00000000000E+00  0.14319966970E+04  0.23461815294E+04  0.18584814308E+04 0.  0.
        2    1    3    3  502    0 -0.55927245740E+03 -0.65069811712E+03  0.26558800893E+03  0.89818189234E+03  0.25500000920E-02 0.  1.
       -2    1    3    3    0  502  0.55927245740E+03  0.65069811712E+03  0.11664086881E+04  0.14479996370E+04  0.25500000920E-02 0. -1.
</event>
<event>
 5   0  0.1471485E-05  0.1902696E+04  0.7818609E-02  0.8653515E-01
       -1   -1    0    0    0  501  0.00000000000E+00  0.00000000000E+00  0.50783723085E+03  0.50783723087E+03  0.50400001928E-02 0. -1.
        1   -1    0    0  501    0  0.00000000000E+00  0.00000000000E+00 -0.17821916845E+04  0.17821916845E+04  0.50400001928E-02 0.  1.
    10030    2    1    2    0    0  0.00000000000E+00  0.00000000000E+00 -0.12743544537E+04  0.22900289154E+04  0.19026962868E+04 0.  0.
        4    1    3    3  502    0 -0.76651549803E+03  0.76390459485E+02 -0.13091103939E+04  0.15189315809E+04  0.12699999809E+01 0.  1.
       -4    1    3    3    0  502  0.76651549803E+03 -0.76390459485E+02  0.34755940241E+02  0.77109733452E+03  0.12699999809E+01 0. -1.
</event>
<event>
 5   0  0.1327254E-05  0.1883300E+04  0.7818609E-02  0.8663214E-01
       -1   -1    0    0    0  501  0.00000000000E+00  0.00000000000E+00  0.59340321816E+03  0.59340321819E+03  0.50400001928E-02 0.  1.
        1   -1    0    0  501    0  0.00000000000E+00  0.00000000000E+00 -0.14942703238E+04  0.14942703238E+04  0.50400001928E-02 0. -1.
    10030    2    1    2    0    0  0.00000000000E+00  0.00000000000E+00 -0.90086710563E+03  0.20876735420E+04  0.18833001025E+04 0.  0.
        5    1    3    3  502    0 -0.79450238199E+02  0.87367729313E+03 -0.82969989637E+03  0.12074967333E+04  0.46999998093E+01 0.  1.
       -5    1    3    3    0  502  0.79450238199E+02 -0.87367729313E+03 -0.71167209251E+02  0.88017680869E+03  0.46999998093E+01 0. -1.
</event>
<event>
 5   0  0.2813537E-05  0.1900294E+04  0.7818609E-02  0.8654710E-01
       -2   -1    0    0    0  501  0.00000000000E+00  0.00000000000E+00  0.64048741206E+03  0.64048741206E+03  0.25500000920E-02 0.  1.
        2   -1    0    0  501    0  0.00000000000E+00  0.00000000000E+00 -0.14095185963E+04  0.14095185963E+04  0.25500000920E-02 0. -1.
    10030    2    1    2    0    0  0.00000000000E+00  0.00000000000E+00 -0.76903118424E+03  0.20500060084E+04  0.19002935752E+04 0.  0.
        2    1    3    3  502    0 -0.71125093146E+03 -0.37094199225E+03  0.16482066261E+03  0.81892716401E+03  0.25500000920E-02 0.  1.
       -2    1    3    3    0  502  0.71125093146E+03  0.37094199225E+03 -0.93385184685E+03  0.12310788443E+04  0.25500000920E-02 0. -1.
</event>
<event>
 5   0  0.1471485E-05  0.1906014E+04  0.7818609E-02  0.8651869E-01
        1   -1    0    0  501    0  0.00000000000E+00  0.00000000000E+00  0.11015586501E+04  0.11015586501E+04  0.50400001928E-02 0. -1.
       -1   -1    0    0    0  501  0.00000000000E+00  0.00000000000E+00 -0.82448845701E+03  0.82448845702E+03  0.50400001928E-02 0.  1.
    10030    2    1    2    0    0  0.00000000000E+00  0.00000000000E+00  0.27707019306E+03  0.19260471071E+04  0.19060140521E+04 0.  0.
        4    1    3    3  502    0  0.71075873024E+03  0.36888470196E+03  0.66065410191E+03  0.10381326270E+04  0.12699999809E+01 0. -1.
       -4    1    3    3    0  502 -0.71075873024E+03 -0.36888470196E+03 -0.38358390885E+03  0.88791448011E+03  0.12699999809E+01 0.  1.
</event>
<event>
 5   0  0.2789718E-05  0.1893449E+04  0.7818609E-02  0.8658124E-01
       -2   -1    0    0    0  501  0.00000000000E+00  0.00000000000E+00  0.74941675180E+03  0.74941675180E+03  0.25500000920E-02 0.  1.
        2   -1    0    0  501    0  0.00000000000E+00  0.00000000000E+00 -0.11959793747E+04  0.11959793747E+04  0.25500000920E-02 0. -1.
    10030    2    1    2    0    0  0.00000000000E+00  0.00000000000E+00 -0.44656262292E+03  0.19453961265E+04  0.18934486824E+04 0.  0.
        5    1    3    3  502    0  0.90108790028E+03  0.27972630807E+03 -0.30325431350E+03  0.99105574017E+03  0.46999998093E+01 0.  1.
       -5    1    3    3    0  502 -0.90108790028E+03 -0.27972630807E+03 -0.14330830942E+03  0.95434038635E+03  0.46999998093E+01 0. -1.
</event>
<event>
 5   0  0.1327254E-05  0.1901403E+04  0.7818609E-02  0.8654158E-01
       -1   -1    0    0    0  501  0.00000000000E+00  0.00000000000E+00  0.48357127687E+03  0.48357127689E+03  0.50400001928E-02 0. -1.
        1   -1    0    0  501    0  0.00000000000E+00  0.00000000000E+00 -0.18690801739E+04  0.18690801739E+04  0.50400001928E-02 0.  1.
    10030    2    1    2    0    0  0.00000000000E+00  0.00000000000E+00 -0.13855088970E+04  0.23526514508E+04  0.19014031517E+04 0.  0.
        5    1    3    3  502    0 -0.14087567900E+03 -0.92091392061E+03 -0.92713830416E+03  0.13143576116E+04  0.46999998093E+01 0. -1.
       -5    1    3    3    0  502  0.14087567900E+03  0.92091392061E+03 -0.45837059285E+03  0.10382938392E+04  0.46999998093E+01 0.  1.
</event>
<event>
 5   0  0.1413011E-05  0.1906116E+04  0.7818609E-02  0.8651818E-01
        1   -1    0    0  501    0  0.00000000000E+00  0.00000000000E+00  0.74672217861E+03  0.74672217863E+03  0.50400001928E-02 0.  1.
       -1   -1    0    0    0  501  0.00000000000E+00  0.00000000000E+00 -0.12164083725E+04  0.12164083725E+04  0.50400001928E-02 0. -1.
    10030    2    1    2    0    0  0.00000000000E+00  0.00000000000E+00 -0.46968619384E+03  0.19631305511E+04  0.19061155369E+04 0.  0.
        1    1    3    3  502    0 -0.61325517891E+03  0.50121976060E+03  0.31112270890E+03  0.85094095147E+03  0.50400001928E-02 0. -1.
       -1    1    3    3    0  502  0.61325517891E+03 -0.50121976060E+03 -0.78080890275E+03  0.11121895996E+04  0.50400001928E-02 0.  1.
</event>
<event>
 5   0  0.2813537E-05  0.1899148E+04  0.7818609E-02  0.8655281E-01
        2   -1    0    0  501    0  0.00000000000E+00  0.00000000000E+00  0.15175660228E+04  0.15175660228E+04  0.25500000920E-02 0.  1.
       -2   -1    0    0    0  501  0.00000000000E+00  0.00000000000E+00 -0.59416903565E+03  0.59416903566E+03  0.25500000920E-02 0. -1.
    10030    2    1    2    0    0  0.00000000000E+00  0.00000000000E+00  0.92339698719E+03  0.21117350585E+04  0.18991479567E+04 0.  0.
        2    1    3    3  502    0  0.35262558809E+02 -0.36723428033E+03  0.14346197661E+04  0.14812961682E+04  0.25500000920E-02 0.  1.
       -2    1    3    3    0  502 -0.35262558809E+02  0.36723428033E+03 -0.51122277890E+03  0.63043889028E+03  0.25500000920E-02 0. -1.
</event>
<event>
 5   0  0.1327254E-05  0.1900103E+04  0.7818609E-02  0.8654805E-01
        1   -1    0    0  501    0  0.00000000000E+00  0.00000000000E+00  0.78986229346E+03  0.78986229347E+03  0.50400001928E-02 0. -1.
       -1   -1    0    0    0  501  0.00000000000E+00  0.00000000000E+00 -0.11427283537E+04  0.11427283537E+04  0.50400001928E-02 0.  1.
    10030    2    1    2    0    0  0.00000000000E+00  0.00000000000E+00 -0.35286606020E+03  0.19325906471E+04  0.19001031954E+04 0.  0.
        5    1    3    3  502    0  0.73788332480E+03  0.50601029011E+03  0.14849385322E+03  0.90696787658E+03  0.46999998093E+01 0. -1.
       -5    1    3    3    0  502 -0.73788332480E+03 -0.50601029011E+03 -0.50135991342E+03  0.10256227706E+04  0.46999998093E+01 0.  1.
</event>
<event>
 5   0  0.2855141E-05  0.1908158E+04  0.7818609E-02  0.8650806E-01
       -2   -1    0    0    0  501  0.00000000000E+00  0.00000000000E+00  0.80203853212E+03  0.80203853212E+03  0.25500000920E-02 0. -1.
        2   -1    0    0  501    0  0.00000000000E+00  0.00000000000E+00 -0.11349411803E+04  0.11349411803E+04  0.25500000920E-02 0.  1.
    10030    2    1    2    0    0  0.00000000000E+00  0.00000000000E+00 -0.33290264817E+03  0.19369797124E+04  0.19081578114E+04 0.  0.
        1    1    3    3  502    0 -0.13704919214E+02 -0.34801477774E+03  0.73520181556E+03  0.81352554967E+03  0.50400001928E-02 0. -1.
       -1    1    3    3    0  502  0.13704919214E+02  0.34801477774E+03 -0.10681044637E+04  0.11234541627E+04  0.50400001928E-02 0.  1.
</event>
<event>
 5   0  0.1413011E-05  0.1890696E+04  0.7818609E-02  0.8659502E-01
        1   -1    0    0  501    0  0.00000000000E+00  0.00000000000E+00  0.20182552115E+04  0.20182552115E+04  0.50400001928E-02 0. -1.
       -1   -1    0    0    0  501  0.00000000000E+00  0.00000000000E+00 -0.44279967927E+03  0.44279967930E+03  0.50400001928E-02 0.  1.
    10030    2    1    2    0    0  0.00000000000E+00  0.00000000000E+00  0.15754555322E+04  0.24610548908E+04  0.18906959146E+04 0.  0.
        1    1    3    3  502    0  0.61437146931E+03  0.75103114010E+02 -0.14238532813E+03  0.63511129869E+03  0.50400001928E-02 0.  1.
       -1    1    3    3    0  502 -0.61437146931E+03 -0.75103114010E+02  0.17178408603E+04  0.18259435921E+04  0.50400001928E-02 0. -1.
</event>
<event>
 5   0  0.1344119E-05  0.1919370E+04  0.7818609E-02  0.8645275E-01
       -1   -1    0    0    0  501  0.00000000000E+00  0.00000000000E+00  0.12814136466E+04  0.12814136466E+04  0.50400001928E-02 0. -1.
        1   -1    0    0  501    0  0.00000000000E+00  0.00000000000E+00 -0.71873349322E+03  0.71873349323E+03  0.50400001928E-02 0.  1.
    10030    2    1    2    0    0  0.00000000000E+00  0.00000000000E+00  0.56268015341E+03  0.20001471399E+04  0.19193695908E+04 0.  0.
        2    1    3    3  502    0  0.23779569820E+02 -0.71873975448E+03  0.94357091742E+03  0.11863719395E+04  0.25500000920E-02 0. -1.
       -2    1    3    3    0  502 -0.23779569820E+02  0.71873975448E+03 -0.38089076402E+03  0.81377520037E+03  0.25500000920E-02 0.  1.
</event>
<event>
 5   0  0.2879462E-05  0.1907653E+04  0.7818609E-02  0.8651056E-01
       -2   -1    0    0    0  501  0.00000000000E+00  0.00000000000E+00  0.89415647175E+03  0.89415647176E+03  0.25500000920E-02 0.  1.
        2   -1    0    0  501    0  0.00000000000E+00  0.00000000000E+00 -0.10174789200E+04  0.10174789200E+04  0.25500000920E-02 0. -1.
    10030    2    1    2    0    0  0.00000000000E+00  0.00000000000E+00 -0.12332244822E+03  0.19116353917E+04  0.19076533869E+04 0.  0.
        4    1    3    3  502    0 -0.84051139503E+03  0.21855675492E+02  0.38966392931E+03  0.92670203756E+03  0.12699999809E+01 0.  1.
       -4    1    3    3    0  502  0.84051139503E+03 -0.21855675492E+02 -0.51298637753E+03  0.98493335417E+03  0.12699999809E+01 0. -1.
</event>
<event>
 5   0  0.2813537E-05  0.1897073E+04  0.7818609E-02  0.8656315E-01
        2   -1    0    0  501    0  0.00000000000E+00  0.00000000000E+00  0.95374489330E+03  0.95374489330E+03  0.25500000920E-02 0. -1.
       -2   -1    0    0    0  501  0.00000000000E+00  0.00000000000E+00 -0.94335620616E+03  0.94335620616E+03  0.25500000920E-02 0.  1.
    10030    2    1    2    0    0  0.00000000000E+00  0.00000000000E+00  0.10388687141E+02  0.18971010995E+04  0.18970726546E+04 0.  0.
        2    1    3    3  502    0 -0.68135837082E+03  0.34707801800E+03  0.56645919258E+03  0.95162408383E+03  0.25500000920E-02 0. -1.
       -2    1    3    3    0  502  0.68135837082E+03 -0.34707801800E+03 -0.55607050544E+03  0.94547701563E+03  0.25500000920E-02 0.  1.
</event>
<event>
 5   0  0.2879462E-05  0.1898506E+04  0.7818609E-02  0.8655601E-01
       -2   -1    0    0    0  501  0.00000000000E+00  0.00000000000E+00  0.11789157470E+04  0.11789157470E+04  0.25500000920E-02 0.  1.
        2   -1    0    0  501    0  0.00000000000E+00  0.00000000000E+00 -0.76433010122E+03  0.76433010123E+03  0.25500000920E-02 0. -1.
    10030    2    1    2    0    0  0.00000000000E+00  0.00000000000E+00  0.41458564576E+03  0.19432458482E+04  0.18985055093E+04 0.  0.
        4    1    3    3  502    0  0.28229516875E+03  0.32431606664E+03  0.10735271330E+04  0.11564314038E+04  0.12699999809E+01 0.  1.
       -4    1    3    3    0  502 -0.28229516875E+03 -0.32431606664E+03 -0.65894148729E+03  0.78681444442E+03  0.12699999809E+01 0. -1.
</event>
<event>
 5   0  0.1344119E-05  0.1900283E+04  0.7818609E-02  0.8654716E-01
       -1   -1    0    0    0  501  0.00000000000E+00  0.00000000000E+00  0.96089733808E+03  0.96089733810E+03  0.50400001928E-02 0.  1.
        1   -1    0    0  501    0  0.00000000000E+00  0.00000000000E+00 -0.93950590036E+03  0.93950590037E+03  0.50400001928E-02 0. -1.
    10030    2    1    2    0    0  0.00000000000E+00  0.00000000000E+00  0.21391437729E+02  0.19004032385E+04  0.19002828408E+04 0.  0.
        2    1    3    3  502    0 -0.78654563371E+03  0.31944167473E+03  0.43742136065E+03  0.95500495508E+03  0.25500000920E-02 0. -1.
       -2    1    3    3    0  502  0.78654563371E+03 -0.31944167473E+03 -0.41602992292E+03  0.94539828339E+03  0.25500000920E-02 0.  1.
</event>
<event>
 5   0  0.2855141E-05  0.1938770E+04  0.7818609E-02  0.8635795E-01
       -2   -1    0    0    0  501  0.00000000000E+00  0.00000000000E+00  0.51170188833E+03  0.51170188833E+03  0.25500000920E-02 0. -1.
        2   -1    0    0  501    0  0.00000000000E+00  0.00000000000E+00 -0.18364341855E+04  0.18364341855E+04  0.25500000920E-02 0.  1.
    10030    2    1    2    0    0  0.00000000000E+00  0.00000000000E+00 -0.13247322972E+04  0.23481360739E+04  0.19387695485E+04 0.  0.
        1    1    3    3  502    0 -0.18872326958E+03  0.20884285681E+03 -0.17858483760E+04  0.18078955261E+04  0.50400001928E-02 0.  1.
       -1    1    3    3    0  502  0.18872326958E+03 -0.20884285681E+03  0.46111607877E+03  0.54024054776E+03  0.50400001928E-02 0. -1.
</event>
<event>
 5   0  0.1471485E-05  0.1900444E+04  0.7818609E-02  0.8654636E-01
       -1   -1    0    0    0  501  0.00000000000E+00  0.00000000000E+00  0.12980690966E+04  0.12980690966E+04  0.50400001928E-02 0.  1.
        1   -1    0    0  501    0  0.00000000000E+00  0.00000000000E+00 -0.69558808732E+03  0.69558808733E+03  0.50400001928E-02 0. -1.
    10030    2    1    2    0    0  0.00000000000E+00  0.00000000000E+00  0.60248100928E+03  0.19936571839E+04  0.19004435273E+04 0.  0.
        4    1    3    3  502    0  0.58159536826E+03 -0.43774883909E+03  0.94196998947E+03  0.11904563379E+04  0.12699999809E+01 0.  1.
       -4    1    3    3    0  502 -0.58159536826E+03  0.43774883909E+03 -0.33948898019E+03  0.80320084603E+03  0.12699999809E+01 0. -1.
</event>
<event>
 5   0  0.1344119E-05  0.1896818E+04  0.7818609E-02  0.8656442E-01
        1   -1    0    0  501    0  0.00000000000E+00  0.00000000000E+00  0.13254459237E+04  0.13254459237E+04  0.50400001928E-02 0. -1.
       -1   -1    0    0    0  501  0.00000000000E+00  0.00000000000E+00 -0.67862410786E+03  0.67862410788E+03  0.50400001928E-02 0.  1.
    10030    2    1    2    0    0  0.00000000000E+00  0.00000000000E+00  0.64682181582E+03  0.20040700316E+04  0.18968179222E+04 0.  0.
        2    1    3    3  502    0  0.67866516498E+03 -0.50939559675E+03 -0.12410625703E+03  0.85759701678E+03  0.25500000920E-02 0.  1.
       -2    1    3    3    0  502 -0.67866516498E+03  0.50939559675E+03  0.77092807285E+03  0.11464730148E+04  0.25500000920E-02 0. -1.
</event>
<event>
 5   0  0.1413011E-05  0.1901731E+04  0.7818609E-02  0.8653995E-01
       -1   -1    0    0    0  501  0.00000000000E+00  0.00000000000E+00  0.61621656947E+03  0.61621656950E+03  0.50400001928E-02 0. -1.
        1   -1    0    0  501    0  0.00000000000E+00  0.00000000000E+00 -0.14672523954E+04  0.14672523954E+04  0.50400001928E-02 0.  1.
    10030    2    1    2    0    0  0.00000000000E+00  0.00000000000E+00 -0.85103582594E+03  0.20834689649E+04  0.19017310406E+04 0.  0.
        1    1    3    3  502    0 -0.32778795756E+03  0.78432910089E+01 -0.14033598545E+04  0.14411541707E+04  0.50400001928E-02 0.  1.
       -1    1    3    3    0  502  0.32778795756E+03 -0.78432910089E+01  0.55232402858E+03  0.64231479425E+03  0.50400001928E-02 0. -1.
</event>
<event>
 5   0  0.2855141E-05  0.1897854E+04  0.7818609E-02  0.8655925E-01
        2   -1    0    0  501    0  0.00000000000E+00  0.00000000000E+00  0.18347499382E+04  0.18347499382E+04  0.25500000920E-02 0.  1.
       -2   -1    0    0    0  501  0.00000000000E+00  0.00000000000E+00 -0.49078211964E+03  0.49078211965E+03  0.25500000920E-02 0. -1.
    10030    2    1    2    0    0  0.00000000000E+00  0.00000000000E+00  0.13439678186E+04  0.23255320579E+04  0.18978540130E+04 0.  0.
        1    1    3    3  502    0 -0.16138493765E+03  0.21231557484E+03  0.17878849782E+04  0.18076658144E+04  0.50400001928E-02 0.  1.
       -1    1    3    3    0  502  0.16138493765E+03 -0.21231557484E+03 -0.44391715963E+03  0.51786624341E+03  0.50400001928E-02 0. -1.
</event>
<event>
 5   0  0.1429067E-05  0.1901515E+04  0.7818609E-02  0.8654102E-01
       -1   -1    0    0    0  501  0.00000000000E+00  0.00000000000E+00  0.12297170873E+04  0.12297170873E+04  0.50400001928E-02 0. -1.
        1   -1    0    0  501    0  0.00000000000E+00  0.00000000000E+00 -0.73507979208E+03  0.73507979210E+03  0.50400001928E-02 0.  1.
    10030    2    1    2    0    0  0.00000000000E+00  0.00000000000E+00  0.49463729524E+03  0.19647968794E+04  0.19015153756E+04 0.  0.
        3    1    3    3  502    0  0.12092086081E+03 -0.77231187098E+03  0.80648679877E+03  0.11231689309E+04  0.10100000352E+00 0. -1.
       -3    1    3    3    0  502 -0.12092086081E+03  0.77231187098E+03 -0.31184950353E+03  0.84162794850E+03  0.10100000352E+00 0.  1.
</event>
<event>
 5   0  0.1327254E-05  0.1898239E+04  0.7818609E-02  0.8655733E-01
        1   -1    0    0  501    0  0.00000000000E+00  0.00000000000E+00  0.26196544845E+04  0.26196544845E+04  0.50400001928E-02 0.  1.
       -1   -1    0    0    0  501  0.00000000000E+00  0.00000000000E+00 -0.34387278929E+03  0.34387278932E+03  0.50400001928E-02 0. -1.
    10030    2    1    2    0    0  0.00000000000E+00  0.00000000000E+00  0.22757816952E+04  0.29635272738E+04  0.18982390731E+04 0.  0.
        5    1    3    3  502    0  0.19103484102E+03  0.89968877205E+03  0.15035966591E+04  0.17626001249E+04  0.46999998093E+01 0. -1.
       -5    1    3    3    0  502 -0.19103484102E+03 -0.89968877205E+03  0.77218503612E+03  0.12009271489E+04  0.46999998093E+01 0.  1.
</event>
<event>
 5   0  0.1429067E-05  0.1900360E+04  0.7818609E-02  0.8654677E-01
       -1   -1    0    0    0  501  0.00000000000E+00  0.00000000000E+00  0.53201412960E+03  0.53201412963E+03  0.50400001928E-02 0.  1.
        1   -1    0    0  501    0  0.00000000000E+00  0.00000000000E+00 -0.16970267116E+04  0.16970267116E+04  0.50400001928E-02 0. -1.
    10030    2    1    2    0    0  0.00000000000E+00  0.00000000000E+00 -0.11650125820E+04  0.22290408412E+04  0.19003601647E+04 0.  0.
        3    1    3    3  502    0 -0.34869548700E+03 -0.48110576671E+03 -0.14522291249E+04  0.15690827712E+04  0.10100000352E+00 0. -1.
       -3    1    3    3    0  502  0.34869548700E+03  0.48110576671E+03  0.28721654295E+03  0.65995807000E+03  0.10100000352E+00 0.  1.
</event>
<event>
 5   0  0.2813537E-05  0.1898684E+04  0.7818609E-02  0.8655512E-01
       -2   -1    0    0    0  501  0.00000000000E+00  0.00000000000E+00  0.14317349104E+04  0.14317349104E+04  0.25500000920E-02 0. -1.
        2   -1    0    0  501    0  0.00000000000E+00  0.00000000000E+00 -0.62948118231E+03  0.62948118231E+03  0.25500000920E-02 0.  1.
    10030    2    1    2    0    0  0.00000000000E+00  0.00000000000E+00  0.80225372808E+03  0.20612160927E+04  0.18986839486E+04 0.  0.
        2    1    3    3  502    0  0.27096610416E+02 -0.82306954953E+03  0.91386289593E+03  0.12301719808E+04  0.25500000920E-02 0. -1.
       -2    1    3    3    0  502 -0.27096610416E+02  0.82306954953E+03 -0.11160916785E+03  0.83104411196E+03  0.25500000920E-02 0.  1.
</event>
<event>
 5   0  0.2813537E-05  0.1902239E+04  0.7818609E-02  0.8653743E-01
        2   -1    0    0  501    0  0.00000000000E+00  0.00000000000E+00  0.83523451828E+03  0.83523451829E+03  0.25500000920E-02 0. -1.
       -2   -1    0    0    0  501  0.00000000000E+00  0.00000000000E+00 -0.10830824897E+04  0.10830824897E+04  0.25500000920E-02 0.  1.
    10030    2    1    2    0    0  0.00000000000E+00  0.00000000000E+00 -0.24784797138E+03  0.19183170080E+04  0.19022385566E+04 0.  0.
        2    1    3    3  502    0  0.47667881434E+02  0.90527936849E+03 -0.41414971324E+03  0.99665588189E+03  0.25500000920E-02 0. -1.
       -2    1    3    3    0  502 -0.47667881434E+02 -0.90527936849E+03  0.16630174186E+03  0.92166112606E+03  0.25500000920E-02 0.  1.
</event>
<event>
 5   0  0.2879462E-05  0.1899368E+04  0.7818609E-02  0.8655171E-01
        2   -1    0    0  501    0  0.00000000000E+00  0.00000000000E+00  0.16162654629E+04  0.16162654629E+04  0.25500000920E-02 0.  1.
       -2   -1    0    0    0  501  0.00000000000E+00  0.00000000000E+00 -0.55801439961E+03  0.55801439961E+03  0.25500000920E-02 0. -1.
    10030    2    1    2    0    0  0.00000000000E+00  0.00000000000E+00  0.10582510633E+04  0.21742798625E+04  0.18993676863E+04 0.  0.
        4    1    3    3  502    0 -0.33856634576E+02 -0.93253643896E+03  0.73109102520E+03  0.11854392358E+04  0.12699999809E+01 0.  1.
       -4    1    3    3    0  502  0.33856634576E+02  0.93253643896E+03  0.32716003812E+03  0.98884062676E+03  0.12699999809E+01 0. -1.
</event>
<event>
 5   0  0.1010725E-05  0.1898910E+04  0.7818609E-02  0.8655399E-01
       -3   -1    0    0    0  501  0.00000000000E+00  0.00000000000E+00  0.10440301713E+04  0.10440301762E+04  0.10100000352E+00 0.  1.
        3   -1    0    0  501    0  0.00000000000E+00  0.00000000000E+00 -0.86344751783E+03  0.86344752374E+03  0.10100000352E+00 0. -1.
    10030    2    1    2    0    0  0.00000000000E+00  0.00000000000E+00  0.18058265350E+03  0.19074777000E+04  0.18989104984E+04 0.  0.
        5    1    3    3  502    0  0.89083610886E+03 -0.26819483425E+03 -0.10010467531E+03  0.93571388682E+03  0.46999998093E+01 0. -1.
       -5    1    3    3    0  502 -0.89083610886E+03  0.26819483425E+03  0.28068732881E+03  0.97176381314E+03  0.46999998093E+01 0.  1.
</event>
<event>
 5   0  0.1429067E-05  0.1904658E+04  0.7818609E-02  0.8652541E-01
        1   -1    0    0  501    0  0.00000000000E+00  0.00000000000E+00  0.20317269240E+04  0.20317269240E+04  0.50400001928E-02 0. -1.
       -1   -1    0    0    0  501  0.00000000000E+00  0.00000000000E+00 -0.44638405484E+03  0.44638405487E+03  0.50400001928E-02 0.  1.
    10030    2    1    2    0    0  0.00000000000E+00  0.00000000000E+00  0.15853428691E+04  0.24781109788E+04  0.19046579774E+04 0.  0.
        3    1    3    3  502    0 -0.37701685991E+02 -0.87924378872E+03  0.12661631798E+04  0.15419663632E+04  0.10100000352E+00 0. -1.
       -3    1    3    3    0  502  0.37701685991E+02  0.87924378872E+03  0.31917968933E+03  0.93614461565E+03  0.10100000352E+00 0.  1.
</event>
<event>
 5   0  0.1471485E-05  0.1898035E+04  0.7818609E-02  0.8655835E-01
        1   -1    0    0  501    0  0.00000000000E+00  0.00000000000E+00  0.99224224086E+03  0.99224224087E+03  0.50400001928E-02 0.  1.
       -1   -1    0    0    0  501  0.00000000000E+00  0.00000000000E+00 -0.90767581310E+03  0.90767581311E+03  0.50400001928E-02 0. -1.
    10030    2    1    2    0    0  0.00000000000E+00  0.00000000000E+00  0.84566427760E+02  0.18999180540E+04  0.18980350711E+04 0.  0.
        4    1    3    3  502    0 -0.24922586437E+03 -0.91074128304E+03  0.13761137218E+03  0.95420213726E+03  0.12699999809E+01 0.  1.
       -4    1    3    3    0  502  0.24922586437E+03  0.91074128304E+03 -0.53044944418E+02  0.94571591672E+03  0.12699999809E+01 0. -1.
</event>
<event>
 5   0  0.2789718E-05  0.1901923E+04  0.7818609E-02  0.8653900E-01
        2   -1    0    0  501    0  0.00000000000E+00  0.00000000000E+00  0.18299393898E+04  0.18299393898E+04  0.25500000920E-02 0.  1.
       -2   -1    0    0    0  501  0.00000000000E+00  0.00000000000E+00 -0.49418456970E+03  0.49418456970E+03  0.25500000920E-02 0. -1.
    10030    2    1    2    0    0  0.00000000000E+00  0.00000000000E+00  0.13357548201E+04  0.23241239596E+04  0.19019230373E+04 0.  0.
        5    1    3    3  502    0  0.69339309452E+03 -0.25291532121E+03 -0.64851494894E+02  0.74093721031E+03  0.46999998093E+01 0. -1.
       -5    1    3    3    0  502 -0.69339309452E+03  0.25291532121E+03  0.14006063150E+04  0.15831867492E+04  0.46999998093E+01 0.  1.
</event>
<event>
 5   0  0.1327254E-05  0.1896995E+04  0.7818609E-02  0.8656354E-01
        1   -1    0    0  501    0  0.00000000000E+00  0.00000000000E+00  0.98954618723E+03  0.98954618724E+03  0.50400001928E-02 0.  1.
       -1   -1    0    0    0  501  0.00000000000E+00  0.00000000000E+00 -0.90915177740E+03  0.90915177741E+03  0.50400001928E-02 0. -1.
    10030    2    1    2    0    0  0.00000000000E+00  0.00000000000E+00  0.80394409827E+02  0.18986979647E+04  0.18969951765E+04 0.  0.
        5    1    3    3  502    0 -0.39881368942E+03  0.15038262524E+03  0.88828197872E+03  0.98525847196E+03  0.46999998093E+01 0.  1.
       -5    1    3    3    0  502  0.39881368942E+03 -0.15038262524E+03 -0.80788756890E+03  0.91343949270E+03  0.46999998093E+01 0. -1.
</event>
<event>
 5   0  0.1344119E-05  0.1897842E+04  0.7818609E-02  0.8655931E-01
        1   -1    0    0  501    0  0.00000000000E+00  0.00000000000E+00  0.10364070954E+04  0.10364070954E+04  0.50400001928E-02 0.  1.
       -1   -1    0    0    0  501  0.00000000000E+00  0.00000000000E+00 -0.86881992002E+03  0.86881992004E+03  0.50400001928E-02 0. -1.
    10030    2    1    2    0    0  0.00000000000E+00  0.00000000000E+00  0.16758717535E+03  0.19052270154E+04  0.18978420690E+04 0.  0.
        2    1    3    3  502    0  0.64538565389E+03  0.57778948524E+03  0.47271276195E+03  0.98682353378E+03  0.25500000920E-02 0.  1.
       -2    1    3    3    0  502 -0.64538565389E+03 -0.57778948524E+03 -0.30512558660E+03  0.91840348165E+03  0.25500000920E-02 0. -1.
</event>
<event>
 5   0  0.2789718E-05  0.1904879E+04  0.7818609E-02  0.8652432E-01
        2   -1    0    0  501    0  0.00000000000E+00  0.00000000000E+00  0.18510049649E+04  0.18510049649E+04  0.25500000920E-02 0. -1.
       -2   -1    0    0    0  501  0.00000000000E+00  0.00000000000E+00 -0.49008032472E+03  0.49008032473E+03  0.25500000920E-02 0.  1.
    10030    2    1    2    0    0  0.00000000000E+00  0.00000000000E+00  0.13609246401E+04  0.23410852896E+04  0.19048791187E+04 0.  0.
        5    1    3    3  502    0 -0.46523178486E+03 -0.53249660065E+03 -0.10371471063E+03  0.71468319873E+03  0.46999998093E+01 0.  1.
       -5    1    3    3    0  502  0.46523178486E+03  0.53249660065E+03  0.14646393508E+04  0.16264020909E+04  0.46999998093E+01 0. -1.
</event>
<event>
 5   0  0.1429067E-05  0.1903335E+04  0.7818609E-02  0.8653198E-01
        1   -1    0    0  501    0  0.00000000000E+00  0.00000000000E+00  0.14893288007E+04  0.14893288007E+04  0.50400001928E-02 0.  1.
       -1   -1    0    0    0  501  0.00000000000E+00  0.00000000000E+00 -0.60810703376E+03  0.60810703378E+03  0.50400001928E-02 0. -1.
    10030    2    1    2    0    0  0.00000000000E+00  0.00000000000E+00  0.88122176691E+03  0.20974358345E+04  0.19033353034E+04 0.  0.
        3    1    3    3  502    0  0.68988623135E+03  0.62695308070E+03  0.65159926605E+03  0.11373630868E+04  0.10100000352E+00 0. -1.
       -3    1    3    3    0  502 -0.68988623135E+03 -0.62695308070E+03  0.22962250086E+03  0.96007274761E+03  0.10100000352E+00 0.  1.
</event>
<event>
 5   0  0.1429067E-05  0.1904440E+04  0.7818609E-02  0.8652650E-01
        1   -1    0    0  501    0  0.00000000000E+00  0.00000000000E+00  0.64063028850E+03  0.64063028852E+03  0.50400001928E-02 0.  1.
       -1   -1    0    0    0  501  0.00000000000E+00  0.00000000000E+00 -0.14153601186E+04  0.14153601186E+04  0.50400001928E-02 0. -1.
    10030    2    1    2    0    0  0.00000000000E+00  0.00000000000E+00 -0.77472983013E+03  0.20559904071E+04  0.19044396143E+04 0.  0.
        3    1    3    3  502    0 -0.31464607658E+03  0.84395177304E+03 -0.53801976999E+02  0.90230339225E+03  0.10100000352E+00 0. -1.
       -3    1    3    3    0  502  0.31464607658E+03 -0.84395177304E+03 -0.72092785313E+03  0.11536870149E+04  0.10100000352E+00 0.  1.
</event>
<event>
 5   0  0.1429067E-05  0.1898348E+04  0.7818609E-02  0.8655679E-01
       -1   -1    0    0    0  501  0.00000000000E+00  0.00000000000E+00  0.10825266851E+04  0.10825266851E+04  0.50400001928E-02 0. -1.
        1   -1    0    0  501    0  0.00000000000E+00  0.00000000000E+00 -0.83224852452E+03  0.83224852454E+03  0.50400001928E-02 0.  1.
    10030    2    1    2    0    0  0.00000000000E+00  0.00000000000E+00  0.25027816055E+03  0.19147752096E+04  0.18983479517E+04 0.  0.
        3    1    3    3  502    0  0.77023026255E+03 -0.81294049482E+02 -0.42830553463E+03  0.88504746823E+03  0.10100000352E+00 0.  1.
       -3    1    3    3    0  502 -0.77023026255E+03  0.81294049482E+02  0.67858369518E+03  0.10297277414E+04  0.10100000352E+00 0. -1.
</event>
<event>
 5   0  0.1344119E-05  0.1901067E+04  0.7818609E-02  0.8654325E-01
       -1   -1    0    0    0  501  0.00000000000E+00  0.00000000000E+00  0.47262049765E+03  0.47262049768E+03  0.50400001928E-02 0.  1.
        1   -1    0    0  501    0  0.00000000000E+00  0.00000000000E+00 -0.19117113078E+04  0.19117113078E+04  0.50400001928E-02 0. -1.
    10030    2    1    2    0    0  0.00000000000E+00  0.00000000000E+00 -0.14390908101E+04  0.23843318055E+04  0.19010670159E+04 0.  0.
        2    1    3    3  502    0 -0.16205354486E+03 -0.28119269883E+03 -0.18400678858E+04  0.18684700987E+04  0.25500000920E-02 0. -1.
       -2    1    3    3    0  502  0.16205354486E+03  0.28119269883E+03  0.40097707569E+03  0.51586170677E+03  0.25500000920E-02 0.  1.
</event>
<event>
 5   0  0.1471485E-05  0.1898595E+04  0.7818609E-02  0.8655556E-01
       -1   -1    0    0    0  501  0.00000000000E+00  0.00000000000E+00  0.48095156623E+03  0.48095156625E+03  0.50400001928E-02 0. -1.
        1   -1    0    0  501    0  0.00000000000E+00  0.00000000000E+00 -0.18737133094E+04  0.18737133094E+04  0.50400001928E-02 0.  1.
    10030    2    1    2    0    0  0.00000000000E+00  0.00000000000E+00 -0.13927617431E+04  0.23546648756E+04  0.18985945864E+04 0.  0.
        4    1    3    3  502    0 -0.33716884229E+03 -0.51013178036E+03 -0.15969223279E+04  0.17099940923E+04  0.12699999809E+01 0.  1.
       -4    1    3    3    0  502  0.33716884229E+03  0.51013178036E+03  0.20416058478E+03  0.64467078329E+03  0.12699999809E+01 0. -1.
</event>
<event>
 5   0  0.1471485E-05  0.1900095E+04  0.7818609E-02  0.8654809E-01
       -1   -1    0    0    0  501  0.00000000000E+00  0.00000000000E+00  0.42229023845E+03  0.42229023848E+03  0.50400001928E-02 0. -1.
        1   -1    0    0  501    0  0.00000000000E+00  0.00000000000E+00 -0.21373697751E+04  0.21373697751E+04  0.50400001928E-02 0.  1.
    10030    2    1    2    0    0  0.00000000000E+00  0.00000000000E+00 -0.17150795366E+04  0.25596600135E+04  0.19000951471E+04 0.  0.
        4    1    3    3  502    0 -0.60454985255E+03 -0.45717862908E+03 -0.85912842250E+02  0.76280761170E+03  0.12699999809E+01 0. -1.
       -4    1    3    3    0  502  0.60454985255E+03  0.45717862908E+03 -0.16291666943E+04  0.17968524018E+04  0.12699999809E+01 0.  1.
</event>
<event>
 5   0  0.2888776E-05  0.1905964E+04  0.7818609E-02  0.8651893E-01
       -2   -1    0    0    0  501  0.00000000000E+00  0.00000000000E+00  0.65365564493E+03  0.65365564493E+03  0.25500000920E-02 0. -1.
        2   -1    0    0  501    0  0.00000000000E+00  0.00000000000E+00 -0.13893780901E+04  0.13893780901E+04  0.25500000920E-02 0.  1.
    10030    2    1    2    0    0  0.00000000000E+00  0.00000000000E+00 -0.73572244522E+03  0.20430337351E+04  0.19059641461E+04 0.  0.
        3    1    3    3  502    0  0.65185273874E+03 -0.19942595623E+03 -0.10817059618E+04  0.12785814416E+04  0.10100000352E+00 0.  1.
       -3    1    3    3    0  502 -0.65185273874E+03  0.19942595623E+03  0.34598351654E+03  0.76445229343E+03  0.10100000352E+00 0. -1.
</event>
<event>
 5   0  0.2879462E-05  0.1900720E+04  0.7818609E-02  0.8654498E-01
       -2   -1    0    0    0  501  0.00000000000E+00  0.00000000000E+00  0.99562393548E+03  0.99562393549E+03  0.25500000920E-02 0.  1.
        2   -1    0    0  501    0  0.00000000000E+00  0.00000000000E+00 -0.90715414116E+03  0.90715414117E+03  0.25500000920E-02 0. -1.
    10030    2    1    2    0    0  0.00000000000E+00  0.00000000000E+00  0.88469794320E+02  0.19027780767E+04  0.19007202594E+04 0.  0.
        4    1    3    3  502    0 -0.83299419693E+02 -0.25429451408E+03 -0.86866151718E+03  0.90894385830E+03  0.12699999809E+01 0. -1.
       -4    1    3    3    0  502  0.83299419693E+02  0.25429451408E+03  0.95713131150E+03  0.99383421835E+03  0.12699999809E+01 0.  1.
</event>
<event>
 5   0  0.2879462E-05  0.1904605E+04  0.7818609E-02  0.8652568E-01
       -2   -1    0    0    0  501  0.00000000000E+00  0.00000000000E+00  0.49207663835E+03  0.49207663836E+03  0.25500000920E-02 0. -1.
        2   -1    0    0  501    0  0.00000000000E+00  0.00000000000E+00 -0.18429648564E+04  0.18429648564E+04  0.25500000920E-02 0.  1.
    10030    2    1    2    0    0  0.00000000000E+00  0.00000000000E+00 -0.13508882180E+04  0.23350414948E+04  0.19046048946E+04 0.  0.
        4    1    3    3  502    0 -0.18999977401E+03 -0.91493046322E+03 -0.45044537322E+03  0.10373525504E+04  0.12699999809E+01 0. -1.
       -4    1    3    3    0  502  0.18999977401E+03  0.91493046322E+03 -0.90044284483E+03  0.12976889444E+04  0.12699999809E+01 0.  1.
</event>
<event>
 5   0  0.1327254E-05  0.1902251E+04  0.7818609E-02  0.8653737E-01
        1   -1    0    0  501    0  0.00000000000E+00  0.00000000000E+00  0.11452081046E+04  0.11452081046E+04  0.50400001928E-02 0. -1.
       -1   -1    0    0    0  501  0.00000000000E+00  0.00000000000E+00 -0.78993496318E+03  0.78993496320E+03  0.50400001928E-02 0.  1.
    10030    2    1    2    0    0  0.00000000000E+00  0.00000000000E+00  0.35527314145E+03  0.19351430678E+04  0.19022512158E+04 0.  0.
        5    1    3    3  502    0  0.25565844046E+03 -0.21929462446E+03 -0.72721874600E+03  0.80144904082E+03  0.46999998093E+01 0.  1.
       -5    1    3    3    0  502 -0.25565844046E+03  0.21929462446E+03  0.10824918875E+04  0.11336940270E+04  0.46999998093E+01 0. -1.
</event>
<event>
 5   0  0.1429067E-05  0.1901429E+04  0.7818609E-02  0.8654146E-01
       -1   -1    0    0    0  501  0.00000000000E+00  0.00000000000E+00  0.60289007665E+03  0.60289007667E+03  0.50400001928E-02 0. -1.
        1   -1    0    0  501    0  0.00000000000E+00  0.00000000000E+00 -0.14992080231E+04  0.14992080231E+04  0.50400001928E-02 0.  1.
    10030    2    1    2    0    0  0.00000000000E+00  0.00000000000E+00 -0.89631794649E+03  0.21020980998E+04  0.19014285577E+04 0.  0.
        3    1    3    3  502    0  0.63095944046E+02 -0.92739389226E+03 -0.66876012807E+03  0.11451116315E+04  0.10100000352E+00 0.  1.
       -3    1    3    3    0  502 -0.63095944046E+02  0.92739389226E+03 -0.22755781841E+03  0.95698646829E+03  0.10100000352E+00 0. -1.
</event>
<event>
 5   0  0.2879462E-05  0.1902852E+04  0.7818609E-02  0.8653438E-01
        2   -1    0    0  501    0  0.00000000000E+00  0.00000000000E+00  0.13050706826E+04  0.13050706826E+04  0.25500000920E-02 0.  1.
       -2   -1    0    0    0  501  0.00000000000E+00  0.00000000000E+00 -0.69361069245E+03  0.69361069245E+03  0.25500000920E-02 0. -1.
    10030    2    1    2    0    0  0.00000000000E+00  0.00000000000E+00  0.61145999018E+03  0.19986813751E+04  0.19028515232E+04 0.  0.
        4    1    3    3  502    0  0.50535825026E+03  0.74763892967E+03  0.62233756422E+03  0.10962009793E+04  0.12699999809E+01 0.  1.
       -4    1    3    3    0  502 -0.50535825026E+03 -0.74763892967E+03 -0.10877574038E+02  0.90248039579E+03  0.12699999809E+01 0. -1.
</event>
<event>
 5   0  0.2789718E-05  0.1895060E+04  0.7818609E-02  0.8657319E-01
        2   -1    0    0  501    0  0.00000000000E+00  0.00000000000E+00  0.10299231339E+04  0.10299231339E+04  0.25500000920E-02 0. -1.
       -2   -1    0    0    0  501  0.00000000000E+00  0.00000000000E+00 -0.87172795907E+03  0.87172795907E+03  0.25500000920E-02 0.  1.
    10030    2    1    2    0    0  0.00000000000E+00  0.00000000000E+00  0.15819517480E+03  0.19016510929E+04  0.18950596735E+04 0.  0.
        5    1    3    3  502    0 -0.58027419028E+03  0.45446609644E+03 -0.51840028269E+03  0.90112069769E+03  0.46999998093E+01 0.  1.
       -5    1    3    3    0  502  0.58027419028E+03 -0.45446609644E+03  0.67659545750E+03  0.10005303953E+04  0.46999998093E+01 0. -1.
</event>
<event>
 5   0  0.1327254E-05  0.1900702E+04  0.7818609E-02  0.8654507E-01
        1   -1    0    0  501    0  0.00000000000E+00  0.00000000000E+00  0.12827566172E+04  0.12827566172E+04  0.50400001928E-02 0. -1.
       -1   -1    0    0    0  501  0.00000000000E+00  0.00000000000E+00 -0.70408267413E+03  0.70408267415E+03  0.50400001928E-02 0.  1.
    10030    2    1    2    0    0  0.00000000000E+00  0.00000000000E+00  0.57867394310E+03  0.19868392914E+04  0.19007016697E+04 0.  0.
        5    1    3    3  502    0  0.47595973923E+03  0.13973174464E+03 -0.55800469790E+03  0.74662839934E+03  0.46999998093E+01 0.  1.
       -5    1    3    3    0  502 -0.47595973923E+03 -0.13973174464E+03  0.11366786410E+04  0.12402108920E+04  0.46999998093E+01 0. -1.
</event>
<event>
 5   0  0.1429067E-05  0.1906803E+04  0.7818609E-02  0.8651477E-01
        1   -1    0    0  501    0  0.00000000000E+00  0.00000000000E+00  0.15126743263E+04  0.15126743263E+04  0.50400001928E-02 0.  1.
       -1   -1    0    0    0  501  0.00000000000E+00  0.00000000000E+00 -0.60090555506E+03  0.60090555508E+03  0.50400001928E-02 0. -1.
    10030    2    1    2    0    0  0.00000000000E+00  0.00000000000E+00  0.91176877120E+03  0.21135798814E+04  0.19068029848E+04 0.  0.
        3    1    3    3  502    0 -0.32573237652E+03  0.86454018074E+03  0.71688201194E+03  0.11693806628E+04  0.10100000352E+00 0. -1.
       -3    1    3    3    0  502  0.32573237652E+03 -0.86454018074E+03  0.19488675926E+03  0.94419921858E+03  0.10100000352E+00 0.  1.
</event>
<event>
 5   0  0.2813537E-05  0.1891556E+04  0.7818609E-02  0.8659071E-01
        2   -1    0    0  501    0  0.00000000000E+00  0.00000000000E+00  0.16597166206E+04  0.16597166206E+04  0.25500000920E-02 0.  1.
       -2   -1    0    0    0  501  0.00000000000E+00  0.00000000000E+00 -0.53894481121E+03  0.53894481122E+03  0.25500000920E-02 0. -1.
    10030    2    1    2    0    0  0.00000000000E+00  0.00000000000E+00  0.11207718094E+04  0.21986614318E+04  0.18915556146E+04 0.  0.
        2    1    3    3  502    0  0.54229062619E+02  0.56644118231E+03  0.14384837205E+04  0.15469427328E+04  0.25500000920E-02 0.  1.
       -2    1    3    3    0  502 -0.54229062619E+02 -0.56644118231E+03 -0.31771191111E+03  0.65171869907E+03  0.25500000920E-02 0. -1.
</event>
<event>
 5   0  0.2789718E-05  0.1884996E+04  0.7818609E-02  0.8662361E-01
        2   -1    0    0  501    0  0.00000000000E+00  0.00000000000E+00  0.15979464584E+04  0.15979464584E+04  0.25500000920E-02 0.  1.
       -2   -1    0    0    0  501  0.00000000000E+00  0.00000000000E+00 -0.55590259715E+03  0.55590259715E+03  0.25500000920E-02 0. -1.
    10030    2    1    2    0    0  0.00000000000E+00  0.00000000000E+00  0.10420438612E+04  0.21538490555E+04  0.18849961128E+04 0.  0.
        5    1    3    3  502    0 -0.80436329650E+03  0.48814264833E+03  0.58357429303E+03  0.11071877002E+04  0.46999998093E+01 0.  1.
       -5    1    3    3    0  502  0.80436329650E+03 -0.48814264833E+03  0.45846956819E+03  0.10466613554E+04  0.46999998093E+01 0. -1.
</event>
<event>
 5   0  0.2855141E-05  0.1898990E+04  0.7818609E-02  0.8655359E-01
       -2   -1    0    0    0  501  0.00000000000E+00  0.00000000000E+00  0.61234818531E+03  0.61234818532E+03  0.25500000920E-02 0. -1.
        2   -1    0    0  501    0  0.00000000000E+00  0.00000000000E+00 -0.14722684585E+04  0.14722684585E+04  0.25500000920E-02 0.  1.
    10030    2    1    2    0    0  0.00000000000E+00  0.00000000000E+00 -0.85992027321E+03  0.20846166438E+04  0.18989901726E+04 0.  0.
        1    1    3    3  502    0  0.49012954727E+03  0.80503782713E+03 -0.55621591877E+03  0.10943897955E+04  0.50400001928E-02 0.  1.
       -1    1    3    3    0  502 -0.49012954727E+03 -0.80503782713E+03 -0.30370435444E+03  0.99022684833E+03  0.50400001928E-02 0. -1.
</event>
<event>
 5   0  0.2879462E-05  0.1897259E+04  0.7818609E-02  0.8656222E-01
       -2   -1    0    0    0  501  0.00000000000E+00  0.00000000000E+00  0.81616193189E+03  0.81616193189E+03  0.25500000920E-02 0.  1.
        2   -1    0    0  501    0  0.00000000000E+00  0.00000000000E+00 -0.11025968076E+04  0.11025968076E+04  0.25500000920E-02 0. -1.
    10030    2    1    2    0    0  0.00000000000E+00  0.00000000000E+00 -0.28643487572E+03  0.19187587395E+04  0.18972585913E+04 0.  0.
        4    1    3    3  502    0  0.83756319294E+03 -0.67631217919E+02 -0.58844470976E+03  0.10258434935E+04  0.12699999809E+01 0. -1.
       -4    1    3    3    0  502 -0.83756319294E+03  0.67631217919E+02  0.30200983403E+03  0.89291524601E+03  0.12699999809E+01 0.  1.
</event>
<event>
 5   0  0.2789718E-05  0.1901412E+04  0.7818609E-02  0.8654154E-01
       -2   -1    0    0    0  501  0.00000000000E+00  0.00000000000E+00  0.10455090286E+04  0.10455090286E+04  0.25500000920E-02 0.  1.
        2   -1    0    0  501    0  0.00000000000E+00  0.00000000000E+00 -0.86449937459E+03  0.86449937460E+03  0.25500000920E-02 0. -1.
    10030    2    1    2    0    0  0.00000000000E+00  0.00000000000E+00  0.18100965405E+03  0.19100084032E+04  0.19014120031E+04 0.  0.
        5    1    3    3  502    0  0.74043014434E+03 -0.58607211411E+01 -0.50847000274E+03  0.89823993475E+03  0.46999998093E+01 0. -1.
       -5    1    3    3    0  502 -0.74043014434E+03  0.58607211411E+01  0.68947965679E+03  0.10117684685E+04  0.46999998093E+01 0.  1.
</event>
<event>
 5   0  0.2888776E-05  0.1899522E+04  0.7818609E-02  0.8655094E-01
        2   -1    0    0  501    0  0.00000000000E+00  0.00000000000E+00  0.74768203298E+03  0.74768203298E+03  0.25500000920E-02 0.  1.
       -2   -1    0    0    0  501  0.00000000000E+00  0.00000000000E+00 -0.12064565158E+04  0.12064565158E+04  0.25500000920E-02 0. -1.
    10030    2    1    2    0    0  0.00000000000E+00  0.00000000000E+00 -0.45877448277E+03  0.19541385487E+04  0.18995218982E+04 0.  0.
        3    1    3    3  502    0  0.27009969594E+03 -0.29035153373E+02  0.70686204179E+03  0.75726537105E+03  0.10100000352E+00 0.  1.
       -3    1    3    3    0  502 -0.27009969594E+03  0.29035153373E+02 -0.11656365246E+04  0.11968731777E+04  0.10100000352E+00 0. -1.
</event>
<event>
 5   0  0.1471485E-05  0.1905851E+04  0.7818609E-02  0.8651950E-01
        1   -1    0    0  501    0  0.00000000000E+00  0.00000000000E+00  0.11112679888E+04  0.11112679888E+04  0.50400001928E-02 0.  1.
       -1   -1    0    0    0  501  0.00000000000E+00  0.00000000000E+00 -0.81714450926E+03  0.81714450928E+03  0.50400001928E-02 0. -1.
    10030    2    1    2    0    0  0.00000000000E+00  0.00000000000E+00  0.29412347951E+03  0.19284124981E+04  0.19058505034E+04 0.  0.
        4    1    3    3  502    0  0.28736719382E+03 -0.58895651633E+03 -0.55294845986E+03  0.85743996547E+03  0.12699999809E+01 0. -1.
       -4    1    3    3    0  502 -0.28736719382E+03  0.58895651633E+03  0.84707193937E+03  0.10709725326E+04  0.12699999809E+01 0.  1.
</event>
<event>
 5   0  0.2789718E-05  0.1904326E+04  0.7818609E-02  0.8652706E-01
        2   -1    0    0  501    0  0.00000000000E+00  0.00000000000E+00  0.10849398773E+04  0.10849398774E+04  0.25500000920E-02 0.  1.
       -2   -1    0    0    0  501  0.00000000000E+00  0.00000000000E+00 -0.83563559300E+03  0.83563559300E+03  0.25500000920E-02 0. -1.
    10030    2    1    2    0    0  0.00000000000E+00  0.00000000000E+00  0.24930428435E+03  0.19205754704E+04  0.19043259992E+04 0.  0.
        5    1    3    3  502    0  0.40539794036E+03 -0.84722168528E+03 -0.33080001152E+02  0.93981298700E+03  0.46999998093E+01 0. -1.
       -5    1    3    3    0  502 -0.40539794036E+03  0.84722168528E+03  0.28238428550E+03  0.98076248335E+03  0.46999998093E+01 0.  1.
</event>
<event>
 5   0  0.1327254E-05  0.1899709E+04  0.7818609E-02  0.8655001E-01
        1   -1    0    0  501    0  0.00000000000E+00  0.00000000000E+00  0.16698288544E+04  0.16698288544E+04  0.50400001928E-02 0. -1.
       -1   -1    0    0    0  501  0.00000000000E+00  0.00000000000E+00 -0.54030916208E+03  0.54030916211E+03  0.50400001928E-02 0.  1.
    10030    2    1    2    0    0  0.00000000000E+00  0.00000000000E+00  0.11295196923E+04  0.22101380165E+04  0.18997092716E+04 0.  0.
        5    1    3    3  502    0  0.48131598431E+03 -0.39840255139E+03 -0.26755475635E+03  0.67970383798E+03  0.46999998093E+01 0.  1.
       -5    1    3    3    0  502 -0.48131598431E+03  0.39840255139E+03  0.13970744486E+04  0.15304341785E+04  0.46999998093E+01 0. -1.
</event>
<event>
 5   0  0.1327254E-05  0.1899193E+04  0.7818609E-02  0.8655258E-01
        1   -1    0    0  501    0  0.00000000000E+00  0.00000000000E+00  0.17048280200E+04  0.17048280200E+04  0.50400001928E-02 0.  1.
       -1   -1    0    0    0  501  0.00000000000E+00  0.00000000000E+00 -0.52892956554E+03  0.52892956557E+03  0.50400001928E-02 0. -1.
    10030    2    1    2    0    0  0.00000000000E+00  0.00000000000E+00  0.11758984545E+04  0.22337575856E+04  0.18991934541E+04 0.  0.
        5    1    3    3  502    0 -0.35858262575E+02  0.84565423985E+03  0.81660075196E+02  0.85035719921E+03  0.46999998093E+01 0. -1.
       -5    1    3    3    0  502  0.35858262575E+02 -0.84565423985E+03  0.10942383793E+04  0.13834003864E+04  0.46999998093E+01 0.  1.
</event>
<event>
 5   0  0.1327254E-05  0.1895561E+04  0.7818609E-02  0.8657069E-01
        1   -1    0    0  501    0  0.00000000000E+00  0.00000000000E+00  0.79044623521E+03  0.79044623522E+03  0.50400001928E-02 0. -1.
       -1   -1    0    0    0  501  0.00000000000E+00  0.00000000000E+00 -0.11364318605E+04  0.11364318606E+04  0.50400001928E-02 0.  1.
    10030    2    1    2    0    0  0.00000000000E+00  0.00000000000E+00 -0.34598562533E+03  0.19268780958E+04  0.18955614321E+04 0.  0.
        5    1    3    3  502    0  0.53401227870E+01  0.53824144278E+03  0.61998080545E+03  0.82105460035E+03  0.46999998093E+01 0. -1.
       -5    1    3    3    0  502 -0.53401227870E+01 -0.53824144278E+03 -0.96596643078E+03  0.11058234954E+04  0.46999998093E+01 0.  1.
</event>
<event>
 5   0  0.1413011E-05  0.1900890E+04  0.7818609E-02  0.8654413E-01
        1   -1    0    0  501    0  0.00000000000E+00  0.00000000000E+00  0.19441825051E+04  0.19441825051E+04  0.50400001928E-02 0. -1.
       -1   -1    0    0    0  501  0.00000000000E+00  0.00000000000E+00 -0.46464056979E+03  0.46464056982E+03  0.50400001928E-02 0.  1.
    10030    2    1    2    0    0  0.00000000000E+00  0.00000000000E+00  0.14795419353E+04  0.24088230749E+04  0.19008903882E+04 0.  0.
        1    1    3    3  502    0  0.66595755523E+03  0.60210755053E+03  0.34446490036E+03  0.96160752668E+03  0.50400001928E-02 0.  1.
       -1    1    3    3    0  502 -0.66595755523E+03 -0.60210755053E+03  0.11350770349E+04  0.14472155482E+04  0.50400001928E-02 0. -1.
</event>
<event>
 5   0  0.2888776E-05  0.1900708E+04  0.7818609E-02  0.8654504E-01
        2   -1    0    0  501    0  0.00000000000E+00  0.00000000000E+00  0.10683485122E+04  0.10683485122E+04  0.25500000920E-02 0. -1.
       -2   -1    0    0    0  501  0.00000000000E+00  0.00000000000E+00 -0.84539143353E+03  0.84539143354E+03  0.25500000920E-02 0.  1.
    10030    2    1    2    0    0  0.00000000000E+00  0.00000000000E+00  0.22295707872E+03  0.19137399458E+04  0.19007079526E+04 0.  0.
        3    1    3    3  502    0 -0.53701723641E+03 -0.33024437558E+02  0.90023632938E+03  0.10487628829E+04  0.10100000352E+00 0. -1.
       -3    1    3    3    0  502  0.53701723641E+03  0.33024437558E+02 -0.67727925066E+03  0.86497706285E+03  0.10100000352E+00 0.  1.
</event>
<event>
 5   0  0.1010725E-05  0.1899993E+04  0.7818609E-02  0.8654860E-01
        4   -1    0    0  501    0  0.00000000000E+00  0.00000000000E+00  0.60537875445E+03  0.60538008659E+03  0.12699999809E+01 0.  1.
       -4   -1    0    0    0  501  0.00000000000E+00  0.00000000000E+00 -0.14907874954E+04  0.14907880364E+04  0.12699999809E+01 0. -1.
    10030    2    1    2    0    0  0.00000000000E+00  0.00000000000E+00 -0.88540874099E+03  0.20961681230E+04  0.18999926740E+04 0.  0.
        5    1    3    3  502    0 -0.77957522507E+03 -0.35085882781E+03 -0.89976381457E+03  0.12411432071E+04  0.46999998093E+01 0. -1.
       -5    1    3    3    0  502  0.77957522507E+03  0.35085882781E+03  0.14355073578E+02  0.85502491585E+03  0.46999998093E+01 0.  1.
</event>
<event>
 5   0  0.1471485E-05  0.1896213E+04  0.7818609E-02  0.8656744E-01
       -1   -1    0    0    0  501  0.00000000000E+00  0.00000000000E+00  0.10051644135E+04  0.10051644135E+04  0.50400001928E-02 0.  1.
        1   -1    0    0  501    0  0.00000000000E+00  0.00000000000E+00 -0.89428705460E+03  0.89428705462E+03  0.50400001928E-02 0. -1.
    10030    2    1    2    0    0  0.00000000000E+00  0.00000000000E+00  0.11087735887E+03  0.18994514681E+04  0.18962125648E+04 0.  0.
        4    1    3    3  502    0 -0.64805352443E+03 -0.50962831477E+03 -0.41355920885E+03  0.92234875284E+03  0.12699999809E+01 0.  1.
       -4    1    3    3    0  502  0.64805352443E+03  0.50962831477E+03  0.52443656772E+03  0.97710271527E+03  0.12699999809E+01 0. -1.
</event>
<event>
 5   0  0.2813537E-05  0.1897918E+04  0.7818609E-02  0.8655893E-01
       -2   -1    0    0    0  501  0.00000000000E+00  0.00000000000E+00  0.65562455983E+03  0.65562455984E+03  0.25500000920E-02 0. -1.
        2   -1    0    0  501    0  0.00000000000E+00  0.00000000000E+00 -0.13735354565E+04  0.13735354565E+04  0.25500000920E-02 0.  1.
    10030    2    1    2    0    0  0.00000000000E+00  0.00000000000E+00 -0.71791089664E+03  0.20291600163E+04  0.18979184167E+04 0.  0.
        2    1    3    3  502    0 -0.13964940650E+03 -0.16963833934E+03 -0.13459638477E+04  0.13637807017E+04  0.25500000920E-02 0.  1.
       -2    1    3    3    0  502  0.13964940650E+03  0.16963833934E+03  0.62805295110E+03  0.66537931461E+03  0.25500000920E-02 0. -1.
</event>
<event>
 5   0  0.2813537E-05  0.1908819E+04  0.7818609E-02  0.8650479E-01
       -2   -1    0    0    0  501  0.00000000000E+00  0.00000000000E+00  0.59346658952E+03  0.59346658953E+03  0.25500000920E-02 0. -1.
        2   -1    0    0  501    0  0.00000000000E+00  0.00000000000E+00 -0.15348754592E+04  0.15348754592E+04  0.25500000920E-02 0.  1.
    10030    2    1    2    0    0  0.00000000000E+00  0.00000000000E+00 -0.94140886969E+03  0.21283420487E+04  0.19088188014E+04 0.  0.
        2    1    3    3  502    0 -0.32327768404E+03  0.12401175832E+03 -0.14623756062E+04  0.15028073033E+04  0.25500000920E-02 0.  1.
       -2    1    3    3    0  502  0.32327768404E+03 -0.12401175832E+03  0.52096673652E+03  0.62553474545E+03  0.25500000920E-02 0. -1.
</event>
<event>
 5   0  0.1413011E-05  0.1900726E+04  0.7818609E-02  0.8654495E-01
       -1   -1    0    0    0  501  0.00000000000E+00  0.00000000000E+00  0.15418648967E+04  0.15418648967E+04  0.50400001928E-02 0.  1.
        1   -1    0    0  501    0  0.00000000000E+00  0.00000000000E+00 -0.58577755773E+03  0.58577755775E+03  0.50400001928E-02 0. -1.
    10030    2    1    2    0    0  0.00000000000E+00  0.00000000000E+00  0.95608733899E+03  0.21276424545E+04  0.19007260230E+04 0.  0.
        1    1    3    3  502    0 -0.40152888675E+03  0.62533689445E+03 -0.18506095690E+03  0.76584543888E+03  0.50400001928E-02 0. -1.
       -1    1    3    3    0  502  0.40152888675E+03 -0.62533689445E+03  0.11411482959E+04  0.13617970156E+04  0.50400001928E-02 0.  1.
</event>
<event>
 5   0  0.2789718E-05  0.1901735E+04  0.7818609E-02  0.8653993E-01
       -2   -1    0    0    0  501  0.00000000000E+00  0.00000000000E+00  0.62369818289E+03  0.62369818290E+03  0.25500000920E-02 0. -1.
        2   -1    0    0  501    0  0.00000000000E+00  0.00000000000E+00 -0.14496576599E+04  0.14496576599E+04  0.25500000920E-02 0.  1.
    10030    2    1    2    0    0  0.00000000000E+00  0.00000000000E+00 -0.82595947704E+03  0.20733558428E+04  0.19017348378E+04 0.  0.
        5    1    3    3  502    0 -0.52129341740E+03 -0.32815239747E+03  0.37674861822E+03  0.72207508911E+03  0.46999998093E+01 0. -1.
       -5    1    3    3    0  502  0.52129341740E+03  0.32815239747E+03 -0.12027080953E+04  0.13512807537E+04  0.46999998093E+01 0.  1.
</event>
<event>
 5   0  0.1429067E-05  0.1901880E+04  0.7818609E-02  0.8653921E-01
       -1   -1    0    0    0  501  0.00000000000E+00  0.00000000000E+00  0.12250799651E+04  0.12250799651E+04  0.50400001928E-02 0. -1.
        1   -1    0    0  501    0  0.00000000000E+00  0.00000000000E+00 -0.73814535391E+03  0.73814535393E+03  0.50400001928E-02 0.  1.
    10030    2    1    2    0    0  0.00000000000E+00  0.00000000000E+00  0.48693461114E+03  0.19632253190E+04  0.19018802112E+04 0.  0.
        3    1    3    3  502    0  0.13703268842E+03 -0.93948863013E+03  0.29876988194E+03  0.99532924020E+03  0.10100000352E+00 0.  1.
       -3    1    3    3    0  502 -0.13703268842E+03  0.93948863013E+03  0.18816472920E+03  0.96789607880E+03  0.10100000352E+00 0. -1.
</event>
<event>
 5   0  0.2879462E-05  0.1900028E+04  0.7818609E-02  0.8654842E-01
       -2   -1    0    0    0  501  0.00000000000E+00  0.00000000000E+00  0.82684044080E+03  0.82684044081E+03  0.25500000920E-02 0.  1.
        2   -1    0    0  501    0  0.00000000000E+00  0.00000000000E+00 -0.10915365330E+04  0.10915365330E+04  0.25500000920E-02 0. -1.
    10030    2    1    2    0    0  0.00000000000E+00  0.00000000000E+00 -0.26469609217E+03  0.19183769738E+04  0.19000279451E+04 0.  0.
        4    1    3    3  502    0 -0.17052558529E+03 -0.85578023236E+03 -0.51158981327E+03  0.10115159570E+04  0.12699999809E+01 0. -1.
       -4    1    3    3    0  502  0.17052558529E+03  0.85578023236E+03  0.24689372110E+03  0.90686101678E+03  0.12699999809E+01 0.  1.
</event>
<event>
 5   0  0.1344119E-05  0.1898435E+04  0.7818609E-02  0.8655636E-01
       -1   -1    0    0    0  501  0.00000000000E+00  0.00000000000E+00  0.65013218235E+03  0.65013218237E+03  0.50400001928E-02 0. -1.
        1   -1    0    0  501    0  0.00000000000E+00  0.00000000000E+00 -0.13858940159E+04  0.13858940159E+04  0.50400001928E-02 0.  1.
    10030    2    1    2    0    0  0.00000000000E+00  0.00000000000E+00 -0.73576183350E+03  0.20360261982E+04  0.18984354622E+04 0.  0.
        2    1    3    3  502    0  0.28969297133E+03 -0.59156959579E+03 -0.11008910555E+04  0.12829020697E+04  0.25500000920E-02 0.  1.
       -2    1    3    3    0  502 -0.28969297133E+03  0.59156959579E+03  0.36512922197E+03  0.75312412858E+03  0.25500000920E-02 0. -1.
</event>
<event>
 5   0  0.1429067E-05  0.1898369E+04  0.7818609E-02  0.8655669E-01
       -1   -1    0    0    0  501  0.00000000000E+00  0.00000000000E+00  0.15393270321E+04  0.15393270321E+04  0.50400001928E-02 0.  1.
        1   -1    0    0  501    0  0.00000000000E+00  0.00000000000E+00 -0.58528892548E+03  0.58528892550E+03  0.50400001928E-02 0. -1.
    10030    2    1    2    0    0  0.00000000000E+00  0.00000000000E+00  0.95403810662E+03  0.21246159576E+04  0.18983688415E+04 0.  0.
        3    1    3    3  502    0  0.67242205311E+03 -0.66892302024E+03  0.51801266691E+03  0.10807157618E+04  0.10100000352E+00 0.  1.
       -3    1    3    3    0  502 -0.67242205311E+03  0.66892302024E+03  0.43602543970E+03  0.10439001958E+04  0.10100000352E+00 0. -1.
</event>
<event>
 5   0  0.1413011E-05  0.1841232E+04  0.7818609E-02  0.8684675E-01
        1   -1    0    0  501    0  0.00000000000E+00  0.00000000000E+00  0.11305437727E+04  0.11305437727E+04  0.50400001928E-02 0.  1.
       -1   -1    0    0    0  501  0.00000000000E+00  0.00000000000E+00 -0.74966903609E+03  0.74966903611E+03  0.50400001928E-02 0. -1.
    10030    2    1    2    0    0  0.00000000000E+00  0.00000000000E+00  0.38087473660E+03  0.18802128088E+04  0.18412318272E+04 0.  0.
        1    1    3    3  502    0  0.12482262057E+03 -0.65319725897E+01 -0.74096381656E+03  0.75143245256E+03  0.50400001928E-02 0. -1.
       -1    1    3    3    0  502 -0.12482262057E+03  0.65319725897E+01  0.11218385532E+04  0.11287803563E+04  0.50400001928E-02 0.  1.
</event>
<event>
 5   0  0.1429067E-05  0.1893551E+04  0.7818609E-02  0.8658073E-01
       -1   -1    0    0    0  501  0.00000000000E+00  0.00000000000E+00  0.77072842005E+03  0.77072842007E+03  0.50400001928E-02 0.  1.
        1   -1    0    0  501    0  0.00000000000E+00  0.00000000000E+00 -0.11630348672E+04  0.11630348672E+04  0.50400001928E-02 0. -1.
    10030    2    1    2    0    0  0.00000000000E+00  0.00000000000E+00 -0.39230644715E+03  0.19337632873E+04  0.18935511883E+04 0.  0.
        3    1    3    3  502    0  0.10267489379E+03 -0.74702481217E+03  0.38853986608E+03  0.84826378065E+03  0.10100000352E+00 0.  1.
       -3    1    3    3    0  502 -0.10267489379E+03  0.74702481217E+03 -0.78084631323E+03  0.10854995066E+04  0.10100000352E+00 0. -1.
</event>
<event>
 5   0  0.2879462E-05  0.1898928E+04  0.7818609E-02  0.8655390E-01
       -2   -1    0    0    0  501  0.00000000000E+00  0.00000000000E+00  0.12839566379E+04  0.12839566379E+04  0.25500000920E-02 0.  1.
        2   -1    0    0  501    0  0.00000000000E+00  0.00000000000E+00 -0.70211209935E+03  0.70211209936E+03  0.25500000920E-02 0. -1.
    10030    2    1    2    0    0  0.00000000000E+00  0.00000000000E+00  0.58184453854E+03  0.19860687372E+04  0.18989275821E+04 0.  0.
        4    1    3    3  502    0  0.90976376918E+03  0.25901944997E+03  0.20519320990E+03  0.96791893125E+03  0.12699999809E+01 0.  1.
       -4    1    3    3    0  502 -0.90976376918E+03 -0.25901944997E+03  0.37665132864E+03  0.10181498060E+04  0.12699999809E+01 0. -1.
</event>
<event>
 5   0  0.2855141E-05  0.1900890E+04  0.7818609E-02  0.8654414E-01
        2   -1    0    0  501    0  0.00000000000E+00  0.00000000000E+00  0.21368605719E+04  0.21368605720E+04  0.25500000920E-02 0. -1.
       -2   -1    0    0    0  501  0.00000000000E+00  0.00000000000E+00 -0.42274411203E+03  0.42274411204E+03  0.25500000920E-02 0.  1.
    10030    2    1    2    0    0  0.00000000000E+00  0.00000000000E+00  0.17141164599E+04  0.25596046840E+04  0.19008895024E+04 0.  0.
        1    1    3    3  502    0 -0.98371572547E+02  0.34378648485E+03 -0.32871345599E+03  0.48571457630E+03  0.50400001928E-02 0.  1.
       -1    1    3    3    0  502  0.98371572547E+02 -0.34378648485E+03  0.20428299159E+04  0.20738901077E+04  0.50400001928E-02 0. -1.
</event>
<event>
 5   0  0.1344119E-05  0.1900393E+04  0.7818609E-02  0.8654661E-01
       -1   -1    0    0    0  501  0.00000000000E+00  0.00000000000E+00  0.88129437157E+03  0.88129437159E+03  0.50400001928E-02 0. -1.
        1   -1    0    0  501    0  0.00000000000E+00  0.00000000000E+00 -0.10244855231E+04  0.10244855231E+04  0.50400001928E-02 0.  1.
    10030    2    1    2    0    0  0.00000000000E+00  0.00000000000E+00 -0.14319115155E+03  0.19057798947E+04  0.19003929334E+04 0.  0.
        2    1    3    3  502    0 -0.47437085744E+02 -0.69099606445E+03  0.58074623864E+03  0.90387611535E+03  0.25500000920E-02 0.  1.
       -2    1    3    3    0  502  0.47437085744E+02  0.69099606445E+03 -0.72393739019E+03  0.10019037794E+04  0.25500000920E-02 0. -1.
</event>
<event>
 5   0  0.1344119E-05  0.1897342E+04  0.7818609E-02  0.8656180E-01
        1   -1    0    0  501    0  0.00000000000E+00  0.00000000000E+00  0.47341996399E+03  0.47341996402E+03  0.50400001928E-02 0. -1.
       -1   -1    0    0    0  501  0.00000000000E+00  0.00000000000E+00 -0.19010115417E+04  0.19010115417E+04  0.50400001928E-02 0.  1.
    10030    2    1    2    0    0  0.00000000000E+00  0.00000000000E+00 -0.14275915777E+04  0.23744315057E+04  0.18973421575E+04 0.  0.
        2    1    3    3  502    0 -0.38245412994E+03 -0.51539720595E+02  0.37075080762E+03  0.53514826512E+03  0.25500000920E-02 0. -1.
       -2    1    3    3    0  502  0.38245412994E+03  0.51539720595E+02 -0.17983423853E+04  0.18392832406E+04  0.25500000920E-02 0.  1.
</event>
<event>
 5   0  0.1010725E-05  0.1888189E+04  0.7818609E-02  0.8660758E-01
        3   -1    0    0  501    0  0.00000000000E+00  0.00000000000E+00  0.38357671736E+03  0.38357673066E+03  0.10100000352E+00 0.  1.
       -3   -1    0    0    0  501  0.00000000000E+00  0.00000000000E+00 -0.23236934113E+04  0.23236934135E+04  0.10100000352E+00 0. -1.
    10030    2    1    2    0    0  0.00000000000E+00  0.00000000000E+00 -0.19401166939E+04  0.27072701441E+04  0.18881893039E+04 0.  0.
        1    1    3    3  502    0 -0.12729461245E+02  0.38666174985E+03  0.26470634923E+03  0.46876305243E+03  0.50400001928E-02 0.  1.
       -1    1    3    3    0  502  0.12729461245E+02 -0.38666174985E+03 -0.22048230431E+04  0.22385070917E+04  0.50400001928E-02 0. -1.
</event>
<event>
 5   0  0.2879462E-05  0.1899275E+04  0.7818609E-02  0.8655217E-01
        2   -1    0    0  501    0  0.00000000000E+00  0.00000000000E+00  0.11790286026E+04  0.11790286026E+04  0.25500000920E-02 0.  1.
       -2   -1    0    0    0  501  0.00000000000E+00  0.00000000000E+00 -0.76487665176E+03  0.76487665177E+03  0.25500000920E-02 0. -1.
    10030    2    1    2    0    0  0.00000000000E+00  0.00000000000E+00  0.41415195079E+03  0.19439052543E+04  0.18992750721E+04 0.  0.
        4    1    3    3  502    0 -0.40292712800E+03 -0.50182069115E+03  0.92179428802E+03  0.11242244433E+04  0.12699999809E+01 0.  1.
       -4    1    3    3    0  502  0.40292712800E+03  0.50182069115E+03 -0.50764233723E+03  0.81968081104E+03  0.12699999809E+01 0. -1.
</event>
<event>
 5   0  0.1429067E-05  0.1901448E+04  0.7818609E-02  0.8654136E-01
       -1   -1    0    0    0  501  0.00000000000E+00  0.00000000000E+00  0.11731810344E+04  0.11731810344E+04  0.50400001928E-02 0.  1.
        1   -1    0    0  501    0  0.00000000000E+00  0.00000000000E+00 -0.77044893905E+03  0.77044893907E+03  0.50400001928E-02 0. -1.
    10030    2    1    2    0    0  0.00000000000E+00  0.00000000000E+00  0.40273209538E+03  0.19436299735E+04  0.19014479570E+04 0.  0.
        3    1    3    3  502    0 -0.23024606920E+03  0.12921856943E+03 -0.73222187746E+03  0.77836982155E+03  0.10100000352E+00 0. -1.
       -3    1    3    3    0  502  0.23024606920E+03 -0.12921856943E+03  0.11349539728E+04  0.11652601520E+04  0.10100000352E+00 0.  1.
</event>
<event>
 5   0  0.2879462E-05  0.1899706E+04  0.7818609E-02  0.8655003E-01
       -2   -1    0    0    0  501  0.00000000000E+00  0.00000000000E+00  0.13477528845E+04  0.13477528845E+04  0.25500000920E-02 0.  1.
        2   -1    0    0  501    0  0.00000000000E+00  0.00000000000E+00 -0.66942608459E+03  0.66942608460E+03  0.25500000920E-02 0. -1.
    10030    2    1    2    0    0  0.00000000000E+00  0.00000000000E+00  0.67832679988E+03  0.20171789691E+04  0.18997062262E+04 0.  0.
        4    1    3    3  502    0  0.19184187072E+03 -0.90095276681E+03  0.93100769227E+02  0.92584478046E+03  0.12699999809E+01 0. -1.
       -4    1    3    3    0  502 -0.19184187072E+03  0.90095276681E+03  0.58522603065E+03  0.10913341886E+04  0.12699999809E+01 0.  1.
</event>
<event>
 5   0  0.1429067E-05  0.1907762E+04  0.7818609E-02  0.8651002E-01
        1   -1    0    0  501    0  0.00000000000E+00  0.00000000000E+00  0.11051521038E+04  0.11051521038E+04  0.50400001928E-02 0. -1.
       -1   -1    0    0    0  501  0.00000000000E+00  0.00000000000E+00 -0.82331565304E+03  0.82331565306E+03  0.50400001928E-02 0.  1.
    10030    2    1    2    0    0  0.00000000000E+00  0.00000000000E+00  0.28183645077E+03  0.19284677569E+04  0.19077620670E+04 0.  0.
        3    1    3    3  502    0 -0.51126974916E+03 -0.75500506621E+03 -0.14222830476E+03  0.92285335091E+03  0.10100000352E+00 0. -1.
       -3    1    3    3    0  502  0.51126974916E+03  0.75500506621E+03  0.42406475553E+03  0.10056144060E+04  0.10100000352E+00 0.  1.
</event>
<event>
 5   0  0.1429067E-05  0.1904316E+04  0.7818609E-02  0.8652711E-01
        1   -1    0    0  501    0  0.00000000000E+00  0.00000000000E+00  0.12048679399E+04  0.12048679399E+04  0.50400001928E-02 0. -1.
       -1   -1    0    0    0  501  0.00000000000E+00  0.00000000000E+00 -0.75245142403E+03  0.75245142405E+03  0.50400001928E-02 0.  1.
    10030    2    1    2    0    0  0.00000000000E+00  0.00000000000E+00  0.45241651590E+03  0.19573193640E+04  0.19043157272E+04 0.  0.
        3    1    3    3  502    0  0.65581163098E+01 -0.28507154854E+03  0.11599516759E+04  0.11944859552E+04  0.10100000352E+00 0. -1.
       -3    1    3    3    0  502 -0.65581163098E+01  0.28507154854E+03 -0.70753515999E+03  0.76283340875E+03  0.10100000352E+00 0.  1.
</event>
<event>
 5   0  0.2855141E-05  0.1898010E+04  0.7818609E-02  0.8655847E-01
        2   -1    0    0  501    0  0.00000000000E+00  0.00000000000E+00  0.91988009014E+03  0.91988009014E+03  0.25500000920E-02 0.  1.
       -2   -1    0    0    0  501  0.00000000000E+00  0.00000000000E+00 -0.97905238872E+03  0.97905238872E+03  0.25500000920E-02 0. -1.
    10030    2    1    2    0    0  0.00000000000E+00  0.00000000000E+00 -0.59172298583E+02  0.18989324789E+04  0.18980103262E+04 0.  0.
        1    1    3    3  502    0 -0.68342578062E+03  0.47519175303E+03  0.42641242937E+03  0.93525694850E+03  0.50400001928E-02 0.  1.
       -1    1    3    3    0  502  0.68342578062E+03 -0.47519175303E+03 -0.48558472795E+03  0.96367553036E+03  0.50400001928E-02 0. -1.
</event>
<event>
 5   0  0.2855141E-05  0.1900781E+04  0.7818609E-02  0.8654468E-01
        2   -1    0    0  501    0  0.00000000000E+00  0.00000000000E+00  0.64356141246E+03  0.64356141246E+03  0.25500000920E-02 0. -1.
       -2   -1    0    0    0  501  0.00000000000E+00  0.00000000000E+00 -0.14035056263E+04  0.14035056263E+04  0.25500000920E-02 0.  1.
    10030    2    1    2    0    0  0.00000000000E+00  0.00000000000E+00 -0.75994421388E+03  0.20470670388E+04  0.19007809588E+04 0.  0.
        1    1    3    3  502    0 -0.93767292117E+03  0.13308766441E+03 -0.29449620017E+03  0.99180181763E+03  0.50400001928E-02 0.  1.
       -1    1    3    3    0  502  0.93767292117E+03 -0.13308766441E+03 -0.46544801372E+03  0.10552652212E+04  0.50400001928E-02 0. -1.
</event>
<event>
 5   0  0.2813537E-05  0.1892601E+04  0.7818609E-02  0.8658548E-01
       -2   -1    0    0    0  501  0.00000000000E+00  0.00000000000E+00  0.49970348868E+03  0.49970348868E+03  0.25500000920E-02 0.  1.
        2   -1    0    0  501    0  0.00000000000E+00  0.00000000000E+00 -0.17920325265E+04  0.17920325265E+04  0.25500000920E-02 0. -1.
    10030    2    1    2    0    0  0.00000000000E+00  0.00000000000E+00 -0.12923290378E+04  0.22917360152E+04  0.18926012843E+04 0.  0.
        2    1    3    3  502    0 -0.63658087282E+03  0.69802955122E+03 -0.57979212736E+03  0.11084400629E+04  0.25500000920E-02 0. -1.
       -2    1    3    3    0  502  0.63658087282E+03 -0.69802955122E+03 -0.71253691049E+03  0.11832959523E+04  0.25500000920E-02 0.  1.
</event>
<event>
 5   0  0.2879462E-05  0.1900327E+04  0.7818609E-02  0.8654693E-01
       -2   -1    0    0    0  501  0.00000000000E+00  0.00000000000E+00  0.35620184891E+03  0.35620184892E+03  0.25500000920E-02 0.  1.
        2   -1    0    0  501    0  0.00000000000E+00  0.00000000000E+00 -0.25345491797E+04  0.25345491797E+04  0.25500000920E-02 0. -1.
    10030    2    1    2    0    0  0.00000000000E+00  0.00000000000E+00 -0.21783473308E+04  0.28907510286E+04  0.19003274496E+04 0.  0.
        4    1    3    3  502    0 -0.88842034485E+03  0.23245991087E+03 -0.71817529254E+03  0.11658068807E+04  0.12699999809E+01 0.  1.
       -4    1    3    3    0  502  0.88842034485E+03 -0.23245991087E+03 -0.14601720382E+04  0.17249441479E+04  0.12699999809E+01 0. -1.
</event>
<event>
 5   0  0.1413011E-05  0.1900857E+04  0.7818609E-02  0.8654430E-01
        1   -1    0    0  501    0  0.00000000000E+00  0.00000000000E+00  0.13678639891E+04  0.13678639891E+04  0.50400001928E-02 0. -1.
       -1   -1    0    0    0  501  0.00000000000E+00  0.00000000000E+00 -0.66038303597E+03  0.66038303599E+03  0.50400001928E-02 0.  1.
    10030    2    1    2    0    0  0.00000000000E+00  0.00000000000E+00  0.70748095314E+03  0.20282470251E+04  0.19008568320E+04 0.  0.
        1    1    3    3  502    0 -0.82408285898E+03 -0.30363622266E+03  0.74141687356E+03  0.11493504664E+04  0.50400001928E-02 0. -1.
       -1    1    3    3    0  502  0.82408285898E+03  0.30363622266E+03 -0.33935920426E+02  0.87889655870E+03  0.50400001928E-02 0.  1.
</event>
<event>
 5   0  0.1429067E-05  0.1892196E+04  0.7818609E-02  0.8658751E-01
        1   -1    0    0  501    0  0.00000000000E+00  0.00000000000E+00  0.13084468308E+04  0.13084468308E+04  0.50400001928E-02 0. -1.
       -1   -1    0    0    0  501  0.00000000000E+00  0.00000000000E+00 -0.68409480565E+03  0.68409480567E+03  0.50400001928E-02 0.  1.
    10030    2    1    2    0    0  0.00000000000E+00  0.00000000000E+00  0.62435202518E+03  0.19925416365E+04  0.18921962694E+04 0.  0.
        3    1    3    3  502    0  0.84463483884E+02 -0.90341766411E+03  0.30002731457E+02  0.90785336373E+03  0.10100000352E+00 0. -1.
       -3    1    3    3    0  502 -0.84463483884E+02  0.90341766411E+03  0.59434929372E+03  0.10846882728E+04  0.10100000352E+00 0.  1.
</event>
<event>
 5   0  0.2813537E-05  0.1897472E+04  0.7818609E-02  0.8656116E-01
       -2   -1    0    0    0  501  0.00000000000E+00  0.00000000000E+00  0.52291259226E+03  0.52291259227E+03  0.25500000920E-02 0. -1.
        2   -1    0    0  501    0  0.00000000000E+00  0.00000000000E+00 -0.17213205464E+04  0.17213205464E+04  0.25500000920E-02 0.  1.
    10030    2    1    2    0    0  0.00000000000E+00  0.00000000000E+00 -0.11984079541E+04  0.22442331386E+04  0.18974722017E+04 0.  0.
        2    1    3    3  502    0 -0.68374189771E+03  0.22301051410E+03  0.13263332352E+03  0.73131954070E+03  0.25500000920E-02 0. -1.
       -2    1    3    3    0  502  0.68374189771E+03 -0.22301051410E+03 -0.13310412776E+04  0.15129135979E+04  0.25500000920E-02 0.  1.
</event>
<event>
 5   0  0.1344119E-05  0.1898461E+04  0.7818609E-02  0.8655623E-01
        1   -1    0    0  501    0  0.00000000000E+00  0.00000000000E+00  0.16629365707E+04  0.16629365707E+04  0.50400001928E-02 0. -1.
       -1   -1    0    0    0  501  0.00000000000E+00  0.00000000000E+00 -0.54183557735E+03  0.54183557737E+03  0.50400001928E-02 0.  1.
    10030    2    1    2    0    0  0.00000000000E+00  0.00000000000E+00  0.11211009933E+04  0.22047721480E+04  0.18984606363E+04 0.  0.
        2    1    3    3  502    0  0.52594119849E+03 -0.73774688020E+03  0.23175669945E+03  0.93519825238E+03  0.25500000920E-02 0.  1.
       -2    1    3    3    0  502 -0.52594119849E+03  0.73774688020E+03  0.88934429387E+03  0.12695738957E+04  0.25500000920E-02 0. -1.
</event>
<event>
 5   0  0.1471485E-05  0.1944830E+04  0.7818609E-02  0.8632858E-01
        1   -1    0    0  501    0  0.00000000000E+00  0.00000000000E+00  0.11919263285E+04  0.11919263285E+04  0.50400001928E-02 0. -1.
       -1   -1    0    0    0  501  0.00000000000E+00  0.00000000000E+00 -0.79332998798E+03  0.79332998800E+03  0.50400001928E-02 0.  1.
    10030    2    1    2    0    0  0.00000000000E+00  0.00000000000E+00  0.39859634052E+03  0.19852563165E+04  0.19448299668E+04 0.  0.
        4    1    3    3  502    0 -0.29907098009E+03 -0.35521522038E+02 -0.74452048630E+03  0.80312987560E+03  0.12699999809E+01 0.  1.
       -4    1    3    3    0  502  0.29907098009E+03  0.35521522038E+02  0.11431168268E+04  0.11821264409E+04  0.12699999809E+01 0. -1.
</event>
<event>
 5   0  0.1471485E-05  0.1888563E+04  0.7818609E-02  0.8660570E-01
        1   -1    0    0  501    0  0.00000000000E+00  0.00000000000E+00  0.97535189512E+03  0.97535189513E+03  0.50400001928E-02 0.  1.
       -1   -1    0    0    0  501  0.00000000000E+00  0.00000000000E+00 -0.91420124994E+03  0.91420124995E+03  0.50400001928E-02 0. -1.
    10030    2    1    2    0    0  0.00000000000E+00  0.00000000000E+00  0.61150645182E+02  0.18895531451E+04  0.18885633923E+04 0.  0.
        4    1    3    3  502    0 -0.35988599589E+03  0.27302020327E+03  0.86023142951E+03  0.97162631019E+03  0.12699999809E+01 0.  1.
       -4    1    3    3    0  502  0.35988599589E+03 -0.27302020327E+03 -0.79908078433E+03  0.91792683489E+03  0.12699999809E+01 0. -1.
</event>
<event>
 5   0  0.2813537E-05  0.1900456E+04  0.7818609E-02  0.8654629E-01
        2   -1    0    0  501    0  0.00000000000E+00  0.00000000000E+00  0.79173331970E+03  0.79173331971E+03  0.25500000920E-02 0.  1.
       -2   -1    0    0    0  501  0.00000000000E+00  0.00000000000E+00 -0.11404514307E+04  0.11404514307E+04  0.25500000920E-02 0. -1.
    10030    2    1    2    0    0  0.00000000000E+00  0.00000000000E+00 -0.34871811102E+03  0.19321847504E+04  0.19004561528E+04 0.  0.
        2    1    3    3  502    0  0.93453460312E+03 -0.12393705629E+03 -0.29558937657E+03  0.98797186088E+03  0.25500000920E-02 0.  1.
       -2    1    3    3    0  502 -0.93453460312E+03  0.12393705629E+03 -0.53128734442E+02  0.94421288954E+03  0.25500000920E-02 0. -1.
</event>
<event>
 5   0  0.1413011E-05  0.1897189E+04  0.7818609E-02  0.8656257E-01
       -1   -1    0    0    0  501  0.00000000000E+00  0.00000000000E+00  0.79738478365E+03  0.79738478366E+03  0.50400001928E-02 0.  1.
        1   -1    0    0  501    0  0.00000000000E+00  0.00000000000E+00 -0.11284789707E+04  0.11284789708E+04  0.50400001928E-02 0. -1.
    10030    2    1    2    0    0  0.00000000000E+00  0.00000000000E+00 -0.33109418710E+03  0.19258637544E+04  0.18971894581E+04 0.  0.
        1    1    3    3  502    0 -0.56530575053E+03 -0.52696309165E+03  0.39283142196E+03  0.86693553258E+03  0.50400001928E-02 0.  1.
       -1    1    3    3    0  502  0.56530575053E+03  0.52696309165E+03 -0.72392560906E+03  0.10589282218E+04  0.50400001928E-02 0. -1.
</event>
<event>
 5   0  0.2813537E-05  0.1900451E+04  0.7818609E-02  0.8654632E-01
       -2   -1    0    0    0  501  0.00000000000E+00  0.00000000000E+00  0.12650610699E+04  0.12650610700E+04  0.25500000920E-02 0. -1.
        2   -1    0    0  501    0  0.00000000000E+00  0.00000000000E+00 -0.71374304102E+03  0.71374304102E+03  0.25500000920E-02 0.  1.
    10030    2    1    2    0    0  0.00000000000E+00  0.00000000000E+00  0.55131802893E+03  0.19788041110E+04  0.19004510361E+04 0.  0.
        2    1    3    3  502    0 -0.75490622797E+03 -0.42667269076E+03  0.68026115379E+03  0.11021289559E+04  0.25500000920E-02 0. -1.
       -2    1    3    3    0  502  0.75490622797E+03  0.42667269076E+03 -0.12894312487E+03  0.87667515507E+03  0.25500000920E-02 0.  1.
</event>
<event>
 5   0  0.2813537E-05  0.1890572E+04  0.7818609E-02  0.8659563E-01
       -2   -1    0    0    0  501  0.00000000000E+00  0.00000000000E+00  0.75993249864E+03  0.75993249864E+03  0.25500000920E-02 0.  1.
        2   -1    0    0  501    0  0.00000000000E+00  0.00000000000E+00 -0.11758489151E+04  0.11758489151E+04  0.25500000920E-02 0. -1.
    10030    2    1    2    0    0  0.00000000000E+00  0.00000000000E+00 -0.41591641642E+03  0.19357814137E+04  0.18905721928E+04 0.  0.
        2    1    3    3  502    0 -0.63006724908E+03  0.12479832034E+03 -0.91808925048E+03  0.11204674163E+04  0.25500000920E-02 0. -1.
       -2    1    3    3    0  502  0.63006724908E+03 -0.12479832034E+03  0.50217283406E+03  0.81531399742E+03  0.25500000920E-02 0.  1.
</event>
<event>
 5   0  0.2813537E-05  0.1898585E+04  0.7818609E-02  0.8655561E-01
        2   -1    0    0  501    0  0.00000000000E+00  0.00000000000E+00  0.13587873121E+04  0.13587873121E+04  0.25500000920E-02 0.  1.
       -2   -1    0    0    0  501  0.00000000000E+00  0.00000000000E+00 -0.66320630396E+03  0.66320630397E+03  0.25500000920E-02 0. -1.
    10030    2    1    2    0    0  0.00000000000E+00  0.00000000000E+00  0.69558100812E+03  0.20219936161E+04  0.18985850638E+04 0.  0.
        2    1    3    3  502    0  0.51364903986E+03  0.31179067497E+03  0.11304806106E+04  0.12802480900E+04  0.25500000920E-02 0.  1.
       -2    1    3    3    0  502 -0.51364903986E+03 -0.31179067497E+03 -0.43489960245E+03  0.74174552602E+03  0.25500000920E-02 0. -1.
</event>
<event>
 5   0  0.2855141E-05  0.1903999E+04  0.7818609E-02  0.8652868E-01
       -2   -1    0    0    0  501  0.00000000000E+00  0.00000000000E+00  0.66481204822E+03  0.66481204823E+03  0.25500000920E-02 0. -1.
        2   -1    0    0  501    0  0.00000000000E+00  0.00000000000E+00 -0.13632468236E+04  0.13632468236E+04  0.25500000920E-02 0.  1.
    10030    2    1    2    0    0  0.00000000000E+00  0.00000000000E+00 -0.69843477541E+03  0.20280588719E+04  0.19039988583E+04 0.  0.
        1    1    3    3  502    0  0.26449803592E+03 -0.90963531468E+03 -0.44974533725E+03  0.10486498391E+04  0.50400001928E-02 0. -1.
       -1    1    3    3    0  502 -0.26449803592E+03  0.90963531468E+03 -0.24868943816E+03  0.97940903273E+03  0.50400001928E-02 0.  1.
</event>
<event>
 5   0  0.1344119E-05  0.1900362E+04  0.7818609E-02  0.8654676E-01
        1   -1    0    0  501    0  0.00000000000E+00  0.00000000000E+00  0.16520290330E+04  0.16520290331E+04  0.50400001928E-02 0. -1.
       -1   -1    0    0    0  501  0.00000000000E+00  0.00000000000E+00 -0.54650615144E+03  0.54650615146E+03  0.50400001928E-02 0.  1.
    10030    2    1    2    0    0  0.00000000000E+00  0.00000000000E+00  0.11055228816E+04  0.21985351845E+04  0.19003621012E+04 0.  0.
        2    1    3    3  502    0  0.61871678355E+03 -0.71428200630E+03  0.43803077325E+03  0.10415758259E+04  0.25500000920E-02 0. -1.
       -2    1    3    3    0  502 -0.61871678355E+03  0.71428200630E+03  0.66749210836E+03  0.11569593586E+04  0.25500000920E-02 0.  1.
</event>
<event>
 5   0  0.2879462E-05  0.1899881E+04  0.7818609E-02  0.8654915E-01
        2   -1    0    0  501    0  0.00000000000E+00  0.00000000000E+00  0.93664479583E+03  0.93664479583E+03  0.25500000920E-02 0.  1.
       -2   -1    0    0    0  501  0.00000000000E+00  0.00000000000E+00 -0.96342519989E+03  0.96342519989E+03  0.25500000920E-02 0. -1.
    10030    2    1    2    0    0  0.00000000000E+00  0.00000000000E+00 -0.26780404062E+02  0.19000699957E+04  0.18998812591E+04 0.  0.
        4    1    3    3  502    0  0.83143303562E+03  0.37360360213E+03 -0.28085843190E+03  0.95380481018E+03  0.12699999809E+01 0. -1.
       -4    1    3    3    0  502 -0.83143303562E+03 -0.37360360213E+03  0.25407802784E+03  0.94626518555E+03  0.12699999809E+01 0.  1.
</event>
<event>
 5   0  0.2789718E-05  0.1903479E+04  0.7818609E-02  0.8653126E-01
       -2   -1    0    0    0  501  0.00000000000E+00  0.00000000000E+00  0.66621167826E+03  0.66621167827E+03  0.25500000920E-02 0.  1.
        2   -1    0    0  501    0  0.00000000000E+00  0.00000000000E+00 -0.13596405426E+04  0.13596405426E+04  0.25500000920E-02 0. -1.
    10030    2    1    2    0    0  0.00000000000E+00  0.00000000000E+00 -0.69342886429E+03  0.20258522208E+04  0.19034793487E+04 0.  0.
        5    1    3    3  502    0 -0.42920875386E+03  0.24465189144E+03 -0.12124673651E+04  0.13092646423E+04  0.46999998093E+01 0. -1.
       -5    1    3    3    0  502  0.42920875386E+03 -0.24465189144E+03  0.51903850076E+03  0.71658757849E+03  0.46999998093E+01 0.  1.
</event>
<event>
 5   0  0.1327254E-05  0.1897139E+04  0.7818609E-02  0.8656282E-01
        1   -1    0    0  501    0  0.00000000000E+00  0.00000000000E+00  0.81900227365E+03  0.81900227366E+03  0.50400001928E-02 0.  1.
       -1   -1    0    0    0  501  0.00000000000E+00  0.00000000000E+00 -0.10986342905E+04  0.10986342905E+04  0.50400001928E-02 0. -1.
    10030    2    1    2    0    0  0.00000000000E+00  0.00000000000E+00 -0.27963201685E+03  0.19176365642E+04  0.18971388793E+04 0.  0.
        5    1    3    3  502    0  0.13439318393E+03 -0.78854862253E+03 -0.65511958898E+03  0.10339604556E+04  0.46999998093E+01 0. -1.
       -5    1    3    3    0  502 -0.13439318393E+03  0.78854862253E+03  0.37548757213E+03  0.88367610853E+03  0.46999998093E+01 0.  1.
</event>
<event>
 5   0  0.2789718E-05  0.1899811E+04  0.7818609E-02  0.8654951E-01
       -2   -1    0    0    0  501  0.00000000000E+00  0.00000000000E+00  0.82157996200E+03  0.82157996200E+03  0.25500000920E-02 0. -1.
        2   -1    0    0  501    0  0.00000000000E+00  0.00000000000E+00 -0.10982741849E+04  0.10982741849E+04  0.25500000920E-02 0.  1.
    10030    2    1    2    0    0  0.00000000000E+00  0.00000000000E+00 -0.27669422294E+03  0.19198541469E+04  0.18998105833E+04 0.  0.
        5    1    3    3  502    0 -0.29258555922E+03  0.84544527111E+03 -0.46095483913E+03  0.10064221130E+04  0.46999998093E+01 0.  1.
       -5    1    3    3    0  502  0.29258555922E+03 -0.84544527111E+03  0.18426061619E+03  0.91343203391E+03  0.46999998093E+01 0. -1.
</event>
<event>
 5   0  0.1327254E-05  0.1901984E+04  0.7818609E-02  0.8653870E-01
        1   -1    0    0  501    0  0.00000000000E+00  0.00000000000E+00  0.67211172962E+03  0.67211172964E+03  0.50400001928E-02 0.  1.
       -1   -1    0    0    0  501  0.00000000000E+00  0.00000000000E+00 -0.13455882659E+04  0.13455882659E+04  0.50400001928E-02 0. -1.
    10030    2    1    2    0    0  0.00000000000E+00  0.00000000000E+00 -0.67347653625E+03  0.20176999955E+04  0.19019838661E+04 0.  0.
        5    1    3    3  502    0 -0.18088871328E+03 -0.73222512273E+03 -0.95119179696E+03  0.12139449253E+04  0.46999998093E+01 0. -1.
       -5    1    3    3    0  502  0.18088871328E+03  0.73222512273E+03  0.27771526071E+03  0.80375507026E+03  0.46999998093E+01 0.  1.
</event>
<event>
 5   0  0.2789718E-05  0.1900356E+04  0.7818609E-02  0.8654679E-01
        2   -1    0    0  501    0  0.00000000000E+00  0.00000000000E+00  0.14400553819E+04  0.14400553819E+04  0.25500000920E-02 0. -1.
       -2   -1    0    0    0  501  0.00000000000E+00  0.00000000000E+00 -0.62694690546E+03  0.62694690547E+03  0.25500000920E-02 0.  1.
    10030    2    1    2    0    0  0.00000000000E+00  0.00000000000E+00  0.81310847648E+03  0.20670022874E+04  0.19003560355E+04 0.  0.
        5    1    3    3  502    0  0.26129342875E+03 -0.74438199193E+03 -0.16944767394E+03  0.80691598697E+03  0.46999998093E+01 0.  1.
       -5    1    3    3    0  502 -0.26129342875E+03  0.74438199193E+03  0.98255615043E+03  0.12600863004E+04  0.46999998093E+01 0. -1.
</event>
<event>
 5   0  0.2813537E-05  0.1899927E+04  0.7818609E-02  0.8654893E-01
       -2   -1    0    0    0  501  0.00000000000E+00  0.00000000000E+00  0.30108057522E+03  0.30108057523E+03  0.25500000920E-02 0. -1.
        2   -1    0    0  501    0  0.00000000000E+00  0.00000000000E+00 -0.29973053793E+04  0.29973053793E+04  0.25500000920E-02 0.  1.
    10030    2    1    2    0    0  0.00000000000E+00  0.00000000000E+00 -0.26962248041E+04  0.32983859545E+04  0.18999267646E+04 0.  0.
        2    1    3    3  502    0  0.59858582428E+03  0.57945204414E+03 -0.21405637083E+04  0.22969724965E+04  0.25500000920E-02 0.  1.
       -2    1    3    3    0  502 -0.59858582428E+03 -0.57945204414E+03 -0.55566109576E+03  0.10014134580E+04  0.25500000920E-02 0. -1.
</event>
<event>
 5   0  0.1413011E-05  0.1900543E+04  0.7818609E-02  0.8654586E-01
       -1   -1    0    0    0  501  0.00000000000E+00  0.00000000000E+00  0.64079373739E+03  0.64079373741E+03  0.50400001928E-02 0.  1.
        1   -1    0    0  501    0  0.00000000000E+00  0.00000000000E+00 -0.14092140049E+04  0.14092140049E+04  0.50400001928E-02 0. -1.
    10030    2    1    2    0    0  0.00000000000E+00  0.00000000000E+00 -0.76842026754E+03  0.20500077423E+04  0.19005425636E+04 0.  0.
        1    1    3    3  502    0 -0.84603486263E+03  0.40721007078E+03 -0.22634272348E+03  0.96582920800E+03  0.50400001928E-02 0.  1.
       -1    1    3    3    0  502  0.84603486263E+03 -0.40721007078E+03 -0.54207754405E+03  0.10841785343E+04  0.50400001928E-02 0. -1.
</event>
<event>
 5   0  0.1429067E-05  0.1899398E+04  0.7818609E-02  0.8655156E-01
        1   -1    0    0  501    0  0.00000000000E+00  0.00000000000E+00  0.11049811579E+04  0.11049811579E+04  0.50400001928E-02 0.  1.
       -1   -1    0    0    0  501  0.00000000000E+00  0.00000000000E+00 -0.81623894396E+03  0.81623894397E+03  0.50400001928E-02 0. -1.
    10030    2    1    2    0    0  0.00000000000E+00  0.00000000000E+00  0.28874221394E+03  0.19212201019E+04  0.18993984874E+04 0.  0.
        3    1    3    3  502    0 -0.27382006786E+03 -0.26410750127E+03 -0.73579753129E+03  0.82832856950E+03  0.10100000352E+00 0. -1.
       -3    1    3    3    0  502  0.27382006786E+03  0.26410750127E+03  0.10245397452E+04  0.10928915324E+04  0.10100000352E+00 0.  1.
</event>
<event>
 5   0  0.2879462E-05  0.1891787E+04  0.7818609E-02  0.8658955E-01
       -2   -1    0    0    0  501  0.00000000000E+00  0.00000000000E+00  0.84155500715E+03  0.84155500716E+03  0.25500000920E-02 0.  1.
        2   -1    0    0  501    0  0.00000000000E+00  0.00000000000E+00 -0.10631684659E+04  0.10631684659E+04  0.25500000920E-02 0. -1.
    10030    2    1    2    0    0  0.00000000000E+00  0.00000000000E+00 -0.22161345870E+03  0.19047234730E+04  0.18917872459E+04 0.  0.
        4    1    3    3  502    0  0.58869469888E+03  0.64526387589E+03 -0.47631283250E+03  0.99488815719E+03  0.12699999809E+01 0. -1.
       -4    1    3    3    0  502 -0.58869469888E+03 -0.64526387589E+03  0.25469937380E+03  0.90983531583E+03  0.12699999809E+01 0.  1.
</event>
<event>
 5   0  0.2879462E-05  0.1901301E+04  0.7818609E-02  0.8654209E-01
        2   -1    0    0  501    0  0.00000000000E+00  0.00000000000E+00  0.74667646956E+03  0.74667646957E+03  0.25500000920E-02 0.  1.
       -2   -1    0    0    0  501  0.00000000000E+00  0.00000000000E+00 -0.12103448175E+04  0.12103448175E+04  0.25500000920E-02 0. -1.
    10030    2    1    2    0    0  0.00000000000E+00  0.00000000000E+00 -0.46366834798E+03  0.19570212871E+04  0.19013006026E+04 0.  0.
        4    1    3    3  502    0  0.22271038757E+03 -0.31648184086E+03 -0.11255981896E+04  0.11902661760E+04  0.12699999809E+01 0. -1.
       -4    1    3    3    0  502 -0.22271038757E+03  0.31648184086E+03  0.66192984163E+03  0.76675511114E+03  0.12699999809E+01 0.  1.
</event>
<event>
 5   0  0.2855141E-05  0.1888187E+04  0.7818609E-02  0.8660759E-01
        2   -1    0    0  501    0  0.00000000000E+00  0.00000000000E+00  0.89921905183E+03  0.89921905183E+03  0.25500000920E-02 0. -1.
       -2   -1    0    0    0  501  0.00000000000E+00  0.00000000000E+00 -0.99120698154E+03  0.99120698154E+03  0.25500000920E-02 0.  1.
    10030    2    1    2    0    0  0.00000000000E+00  0.00000000000E+00 -0.91987929710E+02  0.18904260334E+04  0.18881866456E+04 0.  0.
        1    1    3    3  502    0  0.59682879615E+03  0.72873169857E+03 -0.10976960468E+03  0.94831633254E+03  0.50400001928E-02 0. -1.
       -1    1    3    3    0  502 -0.59682879615E+03 -0.72873169857E+03  0.17781674969E+02  0.94210970084E+03  0.50400001928E-02 0.  1.
</event>
<event>
 5   0  0.1010725E-05  0.1899457E+04  0.7818609E-02  0.8655127E-01
        4   -1    0    0  501    0  0.00000000000E+00  0.00000000000E+00  0.11063392064E+04  0.11063399353E+04  0.12699999809E+01 0.  1.
       -4   -1    0    0    0  501  0.00000000000E+00  0.00000000000E+00 -0.81528585447E+03  0.81528684363E+03  0.12699999809E+01 0. -1.
    10030    2    1    2    0    0  0.00000000000E+00  0.00000000000E+00  0.29105335193E+03  0.19216267790E+04  0.18994571393E+04 0.  0.
        1    1    3    3  502    0  0.67584612884E+03 -0.66724089003E+03  0.14799664236E+03  0.96118749543E+03  0.50400001928E-02 0.  1.
       -1    1    3    3    0  502 -0.67584612884E+03  0.66724089003E+03  0.14305670957E+03  0.96043928354E+03  0.50400001928E-02 0. -1.
</event>
<event>
 5   0  0.1429067E-05  0.1895218E+04  0.7818609E-02  0.8657240E-01
       -1   -1    0    0    0  501  0.00000000000E+00  0.00000000000E+00  0.75119027269E+03  0.75119027271E+03  0.50400001928E-02 0.  1.
        1   -1    0    0  501    0  0.00000000000E+00  0.00000000000E+00 -0.11953869806E+04  0.11953869806E+04  0.50400001928E-02 0. -1.
    10030    2    1    2    0    0  0.00000000000E+00  0.00000000000E+00 -0.44419670789E+03  0.19465772533E+04  0.18952182692E+04 0.  0.
        3    1    3    3  502    0 -0.24773630787E+03  0.54046640447E+03 -0.97998753683E+03  0.11462341799E+04  0.10100000352E+00 0. -1.
       -3    1    3    3    0  502  0.24773630787E+03 -0.54046640447E+03  0.53579082894E+03  0.80034307342E+03  0.10100000352E+00 0.  1.
</event>
<event>
 5   0  0.1413011E-05  0.1901073E+04  0.7818609E-02  0.8654322E-01
        1   -1    0    0  501    0  0.00000000000E+00  0.00000000000E+00  0.15588358145E+04  0.15588358145E+04  0.50400001928E-02 0. -1.
       -1   -1    0    0    0  501  0.00000000000E+00  0.00000000000E+00 -0.57961186111E+03  0.57961186113E+03  0.50400001928E-02 0.  1.
    10030    2    1    2    0    0  0.00000000000E+00  0.00000000000E+00  0.97922395342E+03  0.21384476757E+04  0.19010730945E+04 0.  0.
        1    1    3    3  502    0 -0.77936526697E+03  0.47667212617E+03  0.19436329464E+03  0.93402549513E+03  0.50400001928E-02 0.  1.
       -1    1    3    3    0  502  0.77936526697E+03 -0.47667212617E+03  0.78486065878E+03  0.12044221805E+04  0.50400001928E-02 0. -1.
</event>
<event>
 5   0  0.2813537E-05  0.1900044E+04  0.7818609E-02  0.8654835E-01
       -2   -1    0    0    0  501  0.00000000000E+00  0.00000000000E+00  0.75485043302E+03  0.75485043302E+03  0.25500000920E-02 0.  1.
        2   -1    0    0  501    0  0.00000000000E+00  0.00000000000E+00 -0.11956563046E+04  0.11956563046E+04  0.25500000920E-02 0. -1.
    10030    2    1    2    0    0  0.00000000000E+00  0.00000000000E+00 -0.44080587157E+03  0.19505067376E+04  0.19000438724E+04 0.  0.
        2    1    3    3  502    0 -0.48866225326E+03 -0.64626232410E+03 -0.72965876177E+03  0.10903429268E+04  0.25500000920E-02 0.  1.
       -2    1    3    3    0  502  0.48866225326E+03  0.64626232410E+03  0.28885289019E+03  0.86016381085E+03  0.25500000920E-02 0. -1.
</event>
<event>
 5   0  0.1327254E-05  0.1908857E+04  0.7818609E-02  0.8650460E-01
        1   -1    0    0  501    0  0.00000000000E+00  0.00000000000E+00  0.13134053033E+04  0.13134053033E+04  0.50400001928E-02 0.  1.
       -1   -1    0    0    0  501  0.00000000000E+00  0.00000000000E+00 -0.69356607237E+03  0.69356607239E+03  0.50400001928E-02 0. -1.
    10030    2    1    2    0    0  0.00000000000E+00  0.00000000000E+00  0.61983923089E+03  0.20069713757E+04  0.19088565767E+04 0.  0.
        5    1    3    3  502    0  0.44175697035E+02 -0.92553613515E+03  0.69374976000E+02  0.92919513934E+03  0.46999998093E+01 0. -1.
       -5    1    3    3    0  502 -0.44175697035E+02  0.92553613515E+03  0.55046425489E+03  0.10777762363E+04  0.46999998093E+01 0.  1.
</event>
<event>
 5   0  0.1429067E-05  0.1894502E+04  0.7818609E-02  0.8657598E-01
       -1   -1    0    0    0  501  0.00000000000E+00  0.00000000000E+00  0.88770964210E+03  0.88770964211E+03  0.50400001928E-02 0.  1.
        1   -1    0    0  501    0  0.00000000000E+00  0.00000000000E+00 -0.10107858759E+04  0.10107858759E+04  0.50400001928E-02 0. -1.
    10030    2    1    2    0    0  0.00000000000E+00  0.00000000000E+00 -0.12307623380E+03  0.18984955180E+04  0.18945019062E+04 0.  0.
        3    1    3    3  502    0  0.21889011237E+03  0.16901231980E+03 -0.96943154720E+03  0.10081049452E+04  0.10100000352E+00 0. -1.
       -3    1    3    3    0  502 -0.21889011237E+03 -0.16901231980E+03  0.84635531340E+03  0.89039057287E+03  0.10100000352E+00 0.  1.
</event>
<event>
 5   0  0.1344119E-05  0.1900174E+04  0.7818609E-02  0.8654770E-01
        1   -1    0    0  501    0  0.00000000000E+00  0.00000000000E+00  0.11106726793E+04  0.11106726793E+04  0.50400001928E-02 0. -1.
       -1   -1    0    0    0  501  0.00000000000E+00  0.00000000000E+00 -0.81271979020E+03  0.81271979021E+03  0.50400001928E-02 0.  1.
    10030    2    1    2    0    0  0.00000000000E+00  0.00000000000E+00  0.29795288907E+03  0.19233924695E+04  0.19001743782E+04 0.  0.
        2    1    3    3  502    0  0.66408247242E+03 -0.36688701141E+03 -0.42989779613E+03  0.87202277748E+03  0.25500000920E-02 0.  1.
       -2    1    3    3    0  502 -0.66408247242E+03  0.36688701141E+03  0.72785068520E+03  0.10513696920E+04  0.25500000920E-02 0. -1.
</event>
<event>
 5   0  0.2813537E-05  0.1892446E+04  0.7818609E-02  0.8658626E-01
       -2   -1    0    0    0  501  0.00000000000E+00  0.00000000000E+00  0.14621682143E+04  0.14621682143E+04  0.25500000920E-02 0. -1.
        2   -1    0    0  501    0  0.00000000000E+00  0.00000000000E+00 -0.61233588976E+03  0.61233588976E+03  0.25500000920E-02 0.  1.
    10030    2    1    2    0    0  0.00000000000E+00  0.00000000000E+00  0.84983232459E+03  0.20745041041E+04  0.18924461150E+04 0.  0.
        2    1    3    3  502    0  0.23347043582E+03 -0.77753678380E+03  0.95774970402E+03  0.12555303223E+04  0.25500000920E-02 0. -1.
       -2    1    3    3    0  502 -0.23347043582E+03  0.77753678380E+03 -0.10791737943E+03  0.81897378185E+03  0.25500000920E-02 0.  1.
</event>
<event>
 5   0  0.2789718E-05  0.1902362E+04  0.7818609E-02  0.8653681E-01
        2   -1    0    0  501    0  0.00000000000E+00  0.00000000000E+00  0.17416620308E+04  0.17416620308E+04  0.25500000920E-02 0. -1.
       -2   -1    0    0    0  501  0.00000000000E+00  0.00000000000E+00 -0.51947248926E+03  0.51947248926E+03  0.25500000920E-02 0.  1.
    10030    2    1    2    0    0  0.00000000000E+00  0.00000000000E+00  0.12221895416E+04  0.22611345201E+04  0.19023622269E+04 0.  0.
        5    1    3    3  502    0 -0.54855553222E+03 -0.39536109751E+03 -0.18401965670E+03  0.70079161910E+03  0.46999998093E+01 0.  1.
       -5    1    3    3    0  502  0.54855553222E+03  0.39536109751E+03  0.14062091983E+04  0.15603429010E+04  0.46999998093E+01 0. -1.
</event>
<event>
 5   0  0.1327254E-05  0.1884168E+04  0.7818609E-02  0.8662778E-01
        1   -1    0    0  501    0  0.00000000000E+00  0.00000000000E+00  0.17399154280E+04  0.17399154280E+04  0.50400001928E-02 0. -1.
       -1   -1    0    0    0  501  0.00000000000E+00  0.00000000000E+00 -0.51009483934E+03  0.51009483936E+03  0.50400001928E-02 0.  1.
    10030    2    1    2    0    0  0.00000000000E+00  0.00000000000E+00  0.12298205887E+04  0.22500102674E+04  0.18841675942E+04 0.  0.
        5    1    3    3  502    0  0.79543891001E+00  0.74265075861E+03  0.13070831737E+04  0.15033360553E+04  0.46999998093E+01 0. -1.
       -5    1    3    3    0  502 -0.79543891001E+00 -0.74265075861E+03 -0.77262585071E+02  0.74667421211E+03  0.46999998093E+01 0.  1.
</event>
<event>
 5   0  0.1413011E-05  0.1899713E+04  0.7818609E-02  0.8654999E-01
        1   -1    0    0  501    0  0.00000000000E+00  0.00000000000E+00  0.77255792905E+03  0.77255792906E+03  0.50400001928E-02 0. -1.
       -1   -1    0    0    0  501  0.00000000000E+00  0.00000000000E+00 -0.11678441048E+04  0.11678441048E+04  0.50400001928E-02 0.  1.
    10030    2    1    2    0    0  0.00000000000E+00  0.00000000000E+00 -0.39528617577E+03  0.19404020339E+04  0.18997128447E+04 0.  0.
        1    1    3    3  502    0  0.32810423778E+03  0.16179317767E+03  0.69771511822E+03  0.78780442333E+03  0.50400001928E-02 0. -1.
       -1    1    3    3    0  502 -0.32810423778E+03 -0.16179317767E+03 -0.10930012940E+04  0.11525976106E+04  0.50400001928E-02 0.  1.
</event>
<event>
 5   0  0.1327254E-05  0.1896091E+04  0.7818609E-02  0.8656805E-01
        1   -1    0    0  501    0  0.00000000000E+00  0.00000000000E+00  0.55627262986E+03  0.55627262988E+03  0.50400001928E-02 0.  1.
       -1   -1    0    0    0  501  0.00000000000E+00  0.00000000000E+00 -0.16157367224E+04  0.16157367224E+04  0.50400001928E-02 0. -1.
    10030    2    1    2    0    0  0.00000000000E+00  0.00000000000E+00 -0.10594640926E+04  0.21720093523E+04  0.18960908373E+04 0.  0.
        5    1    3    3  502    0  0.63503411464E+03 -0.34093405877E+03  0.17572921591E+03  0.74189433649E+03  0.46999998093E+01 0.  1.
       -5    1    3    3    0  502 -0.63503411464E+03  0.34093405877E+03 -0.12351933085E+04  0.14301150158E+04  0.46999998093E+01 0. -1.
</event>
<event>
 5   0  0.2789718E-05  0.1899216E+04  0.7818609E-02  0.8655247E-01
       -2   -1    0    0    0  501  0.00000000000E+00  0.00000000000E+00  0.65170883826E+03  0.65170883827E+03  0.25500000920E-02 0. -1.
        2   -1    0    0  501    0  0.00000000000E+00  0.00000000000E+00 -0.13836784440E+04  0.13836784440E+04  0.25500000920E-02 0.  1.
    10030    2    1    2    0    0  0.00000000000E+00  0.00000000000E+00 -0.73196960574E+03  0.20353872823E+04  0.18992161238E+04 0.  0.
        5    1    3    3  502    0  0.74625357890E+02  0.62265194400E+03 -0.11301810585E+04  0.12925152620E+04  0.46999998093E+01 0.  1.
       -5    1    3    3    0  502 -0.74625357890E+02 -0.62265194400E+03  0.39821145278E+03  0.74287202029E+03  0.46999998093E+01 0. -1.
</event>
<event>
 5   0  0.2813537E-05  0.1901177E+04  0.7818609E-02  0.8654271E-01
       -2   -1    0    0    0  501  0.00000000000E+00  0.00000000000E+00  0.36312026401E+03  0.36312026402E+03  0.25500000920E-02 0.  1.
        2   -1    0    0  501    0  0.00000000000E+00  0.00000000000E+00 -0.24884828127E+04  0.24884828127E+04  0.25500000920E-02 0. -1.
    10030    2    1    2    0    0  0.00000000000E+00  0.00000000000E+00 -0.21253625487E+04  0.28516030768E+04  0.19011770417E+04 0.  0.
        2    1    3    3  502    0 -0.10629944666E+03  0.64248593679E+03 -0.21013445106E+04  0.21999401136E+04  0.25500000920E-02 0. -1.
       -2    1    3    3    0  502  0.10629944666E+03 -0.64248593679E+03 -0.24018038116E+02  0.65166296311E+03  0.25500000920E-02 0.  1.
</event>
<event>
 5   0  0.2813537E-05  0.1900781E+04  0.7818609E-02  0.8654468E-01
        2   -1    0    0  501    0  0.00000000000E+00  0.00000000000E+00  0.16076255037E+04  0.16076255037E+04  0.25500000920E-02 0. -1.
       -2   -1    0    0    0  501  0.00000000000E+00  0.00000000000E+00 -0.56184854154E+03  0.56184854155E+03  0.25500000920E-02 0.  1.
    10030    2    1    2    0    0  0.00000000000E+00  0.00000000000E+00  0.10457769622E+04  0.21694740452E+04  0.19007809391E+04 0.  0.
        2    1    3    3  502    0  0.99370980207E+02 -0.36495748832E+03  0.15180160293E+04  0.15644300001E+04  0.25500000920E-02 0. -1.
       -2    1    3    3    0  502 -0.99370980207E+02  0.36495748832E+03 -0.47223906716E+03  0.60504404513E+03  0.25500000920E-02 0.  1.
</event>
<event>
 5   0  0.2789718E-05  0.1904019E+04  0.7818609E-02  0.8652858E-01
        2   -1    0    0  501    0  0.00000000000E+00  0.00000000000E+00  0.14118456406E+04  0.14118456406E+04  0.25500000920E-02 0.  1.
       -2   -1    0    0    0  501  0.00000000000E+00  0.00000000000E+00 -0.64194162644E+03  0.64194162645E+03  0.25500000920E-02 0. -1.
    10030    2    1    2    0    0  0.00000000000E+00  0.00000000000E+00  0.76990401419E+03  0.20537872671E+04  0.19040194188E+04 0.  0.
        5    1    3    3  502    0 -0.94429033483E+03 -0.11291993995E+03  0.43153767458E+03  0.10443572204E+04  0.46999998093E+01 0. -1.
       -5    1    3    3    0  502  0.94429033483E+03  0.11291993995E+03  0.33836633961E+03  0.10094300466E+04  0.46999998093E+01 0.  1.
</event>
<event>
 5   0  0.2855141E-05  0.1901024E+04  0.7818609E-02  0.8654347E-01
       -2   -1    0    0    0  501  0.00000000000E+00  0.00000000000E+00  0.73094175567E+03  0.73094175568E+03  0.25500000920E-02 0. -1.
        2   -1    0    0  501    0  0.00000000000E+00  0.00000000000E+00 -0.12360402883E+04  0.12360402883E+04  0.25500000920E-02 0.  1.
    10030    2    1    2    0    0  0.00000000000E+00  0.00000000000E+00 -0.50509853263E+03  0.19669820440E+04  0.19010244169E+04 0.  0.
        1    1    3    3  502    0 -0.38996590926E+03 -0.80472547877E+02 -0.11455848149E+04  0.12128123554E+04  0.50400001928E-02 0.  1.
       -1    1    3    3    0  502  0.38996590926E+03  0.80472547877E+02  0.64048628226E+03  0.75416968855E+03  0.50400001928E-02 0. -1.
</event>
<event>
 5   0  0.2813537E-05  0.1900591E+04  0.7818609E-02  0.8654562E-01
       -2   -1    0    0    0  501  0.00000000000E+00  0.00000000000E+00  0.77722935399E+03  0.77722935399E+03  0.25500000920E-02 0.  1.
        2   -1    0    0  501    0  0.00000000000E+00  0.00000000000E+00 -0.11618988813E+04  0.11618988813E+04  0.25500000920E-02 0. -1.
    10030    2    1    2    0    0  0.00000000000E+00  0.00000000000E+00 -0.38466952727E+03  0.19391282353E+04  0.19005913994E+04 0.  0.
        2    1    3    3  502    0 -0.33255913639E+03 -0.67576645585E+03 -0.78357232736E+03  0.10868493337E+04  0.25500000920E-02 0. -1.
       -2    1    3    3    0  502  0.33255913639E+03  0.67576645585E+03  0.39890280008E+03  0.85227890152E+03  0.25500000920E-02 0.  1.
</event>
<event>
 5   0  0.2855141E-05  0.1900638E+04  0.7818609E-02  0.8654539E-01
       -2   -1    0    0    0  501  0.00000000000E+00  0.00000000000E+00  0.61991339861E+03  0.61991339862E+03  0.25500000920E-02 0.  1.
        2   -1    0    0  501    0  0.00000000000E+00  0.00000000000E+00 -0.14568262677E+04  0.14568262677E+04  0.25500000920E-02 0. -1.
    10030    2    1    2    0    0  0.00000000000E+00  0.00000000000E+00 -0.83691286906E+03  0.20767396663E+04  0.19006379169E+04 0.  0.
        1    1    3    3  502    0 -0.71846755231E+03  0.19180096251E+03  0.22807987706E+03  0.77781981416E+03  0.50400001928E-02 0.  1.
       -1    1    3    3    0  502  0.71846755231E+03 -0.19180096251E+03 -0.10649927461E+04  0.12989198521E+04  0.50400001928E-02 0. -1.
</event>
<event>
 5   0  0.1471485E-05  0.1894317E+04  0.7818609E-02  0.8657690E-01
        1   -1    0    0  501    0  0.00000000000E+00  0.00000000000E+00  0.14806920518E+04  0.14806920519E+04  0.50400001928E-02 0. -1.
       -1   -1    0    0    0  501  0.00000000000E+00  0.00000000000E+00 -0.60587161726E+03  0.60587161728E+03  0.50400001928E-02 0.  1.
    10030    2    1    2    0    0  0.00000000000E+00  0.00000000000E+00  0.87482043458E+03  0.20865636691E+04  0.18943170676E+04 0.  0.
        4    1    3    3  502    0  0.47139376625E+03  0.49042986817E+03  0.11633673029E+04  0.13476492989E+04  0.12699999809E+01 0. -1.
       -4    1    3    3    0  502 -0.47139376625E+03 -0.49042986817E+03 -0.28854686832E+03  0.73891437025E+03  0.12699999809E+01 0.  1.
</event>
<event>
 5   0  0.1413011E-05  0.1898003E+04  0.7818609E-02  0.8655851E-01
       -1   -1    0    0    0  501  0.00000000000E+00  0.00000000000E+00  0.10275042908E+04  0.10275042908E+04  0.50400001928E-02 0.  1.
        1   -1    0    0  501    0  0.00000000000E+00  0.00000000000E+00 -0.87649618847E+03  0.87649618849E+03  0.50400001928E-02 0. -1.
    10030    2    1    2    0    0  0.00000000000E+00  0.00000000000E+00  0.15100810232E+03  0.19040004793E+04  0.18980027340E+04 0.  0.
        1    1    3    3  502    0  0.65708597593E+02  0.69396389744E+03  0.72151113639E+03  0.10032356805E+04  0.50400001928E-02 0.  1.
       -1    1    3    3    0  502 -0.65708597593E+02 -0.69396389744E+03 -0.57050303407E+03  0.90076479875E+03  0.50400001928E-02 0. -1.
</event>
<event>
 5   0  0.1471485E-05  0.1900257E+04  0.7818609E-02  0.8654728E-01
        1   -1    0    0  501    0  0.00000000000E+00  0.00000000000E+00  0.19694528739E+04  0.19694528739E+04  0.50400001928E-02 0.  1.
       -1   -1    0    0    0  501  0.00000000000E+00  0.00000000000E+00 -0.45837312617E+03  0.45837312619E+03  0.50400001928E-02 0. -1.
    10030    2    1    2    0    0  0.00000000000E+00  0.00000000000E+00  0.15110797477E+04  0.24278260001E+04  0.19002571096E+04 0.  0.
        4    1    3    3  502    0 -0.17190674034E+03  0.93112902593E+03  0.65502465221E+03  0.11513522911E+04  0.12699999809E+01 0. -1.
       -4    1    3    3    0  502  0.17190674034E+03 -0.93112902593E+03  0.85605509551E+03  0.12764737090E+04  0.12699999809E+01 0.  1.
</event>
<event>
 5   0  0.2879462E-05  0.1898317E+04  0.7818609E-02  0.8655694E-01
       -2   -1    0    0    0  501  0.00000000000E+00  0.00000000000E+00  0.84966762372E+03  0.84966762373E+03  0.25500000920E-02 0.  1.
        2   -1    0    0  501    0  0.00000000000E+00  0.00000000000E+00 -0.10602996090E+04  0.10602996090E+04  0.25500000920E-02 0. -1.
    10030    2    1    2    0    0  0.00000000000E+00  0.00000000000E+00 -0.21063198530E+03  0.19099672328E+04  0.18983174121E+04 0.  0.
        4    1    3    3  502    0  0.55116583996E+03 -0.65168105162E+03  0.31247763542E+03  0.90890916032E+03  0.12699999809E+01 0.  1.
       -4    1    3    3    0  502 -0.55116583996E+03  0.65168105162E+03 -0.52310962072E+03  0.10010580724E+04  0.12699999809E+01 0. -1.
</event>
<event>
 5   0  0.1327254E-05  0.1895022E+04  0.7818609E-02  0.8657338E-01
       -1   -1    0    0    0  501  0.00000000000E+00  0.00000000000E+00  0.81670047315E+03  0.81670047317E+03  0.50400001928E-02 0. -1.
        1   -1    0    0  501    0  0.00000000000E+00  0.00000000000E+00 -0.10992737939E+04  0.10992737939E+04  0.50400001928E-02 0.  1.
    10030    2    1    2    0    0  0.00000000000E+00  0.00000000000E+00 -0.28257332072E+03  0.19159742670E+04  0.18950223509E+04 0.  0.
        5    1    3    3  502    0 -0.33645565614E+03 -0.93470420320E+02  0.74925606412E+03  0.82664736596E+03  0.46999998093E+01 0. -1.
       -5    1    3    3    0  502  0.33645565614E+03  0.93470420320E+02 -0.10318293848E+04  0.10893269011E+04  0.46999998093E+01 0.  1.
</event>
<event>
 5   0  0.1344119E-05  0.1895443E+04  0.7818609E-02  0.8657128E-01
        1   -1    0    0  501    0  0.00000000000E+00  0.00000000000E+00  0.11256559953E+04  0.11256559953E+04  0.50400001928E-02 0.  1.
       -1   -1    0    0    0  501  0.00000000000E+00  0.00000000000E+00 -0.79791309199E+03  0.79791309201E+03  0.50400001928E-02 0. -1.
    10030    2    1    2    0    0  0.00000000000E+00  0.00000000000E+00  0.32774290326E+03  0.19235690873E+04  0.18954425929E+04 0.  0.
        2    1    3    3  502    0 -0.63259479210E+03  0.19434403450E+03 -0.52459781773E+03  0.84448128760E+03  0.25500000920E-02 0. -1.
       -2    1    3    3    0  502  0.63259479210E+03 -0.19434403450E+03  0.85234072100E+03  0.10790877997E+04  0.25500000920E-02 0.  1.
</event>
<event>
 5   0  0.1471485E-05  0.1899361E+04  0.7818609E-02  0.8655175E-01
        1   -1    0    0  501    0  0.00000000000E+00  0.00000000000E+00  0.88196546723E+03  0.88196546724E+03  0.50400001928E-02 0. -1.
       -1   -1    0    0    0  501  0.00000000000E+00  0.00000000000E+00 -0.10225940989E+04  0.10225940989E+04  0.50400001928E-02 0.  1.
    10030    2    1    2    0    0  0.00000000000E+00  0.00000000000E+00 -0.14062863170E+03  0.19045595662E+04  0.18993606106E+04 0.  0.
        4    1    3    3  502    0 -0.12450734053E+03 -0.88828525915E+03 -0.38315915049E+03  0.97537958097E+03  0.12699999809E+01 0.  1.
       -4    1    3    3    0  502  0.12450734053E+03  0.88828525915E+03  0.24253051879E+03  0.92917998521E+03  0.12699999809E+01 0. -1.
</event>
<event>
 5   0  0.1413011E-05  0.1898713E+04  0.7818609E-02  0.8655497E-01
        1   -1    0    0  501    0  0.00000000000E+00  0.00000000000E+00  0.67835295604E+03  0.67835295606E+03  0.50400001928E-02 0.  1.
       -1   -1    0    0    0  501  0.00000000000E+00  0.00000000000E+00 -0.13286259167E+04  0.13286259167E+04  0.50400001928E-02 0. -1.
    10030    2    1    2    0    0  0.00000000000E+00  0.00000000000E+00 -0.65027296070E+03  0.20069788728E+04  0.18987125302E+04 0.  0.
        1    1    3    3  502    0 -0.71227360241E+03 -0.31031659755E+03 -0.90181598423E+03  0.11903369879E+04  0.50400001928E-02 0. -1.
       -1    1    3    3    0  502  0.71227360241E+03  0.31031659755E+03  0.25154302354E+03  0.81664188487E+03  0.50400001928E-02 0.  1.
</event>
<event>
 5   0  0.2888776E-05  0.1902203E+04  0.7818609E-02  0.8653761E-01
        2   -1    0    0  501    0  0.00000000000E+00  0.00000000000E+00  0.11412081664E+04  0.11412081664E+04  0.25500000920E-02 0. -1.
       -2   -1    0    0    0  501  0.00000000000E+00  0.00000000000E+00 -0.79266348137E+03  0.79266348137E+03  0.25500000920E-02 0.  1.
    10030    2    1    2    0    0  0.00000000000E+00  0.00000000000E+00  0.34854468506E+03  0.19338716478E+04  0.19022029736E+04 0.  0.
        3    1    3    3  502    0  0.77694936488E+03 -0.47782561271E+03  0.44825182276E+03  0.10163155704E+04  0.10100000352E+00 0.  1.
       -3    1    3    3    0  502 -0.77694936488E+03  0.47782561271E+03 -0.99707137698E+02  0.91755607744E+03  0.10100000352E+00 0. -1.
</event>
<event>
 5   0  0.1344119E-05  0.1902471E+04  0.7818609E-02  0.8653627E-01
       -1   -1    0    0    0  501  0.00000000000E+00  0.00000000000E+00  0.10441190729E+04  0.10441190729E+04  0.50400001928E-02 0. -1.
        1   -1    0    0  501    0  0.00000000000E+00  0.00000000000E+00 -0.86661459756E+03  0.86661459758E+03  0.50400001928E-02 0.  1.
    10030    2    1    2    0    0  0.00000000000E+00  0.00000000000E+00  0.17750447532E+03  0.19107336705E+04  0.19024708462E+04 0.  0.
        2    1    3    3  502    0  0.17456942162E+03 -0.32775904823E+03  0.96831170202E+03  0.10370766746E+04  0.25500000920E-02 0. -1.
       -2    1    3    3    0  502 -0.17456942162E+03  0.32775904823E+03 -0.79080722670E+03  0.87365699589E+03  0.25500000920E-02 0.  1.
</event>
<event>
 5   0  0.2888776E-05  0.1897493E+04  0.7818609E-02  0.8656105E-01
       -2   -1    0    0    0  501  0.00000000000E+00  0.00000000000E+00  0.97222823423E+03  0.97222823423E+03  0.25500000920E-02 0.  1.
        2   -1    0    0  501    0  0.00000000000E+00  0.00000000000E+00 -0.92583232605E+03  0.92583232606E+03  0.25500000920E-02 0. -1.
    10030    2    1    2    0    0  0.00000000000E+00  0.00000000000E+00  0.46395908174E+02  0.18980605603E+04  0.18974934282E+04 0.  0.
        3    1    3    3  502    0  0.41461615877E+03  0.15717189764E+03 -0.81580821579E+03  0.92852173894E+03  0.10100000352E+00 0. -1.
       -3    1    3    3    0  502 -0.41461615877E+03 -0.15717189764E+03  0.86220412397E+03  0.96953882135E+03  0.10100000352E+00 0.  1.
</event>
<event>
 5   0  0.1010725E-05  0.1901985E+04  0.7818609E-02  0.8653869E-01
        3   -1    0    0  501    0  0.00000000000E+00  0.00000000000E+00  0.22144004556E+04  0.22144004579E+04  0.10100000352E+00 0. -1.
       -3   -1    0    0    0  501  0.00000000000E+00  0.00000000000E+00 -0.40841146331E+03  0.40841147580E+03  0.10100000352E+00 0.  1.
    10030    2    1    2    0    0  0.00000000000E+00  0.00000000000E+00  0.18059889923E+04  0.26228119337E+04  0.19019848052E+04 0.  0.
        2    1    3    3  502    0 -0.88465642855E+03  0.98008104632E+02  0.44115955863E+03  0.99340039326E+03  0.25500000920E-02 0. -1.
       -2    1    3    3    0  502  0.88465642855E+03 -0.98008104632E+02  0.13648294337E+04  0.16294115405E+04  0.25500000920E-02 0.  1.
</event>
<event>
 5   0  0.2789718E-05  0.1898823E+04  0.7818609E-02  0.8655442E-01
       -2   -1    0    0    0  501  0.00000000000E+00  0.00000000000E+00  0.46464306554E+03  0.46464306555E+03  0.25500000920E-02 0. -1.
        2   -1    0    0  501    0  0.00000000000E+00  0.00000000000E+00 -0.19399456829E+04  0.19399456829E+04  0.25500000920E-02 0.  1.
    10030    2    1    2    0    0  0.00000000000E+00  0.00000000000E+00 -0.14753026173E+04  0.24045887484E+04  0.18988231187E+04 0.  0.
        5    1    3    3  502    0 -0.53654523721E+02  0.37729708783E+03  0.36351788156E+03  0.52668704238E+03  0.46999998093E+01 0. -1.
       -5    1    3    3    0  502  0.53654523721E+02 -0.37729708783E+03 -0.18388204989E+04  0.18779017060E+04  0.46999998093E+01 0.  1.
</event>
<event>
 5   0  0.1429067E-05  0.1900076E+04  0.7818609E-02  0.8654818E-01
        1   -1    0    0  501    0  0.00000000000E+00  0.00000000000E+00  0.10423883551E+04  0.10423883551E+04  0.50400001928E-02 0. -1.
       -1   -1    0    0    0  501  0.00000000000E+00  0.00000000000E+00 -0.86586985921E+03  0.86586985923E+03  0.50400001928E-02 0.  1.
    10030    2    1    2    0    0  0.00000000000E+00  0.00000000000E+00  0.17651849588E+03  0.19082582143E+04  0.19000764809E+04 0.  0.
        3    1    3    3  502    0  0.33014406960E+03  0.75795863836E+03  0.55833051014E+03  0.99761183479E+03  0.10100000352E+00 0. -1.
       -3    1    3    3    0  502 -0.33014406960E+03 -0.75795863836E+03 -0.38181201426E+03  0.91064637955E+03  0.10100000352E+00 0.  1.
</event>
<event>
 5   0  0.1327254E-05  0.1900939E+04  0.7818609E-02  0.8654389E-01
       -1   -1    0    0    0  501  0.00000000000E+00  0.00000000000E+00  0.11665532486E+04  0.11665532487E+04  0.50400001928E-02 0. -1.
        1   -1    0    0  501    0  0.00000000000E+00  0.00000000000E+00 -0.77441168191E+03  0.77441168193E+03  0.50400001928E-02 0.  1.
    10030    2    1    2    0    0  0.00000000000E+00  0.00000000000E+00  0.39214156673E+03  0.19409649306E+04  0.19009392030E+04 0.  0.
        5    1    3    3  502    0  0.83981657989E+03  0.19337817457E+02  0.65007279412E+03  0.10622064614E+04  0.46999998093E+01 0. -1.
       -5    1    3    3    0  502 -0.83981657989E+03 -0.19337817457E+02 -0.25793122739E+03  0.87875846915E+03  0.46999998093E+01 0.  1.
</event>
<event>
 5   0  0.2789718E-05  0.1898910E+04  0.7818609E-02  0.8655399E-01
        2   -1    0    0  501    0  0.00000000000E+00  0.00000000000E+00  0.14973780270E+04  0.14973780270E+04  0.25500000920E-02 0. -1.
       -2   -1    0    0    0  501  0.00000000000E+00  0.00000000000E+00 -0.60202911063E+03  0.60202911064E+03  0.25500000920E-02 0.  1.
    10030    2    1    2    0    0  0.00000000000E+00  0.00000000000E+00  0.89534891638E+03  0.20994071377E+04  0.18989103843E+04 0.  0.
        5    1    3    3  502    0  0.69808501493E+02  0.18359513693E+03 -0.57930803517E+03  0.61171912737E+03  0.46999998093E+01 0.  1.
       -5    1    3    3    0  502 -0.69808501493E+02 -0.18359513693E+03  0.14746569515E+04  0.14876880103E+04  0.46999998093E+01 0. -1.
</event>
<event>
 5   0  0.1429067E-05  0.1899344E+04  0.7818609E-02  0.8655183E-01
       -1   -1    0    0    0  501  0.00000000000E+00  0.00000000000E+00  0.62431123041E+03  0.62431123043E+03  0.50400001928E-02 0. -1.
        1   -1    0    0  501    0  0.00000000000E+00  0.00000000000E+00 -0.14445953784E+04  0.14445953784E+04  0.50400001928E-02 0.  1.
    10030    2    1    2    0    0  0.00000000000E+00  0.00000000000E+00 -0.82028414799E+03  0.20689066088E+04  0.18993442217E+04 0.  0.
        3    1    3    3  502    0 -0.59660436218E+03  0.51709177027E+03  0.16475991603E+03  0.80651503643E+03  0.10100000352E+00 0.  1.
       -3    1    3    3    0  502  0.59660436218E+03 -0.51709177027E+03 -0.98504406402E+03  0.12623915724E+04  0.10100000352E+00 0. -1.
</event>
<event>
 5   0  0.1344119E-05  0.1900704E+04  0.7818609E-02  0.8654506E-01
       -1   -1    0    0    0  501  0.00000000000E+00  0.00000000000E+00  0.69995843906E+03  0.69995843908E+03  0.50400001928E-02 0.  1.
        1   -1    0    0  501    0  0.00000000000E+00  0.00000000000E+00 -0.12903172996E+04  0.12903172997E+04  0.50400001928E-02 0. -1.
    10030    2    1    2    0    0  0.00000000000E+00  0.00000000000E+00 -0.59035886058E+03  0.19902757387E+04  0.19007035360E+04 0.  0.
        2    1    3    3  502    0 -0.74582895125E+03  0.58439632619E+03 -0.21831303182E+03  0.97233763193E+03  0.25500000920E-02 0.  1.
       -2    1    3    3    0  502  0.74582895125E+03 -0.58439632619E+03 -0.37204582876E+03  0.10179381068E+04  0.25500000920E-02 0. -1.
</event>
<event>
 5   0  0.2813537E-05  0.1936714E+04  0.7818609E-02  0.8636794E-01
        2   -1    0    0  501    0  0.00000000000E+00  0.00000000000E+00  0.19826168481E+04  0.19826168481E+04  0.25500000920E-02 0.  1.
       -2   -1    0    0    0  501  0.00000000000E+00  0.00000000000E+00 -0.47296858718E+03  0.47296858719E+03  0.25500000920E-02 0. -1.
    10030    2    1    2    0    0  0.00000000000E+00  0.00000000000E+00  0.15096482609E+04  0.24555854353E+04  0.19367142170E+04 0.  0.
        2    1    3    3  502    0 -0.69708697364E+03 -0.57388944799E+03  0.31117020675E+03  0.95504253565E+03  0.25500000920E-02 0. -1.
       -2    1    3    3    0  502  0.69708697364E+03  0.57388944799E+03  0.11984780542E+04  0.15005428996E+04  0.25500000920E-02 0.  1.
</event>
<event>
 5   0  0.2813537E-05  0.1923695E+04  0.7818609E-02  0.8643151E-01
       -2   -1    0    0    0  501  0.00000000000E+00  0.00000000000E+00  0.83323271157E+03  0.83323271158E+03  0.25500000920E-02 0. -1.
        2   -1    0    0  501    0  0.00000000000E+00  0.00000000000E+00 -0.11103149955E+04  0.11103149955E+04  0.25500000920E-02 0.  1.
    10030    2    1    2    0    0  0.00000000000E+00  0.00000000000E+00 -0.27708228391E+03  0.19435477071E+04  0.19236951675E+04 0.  0.
        2    1    3    3  502    0 -0.28052223764E+02 -0.38347234330E+03 -0.10292932598E+04  0.10987641149E+04  0.25500000920E-02 0.  1.
       -2    1    3    3    0  502  0.28052223764E+02  0.38347234330E+03  0.75221097593E+03  0.84478359220E+03  0.25500000920E-02 0. -1.
</event>
<event>
 5   0  0.2879462E-05  0.1897995E+04  0.7818609E-02  0.8655855E-01
       -2   -1    0    0    0  501  0.00000000000E+00  0.00000000000E+00  0.10264501769E+04  0.10264501769E+04  0.25500000920E-02 0. -1.
        2   -1    0    0  501    0  0.00000000000E+00  0.00000000000E+00 -0.87738931828E+03  0.87738931828E+03  0.25500000920E-02 0.  1.
    10030    2    1    2    0    0  0.00000000000E+00  0.00000000000E+00  0.14906085858E+03  0.19038394951E+04  0.18979951748E+04 0.  0.
        4    1    3    3  502    0  0.85871701103E+03 -0.28922548037E+03 -0.20838152080E+03  0.92976919429E+03  0.12699999809E+01 0.  1.
       -4    1    3    3    0  502 -0.85871701103E+03  0.28922548037E+03  0.35744237939E+03  0.97407030086E+03  0.12699999809E+01 0. -1.
</event>
<event>
 5   0  0.2855141E-05  0.1903734E+04  0.7818609E-02  0.8653000E-01
       -2   -1    0    0    0  501  0.00000000000E+00  0.00000000000E+00  0.58172193342E+03  0.58172193343E+03  0.25500000920E-02 0. -1.
        2   -1    0    0  501    0  0.00000000000E+00  0.00000000000E+00 -0.15575324225E+04  0.15575324225E+04  0.25500000920E-02 0.  1.
    10030    2    1    2    0    0  0.00000000000E+00  0.00000000000E+00 -0.97581048909E+03  0.21392543559E+04  0.19037339858E+04 0.  0.
        1    1    3    3  502    0  0.93524208816E+03  0.11744292618E+03 -0.33891162535E+03  0.10016644619E+04  0.50400001928E-02 0. -1.
       -1    1    3    3    0  502 -0.93524208816E+03 -0.11744292618E+03 -0.63689886374E+03  0.11375898940E+04  0.50400001928E-02 0.  1.
</event>
<event>
 5   0  0.1344119E-05  0.1893294E+04  0.7818609E-02  0.8658202E-01
       -1   -1    0    0    0  501  0.00000000000E+00  0.00000000000E+00  0.46768259498E+03  0.46768259501E+03  0.50400001928E-02 0.  1.
        1   -1    0    0  501    0  0.00000000000E+00  0.00000000000E+00 -0.19161288000E+04  0.19161288000E+04  0.50400001928E-02 0. -1.
    10030    2    1    2    0    0  0.00000000000E+00  0.00000000000E+00 -0.14484462050E+04  0.23838113950E+04  0.18932935214E+04 0.  0.
        2    1    3    3  502    0  0.80769663669E+03  0.30478715323E+03 -0.23516905068E+03  0.89474775669E+03  0.25500000920E-02 0.  1.
       -2    1    3    3    0  502 -0.80769663669E+03 -0.30478715323E+03 -0.12132771543E+04  0.14890636383E+04  0.25500000920E-02 0. -1.
</event>
<event>
 5   0  0.2879462E-05  0.1899437E+04  0.7818609E-02  0.8655137E-01
       -2   -1    0    0    0  501  0.00000000000E+00  0.00000000000E+00  0.40184448889E+03  0.40184448890E+03  0.25500000920E-02 0. -1.
        2   -1    0    0  501    0  0.00000000000E+00  0.00000000000E+00 -0.22445636545E+04  0.22445636545E+04  0.25500000920E-02 0.  1.
    10030    2    1    2    0    0  0.00000000000E+00  0.00000000000E+00 -0.18427191656E+04  0.26464081434E+04  0.18994373214E+04 0.  0.
        4    1    3    3  502    0 -0.75655513100E+03  0.57385006675E+03 -0.89786524230E+03  0.13068447389E+04  0.12699999809E+01 0. -1.
       -4    1    3    3    0  502  0.75655513100E+03 -0.57385006675E+03 -0.94485392327E+03  0.13395634045E+04  0.12699999809E+01 0.  1.
</event>
<event>
 5   0  0.2888776E-05  0.1899009E+04  0.7818609E-02  0.8655350E-01
        2   -1    0    0  501    0  0.00000000000E+00  0.00000000000E+00  0.96986277003E+03  0.96986277004E+03  0.25500000920E-02 0. -1.
       -2   -1    0    0    0  501  0.00000000000E+00  0.00000000000E+00 -0.92957311448E+03  0.92957311448E+03  0.25500000920E-02 0.  1.
    10030    2    1    2    0    0  0.00000000000E+00  0.00000000000E+00  0.40289655558E+02  0.18994358845E+04  0.18990085369E+04 0.  0.
        3    1    3    3  502    0  0.98335914242E+02 -0.86450034708E+03  0.40039816296E+03  0.95778364009E+03  0.10100000352E+00 0.  1.
       -3    1    3    3    0  502 -0.98335914242E+02  0.86450034708E+03 -0.36010850740E+03  0.94165224442E+03  0.10100000352E+00 0. -1.
</event>
<event>
 5   0  0.1429067E-05  0.1902394E+04  0.7818609E-02  0.8653665E-01
        1   -1    0    0  501    0  0.00000000000E+00  0.00000000000E+00  0.23341141570E+04  0.23341141570E+04  0.50400001928E-02 0.  1.
       -1   -1    0    0    0  501  0.00000000000E+00  0.00000000000E+00 -0.38763150030E+03  0.38763150033E+03  0.50400001928E-02 0. -1.
    10030    2    1    2    0    0  0.00000000000E+00  0.00000000000E+00  0.19464826567E+04  0.27217456574E+04  0.19023944624E+04 0.  0.
        3    1    3    3  502    0  0.55668084490E+03  0.72735235480E+03  0.60613178568E+03  0.10983308986E+04  0.10100000352E+00 0. -1.
       -3    1    3    3    0  502 -0.55668084490E+03 -0.72735235480E+03  0.13403508710E+04  0.16234147587E+04  0.10100000352E+00 0.  1.
</event>
<event>
 5   0  0.2789718E-05  0.1900312E+04  0.7818609E-02  0.8654701E-01
        2   -1    0    0  501    0  0.00000000000E+00  0.00000000000E+00  0.23021880014E+04  0.23021880014E+04  0.25500000920E-02 0.  1.
       -2   -1    0    0    0  501  0.00000000000E+00  0.00000000000E+00 -0.39214726745E+03  0.39214726746E+03  0.25500000920E-02 0. -1.
    10030    2    1    2    0    0  0.00000000000E+00  0.00000000000E+00  0.19100407339E+04  0.26943352688E+04  0.19003123258E+04 0.  0.
        5    1    3    3  502    0 -0.29453646470E+02 -0.33032199882E+03 -0.30740864370E+03  0.45221931009E+03  0.46999998093E+01 0. -1.
       -5    1    3    3    0  502  0.29453646470E+02  0.33032199882E+03  0.22174493776E+04  0.22421159587E+04  0.46999998093E+01 0.  1.
</event>
<event>
 5   0  0.1471485E-05  0.1900432E+04  0.7818609E-02  0.8654642E-01
        1   -1    0    0  501    0  0.00000000000E+00  0.00000000000E+00  0.57566792636E+03  0.57566792638E+03  0.50400001928E-02 0.  1.
       -1   -1    0    0    0  501  0.00000000000E+00  0.00000000000E+00 -0.15684565133E+04  0.15684565133E+04  0.50400001928E-02 0. -1.
    10030    2    1    2    0    0  0.00000000000E+00  0.00000000000E+00 -0.99278858690E+03  0.21441244397E+04  0.19004316442E+04 0.  0.
        4    1    3    3  502    0  0.31136507188E+03  0.50623558141E+03 -0.13328732162E+04  0.14593749673E+04  0.12699999809E+01 0. -1.
       -4    1    3    3    0  502 -0.31136507188E+03 -0.50623558141E+03  0.34008462930E+03  0.68474947233E+03  0.12699999809E+01 0.  1.
</event>
<event>
 5   0  0.2855141E-05  0.1911500E+04  0.7818609E-02  0.8649153E-01
        2   -1    0    0  501    0  0.00000000000E+00  0.00000000000E+00  0.12892615835E+04  0.12892615835E+04  0.25500000920E-02 0.  1.
       -2   -1    0    0    0  501  0.00000000000E+00  0.00000000000E+00 -0.70851244590E+03  0.70851244590E+03  0.25500000920E-02 0. -1.
    10030    2    1    2    0    0  0.00000000000E+00  0.00000000000E+00  0.58074913763E+03  0.19977740294E+04  0.19114998069E+04 0.  0.
        1    1    3    3  502    0 -0.81430795791E+03  0.14320534427E+03  0.79144280046E+03  0.11445466034E+04  0.50400001928E-02 0.  1.
       -1    1    3    3    0  502  0.81430795791E+03 -0.14320534427E+03 -0.21069366283E+03  0.85322742602E+03  0.50400001928E-02 0. -1.
</event>
<event>
 5   0  0.2813537E-05  0.1900228E+04  0.7818609E-02  0.8654743E-01
       -2   -1    0    0    0  501  0.00000000000E+00  0.00000000000E+00  0.90593594613E+03  0.90593594614E+03  0.25500000920E-02 0.  1.
        2   -1    0    0  501    0  0.00000000000E+00  0.00000000000E+00 -0.99644654515E+03  0.99644654516E+03  0.25500000920E-02 0. -1.
    10030    2    1    2    0    0  0.00000000000E+00  0.00000000000E+00 -0.90510599022E+02  0.19023824913E+04  0.19002281375E+04 0.  0.
        2    1    3    3  502    0  0.24178078201E+03 -0.84249827317E+03  0.32184210329E+03  0.93372566973E+03  0.25500000920E-02 0.  1.
       -2    1    3    3    0  502 -0.24178078201E+03  0.84249827317E+03 -0.41235270231E+03  0.96865682156E+03  0.25500000920E-02 0. -1.
</event>
<event>
 5   0  0.1327254E-05  0.1906264E+04  0.7818609E-02  0.8651745E-01
        1   -1    0    0  501    0  0.00000000000E+00  0.00000000000E+00  0.98030860998E+03  0.98030860999E+03  0.50400001928E-02 0. -1.
       -1   -1    0    0    0  501  0.00000000000E+00  0.00000000000E+00 -0.92670859946E+03  0.92670859947E+03  0.50400001928E-02 0.  1.
    10030    2    1    2    0    0  0.00000000000E+00  0.00000000000E+00  0.53600010521E+02  0.19070172095E+04  0.19062638002E+04 0.  0.
        5    1    3    3  502    0  0.56076583047E+03  0.17041890907E+03 -0.72512023949E+03  0.93237458831E+03  0.46999998093E+01 0.  1.
       -5    1    3    3    0  502 -0.56076583047E+03 -0.17041890907E+03  0.77872025002E+03  0.97464262116E+03  0.46999998093E+01 0. -1.
</event>
<event>
 5   0  0.2879462E-05  0.1900634E+04  0.7818609E-02  0.8654541E-01
       -2   -1    0    0    0  501  0.00000000000E+00  0.00000000000E+00  0.38891783877E+03  0.38891783878E+03  0.25500000920E-02 0.  1.
        2   -1    0    0  501    0  0.00000000000E+00  0.00000000000E+00 -0.23220899497E+04  0.23220899497E+04  0.25500000920E-02 0. -1.
    10030    2    1    2    0    0  0.00000000000E+00  0.00000000000E+00 -0.19331721109E+04  0.27110077885E+04  0.19006337939E+04 0.  0.
        4    1    3    3  502    0 -0.29115175527E+02  0.42028279095E+03  0.24843981846E+03  0.48909025149E+03  0.12699999809E+01 0.  1.
       -4    1    3    3    0  502  0.29115175527E+02 -0.42028279095E+03 -0.21816119294E+04  0.22219175370E+04  0.12699999809E+01 0. -1.
</event>
<event>
 5   0  0.2789718E-05  0.1898189E+04  0.7818609E-02  0.8655758E-01
       -2   -1    0    0    0  501  0.00000000000E+00  0.00000000000E+00  0.48450202499E+03  0.48450202500E+03  0.25500000920E-02 0. -1.
        2   -1    0    0  501    0  0.00000000000E+00  0.00000000000E+00 -0.18591884183E+04  0.18591884183E+04  0.25500000920E-02 0.  1.
    10030    2    1    2    0    0  0.00000000000E+00  0.00000000000E+00 -0.13746863933E+04  0.23436904433E+04  0.18981891934E+04 0.  0.
        5    1    3    3  502    0  0.54173820031E+03 -0.75360711269E+03 -0.44240417286E+03  0.10281767845E+04  0.46999998093E+01 0. -1.
       -5    1    3    3    0  502 -0.54173820031E+03  0.75360711269E+03 -0.93228222044E+03  0.13155136588E+04  0.46999998093E+01 0.  1.
</event>
<event>
 5   0  0.1471485E-05  0.1900229E+04  0.7818609E-02  0.8654743E-01
       -1   -1    0    0    0  501  0.00000000000E+00  0.00000000000E+00  0.70246340087E+03  0.70246340089E+03  0.50400001928E-02 0. -1.
        1   -1    0    0  501    0  0.00000000000E+00  0.00000000000E+00 -0.12850738674E+04  0.12850738674E+04  0.50400001928E-02 0.  1.
    10030    2    1    2    0    0  0.00000000000E+00  0.00000000000E+00 -0.58261046653E+03  0.19875372683E+04  0.19002287855E+04 0.  0.
        4    1    3    3  502    0  0.35106423423E+02  0.94872462253E+03 -0.33050905349E+03  0.10052605223E+04  0.12699999809E+01 0. -1.
       -4    1    3    3    0  502 -0.35106423423E+02 -0.94872462253E+03 -0.25210141304E+03  0.98227674599E+03  0.12699999809E+01 0.  1.
</event>
<event>
 5   0  0.2888776E-05  0.1903035E+04  0.7818609E-02  0.8653347E-01
        2   -1    0    0  501    0  0.00000000000E+00  0.00000000000E+00  0.13847001086E+04  0.13847001086E+04  0.25500000920E-02 0.  1.
       -2   -1    0    0    0  501  0.00000000000E+00  0.00000000000E+00 -0.65384931627E+03  0.65384931627E+03  0.25500000920E-02 0. -1.
    10030    2    1    2    0    0  0.00000000000E+00  0.00000000000E+00  0.73085079238E+03  0.20385494249E+04  0.19030346495E+04 0.  0.
        3    1    3    3  502    0 -0.99047880804E+01  0.94977031434E+03  0.42624384030E+03  0.10410790443E+04  0.10100000352E+00 0.  1.
       -3    1    3    3    0  502  0.99047880804E+01 -0.94977031434E+03  0.30460695208E+03  0.99747038065E+03  0.10100000352E+00 0. -1.
</event>
<event>
 5   0  0.1010725E-05  0.1901540E+04  0.7818609E-02  0.8654090E-01
       -3   -1    0    0    0  501  0.00000000000E+00  0.00000000000E+00  0.12753833875E+04  0.12753833915E+04  0.10100000352E+00 0. -1.
        3   -1    0    0  501    0  0.00000000000E+00  0.00000000000E+00 -0.70877760792E+03  0.70877761511E+03  0.10100000352E+00 0.  1.
    10030    2    1    2    0    0  0.00000000000E+00  0.00000000000E+00  0.56660577957E+03  0.19841610066E+04  0.19015395843E+04 0.  0.
        4    1    3    3  502    0  0.12099342150E+03  0.90779008082E+03  0.54982076297E+03  0.10681885242E+04  0.12699999809E+01 0. -1.
       -4    1    3    3    0  502 -0.12099342150E+03 -0.90779008082E+03  0.16785016600E+02  0.91597248243E+03  0.12699999809E+01 0.  1.
</event>
<event>
 5   0  0.1429067E-05  0.1943780E+04  0.7818609E-02  0.8633366E-01
       -1   -1    0    0    0  501  0.00000000000E+00  0.00000000000E+00  0.11484424940E+04  0.11484424940E+04  0.50400001928E-02 0.  1.
        1   -1    0    0  501    0  0.00000000000E+00  0.00000000000E+00 -0.82247937578E+03  0.82247937580E+03  0.50400001928E-02 0. -1.
    10030    2    1    2    0    0  0.00000000000E+00  0.00000000000E+00  0.32596311819E+03  0.19709218698E+04  0.19437800962E+04 0.  0.
        3    1    3    3  502    0 -0.16926872728E+03  0.91084510682E+02  0.11289763325E+04  0.11452230611E+04  0.10100000352E+00 0.  1.
       -3    1    3    3    0  502  0.16926872728E+03 -0.91084510682E+02 -0.80301321431E+03  0.82569880869E+03  0.10100000352E+00 0. -1.
</event>
<event>
 5   0  0.1429067E-05  0.1898735E+04  0.7818609E-02  0.8655487E-01
       -1   -1    0    0    0  501  0.00000000000E+00  0.00000000000E+00  0.11922352520E+04  0.11922352520E+04  0.50400001928E-02 0.  1.
        1   -1    0    0  501    0  0.00000000000E+00  0.00000000000E+00 -0.75597345332E+03  0.75597345333E+03  0.50400001928E-02 0. -1.
    10030    2    1    2    0    0  0.00000000000E+00  0.00000000000E+00  0.43626179865E+03  0.19482087053E+04  0.18987345266E+04 0.  0.
        3    1    3    3  502    0 -0.84262704323E+03  0.15302222590E+03  0.63851617823E+03  0.10682411037E+04  0.10100000352E+00 0. -1.
       -3    1    3    3    0  502  0.84262704323E+03 -0.15302222590E+03 -0.20225437958E+03  0.87996760160E+03  0.10100000352E+00 0.  1.
</event>
<event>
 5   0  0.1413011E-05  0.1894093E+04  0.7818609E-02  0.8657802E-01
       -1   -1    0    0    0  501  0.00000000000E+00  0.00000000000E+00  0.31614280922E+03  0.31614280926E+03  0.50400001928E-02 0.  1.
        1   -1    0    0  501    0  0.00000000000E+00  0.00000000000E+00 -0.28369988004E+04  0.28369988004E+04  0.50400001928E-02 0. -1.
    10030    2    1    2    0    0  0.00000000000E+00  0.00000000000E+00 -0.25208559912E+04  0.31531416097E+04  0.18940926805E+04 0.  0.
        1    1    3    3  502    0 -0.93176198352E+03 -0.26484759564E+02 -0.15390638839E+04  0.17993330640E+04  0.50400001928E-02 0.  1.
       -1    1    3    3    0  502  0.93176198352E+03  0.26484759564E+02 -0.98179210727E+03  0.13538085457E+04  0.50400001928E-02 0. -1.
</event>
<event>
 5   0  0.2888776E-05  0.1900026E+04  0.7818609E-02  0.8654843E-01
        2   -1    0    0  501    0  0.00000000000E+00  0.00000000000E+00  0.19637496304E+04  0.19637496304E+04  0.25500000920E-02 0. -1.
       -2   -1    0    0    0  501  0.00000000000E+00  0.00000000000E+00 -0.45959257268E+03  0.45959257269E+03  0.25500000920E-02 0.  1.
    10030    2    1    2    0    0  0.00000000000E+00  0.00000000000E+00  0.15041570577E+04  0.24233422031E+04  0.19000260469E+04 0.  0.
        3    1    3    3  502    0 -0.25277359555E+03  0.89915322667E+03  0.97355399899E+03  0.13491398796E+04  0.10100000352E+00 0. -1.
       -3    1    3    3    0  502  0.25277359555E+03 -0.89915322667E+03  0.53060305875E+03  0.10742023235E+04  0.10100000352E+00 0.  1.
</event>
<event>
 5   0  0.1010725E-05  0.1904467E+04  0.7818609E-02  0.8652636E-01
        3   -1    0    0  501    0  0.00000000000E+00  0.00000000000E+00  0.86789339225E+03  0.86789339813E+03  0.10100000352E+00 0.  1.
       -3   -1    0    0    0  501  0.00000000000E+00  0.00000000000E+00 -0.10447692804E+04  0.10447692853E+04  0.10100000352E+00 0. -1.
    10030    2    1    2    0    0  0.00000000000E+00  0.00000000000E+00 -0.17687588819E+03  0.19126626835E+04  0.19044667130E+04 0.  0.
        5    1    3    3  502    0  0.85835468938E+03 -0.41217749582E+03 -0.80452980815E+02  0.95559292220E+03  0.46999998093E+01 0.  1.
       -5    1    3    3    0  502 -0.85835468938E+03  0.41217749582E+03 -0.96422907375E+02  0.95706976125E+03  0.46999998093E+01 0. -1.
</event>
<event>
 5   0  0.2888776E-05  0.1900230E+04  0.7818609E-02  0.8654742E-01
       -2   -1    0    0    0  501  0.00000000000E+00  0.00000000000E+00  0.76292724207E+03  0.76292724207E+03  0.25500000920E-02 0.  1.
        2   -1    0    0  501    0  0.00000000000E+00  0.00000000000E+00 -0.11832302681E+04  0.11832302681E+04  0.25500000920E-02 0. -1.
    10030    2    1    2    0    0  0.00000000000E+00  0.00000000000E+00 -0.42030302603E+03  0.19461575102E+04  0.19002300968E+04 0.  0.
        3    1    3    3  502    0 -0.10856172874E+03  0.37528063064E+03  0.67686278937E+03  0.78151420110E+03  0.10100000352E+00 0.  1.
       -3    1    3    3    0  502  0.10856172874E+03 -0.37528063064E+03 -0.10971658154E+04  0.11646433091E+04  0.10100000352E+00 0. -1.
</event>
<event>
 5   0  0.2789718E-05  0.1878771E+04  0.7818609E-02  0.8665496E-01
       -2   -1    0    0    0  501  0.00000000000E+00  0.00000000000E+00  0.49760025566E+03  0.49760025567E+03  0.25500000920E-02 0. -1.
        2   -1    0    0  501    0  0.00000000000E+00  0.00000000000E+00 -0.17734022315E+04  0.17734022315E+04  0.25500000920E-02 0.  1.
    10030    2    1    2    0    0  0.00000000000E+00  0.00000000000E+00 -0.12758019758E+04  0.22710024872E+04  0.18787713046E+04 0.  0.
        5    1    3    3  502    0 -0.91385947058E+03 -0.21642027882E+03 -0.66344137911E+03  0.11498493043E+04  0.46999998093E+01 0.  1.
       -5    1    3    3    0  502  0.91385947058E+03  0.21642027882E+03 -0.61236059671E+03  0.11211531829E+04  0.46999998093E+01 0. -1.
</event>
<event>
 5   0  0.1344119E-05  0.1900719E+04  0.7818609E-02  0.8654498E-01
       -1   -1    0    0    0  501  0.00000000000E+00  0.00000000000E+00  0.47691669074E+03  0.47691669077E+03  0.50400001928E-02 0. -1.
        1   -1    0    0  501    0  0.00000000000E+00  0.00000000000E+00 -0.18937969426E+04  0.18937969426E+04  0.50400001928E-02 0.  1.
    10030    2    1    2    0    0  0.00000000000E+00  0.00000000000E+00 -0.14168802519E+04  0.23707136334E+04  0.19007192016E+04 0.  0.
        2    1    3    3  502    0  0.75537942907E+03  0.29730926474E+03 -0.13247899649E+04  0.15537243423E+04  0.25500000920E-02 0.  1.
       -2    1    3    3    0  502 -0.75537942907E+03 -0.29730926474E+03 -0.92090286959E+02  0.81698929107E+03  0.25500000920E-02 0. -1.
</event>
<event>
 5   0  0.1471485E-05  0.1899487E+04  0.7818609E-02  0.8655112E-01
       -1   -1    0    0    0  501  0.00000000000E+00  0.00000000000E+00  0.11201582915E+04  0.11201582915E+04  0.50400001928E-02 0.  1.
        1   -1    0    0  501    0  0.00000000000E+00  0.00000000000E+00 -0.80525458391E+03  0.80525458392E+03  0.50400001928E-02 0. -1.
    10030    2    1    2    0    0  0.00000000000E+00  0.00000000000E+00  0.31490370756E+03  0.19254128754E+04  0.18994868770E+04 0.  0.
        4    1    3    3  502    0  0.52742358073E+03 -0.12273586885E+03  0.94833923159E+03  0.10920570672E+04  0.12699999809E+01 0.  1.
       -4    1    3    3    0  502 -0.52742358073E+03  0.12273586885E+03 -0.63343552403E+03  0.83335580817E+03  0.12699999809E+01 0. -1.
</event>
<event>
 5   0  0.2813537E-05  0.1902213E+04  0.7818609E-02  0.8653756E-01
        2   -1    0    0  501    0  0.00000000000E+00  0.00000000000E+00  0.14872775566E+04  0.14872775566E+04  0.25500000920E-02 0. -1.
       -2   -1    0    0    0  501  0.00000000000E+00  0.00000000000E+00 -0.60822767277E+03  0.60822767277E+03  0.25500000920E-02 0.  1.
    10030    2    1    2    0    0  0.00000000000E+00  0.00000000000E+00  0.87904988384E+03  0.20955052294E+04  0.19022127820E+04 0.  0.
        2    1    3    3  502    0  0.15394760804E+03  0.46701268571E+03  0.13363789889E+04  0.14239766559E+04  0.25500000920E-02 0. -1.
       -2    1    3    3    0  502 -0.15394760804E+03 -0.46701268571E+03 -0.45732910506E+03  0.67152857346E+03  0.25500000920E-02 0.  1.
</event>
<event>
 5   0  0.2888776E-05  0.1901281E+04  0.7818609E-02  0.8654219E-01
        2   -1    0    0  501    0  0.00000000000E+00  0.00000000000E+00  0.17719335424E+04  0.17719335424E+04  0.25500000920E-02 0.  1.
       -2   -1    0    0    0  501  0.00000000000E+00  0.00000000000E+00 -0.51001777092E+03  0.51001777093E+03  0.25500000920E-02 0. -1.
    10030    2    1    2    0    0  0.00000000000E+00  0.00000000000E+00  0.12619157715E+04  0.22819513133E+04  0.19012812475E+04 0.  0.
        3    1    3    3  502    0  0.37422074120E+03 -0.56024277799E+03 -0.17399763680E+03  0.69583641846E+03  0.10100000352E+00 0. -1.
       -3    1    3    3    0  502 -0.37422074120E+03  0.56024277799E+03  0.14359134083E+04  0.15861148948E+04  0.10100000352E+00 0.  1.
</event>
<event>
 5   0  0.1413011E-05  0.1911024E+04  0.7818609E-02  0.8649388E-01
       -1   -1    0    0    0  501  0.00000000000E+00  0.00000000000E+00  0.48424522445E+03  0.48424522447E+03  0.50400001928E-02 0.  1.
        1   -1    0    0  501    0  0.00000000000E+00  0.00000000000E+00 -0.18854146020E+04  0.18854146020E+04  0.50400001928E-02 0. -1.
    10030    2    1    2    0    0  0.00000000000E+00  0.00000000000E+00 -0.14011693775E+04  0.23696598264E+04  0.19110238273E+04 0.  0.
        1    1    3    3  502    0  0.90167576369E+03 -0.28079416529E+03 -0.88086848291E+03  0.12914309235E+04  0.50400001928E-02 0. -1.
       -1    1    3    3    0  502 -0.90167576369E+03  0.28079416529E+03 -0.52030089460E+03  0.10782289029E+04  0.50400001928E-02 0.  1.
</event>
<event>
 5   0  0.2789718E-05  0.1902794E+04  0.7818609E-02  0.8653467E-01
        2   -1    0    0  501    0  0.00000000000E+00  0.00000000000E+00  0.13389495984E+04  0.13389495984E+04  0.25500000920E-02 0.  1.
       -2   -1    0    0    0  501  0.00000000000E+00  0.00000000000E+00 -0.67601941036E+03  0.67601941037E+03  0.25500000920E-02 0. -1.
    10030    2    1    2    0    0  0.00000000000E+00  0.00000000000E+00  0.66293018806E+03  0.20149690088E+04  0.19027936494E+04 0.  0.
        5    1    3    3  502    0  0.33071859964E+03  0.73381795897E+03  0.86858525314E+03  0.11841984720E+04  0.46999998093E+01 0.  1.
       -5    1    3    3    0  502 -0.33071859964E+03 -0.73381795897E+03 -0.20565506508E+03  0.83077053682E+03  0.46999998093E+01 0. -1.
</event>
<event>
 5   0  0.1413011E-05  0.1899051E+04  0.7818609E-02  0.8655329E-01
        1   -1    0    0  501    0  0.00000000000E+00  0.00000000000E+00  0.75231959230E+03  0.75231959231E+03  0.50400001928E-02 0.  1.
       -1   -1    0    0    0  501  0.00000000000E+00  0.00000000000E+00 -0.11984252918E+04  0.11984252919E+04  0.50400001928E-02 0. -1.
    10030    2    1    2    0    0  0.00000000000E+00  0.00000000000E+00 -0.44610569955E+03  0.19507448842E+04  0.18990511599E+04 0.  0.
        1    1    3    3  502    0  0.46854069598E+02  0.55563520972E+03 -0.10125260380E+04  0.11559129586E+04  0.50400001928E-02 0. -1.
       -1    1    3    3    0  502 -0.46854069598E+02 -0.55563520972E+03  0.56642033845E+03  0.79483192560E+03  0.50400001928E-02 0.  1.
</event>
<event>
 5   0  0.1327254E-05  0.1899699E+04  0.7818609E-02  0.8655006E-01
       -1   -1    0    0    0  501  0.00000000000E+00  0.00000000000E+00  0.56379469098E+03  0.56379469101E+03  0.50400001928E-02 0.  1.
        1   -1    0    0  501    0  0.00000000000E+00  0.00000000000E+00 -0.16002523375E+04  0.16002523375E+04  0.50400001928E-02 0. -1.
    10030    2    1    2    0    0  0.00000000000E+00  0.00000000000E+00 -0.10364576465E+04  0.21640470285E+04  0.18996986836E+04 0.  0.
        5    1    3    3  502    0  0.81668918150E+01 -0.94145095232E+03 -0.66139584914E+03  0.11505925226E+04  0.46999998093E+01 0.  1.
       -5    1    3    3    0  502 -0.81668918150E+01  0.94145095232E+03 -0.37506179736E+03  0.10134545059E+04  0.46999998093E+01 0. -1.
</event>
<event>
 5   0  0.2813537E-05  0.1906220E+04  0.7818609E-02  0.8651766E-01
       -2   -1    0    0    0  501  0.00000000000E+00  0.00000000000E+00  0.13600365630E+04  0.13600365630E+04  0.25500000920E-02 0. -1.
        2   -1    0    0  501    0  0.00000000000E+00  0.00000000000E+00 -0.66793724555E+03  0.66793724556E+03  0.25500000920E-02 0.  1.
    10030    2    1    2    0    0  0.00000000000E+00  0.00000000000E+00  0.69209931743E+03  0.20279738085E+04  0.19062204235E+04 0.  0.
        2    1    3    3  502    0 -0.23726676891E+03 -0.91206384577E+03  0.49749019498E+03  0.10656699642E+04  0.25500000920E-02 0. -1.
       -2    1    3    3    0  502  0.23726676891E+03  0.91206384577E+03  0.19460912244E+03  0.96230384439E+03  0.25500000920E-02 0.  1.
</event>
<event>
 5   0  0.1413011E-05  0.1901840E+04  0.7818609E-02  0.8653941E-01
        1   -1    0    0  501    0  0.00000000000E+00  0.00000000000E+00  0.16688816071E+04  0.16688816071E+04  0.50400001928E-02 0.  1.
       -1   -1    0    0    0  501  0.00000000000E+00  0.00000000000E+00 -0.54182939488E+03  0.54182939490E+03  0.50400001928E-02 0. -1.
    10030    2    1    2    0    0  0.00000000000E+00  0.00000000000E+00  0.11270522122E+04  0.22107110020E+04  0.19018402786E+04 0.  0.
        1    1    3    3  502    0  0.12399451290E+03  0.20850105340E+03 -0.50525682983E+03  0.56047461371E+03  0.50400001928E-02 0. -1.
       -1    1    3    3    0  502 -0.12399451290E+03 -0.20850105340E+03  0.16323090420E+04  0.16502363883E+04  0.50400001928E-02 0.  1.
</event>
<event>
 5   0  0.1344119E-05  0.1897707E+04  0.7818609E-02  0.8655999E-01
        1   -1    0    0  501    0  0.00000000000E+00  0.00000000000E+00  0.12541933230E+04  0.12541933230E+04  0.50400001928E-02 0.  1.
       -1   -1    0    0    0  501  0.00000000000E+00  0.00000000000E+00 -0.71785009347E+03  0.71785009348E+03  0.50400001928E-02 0. -1.
    10030    2    1    2    0    0  0.00000000000E+00  0.00000000000E+00  0.53634322948E+03  0.19720434164E+04  0.18977068205E+04 0.  0.
        2    1    3    3  502    0  0.74742322944E+02 -0.65279815732E+03  0.97952319352E+03  0.11794903712E+04  0.25500000920E-02 0.  1.
       -2    1    3    3    0  502 -0.74742322944E+02  0.65279815732E+03 -0.44317996403E+03  0.79255304527E+03  0.25500000920E-02 0. -1.
</event>
<event>
 5   0  0.2789718E-05  0.1897092E+04  0.7818609E-02  0.8656305E-01
       -2   -1    0    0    0  501  0.00000000000E+00  0.00000000000E+00  0.57124320593E+03  0.57124320594E+03  0.25500000920E-02 0. -1.
        2   -1    0    0  501    0  0.00000000000E+00  0.00000000000E+00 -0.15750543069E+04  0.15750543069E+04  0.25500000920E-02 0.  1.
    10030    2    1    2    0    0  0.00000000000E+00  0.00000000000E+00 -0.10038111010E+04  0.21462975129E+04  0.18970915337E+04 0.  0.
        5    1    3    3  502    0  0.19658716032E+03 -0.27570168283E+03  0.50052155006E+03  0.60431932088E+03  0.46999998093E+01 0. -1.
       -5    1    3    3    0  502 -0.19658716032E+03  0.27570168283E+03 -0.15043326511E+04  0.15419781920E+04  0.46999998093E+01 0.  1.
</event>
<event>
 5   0  0.2879462E-05  0.1900117E+04  0.7818609E-02  0.8654798E-01
       -2   -1    0    0    0  501  0.00000000000E+00  0.00000000000E+00  0.51467628310E+03  0.51467628310E+03  0.25500000920E-02 0. -1.
        2   -1    0    0  501    0  0.00000000000E+00  0.00000000000E+00 -0.17537446359E+04  0.17537446359E+04  0.25500000920E-02 0.  1.
    10030    2    1    2    0    0  0.00000000000E+00  0.00000000000E+00 -0.12390683528E+04  0.22684209190E+04  0.19001165972E+04 0.  0.
        4    1    3    3  502    0 -0.18867730296E+03  0.17620016802E+03  0.47199929773E+03  0.53798752200E+03  0.12699999809E+01 0. -1.
       -4    1    3    3    0  502  0.18867730296E+03 -0.17620016802E+03 -0.17110676505E+04  0.17304333970E+04  0.12699999809E+01 0.  1.
</event>
<event>
 5   0  0.1344119E-05  0.1900227E+04  0.7818609E-02  0.8654743E-01
        1   -1    0    0  501    0  0.00000000000E+00  0.00000000000E+00  0.10065980760E+04  0.10065980760E+04  0.50400001928E-02 0.  1.
       -1   -1    0    0    0  501  0.00000000000E+00  0.00000000000E+00 -0.89679836595E+03  0.89679836596E+03  0.50400001928E-02 0. -1.
    10030    2    1    2    0    0  0.00000000000E+00  0.00000000000E+00  0.10979971002E+03  0.19033964420E+04  0.19002268388E+04 0.  0.
        2    1    3    3  502    0 -0.57555785493E+03 -0.45973693660E+03 -0.54617658607E+03  0.91702440449E+03  0.25500000920E-02 0. -1.
       -2    1    3    3    0  502  0.57555785493E+03  0.45973693660E+03  0.65597629609E+03  0.98637203746E+03  0.25500000920E-02 0.  1.
</event>
<event>
 5   0  0.1327254E-05  0.1898249E+04  0.7818609E-02  0.8655729E-01
       -1   -1    0    0    0  501  0.00000000000E+00  0.00000000000E+00  0.66165921049E+03  0.66165921051E+03  0.50400001928E-02 0. -1.
        1   -1    0    0  501    0  0.00000000000E+00  0.00000000000E+00 -0.13614819305E+04  0.13614819305E+04  0.50400001928E-02 0.  1.
    10030    2    1    2    0    0  0.00000000000E+00  0.00000000000E+00 -0.69982272003E+03  0.20231411410E+04  0.18982487290E+04 0.  0.
        5    1    3    3  502    0 -0.73602723767E+03 -0.59914913189E+03 -0.33929654696E+03  0.10078988112E+04  0.46999998093E+01 0. -1.
       -5    1    3    3    0  502  0.73602723767E+03  0.59914913189E+03 -0.36052617307E+03  0.10152423298E+04  0.46999998093E+01 0.  1.
</event>
<event>
 5   0  0.1344119E-05  0.1932136E+04  0.7818609E-02  0.8639023E-01
       -1   -1    0    0    0  501  0.00000000000E+00  0.00000000000E+00  0.87085931835E+03  0.87085931837E+03  0.50400001928E-02 0. -1.
        1   -1    0    0  501    0  0.00000000000E+00  0.00000000000E+00 -0.10716857724E+04  0.10716857724E+04  0.50400001928E-02 0.  1.
    10030    2    1    2    0    0  0.00000000000E+00  0.00000000000E+00 -0.20082645408E+03  0.19425450908E+04  0.19321361663E+04 0.  0.
        2    1    3    3  502    0  0.63842589559E+03  0.62690423195E+03  0.26581693911E+03  0.93341051276E+03  0.25500000920E-02 0. -1.
       -2    1    3    3    0  502 -0.63842589559E+03 -0.62690423195E+03 -0.46664339319E+03  0.10091345781E+04  0.25500000920E-02 0.  1.
</event>
<event>
 5   0  0.2888776E-05  0.1897866E+04  0.7818609E-02  0.8655919E-01
        2   -1    0    0  501    0  0.00000000000E+00  0.00000000000E+00  0.16485592359E+04  0.16485592359E+04  0.25500000920E-02 0. -1.
       -2   -1    0    0    0  501  0.00000000000E+00  0.00000000000E+00 -0.54621893663E+03  0.54621893664E+03  0.25500000920E-02 0.  1.
    10030    2    1    2    0    0  0.00000000000E+00  0.00000000000E+00  0.11023402993E+04  0.21947781725E+04  0.18978664577E+04 0.  0.
        3    1    3    3  502    0  0.51162067541E+03  0.62533183247E+02 -0.37022565060E+03  0.63461260394E+03  0.10100000352E+00 0.  1.
       -3    1    3    3    0  502 -0.51162067541E+03 -0.62533183247E+02  0.14725659499E+04  0.15601655686E+04  0.10100000352E+00 0. -1.
</event>
<event>
 5   0  0.1010725E-05  0.1902032E+04  0.7818609E-02  0.8653846E-01
       -3   -1    0    0    0  501  0.00000000000E+00  0.00000000000E+00  0.54122036156E+03  0.54122037099E+03  0.10100000352E+00 0.  1.
        3   -1    0    0  501    0  0.00000000000E+00  0.00000000000E+00 -0.16710958989E+04  0.16710959020E+04  0.10100000352E+00 0. -1.
    10030    2    1    2    0    0  0.00000000000E+00  0.00000000000E+00 -0.11298755374E+04  0.22123162730E+04  0.19020316931E+04 0.  0.
        1    1    3    3  502    0  0.23778562452E+03 -0.92021166332E+03 -0.52636745938E+03  0.10864594842E+04  0.50400001928E-02 0.  1.
       -1    1    3    3    0  502 -0.23778562452E+03  0.92021166332E+03 -0.60350807797E+03  0.11258567887E+04  0.50400001928E-02 0. -1.
</event>
<event>
 5   0  0.1471485E-05  0.1899247E+04  0.7818609E-02  0.8655231E-01
       -1   -1    0    0    0  501  0.00000000000E+00  0.00000000000E+00  0.55226633025E+03  0.55226633027E+03  0.50400001928E-02 0.  1.
        1   -1    0    0  501    0  0.00000000000E+00  0.00000000000E+00 -0.16328797822E+04  0.16328797822E+04  0.50400001928E-02 0. -1.
    10030    2    1    2    0    0  0.00000000000E+00  0.00000000000E+00 -0.10806134520E+04  0.21851461125E+04  0.18992467192E+04 0.  0.
        4    1    3    3  502    0 -0.35425977661E+03  0.60204639796E+03  0.19982060123E+03  0.72656021099E+03  0.12699999809E+01 0.  1.
       -4    1    3    3    0  502  0.35425977661E+03 -0.60204639796E+03 -0.12804340532E+04  0.14585859015E+04  0.12699999809E+01 0. -1.
</event>
<event>
 5   0  0.1429067E-05  0.1899072E+04  0.7818609E-02  0.8655318E-01
       -1   -1    0    0    0  501  0.00000000000E+00  0.00000000000E+00  0.61886945080E+03  0.61886945082E+03  0.50400001928E-02 0. -1.
        1   -1    0    0  501    0  0.00000000000E+00  0.00000000000E+00 -0.14568801427E+04  0.14568801427E+04  0.50400001928E-02 0.  1.
    10030    2    1    2    0    0  0.00000000000E+00  0.00000000000E+00 -0.83801069193E+03  0.20757495936E+04  0.18990719985E+04 0.  0.
        3    1    3    3  502    0  0.84285914305E+03 -0.43641441551E+03 -0.38908083627E+03  0.10257938313E+04  0.10100000352E+00 0.  1.
       -3    1    3    3    0  502 -0.84285914305E+03  0.43641441551E+03 -0.44892985566E+03  0.10499557622E+04  0.10100000352E+00 0. -1.
</event>
<event>
 5   0  0.2855141E-05  0.1910981E+04  0.7818609E-02  0.8649409E-01
       -2   -1    0    0    0  501  0.00000000000E+00  0.00000000000E+00  0.93232687568E+03  0.93232687568E+03  0.25500000920E-02 0.  1.
        2   -1    0    0  501    0  0.00000000000E+00  0.00000000000E+00 -0.97923005374E+03  0.97923005374E+03  0.25500000920E-02 0. -1.
    10030    2    1    2    0    0  0.00000000000E+00  0.00000000000E+00 -0.46903178062E+02  0.19115569294E+04  0.19109814197E+04 0.  0.
        1    1    3    3  502    0  0.87382919799E+03 -0.22855245028E+03  0.28832931176E+03  0.94812840999E+03  0.50400001928E-02 0.  1.
       -1    1    3    3    0  502 -0.87382919799E+03  0.22855245028E+03 -0.33523248983E+03  0.96342851943E+03  0.50400001928E-02 0. -1.
</event>
<event>
 5   0  0.1413011E-05  0.1897220E+04  0.7818609E-02  0.8656241E-01
        1   -1    0    0  501    0  0.00000000000E+00  0.00000000000E+00  0.16053571578E+04  0.16053571578E+04  0.50400001928E-02 0. -1.
       -1   -1    0    0    0  501  0.00000000000E+00  0.00000000000E+00 -0.56053627123E+03  0.56053627125E+03  0.50400001928E-02 0.  1.
    10030    2    1    2    0    0  0.00000000000E+00  0.00000000000E+00  0.10448208865E+04  0.21658934290E+04  0.18972199822E+04 0.  0.
        1    1    3    3  502    0 -0.12948377558E+03 -0.55905916754E+03  0.13847243269E+04  0.14989245019E+04  0.50400001928E-02 0. -1.
       -1    1    3    3    0  502  0.12948377558E+03  0.55905916754E+03 -0.33990344035E+03  0.66696892711E+03  0.50400001928E-02 0.  1.
</event>
<event>
 5   0  0.2888776E-05  0.1887225E+04  0.7818609E-02  0.8661242E-01
        2   -1    0    0  501    0  0.00000000000E+00  0.00000000000E+00  0.19767121073E+04  0.19767121073E+04  0.25500000920E-02 0.  1.
       -2   -1    0    0    0  501  0.00000000000E+00  0.00000000000E+00 -0.45044712825E+03  0.45044712826E+03  0.25500000920E-02 0. -1.
    10030    2    1    2    0    0  0.00000000000E+00  0.00000000000E+00  0.15262649791E+04  0.24271592356E+04  0.18872247266E+04 0.  0.
        3    1    3    3  502    0 -0.35065051924E+03  0.50398976616E+03  0.16846862807E+04  0.17930781761E+04  0.10100000352E+00 0.  1.
       -3    1    3    3    0  502  0.35065051924E+03 -0.50398976616E+03 -0.15842130159E+03  0.63408105951E+03  0.10100000352E+00 0. -1.
</event>
<event>
 5   0  0.2888776E-05  0.1900773E+04  0.7818609E-02  0.8654472E-01
        2   -1    0    0  501    0  0.00000000000E+00  0.00000000000E+00  0.81787551117E+03  0.81787551117E+03  0.25500000920E-02 0.  1.
       -2   -1    0    0    0  501  0.00000000000E+00  0.00000000000E+00 -0.11043668155E+04  0.11043668155E+04  0.25500000920E-02 0. -1.
    10030    2    1    2    0    0  0.00000000000E+00  0.00000000000E+00 -0.28649130430E+03  0.19222423266E+04  0.19007730782E+04 0.  0.
        3    1    3    3  502    0  0.91846278491E+03  0.56075399086E+02 -0.38366224598E+03  0.99695289098E+03  0.10100000352E+00 0. -1.
       -3    1    3    3    0  502 -0.91846278491E+03 -0.56075399086E+02  0.97170941682E+02  0.92528943566E+03  0.10100000352E+00 0.  1.
</event>
<event>
 5   0  0.2879462E-05  0.1902451E+04  0.7818609E-02  0.8653637E-01
       -2   -1    0    0    0  501  0.00000000000E+00  0.00000000000E+00  0.71698934060E+03  0.71698934060E+03  0.25500000920E-02 0. -1.
        2   -1    0    0  501    0  0.00000000000E+00  0.00000000000E+00 -0.12619850814E+04  0.12619850814E+04  0.25500000920E-02 0.  1.
    10030    2    1    2    0    0  0.00000000000E+00  0.00000000000E+00 -0.54499574079E+03  0.19789744220E+04  0.19024508944E+04 0.  0.
        4    1    3    3  502    0  0.21422805220E+03 -0.50569933248E+03 -0.10803993198E+04  0.12119776303E+04  0.12699999809E+01 0.  1.
       -4    1    3    3    0  502 -0.21422805220E+03  0.50569933248E+03  0.53540357898E+03  0.76699679172E+03  0.12699999809E+01 0. -1.
</event>
<event>
 5   0  0.1327254E-05  0.1871796E+04  0.7818609E-02  0.8669024E-01
       -1   -1    0    0    0  501  0.00000000000E+00  0.00000000000E+00  0.59459809288E+03  0.59459809290E+03  0.50400001928E-02 0.  1.
        1   -1    0    0  501    0  0.00000000000E+00  0.00000000000E+00 -0.14731039365E+04  0.14731039365E+04  0.50400001928E-02 0. -1.
    10030    2    1    2    0    0  0.00000000000E+00  0.00000000000E+00 -0.87850584363E+03  0.20677020294E+04  0.18717957060E+04 0.  0.
        5    1    3    3  502    0  0.15814130756E+03  0.11112537026E+03 -0.14508034045E+04  0.14636290957E+04  0.46999998093E+01 0. -1.
       -5    1    3    3    0  502 -0.15814130756E+03 -0.11112537026E+03  0.57229756090E+03  0.60407293375E+03  0.46999998093E+01 0.  1.
</event>
<event>
 5   0  0.2879462E-05  0.1903494E+04  0.7818609E-02  0.8653119E-01
       -2   -1    0    0    0  501  0.00000000000E+00  0.00000000000E+00  0.69456367333E+03  0.69456367333E+03  0.25500000920E-02 0.  1.
        2   -1    0    0  501    0  0.00000000000E+00  0.00000000000E+00 -0.13041597031E+04  0.13041597031E+04  0.25500000920E-02 0. -1.
    10030    2    1    2    0    0  0.00000000000E+00  0.00000000000E+00 -0.60959602980E+03  0.19987233765E+04  0.19034935818E+04 0.  0.
        4    1    3    3  502    0 -0.70942381196E+03  0.45104318162E+03  0.16372938122E+03  0.85646425485E+03  0.12699999809E+01 0.  1.
       -4    1    3    3    0  502  0.70942381196E+03 -0.45104318162E+03 -0.77332541103E+03  0.11422591216E+04  0.12699999809E+01 0. -1.
</event>
<event>
 5   0  0.1327254E-05  0.1901433E+04  0.7818609E-02  0.8654143E-01
       -1   -1    0    0    0  501  0.00000000000E+00  0.00000000000E+00  0.63595987332E+03  0.63595987334E+03  0.50400001928E-02 0.  1.
        1   -1    0    0  501    0  0.00000000000E+00  0.00000000000E+00 -0.14212561856E+04  0.14212561856E+04  0.50400001928E-02 0. -1.
    10030    2    1    2    0    0  0.00000000000E+00  0.00000000000E+00 -0.78529631228E+03  0.20572160589E+04  0.19014330425E+04 0.  0.
        5    1    3    3  502    0  0.66830330313E+03 -0.42615312822E+03 -0.96063940333E+03  0.12454260102E+04  0.46999998093E+01 0. -1.
       -5    1    3    3    0  502 -0.66830330313E+03  0.42615312822E+03  0.17534309105E+03  0.81179004874E+03  0.46999998093E+01 0.  1.
</event>
<event>
 5   0  0.2855141E-05  0.1905109E+04  0.7818609E-02  0.8652318E-01
       -2   -1    0    0    0  501  0.00000000000E+00  0.00000000000E+00  0.59244500761E+03  0.59244500761E+03  0.25500000920E-02 0. -1.
        2   -1    0    0  501    0  0.00000000000E+00  0.00000000000E+00 -0.15315508096E+04  0.15315508096E+04  0.25500000920E-02 0.  1.
    10030    2    1    2    0    0  0.00000000000E+00  0.00000000000E+00 -0.93910580203E+03  0.21239958173E+04  0.19051085335E+04 0.  0.
        1    1    3    3  502    0 -0.87377283415E+03 -0.31298131666E+03 -0.70847194396E+03  0.11676338320E+04  0.50400001928E-02 0.  1.
       -1    1    3    3    0  502  0.87377283415E+03  0.31298131666E+03 -0.23063385808E+03  0.95636198523E+03  0.50400001928E-02 0. -1.
</event>
<event>
 5   0  0.1344119E-05  0.1894376E+04  0.7818609E-02  0.8657661E-01
       -1   -1    0    0    0  501  0.00000000000E+00  0.00000000000E+00  0.10095267346E+04  0.10095267346E+04  0.50400001928E-02 0.  1.
        1   -1    0    0  501    0  0.00000000000E+00  0.00000000000E+00 -0.88869879833E+03  0.88869879834E+03  0.50400001928E-02 0. -1.
    10030    2    1    2    0    0  0.00000000000E+00  0.00000000000E+00  0.12082793624E+03  0.18982255329E+04  0.18943760935E+04 0.  0.
        2    1    3    3  502    0  0.10803027990E+03  0.93873313450E+02 -0.87780187869E+03  0.88939242104E+03  0.25500000920E-02 0. -1.
       -2    1    3    3    0  502 -0.10803027990E+03 -0.93873313450E+02  0.99862981494E+03  0.10088331119E+04  0.25500000920E-02 0.  1.
</event>
<event>
 5   0  0.2789718E-05  0.1900517E+04  0.7818609E-02  0.8654599E-01
        2   -1    0    0  501    0  0.00000000000E+00  0.00000000000E+00  0.92174251341E+03  0.92174251342E+03  0.25500000920E-02 0.  1.
       -2   -1    0    0    0  501  0.00000000000E+00  0.00000000000E+00 -0.97965656093E+03  0.97965656093E+03  0.25500000920E-02 0. -1.
    10030    2    1    2    0    0  0.00000000000E+00  0.00000000000E+00 -0.57914047513E+02  0.19013990743E+04  0.19005168779E+04 0.  0.
        5    1    3    3  502    0 -0.21895025148E+03 -0.16304378857E+03 -0.93956989922E+03  0.97843557536E+03  0.46999998093E+01 0. -1.
       -5    1    3    3    0  502  0.21895025148E+03  0.16304378857E+03  0.88165585171E+03  0.92296349899E+03  0.46999998093E+01 0.  1.
</event>
<event>
 5   0  0.1429067E-05  0.1899315E+04  0.7818609E-02  0.8655197E-01
        1   -1    0    0  501    0  0.00000000000E+00  0.00000000000E+00  0.83796938491E+03  0.83796938492E+03  0.50400001928E-02 0. -1.
       -1   -1    0    0    0  501  0.00000000000E+00  0.00000000000E+00 -0.10762321084E+04  0.10762321084E+04  0.50400001928E-02 0.  1.
    10030    2    1    2    0    0  0.00000000000E+00  0.00000000000E+00 -0.23826272349E+03  0.19142014933E+04  0.18993152007E+04 0.  0.
        3    1    3    3  502    0 -0.42574370924E+03 -0.51263803329E+03 -0.80103922255E+03  0.10419785532E+04  0.10100000352E+00 0.  1.
       -3    1    3    3    0  502  0.42574370924E+03  0.51263803329E+03  0.56277649906E+03  0.87222294010E+03  0.10100000352E+00 0. -1.
</event>
<event>
 5   0  0.1429067E-05  0.1880216E+04  0.7818609E-02  0.8664767E-01
        1   -1    0    0  501    0  0.00000000000E+00  0.00000000000E+00  0.15368193287E+04  0.15368193287E+04  0.50400001928E-02 0.  1.
       -1   -1    0    0    0  501  0.00000000000E+00  0.00000000000E+00 -0.57508562638E+03  0.57508562640E+03  0.50400001928E-02 0. -1.
    10030    2    1    2    0    0  0.00000000000E+00  0.00000000000E+00  0.96173370236E+03  0.21119049551E+04  0.18802156327E+04 0.  0.
        3    1    3    3  502    0 -0.76670722657E+03  0.31501001801E+03 -0.17332968518E+02  0.82907884107E+03  0.10100000352E+00 0.  1.
       -3    1    3    3    0  502  0.76670722657E+03 -0.31501001801E+03  0.97906667088E+03  0.12828261141E+04  0.10100000352E+00 0. -1.
</event>
<event>
 5   0  0.1429067E-05  0.1892507E+04  0.7818609E-02  0.8658595E-01
       -1   -1    0    0    0  501  0.00000000000E+00  0.00000000000E+00  0.14732438069E+04  0.14732438069E+04  0.50400001928E-02 0.  1.
        1   -1    0    0  501    0  0.00000000000E+00  0.00000000000E+00 -0.60777161992E+03  0.60777161994E+03  0.50400001928E-02 0. -1.
    10030    2    1    2    0    0  0.00000000000E+00  0.00000000000E+00  0.86547218695E+03  0.20810154268E+04  0.18925070939E+04 0.  0.
        3    1    3    3  502    0 -0.27135522156E+02  0.76238179363E+03  0.10483528616E+04  0.12965361810E+04  0.10100000352E+00 0.  1.
       -3    1    3    3    0  502  0.27135522156E+02 -0.76238179363E+03 -0.18288067468E+03  0.78447924587E+03  0.10100000352E+00 0. -1.
</event>
<event>
 5   0  0.1344119E-05  0.1902502E+04  0.7818609E-02  0.8653612E-01
       -1   -1    0    0    0  501  0.00000000000E+00  0.00000000000E+00  0.65028613232E+03  0.65028613234E+03  0.50400001928E-02 0. -1.
        1   -1    0    0  501    0  0.00000000000E+00  0.00000000000E+00 -0.13915074439E+04  0.13915074439E+04  0.50400001928E-02 0.  1.
    10030    2    1    2    0    0  0.00000000000E+00  0.00000000000E+00 -0.74122131162E+03  0.20417935763E+04  0.19025015047E+04 0.  0.
        2    1    3    3  502    0  0.53613956891E+03 -0.11669427251E+03 -0.12045581388E+04  0.13236402458E+04  0.25500000920E-02 0.  1.
       -2    1    3    3    0  502 -0.53613956891E+03  0.11669427251E+03  0.46333682720E+03  0.71815333045E+03  0.25500000920E-02 0. -1.
</event>
<event>
 5   0  0.1327254E-05  0.1900074E+04  0.7818609E-02  0.8654820E-01
       -1   -1    0    0    0  501  0.00000000000E+00  0.00000000000E+00  0.96802249092E+03  0.96802249094E+03  0.50400001928E-02 0. -1.
        1   -1    0    0  501    0  0.00000000000E+00  0.00000000000E+00 -0.93238572581E+03  0.93238572582E+03  0.50400001928E-02 0.  1.
    10030    2    1    2    0    0  0.00000000000E+00  0.00000000000E+00  0.35636765112E+02  0.19004082168E+04  0.19000740542E+04 0.  0.
        5    1    3    3  502    0  0.21652924722E+03  0.87682242263E+03 -0.27692953790E+03  0.94467694726E+03  0.46999998093E+01 0.  1.
       -5    1    3    3    0  502 -0.21652924722E+03 -0.87682242263E+03  0.31256630301E+03  0.95573126950E+03  0.46999998093E+01 0. -1.
</event>
<event>
 5   0  0.2789718E-05  0.1898829E+04  0.7818609E-02  0.8655439E-01
        2   -1    0    0  501    0  0.00000000000E+00  0.00000000000E+00  0.10999050790E+04  0.10999050790E+04  0.25500000920E-02 0. -1.
       -2   -1    0    0    0  501  0.00000000000E+00  0.00000000000E+00 -0.81951464392E+03  0.81951464393E+03  0.25500000920E-02 0.  1.
    10030    2    1    2    0    0  0.00000000000E+00  0.00000000000E+00  0.28039043512E+03  0.19194197230E+04  0.18988294491E+04 0.  0.
        5    1    3    3  502    0 -0.93571654220E+03  0.50345988529E+01  0.30248343626E+03  0.98341705992E+03  0.46999998093E+01 0. -1.
       -5    1    3    3    0  502  0.93571654220E+03 -0.50345988529E+01 -0.22093001142E+02  0.93600266305E+03  0.46999998093E+01 0.  1.
</event>
<event>
 5   0  0.1010725E-05  0.1899175E+04  0.7818609E-02  0.8655267E-01
        3   -1    0    0  501    0  0.00000000000E+00  0.00000000000E+00  0.18380709696E+04  0.18380709724E+04  0.10100000352E+00 0.  1.
       -3   -1    0    0    0  501  0.00000000000E+00  0.00000000000E+00 -0.49057732749E+03  0.49057733788E+03  0.10100000352E+00 0. -1.
    10030    2    1    2    0    0  0.00000000000E+00  0.00000000000E+00  0.13474936421E+04  0.23286483103E+04  0.18991745147E+04 0.  0.
        1    1    3    3  502    0  0.11699638425E+03 -0.68670946723E+03 -0.11752297526E+03  0.70644865068E+03  0.50400001928E-02 0. -1.
       -1    1    3    3    0  502 -0.11699638425E+03  0.68670946723E+03  0.14650166174E+04  0.16221996596E+04  0.50400001928E-02 0.  1.
</event>
<event>
 5   0  0.2855141E-05  0.1894150E+04  0.7818609E-02  0.8657774E-01
        2   -1    0    0  501    0  0.00000000000E+00  0.00000000000E+00  0.52456739699E+03  0.52456739700E+03  0.25500000920E-02 0.  1.
       -2   -1    0    0    0  501  0.00000000000E+00  0.00000000000E+00 -0.17098863010E+04  0.17098863010E+04  0.25500000920E-02 0. -1.
    10030    2    1    2    0    0  0.00000000000E+00  0.00000000000E+00 -0.11853189040E+04  0.22344536980E+04  0.18941495253E+04 0.  0.
        1    1    3    3  502    0 -0.28030634405E+03  0.19726011766E+03  0.44883288735E+03  0.56474256199E+03  0.50400001928E-02 0.  1.
       -1    1    3    3    0  502  0.28030634405E+03 -0.19726011766E+03 -0.16341517914E+04  0.16697111360E+04  0.50400001928E-02 0. -1.
</event>
<event>
 5   0  0.1413011E-05  0.1899412E+04  0.7818609E-02  0.8655149E-01
       -1   -1    0    0    0  501  0.00000000000E+00  0.00000000000E+00  0.41897088609E+03  0.41897088612E+03  0.50400001928E-02 0. -1.
        1   -1    0    0  501    0  0.00000000000E+00  0.00000000000E+00 -0.21527548218E+04  0.21527548218E+04  0.50400001928E-02 0.  1.
    10030    2    1    2    0    0  0.00000000000E+00  0.00000000000E+00 -0.17337839357E+04  0.25717257079E+04  0.18994121146E+04 0.  0.
        1    1    3    3  502    0 -0.22576842340E+03 -0.32144144275E+02  0.38135006370E+03  0.44433376884E+03  0.50400001928E-02 0. -1.
       -1    1    3    3    0  502  0.22576842340E+03  0.32144144275E+02 -0.21151339994E+04  0.21273919391E+04  0.50400001928E-02 0.  1.
</event>
<event>
 5   0  0.2879462E-05  0.1900504E+04  0.7818609E-02  0.8654606E-01
       -2   -1    0    0    0  501  0.00000000000E+00  0.00000000000E+00  0.99870021062E+03  0.99870021062E+03  0.25500000920E-02 0. -1.
        2   -1    0    0  501    0  0.00000000000E+00  0.00000000000E+00 -0.90415384331E+03  0.90415384331E+03  0.25500000920E-02 0.  1.
    10030    2    1    2    0    0  0.00000000000E+00  0.00000000000E+00  0.94546367307E+02  0.19028540539E+04  0.19005037582E+04 0.  0.
        4    1    3    3  502    0 -0.55986391759E+03 -0.61405449065E+03  0.50878409783E+03  0.97435793978E+03  0.12699999809E+01 0. -1.
       -4    1    3    3    0  502  0.55986391759E+03  0.61405449065E+03 -0.41423773052E+03  0.92849611415E+03  0.12699999809E+01 0.  1.
</event>
<event>
 5   0  0.2888776E-05  0.1891825E+04  0.7818609E-02  0.8658936E-01
        2   -1    0    0  501    0  0.00000000000E+00  0.00000000000E+00  0.20150143890E+04  0.20150143890E+04  0.25500000920E-02 0. -1.
       -2   -1    0    0    0  501  0.00000000000E+00  0.00000000000E+00 -0.44404162824E+03  0.44404162825E+03  0.25500000920E-02 0.  1.
    10030    2    1    2    0    0  0.00000000000E+00  0.00000000000E+00  0.15709727607E+04  0.24590560172E+04  0.18918248018E+04 0.  0.
        3    1    3    3  502    0 -0.13886207818E+03  0.29066161891E+03 -0.37054918070E+03  0.49099242253E+03  0.10100000352E+00 0.  1.
       -3    1    3    3    0  502  0.13886207818E+03 -0.29066161891E+03  0.19415219414E+04  0.19680635947E+04  0.10100000352E+00 0. -1.
</event>
<event>
 5   0  0.1429067E-05  0.1898323E+04  0.7818609E-02  0.8655691E-01
       -1   -1    0    0    0  501  0.00000000000E+00  0.00000000000E+00  0.58751760158E+03  0.58751760160E+03  0.50400001928E-02 0.  1.
        1   -1    0    0  501    0  0.00000000000E+00  0.00000000000E+00 -0.15334144334E+04  0.15334144334E+04  0.50400001928E-02 0. -1.
    10030    2    1    2    0    0  0.00000000000E+00  0.00000000000E+00 -0.94589683183E+03  0.21209320350E+04  0.18983234394E+04 0.  0.
        3    1    3    3  502    0 -0.70658313850E+03 -0.27464357702E+03  0.16518466171E+03  0.77587035558E+03  0.10100000352E+00 0.  1.
       -3    1    3    3    0  502  0.70658313850E+03  0.27464357702E+03 -0.11110814935E+04  0.13450616794E+04  0.10100000352E+00 0. -1.
</event>
<event>
 5   0  0.1327254E-05  0.1899538E+04  0.7818609E-02  0.8655086E-01
        1   -1    0    0  501    0  0.00000000000E+00  0.00000000000E+00  0.41967910322E+03  0.41967910325E+03  0.50400001928E-02 0. -1.
       -1   -1    0    0    0  501  0.00000000000E+00  0.00000000000E+00 -0.21494071323E+04  0.21494071323E+04  0.50400001928E-02 0.  1.
    10030    2    1    2    0    0  0.00000000000E+00  0.00000000000E+00 -0.17297280291E+04  0.25690862356E+04  0.18995381099E+04 0.  0.
        5    1    3    3  502    0 -0.11257108681E+03 -0.78802776614E+03 -0.16420766154E+03  0.81280148615E+03  0.46999998093E+01 0. -1.
       -5    1    3    3    0  502  0.11257108681E+03  0.78802776614E+03 -0.15655203675E+04  0.17562847494E+04  0.46999998093E+01 0.  1.
</event>
<event>
 5   0  0.1471485E-05  0.1902061E+04  0.7818609E-02  0.8653831E-01
        1   -1    0    0  501    0  0.00000000000E+00  0.00000000000E+00  0.76409345784E+03  0.76409345786E+03  0.50400001928E-02 0.  1.
       -1   -1    0    0    0  501  0.00000000000E+00  0.00000000000E+00 -0.11837019707E+04  0.11837019707E+04  0.50400001928E-02 0. -1.
    10030    2    1    2    0    0  0.00000000000E+00  0.00000000000E+00 -0.41960851283E+03  0.19477954285E+04  0.19020609158E+04 0.  0.
        4    1    3    3  502    0  0.89579907185E+03 -0.22913030102E+03  0.18032798543E+02  0.92481536897E+03  0.12699999809E+01 0. -1.
       -4    1    3    3    0  502 -0.89579907185E+03  0.22913030102E+03 -0.43764131138E+03  0.10229800596E+04  0.12699999809E+01 0.  1.
</event>
<event>
 5   0  0.2789718E-05  0.1899559E+04  0.7818609E-02  0.8655076E-01
       -2   -1    0    0    0  501  0.00000000000E+00  0.00000000000E+00  0.83107721805E+03  0.83107721805E+03  0.25500000920E-02 0. -1.
        2   -1    0    0  501    0  0.00000000000E+00  0.00000000000E+00 -0.10854362973E+04  0.10854362973E+04  0.25500000920E-02 0.  1.
    10030    2    1    2    0    0  0.00000000000E+00  0.00000000000E+00 -0.25435907924E+03  0.19165135154E+04  0.18995592945E+04 0.  0.
        5    1    3    3  502    0 -0.48299524568E+03  0.47364527717E+02  0.69652102830E+03  0.84893547382E+03  0.46999998093E+01 0. -1.
       -5    1    3    3    0  502  0.48299524568E+03 -0.47364527717E+02 -0.95088010755E+03  0.10675780415E+04  0.46999998093E+01 0.  1.
</event>
<event>
 5   0  0.2813537E-05  0.1905216E+04  0.7818609E-02  0.8652264E-01
       -2   -1    0    0    0  501  0.00000000000E+00  0.00000000000E+00  0.32833390400E+03  0.32833390401E+03  0.25500000920E-02 0. -1.
        2   -1    0    0  501    0  0.00000000000E+00  0.00000000000E+00 -0.27638395450E+04  0.27638395450E+04  0.25500000920E-02 0.  1.
    10030    2    1    2    0    0  0.00000000000E+00  0.00000000000E+00 -0.24355056410E+04  0.30921734490E+04  0.19052162374E+04 0.  0.
        2    1    3    3  502    0  0.59299144668E+02 -0.93624929027E+03 -0.14863249387E+04  0.17576236644E+04  0.25500000920E-02 0.  1.
       -2    1    3    3    0  502 -0.59299144668E+02  0.93624929027E+03 -0.94918070228E+03  0.13345497846E+04  0.25500000920E-02 0. -1.
</event>
<event>
 5   0  0.2888776E-05  0.1918227E+04  0.7818609E-02  0.8645837E-01
        2   -1    0    0  501    0  0.00000000000E+00  0.00000000000E+00  0.10484416444E+04  0.10484416444E+04  0.25500000920E-02 0.  1.
       -2   -1    0    0    0  501  0.00000000000E+00  0.00000000000E+00 -0.87739601214E+03  0.87739601215E+03  0.25500000920E-02 0. -1.
    10030    2    1    2    0    0  0.00000000000E+00  0.00000000000E+00  0.17104563228E+03  0.19258376566E+04  0.19182268039E+04 0.  0.
        3    1    3    3  502    0  0.78305278538E+03  0.54592446816E+03 -0.80850836278E+01  0.95460492792E+03  0.10100000352E+00 0.  1.
       -3    1    3    3    0  502 -0.78305278538E+03 -0.54592446816E+03  0.17913071591E+03  0.97123272865E+03  0.10100000352E+00 0. -1.
</event>
<event>
 5   0  0.2813537E-05  0.1900311E+04  0.7818609E-02  0.8654702E-01
        2   -1    0    0  501    0  0.00000000000E+00  0.00000000000E+00  0.12057064172E+04  0.12057064172E+04  0.25500000920E-02 0.  1.
       -2   -1    0    0    0  501  0.00000000000E+00  0.00000000000E+00 -0.74876865532E+03  0.74876865532E+03  0.25500000920E-02 0. -1.
    10030    2    1    2    0    0  0.00000000000E+00  0.00000000000E+00  0.45693776186E+03  0.19544750725E+04  0.19003106827E+04 0.  0.
        2    1    3    3  502    0 -0.40165679459E+03  0.12702681910E+03 -0.64746978859E+03  0.77245137100E+03  0.25500000920E-02 0. -1.
       -2    1    3    3    0  502  0.40165679459E+03 -0.12702681910E+03  0.11044075505E+04  0.11820237015E+04  0.25500000920E-02 0.  1.
</event>
<event>
 5   0  0.2888776E-05  0.1898842E+04  0.7818609E-02  0.8655433E-01
       -2   -1    0    0    0  501  0.00000000000E+00  0.00000000000E+00  0.44449716329E+03  0.44449716330E+03  0.25500000920E-02 0. -1.
        2   -1    0    0  501    0  0.00000000000E+00  0.00000000000E+00 -0.20279103134E+04  0.20279103134E+04  0.25500000920E-02 0.  1.
    10030    2    1    2    0    0  0.00000000000E+00  0.00000000000E+00 -0.15834131501E+04  0.24724074767E+04  0.18988421543E+04 0.  0.
        3    1    3    3  502    0 -0.35328447780E+03 -0.86242577354E+03 -0.55584940321E+03  0.10851528493E+04  0.10100000352E+00 0. -1.
       -3    1    3    3    0  502  0.35328447780E+03  0.86242577354E+03 -0.10275637469E+04  0.13872546274E+04  0.10100000352E+00 0.  1.
</event>
<event>
 5   0  0.2789718E-05  0.1903292E+04  0.7818609E-02  0.8653220E-01
        2   -1    0    0  501    0  0.00000000000E+00  0.00000000000E+00  0.13562944685E+04  0.13562944685E+04  0.25500000920E-02 0. -1.
       -2   -1    0    0    0  501  0.00000000000E+00  0.00000000000E+00 -0.66772366911E+03  0.66772366911E+03  0.25500000920E-02 0.  1.
    10030    2    1    2    0    0  0.00000000000E+00  0.00000000000E+00  0.68857079938E+03  0.20240181376E+04  0.19032917999E+04 0.  0.
        5    1    3    3  502    0 -0.68014377078E+03 -0.38450434749E+03 -0.23347020209E+03  0.81545666190E+03  0.46999998093E+01 0.  1.
       -5    1    3    3    0  502  0.68014377078E+03  0.38450434749E+03  0.92204100147E+03  0.12085614757E+04  0.46999998093E+01 0. -1.
</event>
<event>
 5   0  0.2879462E-05  0.1903815E+04  0.7818609E-02  0.8652960E-01
        2   -1    0    0  501    0  0.00000000000E+00  0.00000000000E+00  0.15748632943E+04  0.15748632943E+04  0.25500000920E-02 0. -1.
       -2   -1    0    0    0  501  0.00000000000E+00  0.00000000000E+00 -0.57536951137E+03  0.57536951137E+03  0.25500000920E-02 0.  1.
    10030    2    1    2    0    0  0.00000000000E+00  0.00000000000E+00  0.99949378298E+03  0.21502328057E+04  0.19038154576E+04 0.  0.
        4    1    3    3  502    0 -0.78837738013E+03 -0.51178656949E+03  0.66977192415E+03  0.11541492232E+04  0.12699999809E+01 0. -1.
       -4    1    3    3    0  502  0.78837738013E+03  0.51178656949E+03  0.32972185883E+03  0.99608358249E+03  0.12699999809E+01 0.  1.
</event>
<event>
 5   0  0.2879462E-05  0.1901268E+04  0.7818609E-02  0.8654225E-01
       -2   -1    0    0    0  501  0.00000000000E+00  0.00000000000E+00  0.50770131785E+03  0.50770131785E+03  0.25500000920E-02 0. -1.
        2   -1    0    0  501    0  0.00000000000E+00  0.00000000000E+00 -0.17799943100E+04  0.17799943100E+04  0.25500000920E-02 0.  1.
    10030    2    1    2    0    0  0.00000000000E+00  0.00000000000E+00 -0.12722929921E+04  0.22876956278E+04  0.19012684786E+04 0.  0.
        4    1    3    3  502    0  0.76829105177E+03  0.18852825260E+02  0.37110021791E+02  0.76941882994E+03  0.12699999809E+01 0. -1.
       -4    1    3    3    0  502 -0.76829105177E+03 -0.18852825260E+02 -0.13094030139E+04  0.15182767979E+04  0.12699999809E+01 0.  1.
</event>
<event>
 5   0  0.1413011E-05  0.1902598E+04  0.7818609E-02  0.8653564E-01
        1   -1    0    0  501    0  0.00000000000E+00  0.00000000000E+00  0.98061903758E+03  0.98061903759E+03  0.50400001928E-02 0.  1.
       -1   -1    0    0    0  501  0.00000000000E+00  0.00000000000E+00 -0.92285556306E+03  0.92285556307E+03  0.50400001928E-02 0. -1.
    10030    2    1    2    0    0  0.00000000000E+00  0.00000000000E+00  0.57763474520E+02  0.19034746007E+04  0.19025979440E+04 0.  0.
        1    1    3    3  502    0 -0.15620228445E+03  0.91276267200E+03 -0.18901412791E+03  0.94512495980E+03  0.50400001928E-02 0. -1.
       -1    1    3    3    0  502  0.15620228445E+03 -0.91276267200E+03  0.24677760243E+03  0.95834964087E+03  0.50400001928E-02 0.  1.
</event>
<event>
 5   0  0.2813537E-05  0.1892853E+04  0.7818609E-02  0.8658422E-01
       -2   -1    0    0    0  501  0.00000000000E+00  0.00000000000E+00  0.17170369014E+04  0.17170369014E+04  0.25500000920E-02 0. -1.
        2   -1    0    0  501    0  0.00000000000E+00  0.00000000000E+00 -0.52166797637E+03  0.52166797638E+03  0.25500000920E-02 0.  1.
    10030    2    1    2    0    0  0.00000000000E+00  0.00000000000E+00  0.11953689250E+04  0.22387048778E+04  0.18928530484E+04 0.  0.
        2    1    3    3  502    0 -0.62197451582E+03 -0.53369618533E+03  0.37872723839E+02  0.82043784639E+03  0.25500000920E-02 0.  1.
       -2    1    3    3    0  502  0.62197451582E+03  0.53369618533E+03  0.11574962012E+04  0.14182670314E+04  0.25500000920E-02 0. -1.
</event>
<event>
 5   0  0.1327254E-05  0.1900676E+04  0.7818609E-02  0.8654520E-01
       -1   -1    0    0    0  501  0.00000000000E+00  0.00000000000E+00  0.11536690321E+04  0.11536690321E+04  0.50400001928E-02 0.  1.
        1   -1    0    0  501    0  0.00000000000E+00  0.00000000000E+00 -0.78284326064E+03  0.78284326066E+03  0.50400001928E-02 0. -1.
    10030    2    1    2    0    0  0.00000000000E+00  0.00000000000E+00  0.37082577147E+03  0.19365122928E+04  0.19006756976E+04 0.  0.
        5    1    3    3  502    0  0.79892731300E+03  0.78508973348E+02  0.70359982848E+03  0.10674845755E+04  0.46999998093E+01 0.  1.
       -5    1    3    3    0  502 -0.79892731300E+03 -0.78508973348E+02 -0.33277405701E+03  0.86902771726E+03  0.46999998093E+01 0. -1.
</event>
<event>
 5   0  0.1413011E-05  0.1901907E+04  0.7818609E-02  0.8653908E-01
       -1   -1    0    0    0  501  0.00000000000E+00  0.00000000000E+00  0.89139102335E+03  0.89139102337E+03  0.50400001928E-02 0.  1.
        1   -1    0    0  501    0  0.00000000000E+00  0.00000000000E+00 -0.10144963233E+04  0.10144963233E+04  0.50400001928E-02 0. -1.
    10030    2    1    2    0    0  0.00000000000E+00  0.00000000000E+00 -0.12310529995E+03  0.19058873467E+04  0.19019073751E+04 0.  0.
        1    1    3    3  502    0  0.68185060637E+03  0.75110495142E+02  0.59842335922E+03  0.91031442523E+03  0.50400001928E-02 0.  1.
       -1    1    3    3    0  502 -0.68185060637E+03 -0.75110495142E+02 -0.72152865917E+03  0.99557292145E+03  0.50400001928E-02 0. -1.
</event>
<event>
 5   0  0.1327254E-05  0.1895969E+04  0.7818609E-02  0.8656865E-01
       -1   -1    0    0    0  501  0.00000000000E+00  0.00000000000E+00  0.62090953649E+03  0.62090953651E+03  0.50400001928E-02 0.  1.
        1   -1    0    0  501    0  0.00000000000E+00  0.00000000000E+00 -0.14473525259E+04  0.14473525259E+04  0.50400001928E-02 0. -1.
    10030    2    1    2    0    0  0.00000000000E+00  0.00000000000E+00 -0.82644298943E+03  0.20682620624E+04  0.18959693943E+04 0.  0.
        5    1    3    3  502    0  0.33816398185E+03 -0.87434796785E+03 -0.25966914345E+03  0.97277407530E+03  0.46999998093E+01 0. -1.
       -5    1    3    3    0  502 -0.33816398185E+03  0.87434796785E+03 -0.56677384598E+03  0.10954879872E+04  0.46999998093E+01 0.  1.
</event>
<event>
 5   0  0.2855141E-05  0.1899958E+04  0.7818609E-02  0.8654877E-01
        2   -1    0    0  501    0  0.00000000000E+00  0.00000000000E+00  0.19786892813E+04  0.19786892813E+04  0.25500000920E-02 0.  1.
       -2   -1    0    0    0  501  0.00000000000E+00  0.00000000000E+00 -0.45608993691E+03  0.45608993692E+03  0.25500000920E-02 0. -1.
    10030    2    1    2    0    0  0.00000000000E+00  0.00000000000E+00  0.15225993444E+04  0.24347792183E+04  0.18999581780E+04 0.  0.
        1    1    3    3  502    0 -0.39438143852E+03 -0.86335486153E+03  0.81162056842E+03  0.12488579916E+04  0.50400001928E-02 0. -1.
       -1    1    3    3    0  502  0.39438143852E+03  0.86335486153E+03  0.71097877600E+03  0.11859212267E+04  0.50400001928E-02 0.  1.
</event>
<event>
 5   0  0.2888776E-05  0.1899819E+04  0.7818609E-02  0.8654946E-01
       -2   -1    0    0    0  501  0.00000000000E+00  0.00000000000E+00  0.45247987524E+03  0.45247987525E+03  0.25500000920E-02 0.  1.
        2   -1    0    0  501    0  0.00000000000E+00  0.00000000000E+00 -0.19941842503E+04  0.19941842503E+04  0.25500000920E-02 0. -1.
    10030    2    1    2    0    0  0.00000000000E+00  0.00000000000E+00 -0.15417043751E+04  0.24466641256E+04  0.18998191922E+04 0.  0.
        3    1    3    3  502    0  0.34664050391E+03  0.14960429393E+03 -0.18934082888E+04  0.19306827917E+04  0.10100000352E+00 0. -1.
       -3    1    3    3    0  502 -0.34664050391E+03 -0.14960429393E+03  0.35170391378E+03  0.51598133385E+03  0.10100000352E+00 0.  1.
</event>
<event>
 5   0  0.2789718E-05  0.1898288E+04  0.7818609E-02  0.8655709E-01
        2   -1    0    0  501    0  0.00000000000E+00  0.00000000000E+00  0.13970345463E+04  0.13970345463E+04  0.25500000920E-02 0. -1.
       -2   -1    0    0    0  501  0.00000000000E+00  0.00000000000E+00 -0.64484771603E+03  0.64484771603E+03  0.25500000920E-02 0.  1.
    10030    2    1    2    0    0  0.00000000000E+00  0.00000000000E+00  0.75218683023E+03  0.20418822623E+04  0.18982882145E+04 0.  0.
        5    1    3    3  502    0 -0.82724201713E+03  0.41693877968E+03  0.15386124465E+03  0.93907543548E+03  0.46999998093E+01 0. -1.
       -5    1    3    3    0  502  0.82724201713E+03 -0.41693877968E+03  0.59832558558E+03  0.11028068268E+04  0.46999998093E+01 0.  1.
</event>
<event>
 5   0  0.1327254E-05  0.1891980E+04  0.7818609E-02  0.8658859E-01
        1   -1    0    0  501    0  0.00000000000E+00  0.00000000000E+00  0.70194451387E+03  0.70194451389E+03  0.50400001928E-02 0. -1.
       -1   -1    0    0    0  501  0.00000000000E+00  0.00000000000E+00 -0.12748825988E+04  0.12748825988E+04  0.50400001928E-02 0.  1.
    10030    2    1    2    0    0  0.00000000000E+00  0.00000000000E+00 -0.57293808494E+03  0.19768271127E+04  0.18919797526E+04 0.  0.
        5    1    3    3  502    0  0.48577539996E+03  0.56480896069E+02 -0.11325405886E+04  0.12336280257E+04  0.46999998093E+01 0.  1.
       -5    1    3    3    0  502 -0.48577539996E+03 -0.56480896069E+02  0.55960250369E+03  0.74319908703E+03  0.46999998093E+01 0. -1.
</event>
<event>
 5   0  0.2888776E-05  0.1886773E+04  0.7818609E-02  0.8661468E-01
        2   -1    0    0  501    0  0.00000000000E+00  0.00000000000E+00  0.19683604661E+04  0.19683604661E+04  0.25500000920E-02 0. -1.
       -2   -1    0    0    0  501  0.00000000000E+00  0.00000000000E+00 -0.45214196319E+03  0.45214196319E+03  0.25500000920E-02 0.  1.
    10030    2    1    2    0    0  0.00000000000E+00  0.00000000000E+00  0.15162185029E+04  0.24205024293E+04  0.18867732937E+04 0.  0.
        3    1    3    3  502    0 -0.61956876390E+03 -0.42127460232E+03  0.14935478465E+04  0.16709347455E+04  0.10100000352E+00 0. -1.
       -3    1    3    3    0  502  0.61956876390E+03  0.42127460232E+03  0.22670656439E+02  0.74956768381E+03  0.10100000352E+00 0.  1.
</event>
<event>
 5   0  0.2879462E-05  0.1904155E+04  0.7818609E-02  0.8652791E-01
       -2   -1    0    0    0  501  0.00000000000E+00  0.00000000000E+00  0.95735686550E+03  0.95735686550E+03  0.25500000920E-02 0.  1.
        2   -1    0    0  501    0  0.00000000000E+00  0.00000000000E+00 -0.94682707304E+03  0.94682707304E+03  0.25500000920E-02 0. -1.
    10030    2    1    2    0    0  0.00000000000E+00  0.00000000000E+00  0.10529792458E+02  0.19041839385E+04  0.19041548244E+04 0.  0.
        4    1    3    3  502    0 -0.18178491375E+03  0.17174717102E+03  0.92392301916E+03  0.95717198238E+03  0.12699999809E+01 0.  1.
       -4    1    3    3    0  502  0.18178491375E+03 -0.17174717102E+03 -0.91339322671E+03  0.94701195616E+03  0.12699999809E+01 0. -1.
</event>
<event>
 5   0  0.2789718E-05  0.1901657E+04  0.7818609E-02  0.8654032E-01
        2   -1    0    0  501    0  0.00000000000E+00  0.00000000000E+00  0.16714384433E+04  0.16714384433E+04  0.25500000920E-02 0.  1.
       -2   -1    0    0    0  501  0.00000000000E+00  0.00000000000E+00 -0.54089647190E+03  0.54089647190E+03  0.25500000920E-02 0. -1.
    10030    2    1    2    0    0  0.00000000000E+00  0.00000000000E+00  0.11305419714E+04  0.22123349152E+04  0.19016573371E+04 0.  0.
        5    1    3    3  502    0 -0.37737828259E+03  0.27658857281E+03  0.15282292545E+04  0.15982560343E+04  0.46999998093E+01 0.  1.
       -5    1    3    3    0  502  0.37737828259E+03 -0.27658857281E+03 -0.39768728314E+03  0.61407888089E+03  0.46999998093E+01 0. -1.
</event>
<event>
 5   0  0.1327254E-05  0.1902361E+04  0.7818609E-02  0.8653682E-01
        1   -1    0    0  501    0  0.00000000000E+00  0.00000000000E+00  0.11005541735E+04  0.11005541735E+04  0.50400001928E-02 0. -1.
       -1   -1    0    0    0  501  0.00000000000E+00  0.00000000000E+00 -0.82208081643E+03  0.82208081645E+03  0.50400001928E-02 0.  1.
    10030    2    1    2    0    0  0.00000000000E+00  0.00000000000E+00  0.27847335703E+03  0.19226349899E+04  0.19023611366E+04 0.  0.
        5    1    3    3  502    0 -0.56913775095E+03  0.45992478333E+03 -0.47491850681E+03  0.87236360767E+03  0.46999998093E+01 0.  1.
       -5    1    3    3    0  502  0.56913775095E+03 -0.45992478333E+03  0.75339186384E+03  0.10502713822E+04  0.46999998093E+01 0. -1.
</event>
<event>
 5   0  0.2888776E-05  0.1899863E+04  0.7818609E-02  0.8654924E-01
       -2   -1    0    0    0  501  0.00000000000E+00  0.00000000000E+00  0.12756774020E+04  0.12756774020E+04  0.25500000920E-02 0. -1.
        2   -1    0    0  501    0  0.00000000000E+00  0.00000000000E+00 -0.70736555444E+03  0.70736555444E+03  0.25500000920E-02 0.  1.
    10030    2    1    2    0    0  0.00000000000E+00  0.00000000000E+00  0.56831184756E+03  0.19830429564E+04  0.18998634190E+04 0.  0.
        3    1    3    3  502    0 -0.21270972417E+03  0.49061557500E+03 -0.53534324076E+03  0.75666469775E+03  0.10100000352E+00 0.  1.
       -3    1    3    3    0  502  0.21270972417E+03 -0.49061557500E+03  0.11036550883E+04  0.12263782587E+04  0.10100000352E+00 0. -1.
</event>
<event>
 5   0  0.2855141E-05  0.1904216E+04  0.7818609E-02  0.8652761E-01
       -2   -1    0    0    0  501  0.00000000000E+00  0.00000000000E+00  0.46517017831E+03  0.46517017832E+03  0.25500000920E-02 0.  1.
        2   -1    0    0  501    0  0.00000000000E+00  0.00000000000E+00 -0.19487694349E+04  0.19487694349E+04  0.25500000920E-02 0. -1.
    10030    2    1    2    0    0  0.00000000000E+00  0.00000000000E+00 -0.14835992566E+04  0.24139396132E+04  0.19042157709E+04 0.  0.
        1    1    3    3  502    0 -0.84499702657E+03  0.33987385746E+02 -0.18729309280E+03  0.86617193440E+03  0.50400001928E-02 0.  1.
       -1    1    3    3    0  502  0.84499702657E+03 -0.33987385746E+02 -0.12963061638E+04  0.15477676788E+04  0.50400001928E-02 0. -1.
</event>
<event>
 5   0  0.2879462E-05  0.1937917E+04  0.7818609E-02  0.8636209E-01
        2   -1    0    0  501    0  0.00000000000E+00  0.00000000000E+00  0.16288374688E+04  0.16288374688E+04  0.25500000920E-02 0. -1.
       -2   -1    0    0    0  501  0.00000000000E+00  0.00000000000E+00 -0.57641158787E+03  0.57641158788E+03  0.25500000920E-02 0.  1.
    10030    2    1    2    0    0  0.00000000000E+00  0.00000000000E+00  0.10524258809E+04  0.22052490567E+04  0.19379172240E+04 0.  0.
        4    1    3    3  502    0  0.38158652000E+02  0.68205102448E+03 -0.25577305866E+03  0.72943207576E+03  0.12699999809E+01 0.  1.
       -4    1    3    3    0  502 -0.38158652000E+02 -0.68205102448E+03  0.13081989396E+04  0.14758169809E+04  0.12699999809E+01 0. -1.
</event>
<event>
 5   0  0.2855141E-05  0.1898033E+04  0.7818609E-02  0.8655836E-01
        2   -1    0    0  501    0  0.00000000000E+00  0.00000000000E+00  0.17543697138E+04  0.17543697138E+04  0.25500000920E-02 0. -1.
       -2   -1    0    0    0  501  0.00000000000E+00  0.00000000000E+00 -0.51336543993E+03  0.51336543994E+03  0.25500000920E-02 0.  1.
    10030    2    1    2    0    0  0.00000000000E+00  0.00000000000E+00  0.12410042738E+04  0.22677351537E+04  0.18980334875E+04 0.  0.
        1    1    3    3  502    0 -0.85403717454E+03  0.39359821229E+03  0.46780490286E+03  0.10503049440E+04  0.50400001928E-02 0. -1.
       -1    1    3    3    0  502  0.85403717454E+03 -0.39359821229E+03  0.77319937098E+03  0.12174302097E+04  0.50400001928E-02 0.  1.
</event>
<event>
 5   0  0.2888776E-05  0.1896433E+04  0.7818609E-02  0.8656634E-01
        2   -1    0    0  501    0  0.00000000000E+00  0.00000000000E+00  0.88256320009E+03  0.88256320010E+03  0.25500000920E-02 0. -1.
       -2   -1    0    0    0  501  0.00000000000E+00  0.00000000000E+00 -0.10187533752E+04  0.10187533752E+04  0.25500000920E-02 0.  1.
    10030    2    1    2    0    0  0.00000000000E+00  0.00000000000E+00 -0.13619017512E+03  0.19013165753E+04  0.18964326921E+04 0.  0.
        3    1    3    3  502    0  0.39319637584E+03  0.78067018510E+03  0.30036313521E+03  0.92426584437E+03  0.10100000352E+00 0. -1.
       -3    1    3    3    0  502 -0.39319637584E+03 -0.78067018510E+03 -0.43655331034E+03  0.97705073094E+03  0.10100000352E+00 0.  1.
</event>
<event>
 5   0  0.2813537E-05  0.1930018E+04  0.7818609E-02  0.8640057E-01
       -2   -1    0    0    0  501  0.00000000000E+00  0.00000000000E+00  0.48714667551E+03  0.48714667552E+03  0.25500000920E-02 0.  1.
        2   -1    0    0  501    0  0.00000000000E+00  0.00000000000E+00 -0.19116263476E+04  0.19116263476E+04  0.25500000920E-02 0. -1.
    10030    2    1    2    0    0  0.00000000000E+00  0.00000000000E+00 -0.14244796721E+04  0.23987730231E+04  0.19300180518E+04 0.  0.
        2    1    3    3  502    0  0.38716909402E+03 -0.82405464876E+03 -0.11097201321E+04  0.14354249346E+04  0.25500000920E-02 0. -1.
       -2    1    3    3    0  502 -0.38716909402E+03  0.82405464876E+03 -0.31475954002E+03  0.96334808846E+03  0.25500000920E-02 0.  1.
</event>
<event>
 5   0  0.2855141E-05  0.1896053E+04  0.7818609E-02  0.8656823E-01
        2   -1    0    0  501    0  0.00000000000E+00  0.00000000000E+00  0.10141841101E+04  0.10141841101E+04  0.25500000920E-02 0.  1.
       -2   -1    0    0    0  501  0.00000000000E+00  0.00000000000E+00 -0.88618459412E+03  0.88618459412E+03  0.25500000920E-02 0. -1.
    10030    2    1    2    0    0  0.00000000000E+00  0.00000000000E+00  0.12799951600E+03  0.19003687042E+04  0.18960530942E+04 0.  0.
        1    1    3    3  502    0  0.54446085969E+03  0.27414262117E+03 -0.66371241848E+03  0.90116922881E+03  0.50400001928E-02 0. -1.
       -1    1    3    3    0  502 -0.54446085969E+03 -0.27414262117E+03  0.79171193447E+03  0.99919947543E+03  0.50400001928E-02 0.  1.
</event>
<event>
 5   0  0.2813537E-05  0.1905286E+04  0.7818609E-02  0.8652230E-01
        2   -1    0    0  501    0  0.00000000000E+00  0.00000000000E+00  0.17062713519E+04  0.17062713519E+04  0.25500000920E-02 0.  1.
       -2   -1    0    0    0  501  0.00000000000E+00  0.00000000000E+00 -0.53187805662E+03  0.53187805662E+03  0.25500000920E-02 0. -1.
    10030    2    1    2    0    0  0.00000000000E+00  0.00000000000E+00  0.11743932953E+04  0.22381494086E+04  0.19052855857E+04 0.  0.
        2    1    3    3  502    0 -0.73859545704E+03 -0.54808106058E+03  0.87877973165E+03  0.12720730777E+04  0.25500000920E-02 0. -1.
       -2    1    3    3    0  502  0.73859545704E+03  0.54808106058E+03  0.29561356368E+03  0.96607633092E+03  0.25500000920E-02 0.  1.
</event>
<event>
 5   0  0.1413011E-05  0.1896617E+04  0.7818609E-02  0.8656542E-01
       -1   -1    0    0    0  501  0.00000000000E+00  0.00000000000E+00  0.72316522472E+03  0.72316522474E+03  0.50400001928E-02 0.  1.
        1   -1    0    0  501    0  0.00000000000E+00  0.00000000000E+00 -0.12435458249E+04  0.12435458249E+04  0.50400001928E-02 0. -1.
    10030    2    1    2    0    0  0.00000000000E+00  0.00000000000E+00 -0.52038060014E+03  0.19667110496E+04  0.18966170894E+04 0.  0.
        1    1    3    3  502    0 -0.63403673938E+02 -0.90944885661E+03  0.10556560447E+02  0.91171743959E+03  0.50400001928E-02 0. -1.
       -1    1    3    3    0  502  0.63403673938E+02  0.90944885661E+03 -0.53093716058E+03  0.10549936100E+04  0.50400001928E-02 0.  1.
</event>
<event>
 5   0  0.1344119E-05  0.1901432E+04  0.7818609E-02  0.8654144E-01
        1   -1    0    0  501    0  0.00000000000E+00  0.00000000000E+00  0.14514116811E+04  0.14514116811E+04  0.50400001928E-02 0. -1.
       -1   -1    0    0    0  501  0.00000000000E+00  0.00000000000E+00 -0.62274607376E+03  0.62274607378E+03  0.50400001928E-02 0.  1.
    10030    2    1    2    0    0  0.00000000000E+00  0.00000000000E+00  0.82866560738E+03  0.20741577549E+04  0.19014320139E+04 0.  0.
        2    1    3    3  502    0 -0.25908261935E+03  0.91441802263E+03  0.38813442567E+03  0.10266121255E+04  0.25500000920E-02 0. -1.
       -2    1    3    3    0  502  0.25908261935E+03 -0.91441802263E+03  0.44053118171E+03  0.10475456295E+04  0.25500000920E-02 0.  1.
</event>
<event>
 5   0  0.1471485E-05  0.1903688E+04  0.7818609E-02  0.8653023E-01
       -1   -1    0    0    0  501  0.00000000000E+00  0.00000000000E+00  0.66090580315E+03  0.66090580317E+03  0.50400001928E-02 0. -1.
        1   -1    0    0  501    0  0.00000000000E+00  0.00000000000E+00 -0.13708569805E+04  0.13708569805E+04  0.50400001928E-02 0.  1.
    10030    2    1    2    0    0  0.00000000000E+00  0.00000000000E+00 -0.70995117730E+03  0.20317627836E+04  0.19036883502E+04 0.  0.
        4    1    3    3  502    0  0.67339117342E+03  0.20339797991E+03 -0.10393484440E+04  0.12550192076E+04  0.12699999809E+01 0.  1.
       -4    1    3    3    0  502 -0.67339117342E+03 -0.20339797991E+03  0.32939726666E+03  0.77674357600E+03  0.12699999809E+01 0. -1.
</event>
<event>
 5   0  0.1010725E-05  0.1901375E+04  0.7818609E-02  0.8654172E-01
       -3   -1    0    0    0  501  0.00000000000E+00  0.00000000000E+00  0.19431448307E+04  0.19431448333E+04  0.10100000352E+00 0. -1.
        3   -1    0    0  501    0  0.00000000000E+00  0.00000000000E+00 -0.46512573847E+03  0.46512574943E+03  0.10100000352E+00 0.  1.
    10030    2    1    2    0    0  0.00000000000E+00  0.00000000000E+00  0.14780190922E+04  0.24082705827E+04  0.19013749664E+04 0.  0.
        2    1    3    3  502    0  0.92298022302E+03  0.20357454161E+03  0.60939787012E+03  0.11245891918E+04  0.25500000920E-02 0.  1.
       -2    1    3    3    0  502 -0.92298022302E+03 -0.20357454161E+03  0.86862122208E+03  0.12836813910E+04  0.25500000920E-02 0. -1.
</event>
<event>
 5   0  0.2888776E-05  0.1884756E+04  0.7818609E-02  0.8662482E-01
       -2   -1    0    0    0  501  0.00000000000E+00  0.00000000000E+00  0.81531570125E+03  0.81531570125E+03  0.25500000920E-02 0.  1.
        2   -1    0    0  501    0  0.00000000000E+00  0.00000000000E+00 -0.10892418078E+04  0.10892418078E+04  0.25500000920E-02 0. -1.
    10030    2    1    2    0    0  0.00000000000E+00  0.00000000000E+00 -0.27392610659E+03  0.19045575091E+04  0.18847556323E+04 0.  0.
        3    1    3    3  502    0  0.72382979460E+03  0.37541230865E+03  0.34045383370E+03  0.88361348797E+03  0.10100000352E+00 0. -1.
       -3    1    3    3    0  502 -0.72382979460E+03 -0.37541230865E+03 -0.61437994029E+03  0.10209440211E+04  0.10100000352E+00 0.  1.
</event>
<event>
 5   0  0.2888776E-05  0.1902621E+04  0.7818609E-02  0.8653553E-01
       -2   -1    0    0    0  501  0.00000000000E+00  0.00000000000E+00  0.11313028767E+04  0.11313028767E+04  0.25500000920E-02 0. -1.
        2   -1    0    0  501    0  0.00000000000E+00  0.00000000000E+00 -0.79995540589E+03  0.79995540589E+03  0.25500000920E-02 0.  1.
    10030    2    1    2    0    0  0.00000000000E+00  0.00000000000E+00  0.33134747083E+03  0.19312582826E+04  0.19026211940E+04 0.  0.
        3    1    3    3  502    0 -0.65996212719E+03 -0.19792396807E+03 -0.50014731318E+03  0.85139371124E+03  0.10100000352E+00 0.  1.
       -3    1    3    3    0  502  0.65996212719E+03  0.19792396807E+03  0.83149478401E+03  0.10798645714E+04  0.10100000352E+00 0. -1.
</event>
<event>
 5   0  0.1429067E-05  0.1898807E+04  0.7818609E-02  0.8655450E-01
       -1   -1    0    0    0  501  0.00000000000E+00  0.00000000000E+00  0.34443262132E+03  0.34443262135E+03  0.50400001928E-02 0.  1.
        1   -1    0    0  501    0  0.00000000000E+00  0.00000000000E+00 -0.26169619197E+04  0.26169619197E+04  0.50400001928E-02 0. -1.
    10030    2    1    2    0    0  0.00000000000E+00  0.00000000000E+00 -0.22725292984E+04  0.29613945410E+04  0.18988070507E+04 0.  0.
        3    1    3    3  502    0 -0.54797607030E+03  0.38555476372E+03 -0.87218982690E+02  0.67567552168E+03  0.10100000352E+00 0.  1.
       -3    1    3    3    0  502  0.54797607030E+03 -0.38555476372E+03 -0.21853103157E+04  0.22857190193E+04  0.10100000352E+00 0. -1.
</event>
<event>
 5   0  0.1471485E-05  0.1890264E+04  0.7818609E-02  0.8659718E-01
       -1   -1    0    0    0  501  0.00000000000E+00  0.00000000000E+00  0.83262055771E+03  0.83262055772E+03  0.50400001928E-02 0.  1.
        1   -1    0    0  501    0  0.00000000000E+00  0.00000000000E+00 -0.10728468491E+04  0.10728468491E+04  0.50400001928E-02 0. -1.
    10030    2    1    2    0    0  0.00000000000E+00  0.00000000000E+00 -0.24022629138E+03  0.19054674068E+04  0.18902638354E+04 0.  0.
        4    1    3    3  502    0  0.77091318449E+03  0.54510336485E+03 -0.16321111499E+03  0.95816715522E+03  0.12699999809E+01 0.  1.
       -4    1    3    3    0  502 -0.77091318449E+03 -0.54510336485E+03 -0.77015176397E+02  0.94730025160E+03  0.12699999809E+01 0. -1.
</event>
<event>
 5   0  0.1010725E-05  0.1899414E+04  0.7818609E-02  0.8655148E-01
        3   -1    0    0  501    0  0.00000000000E+00  0.00000000000E+00  0.11142796619E+04  0.11142796665E+04  0.10100000352E+00 0. -1.
       -3   -1    0    0    0  501  0.00000000000E+00  0.00000000000E+00 -0.80944103107E+03  0.80944103737E+03  0.10100000352E+00 0.  1.
    10030    2    1    2    0    0  0.00000000000E+00  0.00000000000E+00  0.30483863082E+03  0.19237207038E+04  0.18994143191E+04 0.  0.
        2    1    3    3  502    0 -0.47959520577E+03  0.78420211942E+03 -0.89295968549E+02  0.92355741321E+03  0.25500000920E-02 0.  1.
       -2    1    3    3    0  502  0.47959520577E+03 -0.78420211942E+03  0.39413459937E+03  0.10001632906E+04  0.25500000920E-02 0. -1.
</event>
<event>
 5   0  0.2879462E-05  0.1900446E+04  0.7818609E-02  0.8654634E-01
       -2   -1    0    0    0  501  0.00000000000E+00  0.00000000000E+00  0.64930640237E+03  0.64930640237E+03  0.25500000920E-02 0.  1.
        2   -1    0    0  501    0  0.00000000000E+00  0.00000000000E+00 -0.13905972900E+04  0.13905972900E+04  0.25500000920E-02 0. -1.
    10030    2    1    2    0    0  0.00000000000E+00  0.00000000000E+00 -0.74129088761E+03  0.20399036924E+04  0.19004459724E+04 0.  0.
        4    1    3    3  502    0  0.13408808408E+03  0.92492065170E+02 -0.13754978500E+04  0.13851102284E+04  0.12699999809E+01 0. -1.
       -4    1    3    3    0  502 -0.13408808408E+03 -0.92492065170E+02  0.63420696241E+03  0.65479346399E+03  0.12699999809E+01 0.  1.
</event>
<event>
 5   0  0.2879462E-05  0.1898626E+04  0.7818609E-02  0.8655540E-01
        2   -1    0    0  501    0  0.00000000000E+00  0.00000000000E+00  0.10553398187E+04  0.10553398187E+04  0.25500000920E-02 0. -1.
       -2   -1    0    0    0  501  0.00000000000E+00  0.00000000000E+00 -0.85393879934E+03  0.85393879935E+03  0.25500000920E-02 0.  1.
    10030    2    1    2    0    0  0.00000000000E+00  0.00000000000E+00  0.20140101934E+03  0.19092786180E+04  0.18986264695E+04 0.  0.
        4    1    3    3  502    0  0.29220843356E+03  0.14427388719E+03 -0.79592585931E+03  0.86005831755E+03  0.12699999809E+01 0.  1.
       -4    1    3    3    0  502 -0.29220843356E+03 -0.14427388719E+03  0.99732687865E+03  0.10492203005E+04  0.12699999809E+01 0. -1.
</event>
<event>
 5   0  0.2888776E-05  0.1902293E+04  0.7818609E-02  0.8653716E-01
        2   -1    0    0  501    0  0.00000000000E+00  0.00000000000E+00  0.68951756297E+03  0.68951756298E+03  0.25500000920E-02 0. -1.
       -2   -1    0    0    0  501  0.00000000000E+00  0.00000000000E+00 -0.13120467814E+04  0.13120467814E+04  0.25500000920E-02 0.  1.
    10030    2    1    2    0    0  0.00000000000E+00  0.00000000000E+00 -0.62252921840E+03  0.20015643444E+04  0.19022926160E+04 0.  0.
        3    1    3    3  502    0 -0.52401897087E+03 -0.79071299400E+03 -0.23794028961E+03  0.97797674427E+03  0.10100000352E+00 0.  1.
       -3    1    3    3    0  502  0.52401897087E+03  0.79071299400E+03 -0.38458892879E+03  0.10235876001E+04  0.10100000352E+00 0. -1.
</event>
<event>
 5   0  0.1413011E-05  0.1899416E+04  0.7818609E-02  0.8655147E-01
       -1   -1    0    0    0  501  0.00000000000E+00  0.00000000000E+00  0.66372629156E+03  0.66372629158E+03  0.50400001928E-02 0. -1.
        1   -1    0    0  501    0  0.00000000000E+00  0.00000000000E+00 -0.13589120431E+04  0.13589120431E+04  0.50400001928E-02 0.  1.
    10030    2    1    2    0    0  0.00000000000E+00  0.00000000000E+00 -0.69518575155E+03  0.20226383347E+04  0.18994163851E+04 0.  0.
        1    1    3    3  502    0  0.46317295975E+03 -0.38429096316E+03  0.43473555909E+03  0.74243096741E+03  0.50400001928E-02 0. -1.
       -1    1    3    3    0  502 -0.46317295975E+03  0.38429096316E+03 -0.11299213106E+04  0.12802073673E+04  0.50400001928E-02 0.  1.
</event>
<event>
 5   0  0.2879462E-05  0.1897911E+04  0.7818609E-02  0.8655897E-01
        2   -1    0    0  501    0  0.00000000000E+00  0.00000000000E+00  0.77688094200E+03  0.77688094200E+03  0.25500000920E-02 0. -1.
       -2   -1    0    0    0  501  0.00000000000E+00  0.00000000000E+00 -0.11591430513E+04  0.11591430513E+04  0.25500000920E-02 0.  1.
    10030    2    1    2    0    0  0.00000000000E+00  0.00000000000E+00 -0.38226210927E+03  0.19360239933E+04  0.18979105833E+04 0.  0.
        4    1    3    3  502    0  0.18557712245E+03  0.28928451838E+03  0.71116003729E+03  0.78985733679E+03  0.12699999809E+01 0. -1.
       -4    1    3    3    0  502 -0.18557712245E+03 -0.28928451838E+03 -0.10934221466E+04  0.11461666565E+04  0.12699999809E+01 0.  1.
</event>
<event>
 5   0  0.1471485E-05  0.1894857E+04  0.7818609E-02  0.8657421E-01
        1   -1    0    0  501    0  0.00000000000E+00  0.00000000000E+00  0.75142505624E+03  0.75142505626E+03  0.50400001928E-02 0.  1.
       -1   -1    0    0    0  501  0.00000000000E+00  0.00000000000E+00 -0.11945576716E+04  0.11945576716E+04  0.50400001928E-02 0. -1.
    10030    2    1    2    0    0  0.00000000000E+00  0.00000000000E+00 -0.44313261531E+03  0.19459827278E+04  0.18948567920E+04 0.  0.
        4    1    3    3  502    0  0.38054041611E+03  0.69131931413E+03 -0.76000783072E+03  0.10956034493E+04  0.12699999809E+01 0. -1.
       -4    1    3    3    0  502 -0.38054041611E+03 -0.69131931413E+03  0.31687521541E+03  0.85037927857E+03  0.12699999809E+01 0.  1.
</event>
<event>
 5   0  0.2855141E-05  0.1896949E+04  0.7818609E-02  0.8656377E-01
        2   -1    0    0  501    0  0.00000000000E+00  0.00000000000E+00  0.18918354009E+04  0.18918354009E+04  0.25500000920E-02 0.  1.
       -2   -1    0    0    0  501  0.00000000000E+00  0.00000000000E+00 -0.47551899505E+03  0.47551899506E+03  0.25500000920E-02 0. -1.
    10030    2    1    2    0    0  0.00000000000E+00  0.00000000000E+00  0.14163164059E+04  0.23673543960E+04  0.18969487802E+04 0.  0.
        1    1    3    3  502    0  0.11537207829E+03 -0.87163414634E+03  0.26420890694E+03  0.91807578557E+03  0.50400001928E-02 0.  1.
       -1    1    3    3    0  502 -0.11537207829E+03  0.87163414634E+03  0.11521074990E+04  0.14492786104E+04  0.50400001928E-02 0. -1.
</event>
<event>
 5   0  0.2789718E-05  0.1911882E+04  0.7818609E-02  0.8648964E-01
        2   -1    0    0  501    0  0.00000000000E+00  0.00000000000E+00  0.19766794472E+04  0.19766794472E+04  0.25500000920E-02 0. -1.
       -2   -1    0    0    0  501  0.00000000000E+00  0.00000000000E+00 -0.46230220459E+03  0.46230220460E+03  0.25500000920E-02 0.  1.
    10030    2    1    2    0    0  0.00000000000E+00  0.00000000000E+00  0.15143772426E+04  0.24389816518E+04  0.19118820740E+04 0.  0.
        5    1    3    3  502    0 -0.30452744267E+02 -0.49644291893E+03  0.17985965214E+04  0.18661067703E+04  0.46999998093E+01 0. -1.
       -5    1    3    3    0  502  0.30452744267E+02  0.49644291893E+03 -0.28421927881E+03  0.57287488148E+03  0.46999998093E+01 0.  1.
</event>
<event>
 5   0  0.1413011E-05  0.1900117E+04  0.7818609E-02  0.8654798E-01
        1   -1    0    0  501    0  0.00000000000E+00  0.00000000000E+00  0.95425657917E+03  0.95425657918E+03  0.50400001928E-02 0. -1.
       -1   -1    0    0    0  501  0.00000000000E+00  0.00000000000E+00 -0.94587929375E+03  0.94587929377E+03  0.50400001928E-02 0.  1.
    10030    2    1    2    0    0  0.00000000000E+00  0.00000000000E+00  0.83772854147E+01  0.19001358729E+04  0.19001174060E+04 0.  0.
        1    1    3    3  502    0 -0.65919799631E+03 -0.63127228190E+03  0.26794269313E+03  0.95123077066E+03  0.50400001928E-02 0. -1.
       -1    1    3    3    0  502  0.65919799631E+03  0.63127228190E+03 -0.25956540772E+03  0.94890510228E+03  0.50400001928E-02 0.  1.
</event>
<event>
 5   0  0.1413011E-05  0.1900297E+04  0.7818609E-02  0.8654708E-01
       -1   -1    0    0    0  501  0.00000000000E+00  0.00000000000E+00  0.83246375715E+03  0.83246375717E+03  0.50400001928E-02 0. -1.
        1   -1    0    0  501    0  0.00000000000E+00  0.00000000000E+00 -0.10844706279E+04  0.10844706279E+04  0.50400001928E-02 0.  1.
    10030    2    1    2    0    0  0.00000000000E+00  0.00000000000E+00 -0.25200687078E+03  0.19169343851E+04  0.19002973383E+04 0.  0.
        1    1    3    3  502    0 -0.15703160897E+03 -0.75116305245E+03 -0.69115622288E+03  0.10327641464E+04  0.50400001928E-02 0.  1.
       -1    1    3    3    0  502  0.15703160897E+03  0.75116305245E+03  0.43914935210E+03  0.88417023873E+03  0.50400001928E-02 0. -1.
</event>
<event>
 5   0  0.1471485E-05  0.1899997E+04  0.7818609E-02  0.8654858E-01
       -1   -1    0    0    0  501  0.00000000000E+00  0.00000000000E+00  0.13978195927E+04  0.13978195927E+04  0.50400001928E-02 0.  1.
        1   -1    0    0  501    0  0.00000000000E+00  0.00000000000E+00 -0.64564648376E+03  0.64564648378E+03  0.50400001928E-02 0. -1.
    10030    2    1    2    0    0  0.00000000000E+00  0.00000000000E+00  0.75217310898E+03  0.20434660765E+04  0.18999971632E+04 0.  0.
        4    1    3    3  502    0 -0.51054083533E+03 -0.24455529002E+03  0.11966073159E+04  0.13237559880E+04  0.12699999809E+01 0.  1.
       -4    1    3    3    0  502  0.51054083533E+03  0.24455529002E+03 -0.44443420688E+03  0.71971008855E+03  0.12699999809E+01 0. -1.
</event>
<event>
 5   0  0.2879462E-05  0.1889025E+04  0.7818609E-02  0.8660339E-01
       -2   -1    0    0    0  501  0.00000000000E+00  0.00000000000E+00  0.63478202320E+03  0.63478202321E+03  0.25500000920E-02 0. -1.
        2   -1    0    0  501    0  0.00000000000E+00  0.00000000000E+00 -0.14053709108E+04  0.14053709108E+04  0.25500000920E-02 0.  1.
    10030    2    1    2    0    0  0.00000000000E+00  0.00000000000E+00 -0.77058888755E+03  0.20401529340E+04  0.18890253467E+04 0.  0.
        4    1    3    3  502    0  0.70042806774E+03 -0.27820270783E+03 -0.10001437830E+04  0.12523120315E+04  0.12699999809E+01 0.  1.
       -4    1    3    3    0  502 -0.70042806774E+03  0.27820270783E+03  0.22955489541E+03  0.78784090248E+03  0.12699999809E+01 0. -1.
</event>
<event>
 5   0  0.1413011E-05  0.1898477E+04  0.7818609E-02  0.8655615E-01
        1   -1    0    0  501    0  0.00000000000E+00  0.00000000000E+00  0.13009544489E+04  0.13009544489E+04  0.50400001928E-02 0. -1.
       -1   -1    0    0    0  501  0.00000000000E+00  0.00000000000E+00 -0.69261006379E+03  0.69261006381E+03  0.50400001928E-02 0.  1.
    10030    2    1    2    0    0  0.00000000000E+00  0.00000000000E+00  0.60834438511E+03  0.19935645127E+04  0.18984774361E+04 0.  0.
        1    1    3    3  502    0 -0.73667784221E+03  0.59852628804E+03  0.31596794271E+03  0.10003817779E+04  0.50400001928E-02 0. -1.
       -1    1    3    3    0  502  0.73667784221E+03 -0.59852628804E+03  0.29237644240E+03  0.99318273484E+03  0.50400001928E-02 0.  1.
</event>
<event>
 5   0  0.2855141E-05  0.1895492E+04  0.7818609E-02  0.8657103E-01
       -2   -1    0    0    0  501  0.00000000000E+00  0.00000000000E+00  0.90195672650E+03  0.90195672650E+03  0.25500000920E-02 0. -1.
        2   -1    0    0  501    0  0.00000000000E+00  0.00000000000E+00 -0.99586007254E+03  0.99586007254E+03  0.25500000920E-02 0.  1.
    10030    2    1    2    0    0  0.00000000000E+00  0.00000000000E+00 -0.93903346042E+02  0.18978167990E+04  0.18954922222E+04 0.  0.
        1    1    3    3  502    0 -0.13973813647E+03  0.26140748018E+03  0.85435343713E+03  0.90431212148E+03  0.50400001928E-02 0. -1.
       -1    1    3    3    0  502  0.13973813647E+03 -0.26140748018E+03 -0.94825678318E+03  0.99350467757E+03  0.50400001928E-02 0.  1.
</event>
<event>
 5   0  0.1010725E-05  0.1901311E+04  0.7818609E-02  0.8654204E-01
       -3   -1    0    0    0  501  0.00000000000E+00  0.00000000000E+00  0.11658158721E+04  0.11658158765E+04  0.10100000352E+00 0.  1.
        3   -1    0    0  501    0  0.00000000000E+00  0.00000000000E+00 -0.77520480284E+03  0.77520480942E+03  0.10100000352E+00 0. -1.
    10030    2    1    2    0    0  0.00000000000E+00  0.00000000000E+00  0.39061106925E+03  0.19410206859E+04  0.19013112043E+04 0.  0.
        4    1    3    3  502    0  0.31398129989E+03  0.21954185783E+03  0.10835118853E+04  0.11492530193E+04  0.12699999809E+01 0.  1.
       -4    1    3    3    0  502 -0.31398129989E+03 -0.21954185783E+03 -0.69290081603E+03  0.79176766654E+03  0.12699999809E+01 0. -1.
</event>
<event>
 5   0  0.2888776E-05  0.1899352E+04  0.7818609E-02  0.8655179E-01
       -2   -1    0    0    0  501  0.00000000000E+00  0.00000000000E+00  0.83889677474E+03  0.83889677474E+03  0.25500000920E-02 0. -1.
        2   -1    0    0  501    0  0.00000000000E+00  0.00000000000E+00 -0.10750838496E+04  0.10750838496E+04  0.25500000920E-02 0.  1.
    10030    2    1    2    0    0  0.00000000000E+00  0.00000000000E+00 -0.23618707488E+03  0.19139806244E+04  0.18993518621E+04 0.  0.
        3    1    3    3  502    0  0.82152356269E+03 -0.33464287754E+03 -0.45981825503E+03  0.99915947546E+03  0.10100000352E+00 0. -1.
       -3    1    3    3    0  502 -0.82152356269E+03  0.33464287754E+03  0.22363118014E+03  0.91482114890E+03  0.10100000352E+00 0.  1.
</event>
<event>
 5   0  0.1413011E-05  0.1906898E+04  0.7818609E-02  0.8651431E-01
       -1   -1    0    0    0  501  0.00000000000E+00  0.00000000000E+00  0.49368118786E+03  0.49368118788E+03  0.50400001928E-02 0.  1.
        1   -1    0    0  501    0  0.00000000000E+00  0.00000000000E+00 -0.18414001442E+04  0.18414001442E+04  0.50400001928E-02 0. -1.
    10030    2    1    2    0    0  0.00000000000E+00  0.00000000000E+00 -0.13477189564E+04  0.23350813321E+04  0.19068975962E+04 0.  0.
        1    1    3    3  502    0 -0.67636753185E+02  0.24949586943E+03  0.44995082203E+03  0.51892066977E+03  0.50400001928E-02 0.  1.
       -1    1    3    3    0  502  0.67636753185E+02 -0.24949586943E+03 -0.17976697784E+04  0.18161606624E+04  0.50400001928E-02 0. -1.
</event>
<event>
 5   0  0.1010725E-05  0.1919197E+04  0.7818609E-02  0.8645360E-01
       -3   -1    0    0    0  501  0.00000000000E+00  0.00000000000E+00  0.10140466580E+04  0.10140466630E+04  0.10100000352E+00 0. -1.
        3   -1    0    0  501    0  0.00000000000E+00  0.00000000000E+00 -0.90807350170E+03  0.90807350732E+03  0.10100000352E+00 0.  1.
    10030    2    1    2    0    0  0.00000000000E+00  0.00000000000E+00  0.10597315628E+03  0.19221201703E+04  0.19191966130E+04 0.  0.
        4    1    3    3  502    0  0.59915062108E+03  0.71705075324E+02 -0.69427615038E+03  0.91986089734E+03  0.12699999809E+01 0.  1.
       -4    1    3    3    0  502 -0.59915062108E+03 -0.71705075324E+02  0.80024930666E+03  0.10022592730E+04  0.12699999809E+01 0. -1.
</event>
<event>
 5   0  0.2789718E-05  0.1870544E+04  0.7818609E-02  0.8669659E-01
        2   -1    0    0  501    0  0.00000000000E+00  0.00000000000E+00  0.19182835160E+04  0.19182835160E+04  0.25500000920E-02 0.  1.
       -2   -1    0    0    0  501  0.00000000000E+00  0.00000000000E+00 -0.45599824084E+03  0.45599824085E+03  0.25500000920E-02 0. -1.
    10030    2    1    2    0    0  0.00000000000E+00  0.00000000000E+00  0.14622852752E+04  0.23742817569E+04  0.18705442082E+04 0.  0.
        5    1    3    3  502    0 -0.77966974295E+03 -0.30833422041E+03  0.20509945133E+03  0.86315860331E+03  0.46999998093E+01 0. -1.
       -5    1    3    3    0  502  0.77966974295E+03  0.30833422041E+03  0.12571858238E+04  0.15111231535E+04  0.46999998093E+01 0.  1.
</event>
<event>
 5   0  0.1413011E-05  0.1897768E+04  0.7818609E-02  0.8655968E-01
       -1   -1    0    0    0  501  0.00000000000E+00  0.00000000000E+00  0.47435253069E+03  0.47435253072E+03  0.50400001928E-02 0.  1.
        1   -1    0    0  501    0  0.00000000000E+00  0.00000000000E+00 -0.18981266611E+04  0.18981266611E+04  0.50400001928E-02 0. -1.
    10030    2    1    2    0    0  0.00000000000E+00  0.00000000000E+00 -0.14237741304E+04  0.23724791919E+04  0.18977683582E+04 0.  0.
        1    1    3    3  502    0 -0.20958569997E+03  0.27476230669E+03  0.39288783566E+03  0.52324118936E+03  0.50400001928E-02 0.  1.
       -1    1    3    3    0  502  0.20958569997E+03 -0.27476230669E+03 -0.18166619661E+04  0.18492380025E+04  0.50400001928E-02 0. -1.
</event>
<event>
 5   0  0.1327254E-05  0.1849949E+04  0.7818609E-02  0.8680179E-01
       -1   -1    0    0    0  501  0.00000000000E+00  0.00000000000E+00  0.62215330281E+03  0.62215330283E+03  0.50400001928E-02 0. -1.
        1   -1    0    0  501    0  0.00000000000E+00  0.00000000000E+00 -0.13751880769E+04  0.13751880769E+04  0.50400001928E-02 0.  1.
    10030    2    1    2    0    0  0.00000000000E+00  0.00000000000E+00 -0.75303477406E+03  0.19973413797E+04  0.18499489766E+04 0.  0.
        5    1    3    3  502    0 -0.73209611465E+03  0.49548262785E+03 -0.67039490489E+03  0.11094679689E+04  0.46999998093E+01 0.  1.
       -5    1    3    3    0  502  0.73209611465E+03 -0.49548262785E+03 -0.82639869177E+02  0.88787341078E+03  0.46999998093E+01 0. -1.
</event>
<event>
 5   0  0.1429067E-05  0.1895206E+04  0.7818609E-02  0.8657246E-01
        1   -1    0    0  501    0  0.00000000000E+00  0.00000000000E+00  0.93448058689E+03  0.93448058691E+03  0.50400001928E-02 0.  1.
       -1   -1    0    0    0  501  0.00000000000E+00  0.00000000000E+00 -0.96090966470E+03  0.96090966472E+03  0.50400001928E-02 0. -1.
    10030    2    1    2    0    0  0.00000000000E+00  0.00000000000E+00 -0.26429077810E+02  0.18953902516E+04  0.18952059808E+04 0.  0.
        3    1    3    3  502    0  0.74617724520E+03 -0.12963541911E+03  0.55637186654E+03  0.93975288625E+03  0.10100000352E+00 0.  1.
       -3    1    3    3    0  502 -0.74617724520E+03  0.12963541911E+03 -0.58280094435E+03  0.95563736537E+03  0.10100000352E+00 0. -1.
</event>
<event>
 5   0  0.2879462E-05  0.1900451E+04  0.7818609E-02  0.8654632E-01
        2   -1    0    0  501    0  0.00000000000E+00  0.00000000000E+00  0.29346283309E+04  0.29346283309E+04  0.25500000920E-02 0.  1.
       -2   -1    0    0    0  501  0.00000000000E+00  0.00000000000E+00 -0.30768060138E+03  0.30768060139E+03  0.25500000920E-02 0. -1.
    10030    2    1    2    0    0  0.00000000000E+00  0.00000000000E+00  0.26269477295E+04  0.32423089323E+04  0.19004506936E+04 0.  0.
        4    1    3    3  502    0  0.62897547092E+03  0.42726908808E+03  0.34122502263E+03  0.83342974845E+03  0.12699999809E+01 0. -1.
       -4    1    3    3    0  502 -0.62897547092E+03 -0.42726908808E+03  0.22857227069E+04  0.24088791839E+04  0.12699999809E+01 0.  1.
</event>
<event>
 5   0  0.1344119E-05  0.1897188E+04  0.7818609E-02  0.8656257E-01
       -1   -1    0    0    0  501  0.00000000000E+00  0.00000000000E+00  0.27517923749E+03  0.27517923754E+03  0.50400001928E-02 0.  1.
        1   -1    0    0  501    0  0.00000000000E+00  0.00000000000E+00 -0.32699804162E+04  0.32699804162E+04  0.50400001928E-02 0. -1.
    10030    2    1    2    0    0  0.00000000000E+00  0.00000000000E+00 -0.29948011787E+04  0.35451596538E+04  0.18971881484E+04 0.  0.
        2    1    3    3  502    0  0.50027921463E+03 -0.70631165112E+03 -0.77205262976E+03  0.11598364989E+04  0.25500000920E-02 0.  1.
       -2    1    3    3    0  502 -0.50027921463E+03  0.70631165112E+03 -0.22227485490E+04  0.23853231549E+04  0.25500000920E-02 0. -1.
</event>
<event>
 5   0  0.2855141E-05  0.1897000E+04  0.7818609E-02  0.8656351E-01
        2   -1    0    0  501    0  0.00000000000E+00  0.00000000000E+00  0.13772257719E+04  0.13772257719E+04  0.25500000920E-02 0.  1.
       -2   -1    0    0    0  501  0.00000000000E+00  0.00000000000E+00 -0.65323479416E+03  0.65323479417E+03  0.25500000920E-02 0. -1.
    10030    2    1    2    0    0  0.00000000000E+00  0.00000000000E+00  0.72399097775E+03  0.20304605661E+04  0.18969995189E+04 0.  0.
        1    1    3    3  502    0  0.94446004012E+02  0.45253319649E+02  0.13710183143E+04  0.13750124104E+04  0.50400001928E-02 0.  1.
       -1    1    3    3    0  502 -0.94446004012E+02 -0.45253319649E+02 -0.64702733651E+03  0.65544815571E+03  0.50400001928E-02 0. -1.
</event>
<event>
 5   0  0.2879462E-05  0.1904776E+04  0.7818609E-02  0.8652483E-01
        2   -1    0    0  501    0  0.00000000000E+00  0.00000000000E+00  0.69737197697E+03  0.69737197697E+03  0.25500000920E-02 0.  1.
       -2   -1    0    0    0  501  0.00000000000E+00  0.00000000000E+00 -0.13006589939E+04  0.13006589939E+04  0.25500000920E-02 0. -1.
    10030    2    1    2    0    0  0.00000000000E+00  0.00000000000E+00 -0.60328701698E+03  0.19980309709E+04  0.19047762430E+04 0.  0.
        4    1    3    3  502    0  0.35901099423E+03 -0.23498427495E+03 -0.11935264980E+04  0.12683113252E+04  0.12699999809E+01 0. -1.
       -4    1    3    3    0  502 -0.35901099423E+03  0.23498427495E+03  0.59023948100E+03  0.72971964568E+03  0.12699999809E+01 0.  1.
</event>
<event>
 5   0  0.2879462E-05  0.1901873E+04  0.7818609E-02  0.8653925E-01
       -2   -1    0    0    0  501  0.00000000000E+00  0.00000000000E+00  0.78477234995E+03  0.78477234995E+03  0.25500000920E-02 0. -1.
        2   -1    0    0  501    0  0.00000000000E+00  0.00000000000E+00 -0.11522831986E+04  0.11522831986E+04  0.25500000920E-02 0.  1.
    10030    2    1    2    0    0  0.00000000000E+00  0.00000000000E+00 -0.36751084867E+03  0.19370555486E+04  0.19018727545E+04 0.  0.
        4    1    3    3  502    0 -0.86201386073E+03 -0.10046563624E+03 -0.57968457815E+03  0.10436460431E+04  0.12699999809E+01 0.  1.
       -4    1    3    3    0  502  0.86201386073E+03  0.10046563624E+03  0.21217372949E+03  0.89340950551E+03  0.12699999809E+01 0. -1.
</event>
<event>
 5   0  0.2813537E-05  0.1900380E+04  0.7818609E-02  0.8654667E-01
        2   -1    0    0  501    0  0.00000000000E+00  0.00000000000E+00  0.93226902669E+03  0.93226902670E+03  0.25500000920E-02 0. -1.
       -2   -1    0    0    0  501  0.00000000000E+00  0.00000000000E+00 -0.96845595806E+03  0.96845595807E+03  0.25500000920E-02 0.  1.
    10030    2    1    2    0    0  0.00000000000E+00  0.00000000000E+00 -0.36186931370E+02  0.19007249848E+04  0.19003804813E+04 0.  0.
        2    1    3    3  502    0  0.25365210595E+03  0.91471033223E+03  0.24658998378E+02  0.94954855007E+03  0.25500000920E-02 0. -1.
       -2    1    3    3    0  502 -0.25365210595E+03 -0.91471033223E+03 -0.60845929748E+02  0.95117643469E+03  0.25500000920E-02 0.  1.
</event>
<event>
 5   0  0.2888776E-05  0.1900395E+04  0.7818609E-02  0.8654660E-01
       -2   -1    0    0    0  501  0.00000000000E+00  0.00000000000E+00  0.11219298112E+04  0.11219298112E+04  0.25500000920E-02 0.  1.
        2   -1    0    0  501    0  0.00000000000E+00  0.00000000000E+00 -0.80475229245E+03  0.80475229245E+03  0.25500000920E-02 0. -1.
    10030    2    1    2    0    0  0.00000000000E+00  0.00000000000E+00  0.31717751879E+03  0.19266821037E+04  0.19003953142E+04 0.  0.
        3    1    3    3  502    0 -0.51452245652E+03 -0.78313160733E+03  0.31839878001E+03  0.98964956726E+03  0.10100000352E+00 0. -1.
       -3    1    3    3    0  502  0.51452245652E+03  0.78313160733E+03 -0.12212612232E+01  0.93703253644E+03  0.10100000352E+00 0.  1.
</event>
<event>
 5   0  0.1429067E-05  0.1900712E+04  0.7818609E-02  0.8654502E-01
       -1   -1    0    0    0  501  0.00000000000E+00  0.00000000000E+00  0.13990811120E+04  0.13990811120E+04  0.50400001928E-02 0. -1.
        1   -1    0    0  501    0  0.00000000000E+00  0.00000000000E+00 -0.64554968880E+03  0.64554968882E+03  0.50400001928E-02 0.  1.
    10030    2    1    2    0    0  0.00000000000E+00  0.00000000000E+00  0.75353142323E+03  0.20446308009E+04  0.19007118419E+04 0.  0.
        3    1    3    3  502    0  0.74064141977E+03  0.91350087337E+02 -0.25624850100E+03  0.78902335555E+03  0.10100000352E+00 0.  1.
       -3    1    3    3    0  502 -0.74064141977E+03 -0.91350087337E+02  0.10097799242E+04  0.12556074453E+04  0.10100000352E+00 0. -1.
</event>
<event>
 5   0  0.1471485E-05  0.1889206E+04  0.7818609E-02  0.8660248E-01
        1   -1    0    0  501    0  0.00000000000E+00  0.00000000000E+00  0.12341336958E+04  0.12341336959E+04  0.50400001928E-02 0. -1.
       -1   -1    0    0    0  501  0.00000000000E+00  0.00000000000E+00 -0.72299664795E+03  0.72299664797E+03  0.50400001928E-02 0.  1.
    10030    2    1    2    0    0  0.00000000000E+00  0.00000000000E+00  0.51113704789E+03  0.19571303438E+04  0.18892056799E+04 0.  0.
        4    1    3    3  502    0  0.21959660077E+03 -0.89285633368E+03  0.47981803964E+03  0.10371316521E+04  0.12699999809E+01 0. -1.
       -4    1    3    3    0  502 -0.21959660077E+03  0.89285633368E+03  0.31319008252E+02  0.91999869176E+03  0.12699999809E+01 0.  1.
</event>
<event>
 5   0  0.2888776E-05  0.1896856E+04  0.7818609E-02  0.8656423E-01
        2   -1    0    0  501    0  0.00000000000E+00  0.00000000000E+00  0.14503451007E+04  0.14503451007E+04  0.25500000920E-02 0. -1.
       -2   -1    0    0    0  501  0.00000000000E+00  0.00000000000E+00 -0.62020783846E+03  0.62020783846E+03  0.25500000920E-02 0.  1.
    10030    2    1    2    0    0  0.00000000000E+00  0.00000000000E+00  0.83013726223E+03  0.20705529392E+04  0.18968557140E+04 0.  0.
        3    1    3    3  502    0 -0.85934126995E+02 -0.80525412601E+03 -0.12379229706E+03  0.81923343721E+03  0.10100000352E+00 0. -1.
       -3    1    3    3    0  502  0.85934126995E+02  0.80525412601E+03  0.95392955930E+03  0.12513195019E+04  0.10100000352E+00 0.  1.
</event>
<event>
 5   0  0.2813537E-05  0.1895436E+04  0.7818609E-02  0.8657131E-01
        2   -1    0    0  501    0  0.00000000000E+00  0.00000000000E+00  0.28284906802E+04  0.28284906802E+04  0.25500000920E-02 0.  1.
       -2   -1    0    0    0  501  0.00000000000E+00  0.00000000000E+00 -0.31754385687E+03  0.31754385688E+03  0.25500000920E-02 0. -1.
    10030    2    1    2    0    0  0.00000000000E+00  0.00000000000E+00  0.25109468233E+04  0.31460345371E+04  0.18954364561E+04 0.  0.
        2    1    3    3  502    0  0.86358133034E+03  0.36941068074E+03  0.10459650671E+04  0.14058022218E+04  0.25500000920E-02 0. -1.
       -2    1    3    3    0  502 -0.86358133034E+03 -0.36941068074E+03  0.14649817562E+04  0.17402323153E+04  0.25500000920E-02 0.  1.
</event>
<event>
 5   0  0.1413011E-05  0.1902229E+04  0.7818609E-02  0.8653748E-01
       -1   -1    0    0    0  501  0.00000000000E+00  0.00000000000E+00  0.46580431519E+03  0.46580431521E+03  0.50400001928E-02 0.  1.
        1   -1    0    0  501    0  0.00000000000E+00  0.00000000000E+00 -0.19420575473E+04  0.19420575473E+04  0.50400001928E-02 0. -1.
    10030    2    1    2    0    0  0.00000000000E+00  0.00000000000E+00 -0.14762532321E+04  0.24078618625E+04  0.19022289935E+04 0.  0.
        1    1    3    3  502    0 -0.32500178872E+03  0.15963027181E+03 -0.18514003484E+04  0.18864758775E+04  0.50400001928E-02 0. -1.
       -1    1    3    3    0  502  0.32500178872E+03 -0.15963027181E+03  0.37514711636E+03  0.52138598494E+03  0.50400001928E-02 0.  1.
</event>
<event>
 5   0  0.2855141E-05  0.1899623E+04  0.7818609E-02  0.8655044E-01
        2   -1    0    0  501    0  0.00000000000E+00  0.00000000000E+00  0.15977331039E+04  0.15977331039E+04  0.25500000920E-02 0. -1.
       -2   -1    0    0    0  501  0.00000000000E+00  0.00000000000E+00 -0.56463882290E+03  0.56463882291E+03  0.25500000920E-02 0.  1.
    10030    2    1    2    0    0  0.00000000000E+00  0.00000000000E+00  0.10330942810E+04  0.21623719268E+04  0.18996232669E+04 0.  0.
        1    1    3    3  502    0  0.57228658752E+03  0.42305307483E+03 -0.19946758662E+03  0.73910294311E+03  0.50400001928E-02 0.  1.
       -1    1    3    3    0  502 -0.57228658752E+03 -0.42305307483E+03  0.12325618676E+04  0.14232689837E+04  0.50400001928E-02 0. -1.
</event>
<event>
 5   0  0.1344119E-05  0.1900453E+04  0.7818609E-02  0.8654631E-01
       -1   -1    0    0    0  501  0.00000000000E+00  0.00000000000E+00  0.86468270450E+03  0.86468270451E+03  0.50400001928E-02 0.  1.
        1   -1    0    0  501    0  0.00000000000E+00  0.00000000000E+00 -0.10442332968E+04  0.10442332968E+04  0.50400001928E-02 0. -1.
    10030    2    1    2    0    0  0.00000000000E+00  0.00000000000E+00 -0.17955059231E+03  0.19089160013E+04  0.19004530736E+04 0.  0.
        2    1    3    3  502    0  0.41521201884E+02 -0.64062742699E+03 -0.79346833525E+03  0.10206466134E+04  0.25500000920E-02 0. -1.
       -2    1    3    3    0  502 -0.41521201884E+02  0.64062742699E+03  0.61391774293E+03  0.88826938792E+03  0.25500000920E-02 0.  1.
</event>
<event>
 5   0  0.2789718E-05  0.1899280E+04  0.7818609E-02  0.8655215E-01
        2   -1    0    0  501    0  0.00000000000E+00  0.00000000000E+00  0.18473143943E+04  0.18473143943E+04  0.25500000920E-02 0.  1.
       -2   -1    0    0    0  501  0.00000000000E+00  0.00000000000E+00 -0.48817710429E+03  0.48817710430E+03  0.25500000920E-02 0. -1.
    10030    2    1    2    0    0  0.00000000000E+00  0.00000000000E+00  0.13591372900E+04  0.23354914986E+04  0.18992804866E+04 0.  0.
        5    1    3    3  502    0  0.43983222548E+03 -0.71059697710E+03  0.12341411166E+04  0.14904787272E+04  0.46999998093E+01 0.  1.
       -5    1    3    3    0  502 -0.43983222548E+03  0.71059697710E+03  0.12499617334E+03  0.84501277138E+03  0.46999998093E+01 0. -1.
</event>
<event>
 5   0  0.1344119E-05  0.1900954E+04  0.7818609E-02  0.8654382E-01
        1   -1    0    0  501    0  0.00000000000E+00  0.00000000000E+00  0.18458734563E+04  0.18458734563E+04  0.50400001928E-02 0.  1.
       -1   -1    0    0    0  501  0.00000000000E+00  0.00000000000E+00 -0.48941960805E+03  0.48941960808E+03  0.50400001928E-02 0. -1.
    10030    2    1    2    0    0  0.00000000000E+00  0.00000000000E+00  0.13564538482E+04  0.23352930644E+04  0.19009541431E+04 0.  0.
        2    1    3    3  502    0 -0.79619659133E+02 -0.24480041288E+03 -0.44577959467E+03  0.51476788876E+03  0.25500000920E-02 0. -1.
       -2    1    3    3    0  502  0.79619659133E+02  0.24480041288E+03  0.18022334429E+04  0.18205251756E+04  0.25500000920E-02 0.  1.
</event>
<event>
 5   0  0.1429067E-05  0.1889572E+04  0.7818609E-02  0.8660064E-01
        1   -1    0    0  501    0  0.00000000000E+00  0.00000000000E+00  0.21873039286E+04  0.21873039286E+04  0.50400001928E-02 0. -1.
       -1   -1    0    0    0  501  0.00000000000E+00  0.00000000000E+00 -0.40809183587E+03  0.40809183590E+03  0.50400001928E-02 0.  1.
    10030    2    1    2    0    0  0.00000000000E+00  0.00000000000E+00  0.17792120928E+04  0.25953957645E+04  0.18895723070E+04 0.  0.
        3    1    3    3  502    0 -0.54056713118E+03  0.64947212630E+03  0.30914442883E+03  0.89977616896E+03  0.10100000352E+00 0.  1.
       -3    1    3    3    0  502  0.54056713118E+03 -0.64947212630E+03  0.14700676639E+04  0.16956195956E+04  0.10100000352E+00 0. -1.
</event>
<event>
 5   0  0.1327254E-05  0.1887998E+04  0.7818609E-02  0.8660854E-01
       -1   -1    0    0    0  501  0.00000000000E+00  0.00000000000E+00  0.52662078509E+03  0.52662078511E+03  0.50400001928E-02 0. -1.
        1   -1    0    0  501    0  0.00000000000E+00  0.00000000000E+00 -0.16921749057E+04  0.16921749057E+04  0.50400001928E-02 0.  1.
    10030    2    1    2    0    0  0.00000000000E+00  0.00000000000E+00 -0.11655541206E+04  0.22187956908E+04  0.18879983870E+04 0.  0.
        5    1    3    3  502    0  0.22430777658E+03 -0.50831193332E+03 -0.14796540061E+04  0.15805356902E+04  0.46999998093E+01 0. -1.
       -5    1    3    3    0  502 -0.22430777658E+03  0.50831193332E+03  0.31409988557E+03  0.63826000055E+03  0.46999998093E+01 0.  1.
</event>
<event>
 5   0  0.2855141E-05  0.1877227E+04  0.7818609E-02  0.8666276E-01
       -2   -1    0    0    0  501  0.00000000000E+00  0.00000000000E+00  0.10389104474E+04  0.10389104474E+04  0.25500000920E-02 0.  1.
        2   -1    0    0  501    0  0.00000000000E+00  0.00000000000E+00 -0.84799886205E+03  0.84799886205E+03  0.25500000920E-02 0. -1.
    10030    2    1    2    0    0  0.00000000000E+00  0.00000000000E+00  0.19091158531E+03  0.18869093094E+04  0.18772265469E+04 0.  0.
        1    1    3    3  502    0 -0.55253866994E+03 -0.27783092933E+03  0.80514708768E+03  0.10152590014E+04  0.50400001928E-02 0.  1.
       -1    1    3    3    0  502  0.55253866994E+03  0.27783092933E+03 -0.61423550238E+03  0.87165030802E+03  0.50400001928E-02 0. -1.
</event>
<event>
 5   0  0.1429067E-05  0.1849247E+04  0.7818609E-02  0.8680540E-01
       -1   -1    0    0    0  501  0.00000000000E+00  0.00000000000E+00  0.40180546713E+03  0.40180546716E+03  0.50400001928E-02 0. -1.
        1   -1    0    0  501    0  0.00000000000E+00  0.00000000000E+00 -0.21277177507E+04  0.21277177507E+04  0.50400001928E-02 0.  1.
    10030    2    1    2    0    0  0.00000000000E+00  0.00000000000E+00 -0.17259122836E+04  0.25295232179E+04  0.18492470087E+04 0.  0.
        3    1    3    3  502    0 -0.14448795249E+03 -0.55139135777E+03  0.13288401520E+03  0.58529255038E+03  0.10100000352E+00 0. -1.
       -3    1    3    3    0  502  0.14448795249E+03  0.55139135777E+03 -0.18587962988E+04  0.19442306675E+04  0.10100000352E+00 0.  1.
</event>
<event>
 5   0  0.2813537E-05  0.1898857E+04  0.7818609E-02  0.8655426E-01
        2   -1    0    0  501    0  0.00000000000E+00  0.00000000000E+00  0.22773129579E+04  0.22773129579E+04  0.25500000920E-02 0. -1.
       -2   -1    0    0    0  501  0.00000000000E+00  0.00000000000E+00 -0.39582370728E+03  0.39582370729E+03  0.25500000920E-02 0.  1.
    10030    2    1    2    0    0  0.00000000000E+00  0.00000000000E+00  0.18814892506E+04  0.26731366652E+04  0.18988569800E+04 0.  0.
        2    1    3    3  502    0  0.77459716056E+03 -0.54308758336E+03  0.10539759859E+04  0.14162663108E+04  0.25500000920E-02 0. -1.
       -2    1    3    3    0  502 -0.77459716056E+03  0.54308758336E+03  0.82751326475E+03  0.12568703544E+04  0.25500000920E-02 0.  1.
</event>
<event>
 5   0  0.1471485E-05  0.1907090E+04  0.7818609E-02  0.8651335E-01
       -1   -1    0    0    0  501  0.00000000000E+00  0.00000000000E+00  0.18837416182E+04  0.18837416182E+04  0.50400001928E-02 0. -1.
        1   -1    0    0  501    0  0.00000000000E+00  0.00000000000E+00 -0.48268193356E+03  0.48268193359E+03  0.50400001928E-02 0.  1.
    10030    2    1    2    0    0  0.00000000000E+00  0.00000000000E+00  0.14010596847E+04  0.23664235518E+04  0.19070899786E+04 0.  0.
        4    1    3    3  502    0 -0.37354678338E+03  0.87027106684E+03  0.56270263424E+03  0.11016100928E+04  0.12699999809E+01 0. -1.
       -4    1    3    3    0  502  0.37354678338E+03 -0.87027106684E+03  0.83835705043E+03  0.12648134590E+04  0.12699999809E+01 0.  1.
</event>
<event>
 5   0  0.1327254E-05  0.1896663E+04  0.7818609E-02  0.8656519E-01
        1   -1    0    0  501    0  0.00000000000E+00  0.00000000000E+00  0.72109685830E+03  0.72109685832E+03  0.50400001928E-02 0. -1.
       -1   -1    0    0    0  501  0.00000000000E+00  0.00000000000E+00 -0.12471737034E+04  0.12471737034E+04  0.50400001928E-02 0.  1.
    10030    2    1    2    0    0  0.00000000000E+00  0.00000000000E+00 -0.52607684513E+03  0.19682705618E+04  0.18966634275E+04 0.  0.
        5    1    3    3  502    0  0.43788379999E+03 -0.34464881954E+03  0.53325519420E+03  0.77130293870E+03  0.46999998093E+01 0. -1.
       -5    1    3    3    0  502 -0.43788379999E+03  0.34464881954E+03 -0.10593320393E+04  0.11969676231E+04  0.46999998093E+01 0.  1.
</event>
<event>
 5   0  0.2789718E-05  0.1895997E+04  0.7818609E-02  0.8656852E-01
       -2   -1    0    0    0  501  0.00000000000E+00  0.00000000000E+00  0.66047100363E+03  0.66047100363E+03  0.25500000920E-02 0.  1.
        2   -1    0    0  501    0  0.00000000000E+00  0.00000000000E+00 -0.13606967606E+04  0.13606967606E+04  0.25500000920E-02 0. -1.
    10030    2    1    2    0    0  0.00000000000E+00  0.00000000000E+00 -0.70022575701E+03  0.20211677643E+04  0.18959965771E+04 0.  0.
        5    1    3    3  502    0 -0.14794273889E+02  0.26710403381E+03  0.61938714258E+03  0.67470434844E+03  0.46999998093E+01 0.  1.
       -5    1    3    3    0  502  0.14794273889E+02 -0.26710403381E+03 -0.13196128996E+04  0.13464634158E+04  0.46999998093E+01 0. -1.
</event>
<event>
 5   0  0.1327254E-05  0.1902174E+04  0.7818609E-02  0.8653775E-01
       -1   -1    0    0    0  501  0.00000000000E+00  0.00000000000E+00  0.16821153262E+04  0.16821153262E+04  0.50400001928E-02 0. -1.
        1   -1    0    0  501    0  0.00000000000E+00  0.00000000000E+00 -0.53775515453E+03  0.53775515456E+03  0.50400001928E-02 0.  1.
    10030    2    1    2    0    0  0.00000000000E+00  0.00000000000E+00  0.11443601716E+04  0.22198704807E+04  0.19021736905E+04 0.  0.
        5    1    3    3  502    0 -0.42986752906E+03  0.84329847033E+03  0.46391948565E+03  0.10541260749E+04  0.46999998093E+01 0. -1.
       -5    1    3    3    0  502  0.42986752906E+03 -0.84329847033E+03  0.68044068600E+03  0.11657444058E+04  0.46999998093E+01 0.  1.
</event>
<event>
 5   0  0.1344119E-05  0.1904202E+04  0.7818609E-02  0.8652768E-01
       -1   -1    0    0    0  501  0.00000000000E+00  0.00000000000E+00  0.11071006171E+04  0.11071006171E+04  0.50400001928E-02 0.  1.
        1   -1    0    0  501    0  0.00000000000E+00  0.00000000000E+00 -0.81880185391E+03  0.81880185393E+03  0.50400001928E-02 0. -1.
    10030    2    1    2    0    0  0.00000000000E+00  0.00000000000E+00  0.28829876321E+03  0.19259024711E+04  0.19042017097E+04 0.  0.
        2    1    3    3  502    0  0.62336832688E+03  0.38559072543E+03 -0.47041659314E+03  0.87095352896E+03  0.25500000920E-02 0. -1.
       -2    1    3    3    0  502 -0.62336832688E+03 -0.38559072543E+03  0.75871535635E+03  0.10549489421E+04  0.25500000920E-02 0.  1.
</event>
<event>
 5   0  0.2855141E-05  0.1909537E+04  0.7818609E-02  0.8650124E-01
       -2   -1    0    0    0  501  0.00000000000E+00  0.00000000000E+00  0.10626502561E+04  0.10626502561E+04  0.25500000920E-02 0.  1.
        2   -1    0    0  501    0  0.00000000000E+00  0.00000000000E+00 -0.85783912139E+03  0.85783912139E+03  0.25500000920E-02 0. -1.
    10030    2    1    2    0    0  0.00000000000E+00  0.00000000000E+00  0.20481113475E+03  0.19204893775E+04  0.19095370770E+04 0.  0.
        1    1    3    3  502    0 -0.92757007774E+03  0.14201060343E+03  0.27956839874E+03  0.97913826920E+03  0.50400001928E-02 0.  1.
       -1    1    3    3    0  502  0.92757007774E+03 -0.14201060343E+03 -0.74757263998E+02  0.94135110833E+03  0.50400001928E-02 0. -1.
</event>
<event>
 5   0  0.1471485E-05  0.1895313E+04  0.7818609E-02  0.8657193E-01
       -1   -1    0    0    0  501  0.00000000000E+00  0.00000000000E+00  0.93010053903E+03  0.93010053905E+03  0.50400001928E-02 0. -1.
        1   -1    0    0  501    0  0.00000000000E+00  0.00000000000E+00 -0.96554398167E+03  0.96554398168E+03  0.50400001928E-02 0.  1.
    10030    2    1    2    0    0  0.00000000000E+00  0.00000000000E+00 -0.35443442635E+02  0.18956445207E+04  0.18953131433E+04 0.  0.
        4    1    3    3  502    0 -0.65496180022E+03 -0.29538315315E+02  0.66665217457E+03  0.93502631331E+03  0.12699999809E+01 0. -1.
       -4    1    3    3    0  502  0.65496180022E+03  0.29538315315E+02 -0.70209561721E+03  0.96061820742E+03  0.12699999809E+01 0.  1.
</event>
<event>
 5   0  0.2855141E-05  0.1902237E+04  0.7818609E-02  0.8653744E-01
        2   -1    0    0  501    0  0.00000000000E+00  0.00000000000E+00  0.75693384568E+03  0.75693384569E+03  0.25500000920E-02 0.  1.
       -2   -1    0    0    0  501  0.00000000000E+00  0.00000000000E+00 -0.11951192572E+04  0.11951192572E+04  0.25500000920E-02 0. -1.
    10030    2    1    2    0    0  0.00000000000E+00  0.00000000000E+00 -0.43818541155E+03  0.19520531029E+04  0.19022368048E+04 0.  0.
        1    1    3    3  502    0 -0.13135468375E+03 -0.16549585643E+03  0.73254590095E+03  0.76240830823E+03  0.50400001928E-02 0.  1.
       -1    1    3    3    0  502  0.13135468375E+03  0.16549585643E+03 -0.11707313125E+04  0.11896447947E+04  0.50400001928E-02 0. -1.
</event>
<event>
 5   0  0.2855141E-05  0.1886804E+04  0.7818609E-02  0.8661453E-01
        2   -1    0    0  501    0  0.00000000000E+00  0.00000000000E+00  0.13561803388E+04  0.13561803388E+04  0.25500000920E-02 0. -1.
       -2   -1    0    0    0  501  0.00000000000E+00  0.00000000000E+00 -0.65626040041E+03  0.65626040041E+03  0.25500000920E-02 0.  1.
    10030    2    1    2    0    0  0.00000000000E+00  0.00000000000E+00  0.69991993838E+03  0.20124407392E+04  0.18868041257E+04 0.  0.
        1    1    3    3  502    0 -0.64943159882E+03  0.61107226984E+03  0.67842154526E+03  0.11204581713E+04  0.50400001928E-02 0. -1.
       -1    1    3    3    0  502  0.64943159882E+03 -0.61107226984E+03  0.21498393118E+02  0.89198256791E+03  0.50400001928E-02 0.  1.
</event>
<event>
 5   0  0.1471485E-05  0.1911029E+04  0.7818609E-02  0.8649386E-01
       -1   -1    0    0    0  501  0.00000000000E+00  0.00000000000E+00  0.73375854052E+03  0.73375854053E+03  0.50400001928E-02 0.  1.
        1   -1    0    0  501    0  0.00000000000E+00  0.00000000000E+00 -0.12442898374E+04  0.12442898374E+04  0.50400001928E-02 0. -1.
    10030    2    1    2    0    0  0.00000000000E+00  0.00000000000E+00 -0.51053129687E+03  0.19780483779E+04  0.19110293510E+04 0.  0.
        4    1    3    3  502    0  0.55735844323E+03 -0.73992049487E+03 -0.49773699049E+03  0.10516056759E+04  0.12699999809E+01 0. -1.
       -4    1    3    3    0  502 -0.55735844323E+03  0.73992049487E+03 -0.12794306375E+02  0.92644270203E+03  0.12699999809E+01 0.  1.
</event>
<event>
 5   0  0.1327254E-05  0.1903199E+04  0.7818609E-02  0.8653266E-01
        1   -1    0    0  501    0  0.00000000000E+00  0.00000000000E+00  0.10277460780E+04  0.10277460780E+04  0.50400001928E-02 0. -1.
       -1   -1    0    0    0  501  0.00000000000E+00  0.00000000000E+00 -0.88109472411E+03  0.88109472413E+03  0.50400001928E-02 0.  1.
    10030    2    1    2    0    0  0.00000000000E+00  0.00000000000E+00  0.14665135386E+03  0.19088408021E+04  0.19031990406E+04 0.  0.
        5    1    3    3  502    0 -0.88381591791E+02  0.14095320059E+03  0.10130344752E+04  0.10266158232E+04  0.46999998093E+01 0. -1.
       -5    1    3    3    0  502  0.88381591791E+02 -0.14095320059E+03 -0.86638312132E+03  0.88222497892E+03  0.46999998093E+01 0.  1.
</event>
<event>
 5   0  0.2879462E-05  0.1900503E+04  0.7818609E-02  0.8654606E-01
        2   -1    0    0  501    0  0.00000000000E+00  0.00000000000E+00  0.16575612482E+04  0.16575612483E+04  0.25500000920E-02 0.  1.
       -2   -1    0    0    0  501  0.00000000000E+00  0.00000000000E+00 -0.54476276531E+03  0.54476276532E+03  0.25500000920E-02 0. -1.
    10030    2    1    2    0    0  0.00000000000E+00  0.00000000000E+00  0.11127984829E+04  0.22023240136E+04  0.19005027222E+04 0.  0.
        4    1    3    3  502    0 -0.15262111942E+03  0.96653378171E+02 -0.52467975128E+03  0.55491038547E+03  0.12699999809E+01 0. -1.
       -4    1    3    3    0  502  0.15262111942E+03 -0.96653378171E+02  0.16374782342E+04  0.16474136281E+04  0.12699999809E+01 0.  1.
</event>
<event>
 5   0  0.1471485E-05  0.1923323E+04  0.7818609E-02  0.8643333E-01
       -1   -1    0    0    0  501  0.00000000000E+00  0.00000000000E+00  0.78364510704E+03  0.78364510705E+03  0.50400001928E-02 0.  1.
        1   -1    0    0  501    0  0.00000000000E+00  0.00000000000E+00 -0.11801173960E+04  0.11801173960E+04  0.50400001928E-02 0. -1.
    10030    2    1    2    0    0  0.00000000000E+00  0.00000000000E+00 -0.39647228892E+03  0.19637625030E+04  0.19233233978E+04 0.  0.
        4    1    3    3  502    0 -0.54117903078E+02  0.91893747499E+03 -0.48232500155E+03  0.10392371483E+04  0.12699999809E+01 0. -1.
       -4    1    3    3    0  502  0.54117903078E+02 -0.91893747499E+03  0.85852712631E+02  0.92452535473E+03  0.12699999809E+01 0.  1.
</event>
<event>
 5   0  0.1413011E-05  0.1899601E+04  0.7818609E-02  0.8655055E-01
        1   -1    0    0  501    0  0.00000000000E+00  0.00000000000E+00  0.10177508399E+04  0.10177508400E+04  0.50400001928E-02 0. -1.
       -1   -1    0    0    0  501  0.00000000000E+00  0.00000000000E+00 -0.88638671021E+03  0.88638671023E+03  0.50400001928E-02 0.  1.
    10030    2    1    2    0    0  0.00000000000E+00  0.00000000000E+00  0.13136412974E+03  0.19041375502E+04  0.18996008200E+04 0.  0.
        1    1    3    3  502    0 -0.65519993941E+03  0.31097067142E+03 -0.54907791974E+03  0.90965723273E+03  0.50400001928E-02 0.  1.
       -1    1    3    3    0  502  0.65519993941E+03 -0.31097067142E+03  0.68044204948E+03  0.99448031746E+03  0.50400001928E-02 0. -1.
</event>
<event>
 5   0  0.1327254E-05  0.1960125E+04  0.7818609E-02  0.8625494E-01
       -1   -1    0    0    0  501  0.00000000000E+00  0.00000000000E+00  0.10588061345E+04  0.10588061345E+04  0.50400001928E-02 0. -1.
        1   -1    0    0  501    0  0.00000000000E+00  0.00000000000E+00 -0.90717503219E+03  0.90717503221E+03  0.50400001928E-02 0.  1.
    10030    2    1    2    0    0  0.00000000000E+00  0.00000000000E+00  0.15163110234E+03  0.19659811668E+04  0.19601249850E+04 0.  0.
        5    1    3    3  502    0 -0.77511911055E+03 -0.31190748959E+03 -0.43796920259E+03  0.94336367855E+03  0.46999998093E+01 0.  1.
       -5    1    3    3    0  502  0.77511911055E+03  0.31190748959E+03  0.58960030493E+03  0.10226174882E+04  0.46999998093E+01 0. -1.
</event>
<event>
 5   0  0.2879462E-05  0.1889222E+04  0.7818609E-02  0.8660240E-01
        2   -1    0    0  501    0  0.00000000000E+00  0.00000000000E+00  0.12983927669E+04  0.12983927669E+04  0.25500000920E-02 0.  1.
       -2   -1    0    0    0  501  0.00000000000E+00  0.00000000000E+00 -0.68722670652E+03  0.68722670652E+03  0.25500000920E-02 0. -1.
    10030    2    1    2    0    0  0.00000000000E+00  0.00000000000E+00  0.61116606040E+03  0.19856194734E+04  0.18892222580E+04 0.  0.
        4    1    3    3  502    0 -0.51218954261E+03 -0.30921475961E+03  0.10738646838E+04  0.12292838838E+04  0.12699999809E+01 0.  1.
       -4    1    3    3    0  502  0.51218954261E+03  0.30921475961E+03 -0.46269862337E+03  0.75633558960E+03  0.12699999809E+01 0. -1.
</event>
<event>
 5   0  0.2813537E-05  0.1908857E+04  0.7818609E-02  0.8650460E-01
        2   -1    0    0  501    0  0.00000000000E+00  0.00000000000E+00  0.20482456049E+04  0.20482456049E+04  0.25500000920E-02 0.  1.
       -2   -1    0    0    0  501  0.00000000000E+00  0.00000000000E+00 -0.44473841608E+03  0.44473841609E+03  0.25500000920E-02 0. -1.
    10030    2    1    2    0    0  0.00000000000E+00  0.00000000000E+00  0.16035071888E+04  0.24929840210E+04  0.19088567323E+04 0.  0.
        2    1    3    3  502    0  0.80215764689E+03 -0.43307384200E+03  0.11709724321E+04  0.14839765092E+04  0.25500000920E-02 0.  1.
       -2    1    3    3    0  502 -0.80215764689E+03  0.43307384200E+03  0.43253475670E+03  0.10090075118E+04  0.25500000920E-02 0. -1.
</event>
<event>
 5   0  0.1327254E-05  0.1901063E+04  0.7818609E-02  0.8654328E-01
       -1   -1    0    0    0  501  0.00000000000E+00  0.00000000000E+00  0.17387833951E+04  0.17387833951E+04  0.50400001928E-02 0.  1.
        1   -1    0    0  501    0  0.00000000000E+00  0.00000000000E+00 -0.51962177504E+03  0.51962177506E+03  0.50400001928E-02 0. -1.
    10030    2    1    2    0    0  0.00000000000E+00  0.00000000000E+00  0.12191616200E+04  0.22584051701E+04  0.19010625599E+04 0.  0.
        5    1    3    3  502    0 -0.51186148330E+03 -0.66368668583E+03  0.76970775398E+02  0.84168211654E+03  0.46999998093E+01 0. -1.
       -5    1    3    3    0  502  0.51186148330E+03  0.66368668583E+03  0.11421908446E+04  0.14167230536E+04  0.46999998093E+01 0.  1.
</event>
<event>
 5   0  0.1413011E-05  0.1891547E+04  0.7818609E-02  0.8659076E-01
        1   -1    0    0  501    0  0.00000000000E+00  0.00000000000E+00  0.12764434374E+04  0.12764434374E+04  0.50400001928E-02 0.  1.
       -1   -1    0    0    0  501  0.00000000000E+00  0.00000000000E+00 -0.70076524149E+03  0.70076524151E+03  0.50400001928E-02 0. -1.
    10030    2    1    2    0    0  0.00000000000E+00  0.00000000000E+00  0.57567819588E+03  0.19772086789E+04  0.18915466620E+04 0.  0.
        1    1    3    3  502    0 -0.29235743241E+03  0.92865320025E+02 -0.64732187233E+03  0.71632565386E+03  0.50400001928E-02 0. -1.
       -1    1    3    3    0  502  0.29235743241E+03 -0.92865320025E+02  0.12230000682E+04  0.12608830250E+04  0.50400001928E-02 0.  1.
</event>
<event>
 5   0  0.2888776E-05  0.1900504E+04  0.7818609E-02  0.8654606E-01
        2   -1    0    0  501    0  0.00000000000E+00  0.00000000000E+00  0.17849138114E+04  0.17849138114E+04  0.25500000920E-02 0.  1.
       -2   -1    0    0    0  501  0.00000000000E+00  0.00000000000E+00 -0.50589475908E+03  0.50589475909E+03  0.25500000920E-02 0. -1.
    10030    2    1    2    0    0  0.00000000000E+00  0.00000000000E+00  0.12790190524E+04  0.22908085705E+04  0.19005036623E+04 0.  0.
        3    1    3    3  502    0  0.19322087228E+03  0.90590565492E+03  0.89514776294E+03  0.12881338784E+04  0.10100000352E+00 0.  1.
       -3    1    3    3    0  502 -0.19322087228E+03 -0.90590565492E+03  0.38387128942E+03  0.10026746921E+04  0.10100000352E+00 0. -1.
</event>
<event>
 5   0  0.2879462E-05  0.1902309E+04  0.7818609E-02  0.8653708E-01
       -2   -1    0    0    0  501  0.00000000000E+00  0.00000000000E+00  0.11174506745E+04  0.11174506745E+04  0.25500000920E-02 0. -1.
        2   -1    0    0  501    0  0.00000000000E+00  0.00000000000E+00 -0.80960641204E+03  0.80960641204E+03  0.25500000920E-02 0.  1.
    10030    2    1    2    0    0  0.00000000000E+00  0.00000000000E+00  0.30784426250E+03  0.19270570866E+04  0.19023093663E+04 0.  0.
        4    1    3    3  502    0  0.31731378531E+03 -0.33907247069E+03  0.99480250084E+03  0.10978578265E+04  0.12699999809E+01 0. -1.
       -4    1    3    3    0  502 -0.31731378531E+03  0.33907247069E+03 -0.68695823834E+03  0.82919926004E+03  0.12699999809E+01 0.  1.
</event>
<event>
 5   0  0.2879462E-05  0.1898957E+04  0.7818609E-02  0.8655376E-01
       -2   -1    0    0    0  501  0.00000000000E+00  0.00000000000E+00  0.57590122412E+03  0.57590122412E+03  0.25500000920E-02 0.  1.
        2   -1    0    0  501    0  0.00000000000E+00  0.00000000000E+00 -0.15653894886E+04  0.15653894886E+04  0.25500000920E-02 0. -1.
    10030    2    1    2    0    0  0.00000000000E+00  0.00000000000E+00 -0.98948826445E+03  0.21412907127E+04  0.18989573167E+04 0.  0.
        4    1    3    3  502    0  0.33553239480E+03 -0.22791823714E+03  0.47328427995E+03  0.62332040984E+03  0.12699999809E+01 0.  1.
       -4    1    3    3    0  502 -0.33553239480E+03  0.22791823714E+03 -0.14627725444E+04  0.15179703028E+04  0.12699999809E+01 0. -1.
</event>
<event>
 5   0  0.1429067E-05  0.1901994E+04  0.7818609E-02  0.8653865E-01
       -1   -1    0    0    0  501  0.00000000000E+00  0.00000000000E+00  0.82779665796E+03  0.82779665797E+03  0.50400001928E-02 0.  1.
        1   -1    0    0  501    0  0.00000000000E+00  0.00000000000E+00 -0.10925329041E+04  0.10925329041E+04  0.50400001928E-02 0. -1.
    10030    2    1    2    0    0  0.00000000000E+00  0.00000000000E+00 -0.26473624618E+03  0.19203295621E+04  0.19019937821E+04 0.  0.
        3    1    3    3  502    0 -0.30915173112E+03 -0.94273336460E+02 -0.10353799389E+04  0.10846538079E+04  0.10100000352E+00 0. -1.
       -3    1    3    3    0  502  0.30915173112E+03  0.94273336460E+02  0.77064369275E+03  0.83567575423E+03  0.10100000352E+00 0.  1.
</event>
<event>
 5   0  0.1327254E-05  0.1903918E+04  0.7818609E-02  0.8652909E-01
       -1   -1    0    0    0  501  0.00000000000E+00  0.00000000000E+00  0.87338394504E+03  0.87338394505E+03  0.50400001928E-02 0.  1.
        1   -1    0    0  501    0  0.00000000000E+00  0.00000000000E+00 -0.10376030961E+04  0.10376030961E+04  0.50400001928E-02 0. -1.
    10030    2    1    2    0    0  0.00000000000E+00  0.00000000000E+00 -0.16421915107E+03  0.19109870412E+04  0.19039179452E+04 0.  0.
        5    1    3    3  502    0  0.73332655158E+03 -0.57223607848E+03  0.12108177340E+03  0.93803243367E+03  0.46999998093E+01 0.  1.
       -5    1    3    3    0  502 -0.73332655158E+03  0.57223607848E+03 -0.28530092447E+03  0.97295460750E+03  0.46999998093E+01 0. -1.
</event>
<event>
 5   0  0.1429067E-05  0.1896828E+04  0.7818609E-02  0.8656437E-01
        1   -1    0    0  501    0  0.00000000000E+00  0.00000000000E+00  0.13204807464E+04  0.13204807464E+04  0.50400001928E-02 0. -1.
       -1   -1    0    0    0  501  0.00000000000E+00  0.00000000000E+00 -0.68118321211E+03  0.68118321212E+03  0.50400001928E-02 0.  1.
    10030    2    1    2    0    0  0.00000000000E+00  0.00000000000E+00  0.63929753425E+03  0.20016639585E+04  0.18968282119E+04 0.  0.
        3    1    3    3  502    0 -0.83277206736E+03  0.28973235213E+03 -0.48993939477E+02  0.88309374833E+03  0.10100000352E+00 0.  1.
       -3    1    3    3    0  502  0.83277206736E+03 -0.28973235213E+03  0.68829147372E+03  0.11185702102E+04  0.10100000352E+00 0. -1.
</event>
<event>
 5   0  0.1344119E-05  0.1890065E+04  0.7818609E-02  0.8659818E-01
       -1   -1    0    0    0  501  0.00000000000E+00  0.00000000000E+00  0.55118950680E+03  0.55118950682E+03  0.50400001928E-02 0.  1.
        1   -1    0    0  501    0  0.00000000000E+00  0.00000000000E+00 -0.16202886748E+04  0.16202886748E+04  0.50400001928E-02 0. -1.
    10030    2    1    2    0    0  0.00000000000E+00  0.00000000000E+00 -0.10690991680E+04  0.21714781816E+04  0.18900646714E+04 0.  0.
        2    1    3    3  502    0  0.32290044956E+03  0.53307624473E+03  0.28160877259E+03  0.68391409097E+03  0.25500000920E-02 0.  1.
       -2    1    3    3    0  502 -0.32290044956E+03 -0.53307624473E+03 -0.13507079405E+04  0.14875640906E+04  0.25500000920E-02 0. -1.
</event>
<event>
 5   0  0.2888776E-05  0.1899032E+04  0.7818609E-02  0.8655338E-01
       -2   -1    0    0    0  501  0.00000000000E+00  0.00000000000E+00  0.36435247152E+03  0.36435247153E+03  0.25500000920E-02 0.  1.
        2   -1    0    0  501    0  0.00000000000E+00  0.00000000000E+00 -0.24744747559E+04  0.24744747559E+04  0.25500000920E-02 0. -1.
    10030    2    1    2    0    0  0.00000000000E+00  0.00000000000E+00 -0.21101222844E+04  0.28388272274E+04  0.18990323779E+04 0.  0.
        3    1    3    3  502    0  0.60044726589E+02 -0.72480575139E+02 -0.24674840578E+04  0.24692785158E+04  0.10100000352E+00 0. -1.
       -3    1    3    3    0  502 -0.60044726589E+02  0.72480575139E+02  0.35736177342E+03  0.36954871163E+03  0.10100000352E+00 0.  1.
</event>
<event>
 5   0  0.2888776E-05  0.1899020E+04  0.7818609E-02  0.8655344E-01
       -2   -1    0    0    0  501  0.00000000000E+00  0.00000000000E+00  0.55389197643E+03  0.55389197644E+03  0.25500000920E-02 0.  1.
        2   -1    0    0  501    0  0.00000000000E+00  0.00000000000E+00 -0.16276992826E+04  0.16276992826E+04  0.25500000920E-02 0. -1.
    10030    2    1    2    0    0  0.00000000000E+00  0.00000000000E+00 -0.10738073062E+04  0.21815912591E+04  0.18990203503E+04 0.  0.
        3    1    3    3  502    0  0.71668546224E+03  0.34851603562E+03 -0.11299195907E+04  0.13826857092E+04  0.10100000352E+00 0. -1.
       -3    1    3    3    0  502 -0.71668546224E+03 -0.34851603562E+03  0.56112284514E+02  0.79890554983E+03  0.10100000352E+00 0.  1.
</event>
<event>
 5   0  0.1327254E-05  0.1897705E+04  0.7818609E-02  0.8655999E-01
        1   -1    0    0  501    0  0.00000000000E+00  0.00000000000E+00  0.79395288544E+03  0.79395288545E+03  0.50400001928E-02 0. -1.
       -1   -1    0    0    0  501  0.00000000000E+00  0.00000000000E+00 -0.11339731260E+04  0.11339731260E+04  0.50400001928E-02 0.  1.
    10030    2    1    2    0    0  0.00000000000E+00  0.00000000000E+00 -0.34002024059E+03  0.19279260115E+04  0.18977051778E+04 0.  0.
        5    1    3    3  502    0 -0.78344724173E+03 -0.47357421483E+03 -0.42345647133E+03  0.10086622778E+04  0.46999998093E+01 0.  1.
       -5    1    3    3    0  502  0.78344724173E+03  0.47357421483E+03  0.83436230740E+02  0.91926373371E+03  0.46999998093E+01 0. -1.
</event>
<event>
 5   0  0.2813537E-05  0.1902086E+04  0.7818609E-02  0.8653819E-01
       -2   -1    0    0    0  501  0.00000000000E+00  0.00000000000E+00  0.15422869975E+04  0.15422869975E+04  0.25500000920E-02 0.  1.
        2   -1    0    0  501    0  0.00000000000E+00  0.00000000000E+00 -0.58645585049E+03  0.58645585050E+03  0.25500000920E-02 0. -1.
    10030    2    1    2    0    0  0.00000000000E+00  0.00000000000E+00  0.95583114705E+03  0.21287428480E+04  0.19020864679E+04 0.  0.
        2    1    3    3  502    0  0.13220034762E+03 -0.47306713495E+03  0.13893380172E+04  0.14736110654E+04  0.25500000920E-02 0.  1.
       -2    1    3    3    0  502 -0.13220034762E+03  0.47306713495E+03 -0.43350687018E+03  0.65513178260E+03  0.25500000920E-02 0. -1.
</event>
<event>
 5   0  0.2855141E-05  0.1889970E+04  0.7818609E-02  0.8659865E-01
       -2   -1    0    0    0  501  0.00000000000E+00  0.00000000000E+00  0.56630530180E+03  0.56630530181E+03  0.25500000920E-02 0.  1.
        2   -1    0    0  501    0  0.00000000000E+00  0.00000000000E+00 -0.15768816882E+04  0.15768816882E+04  0.25500000920E-02 0. -1.
    10030    2    1    2    0    0  0.00000000000E+00  0.00000000000E+00 -0.10105763864E+04  0.21431869900E+04  0.18899697991E+04 0.  0.
        1    1    3    3  502    0  0.34689739878E+03 -0.86610273081E+03 -0.67547851127E+03  0.11518432900E+04  0.50400001928E-02 0. -1.
       -1    1    3    3    0  502 -0.34689739878E+03  0.86610273081E+03 -0.33509787516E+03  0.99134370001E+03  0.50400001928E-02 0.  1.
</event>
<event>
 5   0  0.2879462E-05  0.1886476E+04  0.7818609E-02  0.8661617E-01
       -2   -1    0    0    0  501  0.00000000000E+00  0.00000000000E+00  0.70894332094E+03  0.70894332094E+03  0.25500000920E-02 0.  1.
        2   -1    0    0  501    0  0.00000000000E+00  0.00000000000E+00 -0.12549636289E+04  0.12549636289E+04  0.25500000920E-02 0. -1.
    10030    2    1    2    0    0  0.00000000000E+00  0.00000000000E+00 -0.54602030796E+03  0.19639069498E+04  0.18864761676E+04 0.  0.
        4    1    3    3  502    0 -0.67396261169E+03 -0.54198056473E+02  0.41165689635E+03  0.79159714786E+03  0.12699999809E+01 0.  1.
       -4    1    3    3    0  502  0.67396261169E+03  0.54198056473E+02 -0.95767720431E+03  0.11723098020E+04  0.12699999809E+01 0. -1.
</event>
<event>
 5   0  0.1327254E-05  0.1892753E+04  0.7818609E-02  0.8658472E-01
        1   -1    0    0  501    0  0.00000000000E+00  0.00000000000E+00  0.92776968376E+03  0.92776968377E+03  0.50400001928E-02 0.  1.
       -1   -1    0    0    0  501  0.00000000000E+00  0.00000000000E+00 -0.96535666885E+03  0.96535666886E+03  0.50400001928E-02 0. -1.
    10030    2    1    2    0    0  0.00000000000E+00  0.00000000000E+00 -0.37586985087E+02  0.18931263526E+04  0.18927531814E+04 0.  0.
        5    1    3    3  502    0 -0.72359588678E+03  0.24727036020E+02 -0.62834299232E+03  0.95866544721E+03  0.46999998093E+01 0. -1.
       -5    1    3    3    0  502  0.72359588678E+03 -0.24727036020E+02  0.59075600723E+03  0.93446090542E+03  0.46999998093E+01 0.  1.
</event>
<event>
 5   0  0.2855141E-05  0.1899631E+04  0.7818609E-02  0.8655040E-01
       -2   -1    0    0    0  501  0.00000000000E+00  0.00000000000E+00  0.13000532917E+04  0.13000532917E+04  0.25500000920E-02 0.  1.
        2   -1    0    0  501    0  0.00000000000E+00  0.00000000000E+00 -0.69393241492E+03  0.69393241492E+03  0.25500000920E-02 0. -1.
    10030    2    1    2    0    0  0.00000000000E+00  0.00000000000E+00  0.60612087680E+03  0.19939857066E+04  0.18996306170E+04 0.  0.
        1    1    3    3  502    0 -0.39479762137E+03 -0.78788098809E+03  0.67495714475E+03  0.11100399815E+04  0.50400001928E-02 0.  1.
       -1    1    3    3    0  502  0.39479762137E+03  0.78788098809E+03 -0.68836267946E+02  0.88394572516E+03  0.50400001928E-02 0. -1.
</event>
<event>
 5   0  0.2789718E-05  0.1899782E+04  0.7818609E-02  0.8654965E-01
       -2   -1    0    0    0  501  0.00000000000E+00  0.00000000000E+00  0.68322119400E+03  0.68322119401E+03  0.25500000920E-02 0.  1.
        2   -1    0    0  501    0  0.00000000000E+00  0.00000000000E+00 -0.13206449816E+04  0.13206449816E+04  0.25500000920E-02 0. -1.
    10030    2    1    2    0    0  0.00000000000E+00  0.00000000000E+00 -0.63742378759E+03  0.20038661756E+04  0.18997817150E+04 0.  0.
        5    1    3    3  502    0  0.32626399425E+03 -0.67353837175E+03 -0.93571162216E+03  0.11981988408E+04  0.46999998093E+01 0. -1.
       -5    1    3    3    0  502 -0.32626399425E+03  0.67353837175E+03  0.29828783458E+03  0.80566733483E+03  0.46999998093E+01 0.  1.
</event>
<event>
 5   0  0.1471485E-05  0.1902594E+04  0.7818609E-02  0.8653566E-01
       -1   -1    0    0    0  501  0.00000000000E+00  0.00000000000E+00  0.14695103477E+04  0.14695103477E+04  0.50400001928E-02 0. -1.
        1   -1    0    0  501    0  0.00000000000E+00  0.00000000000E+00 -0.61582843600E+03  0.61582843602E+03  0.50400001928E-02 0.  1.
    10030    2    1    2    0    0  0.00000000000E+00  0.00000000000E+00  0.85368191173E+03  0.20853387837E+04  0.19025942911E+04 0.  0.
        4    1    3    3  502    0 -0.87301177967E+03  0.16697095444E+03  0.79842585243E+03  0.11947863080E+04  0.12699999809E+01 0. -1.
       -4    1    3    3    0  502  0.87301177967E+03 -0.16697095444E+03  0.55256059295E+02  0.89055247574E+03  0.12699999809E+01 0.  1.
</event>
<event>
 5   0  0.2789718E-05  0.1900703E+04  0.7818609E-02  0.8654506E-01
       -2   -1    0    0    0  501  0.00000000000E+00  0.00000000000E+00  0.13670774094E+04  0.13670774094E+04  0.25500000920E-02 0.  1.
        2   -1    0    0  501    0  0.00000000000E+00  0.00000000000E+00 -0.66065616598E+03  0.66065616599E+03  0.25500000920E-02 0. -1.
    10030    2    1    2    0    0  0.00000000000E+00  0.00000000000E+00  0.70642124339E+03  0.20277335754E+04  0.19007031540E+04 0.  0.
        5    1    3    3  502    0 -0.42298824190E+03  0.66871744915E+02  0.12582948279E+04  0.13291797647E+04  0.46999998093E+01 0.  1.
       -5    1    3    3    0  502  0.42298824190E+03 -0.66871744915E+02 -0.55187358452E+03  0.69855381063E+03  0.46999998093E+01 0. -1.
</event>
<event>
 5   0  0.2813537E-05  0.1907471E+04  0.7818609E-02  0.8651147E-01
       -2   -1    0    0    0  501  0.00000000000E+00  0.00000000000E+00  0.45034604921E+03  0.45034604922E+03  0.25500000920E-02 0. -1.
        2   -1    0    0  501    0  0.00000000000E+00  0.00000000000E+00 -0.20198045982E+04  0.20198045982E+04  0.25500000920E-02 0.  1.
    10030    2    1    2    0    0  0.00000000000E+00  0.00000000000E+00 -0.15694585490E+04  0.24701506474E+04  0.19074705985E+04 0.  0.
        2    1    3    3  502    0  0.30926089587E+02 -0.95230077246E+03 -0.83933164883E+03  0.12697680107E+04  0.25500000920E-02 0.  1.
       -2    1    3    3    0  502 -0.30926089587E+02  0.95230077246E+03 -0.73012690018E+03  0.12003826368E+04  0.25500000920E-02 0. -1.
</event>
<event>
 5   0  0.2813537E-05  0.1897408E+04  0.7818609E-02  0.8656148E-01
       -2   -1    0    0    0  501  0.00000000000E+00  0.00000000000E+00  0.12987201581E+04  0.12987201581E+04  0.25500000920E-02 0. -1.
        2   -1    0    0  501    0  0.00000000000E+00  0.00000000000E+00 -0.69302040885E+03  0.69302040886E+03  0.25500000920E-02 0.  1.
    10030    2    1    2    0    0  0.00000000000E+00  0.00000000000E+00  0.60569974925E+03  0.19917405670E+04  0.18974083113E+04 0.  0.
        2    1    3    3  502    0  0.76060586332E+03  0.27201616959E+03  0.82510407649E+03  0.11546907867E+04  0.25500000920E-02 0. -1.
       -2    1    3    3    0  502 -0.76060586332E+03 -0.27201616959E+03 -0.21940432724E+03  0.83704978027E+03  0.25500000920E-02 0.  1.
</event>
<event>
 5   0  0.1429067E-05  0.1900798E+04  0.7818609E-02  0.8654459E-01
        1   -1    0    0  501    0  0.00000000000E+00  0.00000000000E+00  0.88977048116E+03  0.88977048117E+03  0.50400001928E-02 0. -1.
       -1   -1    0    0    0  501  0.00000000000E+00  0.00000000000E+00 -0.10151583637E+04  0.10151583637E+04  0.50400001928E-02 0.  1.
    10030    2    1    2    0    0  0.00000000000E+00  0.00000000000E+00 -0.12538788258E+03  0.19049288449E+04  0.19007976702E+04 0.  0.
        3    1    3    3  502    0  0.23198273979E+03  0.73431800956E+03 -0.62087753473E+03  0.98920566823E+03  0.10100000352E+00 0.  1.
       -3    1    3    3    0  502 -0.23198273979E+03 -0.73431800956E+03  0.49548965215E+03  0.91572317669E+03  0.10100000352E+00 0. -1.
</event>
<event>
 5   0  0.1344119E-05  0.1904358E+04  0.7818609E-02  0.8652690E-01
       -1   -1    0    0    0  501  0.00000000000E+00  0.00000000000E+00  0.47058978072E+03  0.47058978075E+03  0.50400001928E-02 0.  1.
        1   -1    0    0  501    0  0.00000000000E+00  0.00000000000E+00 -0.19266143473E+04  0.19266143473E+04  0.50400001928E-02 0. -1.
    10030    2    1    2    0    0  0.00000000000E+00  0.00000000000E+00 -0.14560245666E+04  0.23972041281E+04  0.19043581840E+04 0.  0.
        2    1    3    3  502    0 -0.73216453913E+03 -0.31881259928E+03 -0.75208022500E+02  0.80209889196E+03  0.25500000920E-02 0. -1.
       -2    1    3    3    0  502  0.73216453913E+03  0.31881259928E+03 -0.13808165441E+04  0.15951052361E+04  0.25500000920E-02 0.  1.
</event>
<event>
 5   0  0.2855141E-05  0.1925161E+04  0.7818609E-02  0.8642433E-01
        2   -1    0    0  501    0  0.00000000000E+00  0.00000000000E+00  0.20978402777E+04  0.20978402777E+04  0.25500000920E-02 0. -1.
       -2   -1    0    0    0  501  0.00000000000E+00  0.00000000000E+00 -0.44167365274E+03  0.44167365275E+03  0.25500000920E-02 0.  1.
    10030    2    1    2    0    0  0.00000000000E+00  0.00000000000E+00  0.16561666249E+04  0.25395139304E+04  0.19251605422E+04 0.  0.
        1    1    3    3  502    0 -0.67064032815E+03  0.31867057449E+03  0.20021088477E+02  0.74277198978E+03  0.50400001928E-02 0.  1.
       -1    1    3    3    0  502  0.67064032815E+03 -0.31867057449E+03  0.16361455365E+04  0.17967419406E+04  0.50400001928E-02 0. -1.
</event>
<event>
 5   0  0.1344119E-05  0.1905441E+04  0.7818609E-02  0.8652153E-01
       -1   -1    0    0    0  501  0.00000000000E+00  0.00000000000E+00  0.11239431273E+04  0.11239431274E+04  0.50400001928E-02 0. -1.
        1   -1    0    0  501    0  0.00000000000E+00  0.00000000000E+00 -0.80758207533E+03  0.80758207535E+03  0.50400001928E-02 0.  1.
    10030    2    1    2    0    0  0.00000000000E+00  0.00000000000E+00  0.31636105201E+03  0.19315252027E+04  0.19054409709E+04 0.  0.
        2    1    3    3  502    0  0.31647866127E+00 -0.61592775836E+03  0.89497943634E+03  0.10864415747E+04  0.25500000920E-02 0. -1.
       -2    1    3    3    0  502 -0.31647866127E+00  0.61592775836E+03 -0.57861838433E+03  0.84508362803E+03  0.25500000920E-02 0.  1.
</event>
<event>
 5   0  0.1327254E-05  0.1901861E+04  0.7818609E-02  0.8653931E-01
        1   -1    0    0  501    0  0.00000000000E+00  0.00000000000E+00  0.68027344479E+03  0.68027344481E+03  0.50400001928E-02 0. -1.
       -1   -1    0    0    0  501  0.00000000000E+00  0.00000000000E+00 -0.13292721532E+04  0.13292721532E+04  0.50400001928E-02 0.  1.
    10030    2    1    2    0    0  0.00000000000E+00  0.00000000000E+00 -0.64899870838E+03  0.20095455980E+04  0.19018607170E+04 0.  0.
        5    1    3    3  502    0  0.93822551030E+03  0.17841749847E+02 -0.16196847185E+03  0.95228215991E+03  0.46999998093E+01 0. -1.
       -5    1    3    3    0  502 -0.93822551030E+03 -0.17841749847E+02 -0.48703023652E+03  0.10572634381E+04  0.46999998093E+01 0.  1.
</event>
<event>
 5   0  0.2789718E-05  0.1901312E+04  0.7818609E-02  0.8654204E-01
       -2   -1    0    0    0  501  0.00000000000E+00  0.00000000000E+00  0.90673359255E+03  0.90673359256E+03  0.25500000920E-02 0. -1.
        2   -1    0    0  501    0  0.00000000000E+00  0.00000000000E+00 -0.99670620590E+03  0.99670620591E+03  0.25500000920E-02 0.  1.
    10030    2    1    2    0    0  0.00000000000E+00  0.00000000000E+00 -0.89972613349E+02  0.19034397985E+04  0.19013121772E+04 0.  0.
        5    1    3    3  502    0  0.87872621527E+03  0.31516352881E+03  0.13476153419E+03  0.94322350076E+03  0.46999998093E+01 0.  1.
       -5    1    3    3    0  502 -0.87872621527E+03 -0.31516352881E+03 -0.22473414754E+03  0.96021629770E+03  0.46999998093E+01 0. -1.
</event>
<event>
 5   0  0.1344119E-05  0.1893435E+04  0.7818609E-02  0.8658131E-01
       -1   -1    0    0    0  501  0.00000000000E+00  0.00000000000E+00  0.11208934966E+04  0.11208934966E+04  0.50400001928E-02 0. -1.
        1   -1    0    0  501    0  0.00000000000E+00  0.00000000000E+00 -0.79960658309E+03  0.79960658311E+03  0.50400001928E-02 0.  1.
    10030    2    1    2    0    0  0.00000000000E+00  0.00000000000E+00  0.32128691347E+03  0.19205000797E+04  0.18934347824E+04 0.  0.
        2    1    3    3  502    0 -0.67096730109E+03  0.11074156679E+03  0.82870313854E+03  0.10720119895E+04  0.25500000920E-02 0. -1.
       -2    1    3    3    0  502  0.67096730109E+03 -0.11074156679E+03 -0.50741622507E+03  0.84848809020E+03  0.25500000920E-02 0.  1.
</event>
<event>
 5   0  0.1429067E-05  0.1899574E+04  0.7818609E-02  0.8655069E-01
        1   -1    0    0  501    0  0.00000000000E+00  0.00000000000E+00  0.70082157792E+03  0.70082157794E+03  0.50400001928E-02 0.  1.
       -1   -1    0    0    0  501  0.00000000000E+00  0.00000000000E+00 -0.12871966511E+04  0.12871966511E+04  0.50400001928E-02 0. -1.
    10030    2    1    2    0    0  0.00000000000E+00  0.00000000000E+00 -0.58637507318E+03  0.19880182291E+04  0.18995738345E+04 0.  0.
        3    1    3    3  502    0 -0.77772391382E+03 -0.10308380736E+03  0.26710289033E+03  0.82874888940E+03  0.10100000352E+00 0. -1.
       -3    1    3    3    0  502  0.77772391382E+03  0.10308380736E+03 -0.85347796351E+03  0.11592693397E+04  0.10100000352E+00 0.  1.
</event>
<event>
 5   0  0.1327254E-05  0.1902184E+04  0.7818609E-02  0.8653770E-01
        1   -1    0    0  501    0  0.00000000000E+00  0.00000000000E+00  0.13599219341E+04  0.13599219341E+04  0.50400001928E-02 0.  1.
       -1   -1    0    0    0  501  0.00000000000E+00  0.00000000000E+00 -0.66516726084E+03  0.66516726086E+03  0.50400001928E-02 0. -1.
    10030    2    1    2    0    0  0.00000000000E+00  0.00000000000E+00  0.69475467329E+03  0.20250891950E+04  0.19021835326E+04 0.  0.
        5    1    3    3  502    0 -0.50869829163E+03 -0.17979091960E+03 -0.48646318986E+03  0.72647591272E+03  0.46999998093E+01 0. -1.
       -5    1    3    3    0  502  0.50869829163E+03  0.17979091960E+03  0.11812178632E+04  0.12986132823E+04  0.46999998093E+01 0.  1.
</event>
<event>
 5   0  0.2813537E-05  0.1897996E+04  0.7818609E-02  0.8655854E-01
        2   -1    0    0  501    0  0.00000000000E+00  0.00000000000E+00  0.11977164055E+04  0.11977164055E+04  0.25500000920E-02 0.  1.
       -2   -1    0    0    0  501  0.00000000000E+00  0.00000000000E+00 -0.75192878334E+03  0.75192878334E+03  0.25500000920E-02 0. -1.
    10030    2    1    2    0    0  0.00000000000E+00  0.00000000000E+00  0.44578762220E+03  0.19496451889E+04  0.18979962483E+04 0.  0.
        2    1    3    3  502    0  0.54124521796E+03 -0.32234125716E+03 -0.50617167854E+03  0.80812130289E+03  0.25500000920E-02 0. -1.
       -2    1    3    3    0  502 -0.54124521796E+03  0.32234125716E+03  0.95195930074E+03  0.11415238860E+04  0.25500000920E-02 0.  1.
</event>
<event>
 5   0  0.2888776E-05  0.1888392E+04  0.7818609E-02  0.8660656E-01
        2   -1    0    0  501    0  0.00000000000E+00  0.00000000000E+00  0.13243039791E+04  0.13243039791E+04  0.25500000920E-02 0.  1.
       -2   -1    0    0    0  501  0.00000000000E+00  0.00000000000E+00 -0.67318870175E+03  0.67318870176E+03  0.25500000920E-02 0. -1.
    10030    2    1    2    0    0  0.00000000000E+00  0.00000000000E+00  0.65111527737E+03  0.19974926809E+04  0.18883924131E+04 0.  0.
        3    1    3    3  502    0  0.35040254791E+03 -0.72680198658E+02 -0.59867436977E+03  0.69747786207E+03  0.10100000352E+00 0. -1.
       -3    1    3    3    0  502 -0.35040254791E+03  0.72680198658E+02  0.12497896471E+04  0.13000148188E+04  0.10100000352E+00 0.  1.
</event>
<event>
 5   0  0.1429067E-05  0.1872286E+04  0.7818609E-02  0.8668776E-01
        1   -1    0    0  501    0  0.00000000000E+00  0.00000000000E+00  0.12737026572E+04  0.12737026572E+04  0.50400001928E-02 0.  1.
       -1   -1    0    0    0  501  0.00000000000E+00  0.00000000000E+00 -0.68804417884E+03  0.68804417886E+03  0.50400001928E-02 0. -1.
    10030    2    1    2    0    0  0.00000000000E+00  0.00000000000E+00  0.58565847832E+03  0.19617468360E+04  0.18722859812E+04 0.  0.
        3    1    3    3  502    0  0.43170663944E+02 -0.44047043914E+03  0.11571606593E+04  0.12389102936E+04  0.10100000352E+00 0.  1.
       -3    1    3    3    0  502 -0.43170663944E+02  0.44047043914E+03 -0.57150218098E+03  0.72283654241E+03  0.10100000352E+00 0. -1.
</event>
<event>
 5   0  0.2855141E-05  0.1900763E+04  0.7818609E-02  0.8654477E-01
       -2   -1    0    0    0  501  0.00000000000E+00  0.00000000000E+00  0.15012226507E+04  0.15012226507E+04  0.25500000920E-02 0.  1.
        2   -1    0    0  501    0  0.00000000000E+00  0.00000000000E+00 -0.60165953072E+03  0.60165953073E+03  0.25500000920E-02 0. -1.
    10030    2    1    2    0    0  0.00000000000E+00  0.00000000000E+00  0.89956312001E+03  0.21028821815E+04  0.19007629158E+04 0.  0.
        1    1    3    3  502    0 -0.93373476872E+03  0.15738274384E+03  0.35993667119E+03  0.10130075783E+04  0.50400001928E-02 0. -1.
       -1    1    3    3    0  502  0.93373476872E+03 -0.15738274384E+03  0.53962644883E+03  0.10898746032E+04  0.50400001928E-02 0.  1.
</event>
<event>
 5   0  0.2855141E-05  0.1896893E+04  0.7818609E-02  0.8656404E-01
       -2   -1    0    0    0  501  0.00000000000E+00  0.00000000000E+00  0.36737537102E+03  0.36737537103E+03  0.25500000920E-02 0. -1.
        2   -1    0    0  501    0  0.00000000000E+00  0.00000000000E+00 -0.24485883516E+04  0.24485883516E+04  0.25500000920E-02 0.  1.
    10030    2    1    2    0    0  0.00000000000E+00  0.00000000000E+00 -0.20812129806E+04  0.28159637227E+04  0.18968933066E+04 0.  0.
        1    1    3    3  502    0  0.48375321256E+03 -0.60707449017E+03 -0.23158824510E+03  0.81005538241E+03  0.50400001928E-02 0. -1.
       -1    1    3    3    0  502 -0.48375321256E+03  0.60707449017E+03 -0.18496247355E+04  0.20059083403E+04  0.50400001928E-02 0.  1.
</event>
<event>
 5   0  0.2789718E-05  0.1891381E+04  0.7818609E-02  0.8659159E-01
       -2   -1    0    0    0  501  0.00000000000E+00  0.00000000000E+00  0.55506223982E+03  0.55506223982E+03  0.25500000920E-02 0. -1.
        2   -1    0    0  501    0  0.00000000000E+00  0.00000000000E+00 -0.16112256315E+04  0.16112256315E+04  0.25500000920E-02 0.  1.
    10030    2    1    2    0    0  0.00000000000E+00  0.00000000000E+00 -0.10561633916E+04  0.21662878713E+04  0.18913809853E+04 0.  0.
        5    1    3    3  502    0  0.66357560342E+03 -0.56334670629E+03 -0.95142086069E+03  0.12895409404E+04  0.46999998093E+01 0.  1.
       -5    1    3    3    0  502 -0.66357560342E+03  0.56334670629E+03 -0.10474253095E+03  0.87674693084E+03  0.46999998093E+01 0. -1.
</event>
<event>
 5   0  0.2888776E-05  0.1898386E+04  0.7818609E-02  0.8655660E-01
       -2   -1    0    0    0  501  0.00000000000E+00  0.00000000000E+00  0.50023111304E+03  0.50023111304E+03  0.25500000920E-02 0. -1.
        2   -1    0    0  501    0  0.00000000000E+00  0.00000000000E+00 -0.18011028423E+04  0.18011028423E+04  0.25500000920E-02 0.  1.
    10030    2    1    2    0    0  0.00000000000E+00  0.00000000000E+00 -0.13008717292E+04  0.23013339553E+04  0.18983863458E+04 0.  0.
        3    1    3    3  502    0 -0.27604497917E+03  0.14298991721E+03 -0.17376364380E+04  0.17652272794E+04  0.10100000352E+00 0.  1.
       -3    1    3    3    0  502  0.27604497917E+03 -0.14298991721E+03  0.43676470878E+03  0.53610667594E+03  0.10100000352E+00 0. -1.
</event>
<event>
 5   0  0.1413011E-05  0.1880691E+04  0.7818609E-02  0.8664528E-01
       -1   -1    0    0    0  501  0.00000000000E+00  0.00000000000E+00  0.88551241882E+03  0.88551241883E+03  0.50400001928E-02 0. -1.
        1   -1    0    0  501    0  0.00000000000E+00  0.00000000000E+00 -0.99857401191E+03  0.99857401192E+03  0.50400001928E-02 0.  1.
    10030    2    1    2    0    0  0.00000000000E+00  0.00000000000E+00 -0.11306159309E+03  0.18840864308E+04  0.18806910312E+04 0.  0.
        1    1    3    3  502    0  0.19783212642E+03  0.15747447130E+03  0.85081621129E+03  0.88759449343E+03  0.50400001928E-02 0. -1.
       -1    1    3    3    0  502 -0.19783212642E+03 -0.15747447130E+03 -0.96387780437E+03  0.99649193732E+03  0.50400001928E-02 0.  1.
</event>
<event>
 5   0  0.1413011E-05  0.1906052E+04  0.7818609E-02  0.8651850E-01
       -1   -1    0    0    0  501  0.00000000000E+00  0.00000000000E+00  0.52696050245E+03  0.52696050247E+03  0.50400001928E-02 0. -1.
        1   -1    0    0  501    0  0.00000000000E+00  0.00000000000E+00 -0.17235805715E+04  0.17235805715E+04  0.50400001928E-02 0.  1.
    10030    2    1    2    0    0  0.00000000000E+00  0.00000000000E+00 -0.11966200691E+04  0.22505410740E+04  0.19060523435E+04 0.  0.
        1    1    3    3  502    0 -0.53168086680E+03 -0.73189638648E+03 -0.24428266035E+03  0.93703302121E+03  0.50400001928E-02 0. -1.
       -1    1    3    3    0  502  0.53168086680E+03  0.73189638648E+03 -0.95233740872E+03  0.13135080528E+04  0.50400001928E-02 0.  1.
</event>
<event>
 5   0  0.1429067E-05  0.1901794E+04  0.7818609E-02  0.8653964E-01
        1   -1    0    0  501    0  0.00000000000E+00  0.00000000000E+00  0.84699475895E+03  0.84699475896E+03  0.50400001928E-02 0. -1.
       -1   -1    0    0    0  501  0.00000000000E+00  0.00000000000E+00 -0.10675446465E+04  0.10675446465E+04  0.50400001928E-02 0.  1.
    10030    2    1    2    0    0  0.00000000000E+00  0.00000000000E+00 -0.22054988753E+03  0.19145394055E+04  0.19017935961E+04 0.  0.
        3    1    3    3  502    0 -0.48755086884E+02  0.30284999114E+03 -0.10163679968E+04  0.10616492315E+04  0.10100000352E+00 0.  1.
       -3    1    3    3    0  502  0.48755086884E+02 -0.30284999114E+03  0.79581810925E+03  0.85289017397E+03  0.10100000352E+00 0. -1.
</event>
<event>
 5   0  0.2789718E-05  0.1902189E+04  0.7818609E-02  0.8653767E-01
        2   -1    0    0  501    0  0.00000000000E+00  0.00000000000E+00  0.26200038536E+04  0.26200038536E+04  0.25500000920E-02 0.  1.
       -2   -1    0    0    0  501  0.00000000000E+00  0.00000000000E+00 -0.34525939281E+03  0.34525939282E+03  0.25500000920E-02 0. -1.
    10030    2    1    2    0    0  0.00000000000E+00  0.00000000000E+00  0.22747444608E+04  0.29652632464E+04  0.19021892016E+04 0.  0.
        5    1    3    3  502    0  0.77124872548E+03 -0.49229790466E+03  0.73273535159E+03  0.11722222524E+04  0.46999998093E+01 0. -1.
       -5    1    3    3    0  502 -0.77124872548E+03  0.49229790466E+03  0.15420091092E+04  0.17930409940E+04  0.46999998093E+01 0.  1.
</event>
<event>
 5   0  0.2855141E-05  0.1896756E+04  0.7818609E-02  0.8656473E-01
        2   -1    0    0  501    0  0.00000000000E+00  0.00000000000E+00  0.95236172406E+03  0.95236172406E+03  0.25500000920E-02 0.  1.
       -2   -1    0    0    0  501  0.00000000000E+00  0.00000000000E+00 -0.94441115883E+03  0.94441115883E+03  0.25500000920E-02 0. -1.
    10030    2    1    2    0    0  0.00000000000E+00  0.00000000000E+00  0.79505652282E+01  0.18967728829E+04  0.18967562199E+04 0.  0.
        1    1    3    3  502    0  0.73106354836E+03  0.75999711940E+02 -0.59535557965E+03  0.94587426977E+03  0.50400001928E-02 0. -1.
       -1    1    3    3    0  502 -0.73106354836E+03 -0.75999711940E+02  0.60330614488E+03  0.95089861312E+03  0.50400001928E-02 0.  1.
</event>
<event>
 5   0  0.1327254E-05  0.1900558E+04  0.7818609E-02  0.8654579E-01
        1   -1    0    0  501    0  0.00000000000E+00  0.00000000000E+00  0.10929479357E+04  0.10929479358E+04  0.50400001928E-02 0. -1.
       -1   -1    0    0    0  501  0.00000000000E+00  0.00000000000E+00 -0.82623308671E+03  0.82623308673E+03  0.50400001928E-02 0.  1.
    10030    2    1    2    0    0  0.00000000000E+00  0.00000000000E+00  0.26671484903E+03  0.19191810225E+04  0.19005575462E+04 0.  0.
        5    1    3    3  502    0 -0.63177040850E+02  0.24490652313E+03  0.10583228560E+04  0.10881359754E+04  0.46999998093E+01 0. -1.
       -5    1    3    3    0  502  0.63177040850E+02 -0.24490652313E+03 -0.79160800694E+03  0.83104504704E+03  0.46999998093E+01 0.  1.
</event>
<event>
 5   0  0.1327254E-05  0.1886510E+04  0.7818609E-02  0.8661601E-01
        1   -1    0    0  501    0  0.00000000000E+00  0.00000000000E+00  0.11220145280E+04  0.11220145280E+04  0.50400001928E-02 0.  1.
       -1   -1    0    0    0  501  0.00000000000E+00  0.00000000000E+00 -0.79297520864E+03  0.79297520866E+03  0.50400001928E-02 0. -1.
    10030    2    1    2    0    0  0.00000000000E+00  0.00000000000E+00  0.32903931936E+03  0.19149897367E+04  0.18865096920E+04 0.  0.
        5    1    3    3  502    0 -0.72897386765E+03  0.33153227104E+03  0.67043214498E+03  0.10444222793E+04  0.46999998093E+01 0.  1.
       -5    1    3    3    0  502  0.72897386765E+03 -0.33153227104E+03 -0.34139282562E+03  0.87056745738E+03  0.46999998093E+01 0. -1.
</event>
<event>
 5   0  0.2855141E-05  0.1899052E+04  0.7818609E-02  0.8655328E-01
        2   -1    0    0  501    0  0.00000000000E+00  0.00000000000E+00  0.17418956657E+04  0.17418956657E+04  0.25500000920E-02 0. -1.
       -2   -1    0    0    0  501  0.00000000000E+00  0.00000000000E+00 -0.51759705698E+03  0.51759705699E+03  0.25500000920E-02 0.  1.
    10030    2    1    2    0    0  0.00000000000E+00  0.00000000000E+00  0.12242986088E+04  0.22594927227E+04  0.18990524692E+04 0.  0.
        1    1    3    3  502    0  0.75333701713E+03 -0.45980125773E+03  0.10288617393E+04  0.13555406068E+04  0.50400001928E-02 0. -1.
       -1    1    3    3    0  502 -0.75333701713E+03  0.45980125773E+03  0.19543686946E+03  0.90395211596E+03  0.50400001928E-02 0.  1.
</event>
<event>
 5   0  0.1429067E-05  0.1902714E+04  0.7818609E-02  0.8653507E-01
        1   -1    0    0  501    0  0.00000000000E+00  0.00000000000E+00  0.17276332995E+04  0.17276332995E+04  0.50400001928E-02 0.  1.
       -1   -1    0    0    0  501  0.00000000000E+00  0.00000000000E+00 -0.52388423151E+03  0.52388423154E+03  0.50400001928E-02 0. -1.
    10030    2    1    2    0    0  0.00000000000E+00  0.00000000000E+00  0.12037490680E+04  0.22515175310E+04  0.19027136868E+04 0.  0.
        3    1    3    3  502    0 -0.15972551306E+03  0.93261489715E+03  0.48474956353E+03  0.10631391891E+04  0.10100000352E+00 0. -1.
       -3    1    3    3    0  502  0.15972551306E+03 -0.93261489715E+03  0.71899950444E+03  0.11883783419E+04  0.10100000352E+00 0.  1.
</event>
<event>
 5   0  0.1344119E-05  0.1897825E+04  0.7818609E-02  0.8655940E-01
       -1   -1    0    0    0  501  0.00000000000E+00  0.00000000000E+00  0.15880767684E+04  0.15880767684E+04  0.50400001928E-02 0. -1.
        1   -1    0    0  501    0  0.00000000000E+00  0.00000000000E+00 -0.56699682546E+03  0.56699682548E+03  0.50400001928E-02 0.  1.
    10030    2    1    2    0    0  0.00000000000E+00  0.00000000000E+00  0.10210799429E+04  0.21550735939E+04  0.18978245296E+04 0.  0.
        2    1    3    3  502    0  0.91595569876E+03 -0.14247040665E+03  0.28015540954E+03  0.96837994216E+03  0.25500000920E-02 0.  1.
       -2    1    3    3    0  502 -0.91595569876E+03  0.14247040665E+03  0.74092453339E+03  0.11866936517E+04  0.25500000920E-02 0. -1.
</event>
<event>
 5   0  0.1471485E-05  0.1900907E+04  0.7818609E-02  0.8654405E-01
        1   -1    0    0  501    0  0.00000000000E+00  0.00000000000E+00  0.14077190547E+04  0.14077190547E+04  0.50400001928E-02 0. -1.
       -1   -1    0    0    0  501  0.00000000000E+00  0.00000000000E+00 -0.64172058524E+03  0.64172058526E+03  0.50400001928E-02 0.  1.
    10030    2    1    2    0    0  0.00000000000E+00  0.00000000000E+00  0.76599846943E+03  0.20494396399E+04  0.19009074629E+04 0.  0.
        4    1    3    3  502    0  0.45241231494E+03  0.19874728420E+03 -0.49234173027E+03  0.69755241950E+03  0.12699999809E+01 0.  1.
       -4    1    3    3    0  502 -0.45241231494E+03 -0.19874728420E+03  0.12583401997E+04  0.13518872204E+04  0.12699999809E+01 0. -1.
</event>
<event>
 5   0  0.1471485E-05  0.1895952E+04  0.7818609E-02  0.8656874E-01
        1   -1    0    0  501    0  0.00000000000E+00  0.00000000000E+00  0.22336867293E+04  0.22336867293E+04  0.50400001928E-02 0. -1.
       -1   -1    0    0    0  501  0.00000000000E+00  0.00000000000E+00 -0.40232087360E+03  0.40232087363E+03  0.50400001928E-02 0.  1.
    10030    2    1    2    0    0  0.00000000000E+00  0.00000000000E+00  0.18313658557E+04  0.26360076030E+04  0.18959523162E+04 0.  0.
        4    1    3    3  502    0  0.65605059725E+02  0.15640298303E+03  0.22124194219E+04  0.22189112710E+04  0.12699999809E+01 0. -1.
       -4    1    3    3    0  502 -0.65605059725E+02 -0.15640298303E+03 -0.38105356620E+03  0.41709633201E+03  0.12699999809E+01 0.  1.
</event>
<event>
 5   0  0.1413011E-05  0.1902741E+04  0.7818609E-02  0.8653493E-01
       -1   -1    0    0    0  501  0.00000000000E+00  0.00000000000E+00  0.59947841703E+03  0.59947841705E+03  0.50400001928E-02 0. -1.
        1   -1    0    0  501    0  0.00000000000E+00  0.00000000000E+00 -0.15098224729E+04  0.15098224729E+04  0.50400001928E-02 0.  1.
    10030    2    1    2    0    0  0.00000000000E+00  0.00000000000E+00 -0.91034405584E+03  0.21093008899E+04  0.19027411659E+04 0.  0.
        1    1    3    3  502    0  0.91089500023E+03 -0.88142452964E+02 -0.74341270724E+03  0.11790509941E+04  0.50400001928E-02 0.  1.
       -1    1    3    3    0  502 -0.91089500023E+03  0.88142452964E+02 -0.16693134860E+03  0.93024989579E+03  0.50400001928E-02 0. -1.
</event>
<event>
 5   0  0.1429067E-05  0.1896971E+04  0.7818609E-02  0.8656366E-01
        1   -1    0    0  501    0  0.00000000000E+00  0.00000000000E+00  0.10818629876E+04  0.10818629877E+04  0.50400001928E-02 0.  1.
       -1   -1    0    0    0  501  0.00000000000E+00  0.00000000000E+00 -0.83155108398E+03  0.83155108400E+03  0.50400001928E-02 0. -1.
    10030    2    1    2    0    0  0.00000000000E+00  0.00000000000E+00  0.25031190366E+03  0.19134140717E+04  0.18969705745E+04 0.  0.
        3    1    3    3  502    0 -0.71345979003E+03  0.57903105559E+03 -0.11209023826E+03  0.92567060396E+03  0.10100000352E+00 0. -1.
       -3    1    3    3    0  502  0.71345979003E+03 -0.57903105559E+03  0.36240214192E+03  0.98774346770E+03  0.10100000352E+00 0.  1.
</event>
<event>
 5   0  0.1471485E-05  0.1899929E+04  0.7818609E-02  0.8654892E-01
       -1   -1    0    0    0  501  0.00000000000E+00  0.00000000000E+00  0.31909671783E+04  0.31909671783E+04  0.50400001928E-02 0. -1.
        1   -1    0    0  501    0  0.00000000000E+00  0.00000000000E+00 -0.28280839225E+03  0.28280839229E+03  0.50400001928E-02 0.  1.
    10030    2    1    2    0    0  0.00000000000E+00  0.00000000000E+00  0.29081587860E+04  0.34737755706E+04  0.18999287329E+04 0.  0.
        4    1    3    3  502    0  0.70858545918E+02 -0.47306712355E+02 -0.27580726248E+03  0.28866956456E+03  0.12699999809E+01 0.  1.
       -4    1    3    3    0  502 -0.70858545918E+02  0.47306712355E+02  0.31839660485E+04  0.31851060060E+04  0.12699999809E+01 0. -1.
</event>
<event>
 5   0  0.2789718E-05  0.1900544E+04  0.7818609E-02  0.8654585E-01
        2   -1    0    0  501    0  0.00000000000E+00  0.00000000000E+00  0.10315949579E+04  0.10315949579E+04  0.25500000920E-02 0. -1.
       -2   -1    0    0    0  501  0.00000000000E+00  0.00000000000E+00 -0.87536020135E+03  0.87536020135E+03  0.25500000920E-02 0.  1.
    10030    2    1    2    0    0  0.00000000000E+00  0.00000000000E+00  0.15623475659E+03  0.19069551593E+04  0.19005443116E+04 0.  0.
        5    1    3    3  502    0 -0.74561292227E+03 -0.28418690714E+03  0.59589512057E+03  0.99589854541E+03  0.46999998093E+01 0. -1.
       -5    1    3    3    0  502  0.74561292227E+03  0.28418690714E+03 -0.43966036398E+03  0.91105661388E+03  0.46999998093E+01 0.  1.
</event>
<event>
 5   0  0.1344119E-05  0.1911022E+04  0.7818609E-02  0.8649389E-01
       -1   -1    0    0    0  501  0.00000000000E+00  0.00000000000E+00  0.58827212242E+03  0.58827212244E+03  0.50400001928E-02 0. -1.
        1   -1    0    0  501    0  0.00000000000E+00  0.00000000000E+00 -0.15520051509E+04  0.15520051509E+04  0.50400001928E-02 0.  1.
    10030    2    1    2    0    0  0.00000000000E+00  0.00000000000E+00 -0.96373302849E+03  0.21402772734E+04  0.19110220974E+04 0.  0.
        2    1    3    3  502    0  0.41382852179E+02 -0.17181836633E+03 -0.15335409542E+04  0.15436910150E+04  0.25500000920E-02 0.  1.
       -2    1    3    3    0  502 -0.41382852179E+02  0.17181836633E+03  0.56980792572E+03  0.59658625838E+03  0.25500000920E-02 0. -1.
</event>
<event>
 5   0  0.1429067E-05  0.1898126E+04  0.7818609E-02  0.8655790E-01
        1   -1    0    0  501    0  0.00000000000E+00  0.00000000000E+00  0.55671067436E+03  0.55671067438E+03  0.50400001928E-02 0. -1.
       -1   -1    0    0    0  501  0.00000000000E+00  0.00000000000E+00 -0.16179333220E+04  0.16179333220E+04  0.50400001928E-02 0.  1.
    10030    2    1    2    0    0  0.00000000000E+00  0.00000000000E+00 -0.10612226476E+04  0.21746439964E+04  0.18981261821E+04 0.  0.
        3    1    3    3  502    0 -0.48462275665E+03  0.39972479015E+03  0.28441825698E+03  0.68958892047E+03  0.10100000352E+00 0. -1.
       -3    1    3    3    0  502  0.48462275665E+03 -0.39972479015E+03 -0.13456409046E+04  0.14850550759E+04  0.10100000352E+00 0.  1.
</event>
<event>
 5   0  0.1344119E-05  0.1900469E+04  0.7818609E-02  0.8654623E-01
       -1   -1    0    0    0  501  0.00000000000E+00  0.00000000000E+00  0.52299599870E+03  0.52299599873E+03  0.50400001928E-02 0. -1.
        1   -1    0    0  501    0  0.00000000000E+00  0.00000000000E+00 -0.17264873723E+04  0.17264873723E+04  0.50400001928E-02 0.  1.
    10030    2    1    2    0    0  0.00000000000E+00  0.00000000000E+00 -0.12034913736E+04  0.22494833711E+04  0.19004694026E+04 0.  0.
        2    1    3    3  502    0  0.36933784892E+03 -0.61751313570E+03 -0.13363820327E+04  0.15177779340E+04  0.25500000920E-02 0.  1.
       -2    1    3    3    0  502 -0.36933784892E+03  0.61751313570E+03  0.13289065910E+03  0.73170543711E+03  0.25500000920E-02 0. -1.
</event>
<event>
 5   0  0.2855141E-05  0.1904128E+04  0.7818609E-02  0.8652804E-01
        2   -1    0    0  501    0  0.00000000000E+00  0.00000000000E+00  0.70750602603E+03  0.70750602603E+03  0.25500000920E-02 0. -1.
       -2   -1    0    0    0  501  0.00000000000E+00  0.00000000000E+00 -0.12811566259E+04  0.12811566259E+04  0.25500000920E-02 0.  1.
    10030    2    1    2    0    0  0.00000000000E+00  0.00000000000E+00 -0.57365059983E+03  0.19886626519E+04  0.19041281817E+04 0.  0.
        1    1    3    3  502    0 -0.89711929250E+03 -0.27860085783E+03 -0.44857031544E+03  0.10409883721E+04  0.50400001928E-02 0.  1.
       -1    1    3    3    0  502  0.89711929250E+03  0.27860085783E+03 -0.12508028439E+03  0.94767427977E+03  0.50400001928E-02 0. -1.
</event>
<event>
 5   0  0.1413011E-05  0.1904891E+04  0.7818609E-02  0.8652426E-01
       -1   -1    0    0    0  501  0.00000000000E+00  0.00000000000E+00  0.42793694046E+03  0.42793694049E+03  0.50400001928E-02 0.  1.
        1   -1    0    0  501    0  0.00000000000E+00  0.00000000000E+00 -0.21198275418E+04  0.21198275418E+04  0.50400001928E-02 0. -1.
    10030    2    1    2    0    0  0.00000000000E+00  0.00000000000E+00 -0.16918906013E+04  0.25477644823E+04  0.19048910862E+04 0.  0.
        1    1    3    3  502    0 -0.25354323559E+03  0.66882367670E+03 -0.16871198169E+04  0.18324798933E+04  0.50400001928E-02 0. -1.
       -1    1    3    3    0  502  0.25354323559E+03 -0.66882367670E+03 -0.47707844369E+01  0.71528458898E+03  0.50400001928E-02 0.  1.
</event>
<event>
 5   0  0.2813537E-05  0.1898345E+04  0.7818609E-02  0.8655680E-01
        2   -1    0    0  501    0  0.00000000000E+00  0.00000000000E+00  0.23121524642E+04  0.23121524642E+04  0.25500000920E-02 0.  1.
       -2   -1    0    0    0  501  0.00000000000E+00  0.00000000000E+00 -0.38964939907E+03  0.38964939908E+03  0.25500000920E-02 0. -1.
    10030    2    1    2    0    0  0.00000000000E+00  0.00000000000E+00  0.19225030651E+04  0.27018018633E+04  0.18983454040E+04 0.  0.
        2    1    3    3  502    0  0.48378394339E+03  0.13937222729E+03  0.21064580909E+04  0.21657878960E+04  0.25500000920E-02 0.  1.
       -2    1    3    3    0  502 -0.48378394339E+03 -0.13937222729E+03 -0.18395502578E+03  0.53601396730E+03  0.25500000920E-02 0. -1.
</event>
<event>
 5   0  0.1010725E-05  0.1900975E+04  0.7818609E-02  0.8654371E-01
        3   -1    0    0  501    0  0.00000000000E+00  0.00000000000E+00  0.11123579464E+04  0.11123579510E+04  0.10100000352E+00 0.  1.
       -3   -1    0    0    0  501  0.00000000000E+00  0.00000000000E+00 -0.81217203560E+03  0.81217204188E+03  0.10100000352E+00 0. -1.
    10030    2    1    2    0    0  0.00000000000E+00  0.00000000000E+00  0.30018591083E+03  0.19245299929E+04  0.19009745165E+04 0.  0.
        1    1    3    3  502    0  0.41514149250E+03  0.81634029849E+03  0.40755121239E+03  0.10024230307E+04  0.50400001928E-02 0.  1.
       -1    1    3    3    0  502 -0.41514149250E+03 -0.81634029849E+03 -0.10736530156E+03  0.92210696220E+03  0.50400001928E-02 0. -1.
</event>
<event>
 5   0  0.1413011E-05  0.1900957E+04  0.7818609E-02  0.8654380E-01
       -1   -1    0    0    0  501  0.00000000000E+00  0.00000000000E+00  0.44535617307E+03  0.44535617310E+03  0.50400001928E-02 0.  1.
        1   -1    0    0  501    0  0.00000000000E+00  0.00000000000E+00 -0.20285095644E+04  0.20285095645E+04  0.50400001928E-02 0. -1.
    10030    2    1    2    0    0  0.00000000000E+00  0.00000000000E+00 -0.15831533914E+04  0.24738657376E+04  0.19009568714E+04 0.  0.
        1    1    3    3  502    0 -0.74690352429E+03  0.58226978085E+03 -0.89654794919E+03  0.13041093503E+04  0.50400001928E-02 0.  1.
       -1    1    3    3    0  502  0.74690352429E+03 -0.58226978085E+03 -0.68660544218E+03  0.11697563873E+04  0.50400001928E-02 0. -1.
</event>
<event>
 5   0  0.1429067E-05  0.1900315E+04  0.7818609E-02  0.8654700E-01
        1   -1    0    0  501    0  0.00000000000E+00  0.00000000000E+00  0.15408748030E+04  0.15408748030E+04  0.50400001928E-02 0.  1.
       -1   -1    0    0    0  501  0.00000000000E+00  0.00000000000E+00 -0.58590036677E+03  0.58590036679E+03  0.50400001928E-02 0. -1.
    10030    2    1    2    0    0  0.00000000000E+00  0.00000000000E+00  0.95497443624E+03  0.21267751698E+04  0.19003148289E+04 0.  0.
        3    1    3    3  502    0  0.69660163349E+03  0.56152049320E+03  0.83534168987E+03  0.12240730571E+04  0.10100000352E+00 0.  1.
       -3    1    3    3    0  502 -0.69660163349E+03 -0.56152049320E+03  0.11963274637E+03  0.90270211270E+03  0.10100000352E+00 0. -1.
</event>
<event>
 5   0  0.2888776E-05  0.1946415E+04  0.7818609E-02  0.8632091E-01
        2   -1    0    0  501    0  0.00000000000E+00  0.00000000000E+00  0.21923336389E+04  0.21923336389E+04  0.25500000920E-02 0.  1.
       -2   -1    0    0    0  501  0.00000000000E+00  0.00000000000E+00 -0.43202049375E+03  0.43202049376E+03  0.25500000920E-02 0. -1.
    10030    2    1    2    0    0  0.00000000000E+00  0.00000000000E+00  0.17603131452E+04  0.26243541327E+04  0.19464152293E+04 0.  0.
        3    1    3    3  502    0  0.80878258138E+02  0.10099974709E+03  0.21806844042E+04  0.21845197922E+04  0.10100000352E+00 0.  1.
       -3    1    3    3    0  502 -0.80878258138E+02 -0.10099974709E+03 -0.42037125897E+03  0.43983434055E+03  0.10100000352E+00 0. -1.
</event>
<event>
 5   0  0.2879462E-05  0.1900184E+04  0.7818609E-02  0.8654765E-01
       -2   -1    0    0    0  501  0.00000000000E+00  0.00000000000E+00  0.87365966074E+03  0.87365966074E+03  0.25500000920E-02 0. -1.
        2   -1    0    0  501    0  0.00000000000E+00  0.00000000000E+00 -0.10332109563E+04  0.10332109563E+04  0.25500000920E-02 0.  1.
    10030    2    1    2    0    0  0.00000000000E+00  0.00000000000E+00 -0.15955129561E+03  0.19068706171E+04  0.19001839212E+04 0.  0.
        4    1    3    3  502    0  0.39107933345E+02  0.43886042408E+03 -0.92448902844E+03  0.10241139970E+04  0.12699999809E+01 0.  1.
       -4    1    3    3    0  502 -0.39107933345E+02 -0.43886042408E+03  0.76493773283E+03  0.88275662007E+03  0.12699999809E+01 0. -1.
</event>
<event>
 5   0  0.1413011E-05  0.1898096E+04  0.7818609E-02  0.8655805E-01
       -1   -1    0    0    0  501  0.00000000000E+00  0.00000000000E+00  0.13192214294E+04  0.13192214294E+04  0.50400001928E-02 0.  1.
        1   -1    0    0  501    0  0.00000000000E+00  0.00000000000E+00 -0.68274518038E+03  0.68274518040E+03  0.50400001928E-02 0. -1.
    10030    2    1    2    0    0  0.00000000000E+00  0.00000000000E+00  0.63647624899E+03  0.20019666098E+04  0.18980959647E+04 0.  0.
        1    1    3    3  502    0 -0.47264066468E+03  0.24424743526E+03 -0.51067402152E+03  0.73745099079E+03  0.50400001928E-02 0. -1.
       -1    1    3    3    0  502  0.47264066468E+03 -0.24424743526E+03  0.11471502705E+04  0.12645156190E+04  0.50400001928E-02 0.  1.
</event>
<event>
 5   0  0.1327254E-05  0.1897357E+04  0.7818609E-02  0.8656173E-01
       -1   -1    0    0    0  501  0.00000000000E+00  0.00000000000E+00  0.77544460958E+03  0.77544460960E+03  0.50400001928E-02 0. -1.
        1   -1    0    0  501    0  0.00000000000E+00  0.00000000000E+00 -0.11606123330E+04  0.11606123330E+04  0.50400001928E-02 0.  1.
    10030    2    1    2    0    0  0.00000000000E+00  0.00000000000E+00 -0.38516772340E+03  0.19360569426E+04  0.18973566638E+04 0.  0.
        5    1    3    3  502    0  0.63399525495E+03 -0.21884237874E+03  0.49201543514E+03  0.83183126200E+03  0.46999998093E+01 0. -1.
       -5    1    3    3    0  502 -0.63399525495E+03  0.21884237874E+03 -0.87718315854E+03  0.11042256806E+04  0.46999998093E+01 0.  1.
</event>
<event>
 5   0  0.2888776E-05  0.1900507E+04  0.7818609E-02  0.8654604E-01
        2   -1    0    0  501    0  0.00000000000E+00  0.00000000000E+00  0.93713236291E+03  0.93713236291E+03  0.25500000920E-02 0. -1.
       -2   -1    0    0    0  501  0.00000000000E+00  0.00000000000E+00 -0.96355821825E+03  0.96355821825E+03  0.25500000920E-02 0.  1.
    10030    2    1    2    0    0  0.00000000000E+00  0.00000000000E+00 -0.26425855340E+02  0.19006905812E+04  0.19005068691E+04 0.  0.
        3    1    3    3  502    0  0.20527818680E+03 -0.43094713183E+03 -0.83495348500E+03  0.96177018915E+03  0.10100000352E+00 0.  1.
       -3    1    3    3    0  502 -0.20527818680E+03  0.43094713183E+03  0.80852762966E+03  0.93892039202E+03  0.10100000352E+00 0. -1.
</event>
<event>
 5   0  0.1471485E-05  0.1899655E+04  0.7818609E-02  0.8655028E-01
        1   -1    0    0  501    0  0.00000000000E+00  0.00000000000E+00  0.20068733534E+04  0.20068733534E+04  0.50400001928E-02 0.  1.
       -1   -1    0    0    0  501  0.00000000000E+00  0.00000000000E+00 -0.44954129468E+03  0.44954129471E+03  0.50400001928E-02 0. -1.
    10030    2    1    2    0    0  0.00000000000E+00  0.00000000000E+00  0.15573320587E+04  0.24564146481E+04  0.18996551746E+04 0.  0.
        4    1    3    3  502    0  0.84877311931E+03 -0.13866606285E+03  0.12999679510E+04  0.15587053511E+04  0.12699999809E+01 0.  1.
       -4    1    3    3    0  502 -0.84877311931E+03  0.13866606285E+03  0.25736410767E+03  0.89770929697E+03  0.12699999809E+01 0. -1.
</event>
<event>
 5   0  0.2888776E-05  0.1898177E+04  0.7818609E-02  0.8655765E-01
       -2   -1    0    0    0  501  0.00000000000E+00  0.00000000000E+00  0.66380688702E+03  0.66380688702E+03  0.25500000920E-02 0. -1.
        2   -1    0    0  501    0  0.00000000000E+00  0.00000000000E+00 -0.13569738252E+04  0.13569738252E+04  0.25500000920E-02 0.  1.
    10030    2    1    2    0    0  0.00000000000E+00  0.00000000000E+00 -0.69316693822E+03  0.20207807123E+04  0.18981765679E+04 0.  0.
        3    1    3    3  502    0 -0.53915514613E+03 -0.68995430182E+03 -0.73635060443E+03  0.11440880355E+04  0.10100000352E+00 0.  1.
       -3    1    3    3    0  502  0.53915514613E+03  0.68995430182E+03  0.43183666215E+02  0.87669267673E+03  0.10100000352E+00 0. -1.
</event>
<event>
 5   0  0.1010725E-05  0.1898293E+04  0.7818609E-02  0.8655707E-01
       -3   -1    0    0    0  501  0.00000000000E+00  0.00000000000E+00  0.73758079260E+03  0.73758079952E+03  0.10100000352E+00 0. -1.
        3   -1    0    0  501    0  0.00000000000E+00  0.00000000000E+00 -0.12213967765E+04  0.12213967807E+04  0.10100000352E+00 0.  1.
    10030    2    1    2    0    0  0.00000000000E+00  0.00000000000E+00 -0.48381598388E+03  0.19589775802E+04  0.18982927207E+04 0.  0.
        4    1    3    3  502    0  0.85206488296E+03  0.39966313640E+03 -0.36885271048E+03  0.10108407997E+04  0.12699999809E+01 0. -1.
       -4    1    3    3    0  502 -0.85206488296E+03 -0.39966313640E+03 -0.11496327340E+03  0.94813678049E+03  0.12699999809E+01 0.  1.
</event>
<event>
 5   0  0.1344119E-05  0.1900639E+04  0.7818609E-02  0.8654538E-01
       -1   -1    0    0    0  501  0.00000000000E+00  0.00000000000E+00  0.47463233572E+03  0.47463233575E+03  0.50400001928E-02 0. -1.
        1   -1    0    0  501    0  0.00000000000E+00  0.00000000000E+00 -0.19027511469E+04  0.19027511469E+04  0.50400001928E-02 0.  1.
    10030    2    1    2    0    0  0.00000000000E+00  0.00000000000E+00 -0.14281188112E+04  0.23773834826E+04  0.19006390727E+04 0.  0.
        2    1    3    3  502    0  0.91974688565E+03 -0.13167997047E+03 -0.46441457144E+03  0.10387275112E+04  0.25500000920E-02 0. -1.
       -2    1    3    3    0  502 -0.91974688565E+03  0.13167997047E+03 -0.96370423973E+03  0.13386559715E+04  0.25500000920E-02 0.  1.
</event>
<event>
 5   0  0.2789718E-05  0.1899912E+04  0.7818609E-02  0.8654900E-01
        2   -1    0    0  501    0  0.00000000000E+00  0.00000000000E+00  0.12116478825E+04  0.12116478825E+04  0.25500000920E-02 0.  1.
       -2   -1    0    0    0  501  0.00000000000E+00  0.00000000000E+00 -0.74478420879E+03  0.74478420879E+03  0.25500000920E-02 0. -1.
    10030    2    1    2    0    0  0.00000000000E+00  0.00000000000E+00  0.46686367373E+03  0.19564320913E+04  0.18999117974E+04 0.  0.
        5    1    3    3  502    0  0.67363071318E+02  0.89530589338E+03  0.55295894520E+03  0.10544648459E+04  0.46999998093E+01 0.  1.
       -5    1    3    3    0  502 -0.67363071318E+02 -0.89530589338E+03 -0.86095271465E+02  0.90196724545E+03  0.46999998093E+01 0. -1.
</event>
<event>
 5   0  0.1413011E-05  0.1901312E+04  0.7818609E-02  0.8654204E-01
        1   -1    0    0  501    0  0.00000000000E+00  0.00000000000E+00  0.67320084533E+03  0.67320084535E+03  0.50400001928E-02 0. -1.
       -1   -1    0    0    0  501  0.00000000000E+00  0.00000000000E+00 -0.13424619256E+04  0.13424619256E+04  0.50400001928E-02 0.  1.
    10030    2    1    2    0    0  0.00000000000E+00  0.00000000000E+00 -0.66926108023E+03  0.20156627709E+04  0.19013116558E+04 0.  0.
        1    1    3    3  502    0 -0.10226354601E+03 -0.24349236866E+03  0.63353055048E+03  0.68637258457E+03  0.50400001928E-02 0. -1.
       -1    1    3    3    0  502  0.10226354601E+03  0.24349236866E+03 -0.13027916307E+04  0.13292901863E+04  0.50400001928E-02 0.  1.
</event>
<event>
 5   0  0.1413011E-05  0.1902093E+04  0.7818609E-02  0.8653815E-01
       -1   -1    0    0    0  501  0.00000000000E+00  0.00000000000E+00  0.12161130389E+04  0.12161130389E+04  0.50400001928E-02 0.  1.
        1   -1    0    0  501    0  0.00000000000E+00  0.00000000000E+00 -0.74375469948E+03  0.74375469949E+03  0.50400001928E-02 0. -1.
    10030    2    1    2    0    0  0.00000000000E+00  0.00000000000E+00  0.47235833940E+03  0.19598677384E+04  0.19020933603E+04 0.  0.
        1    1    3    3  502    0 -0.51225337112E+03  0.14631787807E+03 -0.57558127089E+03  0.78428708844E+03  0.50400001928E-02 0. -1.
       -1    1    3    3    0  502  0.51225337112E+03 -0.14631787807E+03  0.10479396103E+04  0.11755806499E+04  0.50400001928E-02 0.  1.
</event>
<event>
 5   0  0.2789718E-05  0.1902958E+04  0.7818609E-02  0.8653385E-01
       -2   -1    0    0    0  501  0.00000000000E+00  0.00000000000E+00  0.56837562356E+03  0.56837562356E+03  0.25500000920E-02 0.  1.
        2   -1    0    0  501    0  0.00000000000E+00  0.00000000000E+00 -0.15928062669E+04  0.15928062669E+04  0.25500000920E-02 0. -1.
    10030    2    1    2    0    0  0.00000000000E+00  0.00000000000E+00 -0.10244306433E+04  0.21611818904E+04  0.19029579661E+04 0.  0.
        5    1    3    3  502    0  0.57519603077E+03  0.98734516226E+02  0.34121413581E+03  0.67605336696E+03  0.46999998093E+01 0.  1.
       -5    1    3    3    0  502 -0.57519603077E+03 -0.98734516226E+02 -0.13656447791E+04  0.14851285235E+04  0.46999998093E+01 0. -1.
</event>
<event>
 5   0  0.1471485E-05  0.1902484E+04  0.7818609E-02  0.8653621E-01
       -1   -1    0    0    0  501  0.00000000000E+00  0.00000000000E+00  0.45817790881E+03  0.45817790884E+03  0.50400001928E-02 0. -1.
        1   -1    0    0  501    0  0.00000000000E+00  0.00000000000E+00 -0.19749132740E+04  0.19749132740E+04  0.50400001928E-02 0.  1.
    10030    2    1    2    0    0  0.00000000000E+00  0.00000000000E+00 -0.15167353652E+04  0.24330911829E+04  0.19024843064E+04 0.  0.
        4    1    3    3  502    0 -0.67941774773E+03  0.46160890958E+03 -0.13719325595E+04  0.15990283994E+04  0.12699999809E+01 0.  1.
       -4    1    3    3    0  502  0.67941774773E+03 -0.46160890958E+03 -0.14480280571E+03  0.83406278348E+03  0.12699999809E+01 0. -1.
</event>
<event>
 5   0  0.1413011E-05  0.1903020E+04  0.7818609E-02  0.8653355E-01
        1   -1    0    0  501    0  0.00000000000E+00  0.00000000000E+00  0.23533199550E+04  0.23533199550E+04  0.50400001928E-02 0.  1.
       -1   -1    0    0    0  501  0.00000000000E+00  0.00000000000E+00 -0.38472075931E+03  0.38472075934E+03  0.50400001928E-02 0. -1.
    10030    2    1    2    0    0  0.00000000000E+00  0.00000000000E+00  0.19685991957E+04  0.27380407144E+04  0.19030197477E+04 0.  0.
        1    1    3    3  502    0 -0.31853182022E+03 -0.42350545864E+03  0.21213527996E+04  0.21865399823E+04  0.50400001928E-02 0.  1.
       -1    1    3    3    0  502  0.31853182022E+03  0.42350545864E+03 -0.15275360382E+03  0.55150073209E+03  0.50400001928E-02 0. -1.
</event>
<event>
 5   0  0.2789718E-05  0.1899763E+04  0.7818609E-02  0.8654974E-01
        2   -1    0    0  501    0  0.00000000000E+00  0.00000000000E+00  0.87427536002E+03  0.87427536003E+03  0.25500000920E-02 0.  1.
       -2   -1    0    0    0  501  0.00000000000E+00  0.00000000000E+00 -0.10320256764E+04  0.10320256764E+04  0.25500000920E-02 0. -1.
    10030    2    1    2    0    0  0.00000000000E+00  0.00000000000E+00 -0.15775031634E+03  0.19063010364E+04  0.18997627428E+04 0.  0.
        5    1    3    3  502    0 -0.48420836071E+03  0.43984395493E+03  0.61221287134E+03  0.89596156787E+03  0.46999998093E+01 0.  1.
       -5    1    3    3    0  502  0.48420836071E+03 -0.43984395493E+03 -0.76996318768E+03  0.10103394685E+04  0.46999998093E+01 0. -1.
</event>
<event>
 5   0  0.1327254E-05  0.1911794E+04  0.7818609E-02  0.8649008E-01
        1   -1    0    0  501    0  0.00000000000E+00  0.00000000000E+00  0.66750465410E+03  0.66750465412E+03  0.50400001928E-02 0.  1.
       -1   -1    0    0    0  501  0.00000000000E+00  0.00000000000E+00 -0.13688885783E+04  0.13688885783E+04  0.50400001928E-02 0. -1.
    10030    2    1    2    0    0  0.00000000000E+00  0.00000000000E+00 -0.70138392421E+03  0.20363932324E+04  0.19117944419E+04 0.  0.
        5    1    3    3  502    0 -0.68859090182E+03  0.30865170208E+03 -0.97569948249E+03  0.12334645813E+04  0.46999998093E+01 0. -1.
       -5    1    3    3    0  502  0.68859090182E+03 -0.30865170208E+03  0.27431555828E+03  0.80292865111E+03  0.46999998093E+01 0.  1.
</event>
<event>
 5   0  0.2888776E-05  0.1900449E+04  0.7818609E-02  0.8654633E-01
       -2   -1    0    0    0  501  0.00000000000E+00  0.00000000000E+00  0.49306234024E+03  0.49306234025E+03  0.25500000920E-02 0.  1.
        2   -1    0    0  501    0  0.00000000000E+00  0.00000000000E+00 -0.18312628010E+04  0.18312628010E+04  0.25500000920E-02 0. -1.
    10030    2    1    2    0    0  0.00000000000E+00  0.00000000000E+00 -0.13382004608E+04  0.23243251413E+04  0.19004491283E+04 0.  0.
        3    1    3    3  502    0 -0.23056047514E+03 -0.23503937463E+03 -0.17592707512E+04  0.17898142995E+04  0.10100000352E+00 0. -1.
       -3    1    3    3    0  502  0.23056047514E+03  0.23503937463E+03  0.42107029043E+03  0.53451084181E+03  0.10100000352E+00 0.  1.
</event>
<event>
 5   0  0.1344119E-05  0.1901411E+04  0.7818609E-02  0.8654154E-01
       -1   -1    0    0    0  501  0.00000000000E+00  0.00000000000E+00  0.59071986476E+03  0.59071986478E+03  0.50400001928E-02 0. -1.
        1   -1    0    0  501    0  0.00000000000E+00  0.00000000000E+00 -0.15300673915E+04  0.15300673915E+04  0.50400001928E-02 0.  1.
    10030    2    1    2    0    0  0.00000000000E+00  0.00000000000E+00 -0.93934752673E+03  0.21207872563E+04  0.19014112681E+04 0.  0.
        2    1    3    3  502    0 -0.47337810300E+03  0.60477867550E+03 -0.10946793216E+04  0.13372235759E+04  0.25500000920E-02 0.  1.
       -2    1    3    3    0  502  0.47337810300E+03 -0.60477867550E+03  0.15533179488E+03  0.78356368040E+03  0.25500000920E-02 0. -1.
</event>
<event>
 5   0  0.1471485E-05  0.1902082E+04  0.7818609E-02  0.8653821E-01
        1   -1    0    0  501    0  0.00000000000E+00  0.00000000000E+00  0.83394418141E+03  0.83394418143E+03  0.50400001928E-02 0.  1.
       -1   -1    0    0    0  501  0.00000000000E+00  0.00000000000E+00 -0.10845802196E+04  0.10845802196E+04  0.50400001928E-02 0. -1.
    10030    2    1    2    0    0  0.00000000000E+00  0.00000000000E+00 -0.25063603820E+03  0.19185244011E+04  0.19020823993E+04 0.  0.
        4    1    3    3  502    0  0.28551793101E+02  0.65245482032E+03 -0.82264450853E+03  0.10503609369E+04  0.12699999809E+01 0. -1.
       -4    1    3    3    0  502 -0.28551793101E+02 -0.65245482032E+03  0.57200847033E+03  0.86816346415E+03  0.12699999809E+01 0.  1.
</event>
<event>
 5   0  0.1413011E-05  0.1903135E+04  0.7818609E-02  0.8653298E-01
        1   -1    0    0  501    0  0.00000000000E+00  0.00000000000E+00  0.18354187959E+04  0.18354187959E+04  0.50400001928E-02 0. -1.
       -1   -1    0    0    0  501  0.00000000000E+00  0.00000000000E+00 -0.49333713658E+03  0.49333713661E+03  0.50400001928E-02 0.  1.
    10030    2    1    2    0    0  0.00000000000E+00  0.00000000000E+00  0.13420816593E+04  0.23287559325E+04  0.19031345231E+04 0.  0.
        1    1    3    3  502    0 -0.18779624826E+03 -0.79469402582E+03  0.12688426728E+04  0.15088962038E+04  0.50400001928E-02 0. -1.
       -1    1    3    3    0  502  0.18779624826E+03  0.79469402582E+03  0.73238986477E+02  0.81985972867E+03  0.50400001928E-02 0.  1.
</event>
<event>
 5   0  0.1471485E-05  0.1899055E+04  0.7818609E-02  0.8655327E-01
       -1   -1    0    0    0  501  0.00000000000E+00  0.00000000000E+00  0.46418977782E+03  0.46418977785E+03  0.50400001928E-02 0.  1.
        1   -1    0    0  501    0  0.00000000000E+00  0.00000000000E+00 -0.19423147128E+04  0.19423147128E+04  0.50400001928E-02 0. -1.
    10030    2    1    2    0    0  0.00000000000E+00  0.00000000000E+00 -0.14781249349E+04  0.24065044906E+04  0.18990551704E+04 0.  0.
        4    1    3    3  502    0 -0.94594983901E+02  0.63292676286E+03  0.14984507607E+03  0.65726680872E+03  0.12699999809E+01 0.  1.
       -4    1    3    3    0  502  0.94594983901E+02 -0.63292676286E+03 -0.16279700110E+04  0.17492376819E+04  0.12699999809E+01 0. -1.
</event>
<event>
 5   0  0.2813537E-05  0.1901609E+04  0.7818609E-02  0.8654056E-01
       -2   -1    0    0    0  501  0.00000000000E+00  0.00000000000E+00  0.29825010543E+03  0.29825010544E+03  0.25500000920E-02 0.  1.
        2   -1    0    0  501    0  0.00000000000E+00  0.00000000000E+00 -0.30311100234E+04  0.30311100234E+04  0.25500000920E-02 0. -1.
    10030    2    1    2    0    0  0.00000000000E+00  0.00000000000E+00 -0.27328599179E+04  0.33293601288E+04  0.19016086706E+04 0.  0.
        2    1    3    3  502    0  0.13893137885E+03 -0.67203971705E+02  0.27617419994E+03  0.31637081181E+03  0.25500000920E-02 0.  1.
       -2    1    3    3    0  502 -0.13893137885E+03  0.67203971705E+02 -0.30090341179E+04  0.30129893170E+04  0.25500000920E-02 0. -1.
</event>
<event>
 5   0  0.2855141E-05  0.1908324E+04  0.7818609E-02  0.8650724E-01
       -2   -1    0    0    0  501  0.00000000000E+00  0.00000000000E+00  0.11481396816E+04  0.11481396816E+04  0.25500000920E-02 0.  1.
        2   -1    0    0  501    0  0.00000000000E+00  0.00000000000E+00 -0.79295666153E+03  0.79295666153E+03  0.25500000920E-02 0. -1.
    10030    2    1    2    0    0  0.00000000000E+00  0.00000000000E+00  0.35518302007E+03  0.19410963431E+04  0.19083238812E+04 0.  0.
        1    1    3    3  502    0  0.21014707468E+03  0.67708866351E+03 -0.47197878382E+03  0.85168939388E+03  0.50400001928E-02 0. -1.
       -1    1    3    3    0  502 -0.21014707468E+03 -0.67708866351E+03  0.82716180389E+03  0.10894069493E+04  0.50400001928E-02 0.  1.
</event>
<event>
 5   0  0.2888776E-05  0.1900840E+04  0.7818609E-02  0.8654438E-01
       -2   -1    0    0    0  501  0.00000000000E+00  0.00000000000E+00  0.58202934522E+03  0.58202934522E+03  0.25500000920E-02 0.  1.
        2   -1    0    0  501    0  0.00000000000E+00  0.00000000000E+00 -0.15519805681E+04  0.15519805681E+04  0.25500000920E-02 0. -1.
    10030    2    1    2    0    0  0.00000000000E+00  0.00000000000E+00 -0.96995122285E+03  0.21340099133E+04  0.19008400604E+04 0.  0.
        3    1    3    3  502    0  0.75827921214E+03  0.29236336319E+03 -0.10382060562E+04  0.13184595273E+04  0.10100000352E+00 0. -1.
       -3    1    3    3    0  502 -0.75827921214E+03 -0.29236336319E+03  0.68254833341E+02  0.81555038604E+03  0.10100000352E+00 0.  1.
</event>
<event>
 5   0  0.2855141E-05  0.1907377E+04  0.7818609E-02  0.8651193E-01
        2   -1    0    0  501    0  0.00000000000E+00  0.00000000000E+00  0.10907437781E+04  0.10907437781E+04  0.25500000920E-02 0. -1.
       -2   -1    0    0    0  501  0.00000000000E+00  0.00000000000E+00 -0.83385440097E+03  0.83385440097E+03  0.25500000920E-02 0.  1.
    10030    2    1    2    0    0  0.00000000000E+00  0.00000000000E+00  0.25688937711E+03  0.19245981791E+04  0.19073767323E+04 0.  0.
        1    1    3    3  502    0 -0.87384224921E+03  0.37942870484E+03  0.17306021048E+03  0.96825423058E+03  0.50400001928E-02 0. -1.
       -1    1    3    3    0  502  0.87384224921E+03 -0.37942870484E+03  0.83829166636E+02  0.95634394847E+03  0.50400001928E-02 0.  1.
</event>
<event>
 5   0  0.2879462E-05  0.1900968E+04  0.7818609E-02  0.8654375E-01
        2   -1    0    0  501    0  0.00000000000E+00  0.00000000000E+00  0.21024945110E+04  0.21024945110E+04  0.25500000920E-02 0.  1.
       -2   -1    0    0    0  501  0.00000000000E+00  0.00000000000E+00 -0.42968962892E+03  0.42968962893E+03  0.25500000920E-02 0. -1.
    10030    2    1    2    0    0  0.00000000000E+00  0.00000000000E+00  0.16728048821E+04  0.25321841400E+04  0.19009682651E+04 0.  0.
        4    1    3    3  502    0  0.47133292037E+03  0.68864251337E+03  0.14425000279E+04  0.16664906770E+04  0.12699999809E+01 0.  1.
       -4    1    3    3    0  502 -0.47133292037E+03 -0.68864251337E+03  0.23030485416E+03  0.86569346295E+03  0.12699999809E+01 0. -1.
</event>
<event>
 5   0  0.1429067E-05  0.1904713E+04  0.7818609E-02  0.8652514E-01
       -1   -1    0    0    0  501  0.00000000000E+00  0.00000000000E+00  0.40323948808E+03  0.40323948811E+03  0.50400001928E-02 0.  1.
        1   -1    0    0  501    0  0.00000000000E+00  0.00000000000E+00 -0.22492417371E+04  0.22492417371E+04  0.50400001928E-02 0. -1.
    10030    2    1    2    0    0  0.00000000000E+00  0.00000000000E+00 -0.18460022490E+04  0.26524812252E+04  0.19047131928E+04 0.  0.
        3    1    3    3  502    0 -0.71948272601E+03  0.67760443205E+02 -0.59218910086E+02  0.72508879470E+03  0.10100000352E+00 0.  1.
       -3    1    3    3    0  502  0.71948272601E+03 -0.67760443205E+02 -0.17867833389E+04  0.19273924305E+04  0.10100000352E+00 0. -1.
</event>
<event>
 5   0  0.1413011E-05  0.1901039E+04  0.7818609E-02  0.8654339E-01
        1   -1    0    0  501    0  0.00000000000E+00  0.00000000000E+00  0.15240198710E+04  0.15240198710E+04  0.50400001928E-02 0. -1.
       -1   -1    0    0    0  501  0.00000000000E+00  0.00000000000E+00 -0.59283180418E+03  0.59283180420E+03  0.50400001928E-02 0.  1.
    10030    2    1    2    0    0  0.00000000000E+00  0.00000000000E+00  0.93118806682E+03  0.21168516752E+04  0.19010391366E+04 0.  0.
        1    1    3    3  502    0  0.17744004456E+03 -0.51281930079E+03 -0.40339588217E+03  0.67616332528E+03  0.50400001928E-02 0.  1.
       -1    1    3    3    0  502 -0.17744004456E+03  0.51281930079E+03  0.13345839490E+04  0.14406883499E+04  0.50400001928E-02 0. -1.
</event>
<event>
 5   0  0.1010725E-05  0.1896517E+04  0.7818609E-02  0.8656592E-01
        3   -1    0    0  501    0  0.00000000000E+00  0.00000000000E+00  0.10959067839E+04  0.10959067886E+04  0.10100000352E+00 0.  1.
       -3   -1    0    0    0  501  0.00000000000E+00  0.00000000000E+00 -0.82050202764E+03  0.82050203386E+03  0.10100000352E+00 0. -1.
    10030    2    1    2    0    0  0.00000000000E+00  0.00000000000E+00  0.27540475630E+03  0.19164088225E+04  0.18965165422E+04 0.  0.
        3    1    3    3  502    0 -0.42868053038E+03 -0.73534407732E+03  0.56005266630E+03  0.10188998520E+04  0.10100000352E+00 0.  1.
       -3    1    3    3    0  502  0.42868053038E+03  0.73534407732E+03 -0.28464791000E+03  0.89750897046E+03  0.10100000352E+00 0. -1.
</event>
<event>
 5   0  0.1413011E-05  0.1899278E+04  0.7818609E-02  0.8655216E-01
        1   -1    0    0  501    0  0.00000000000E+00  0.00000000000E+00  0.13630866707E+04  0.13630866707E+04  0.50400001928E-02 0. -1.
       -1   -1    0    0    0  501  0.00000000000E+00  0.00000000000E+00 -0.66159700585E+03  0.66159700586E+03  0.50400001928E-02 0.  1.
    10030    2    1    2    0    0  0.00000000000E+00  0.00000000000E+00  0.70148966485E+03  0.20246836766E+04  0.18992778207E+04 0.  0.
        1    1    3    3  502    0  0.38685601059E+03 -0.83679112508E+03  0.59368959080E+03  0.10965146101E+04  0.50400001928E-02 0. -1.
       -1    1    3    3    0  502 -0.38685601059E+03  0.83679112508E+03  0.10780007405E+03  0.92816906646E+03  0.50400001928E-02 0.  1.
</event>
<event>
 5   0  0.1471485E-05  0.1896558E+04  0.7818609E-02  0.8656572E-01
       -1   -1    0    0    0  501  0.00000000000E+00  0.00000000000E+00  0.14827170220E+04  0.14827170220E+04  0.50400001928E-02 0.  1.
        1   -1    0    0  501    0  0.00000000000E+00  0.00000000000E+00 -0.60647635206E+03  0.60647635208E+03  0.50400001928E-02 0. -1.
    10030    2    1    2    0    0  0.00000000000E+00  0.00000000000E+00  0.87624066993E+03  0.20891933741E+04  0.18965577351E+04 0.  0.
        4    1    3    3  502    0  0.43543701193E+03 -0.10167418652E+03  0.13592921919E+04  0.14309507005E+04  0.12699999809E+01 0.  1.
       -4    1    3    3    0  502 -0.43543701193E+03  0.10167418652E+03 -0.48305152193E+03  0.65824267356E+03  0.12699999809E+01 0. -1.
</event>
<event>
 5   0  0.1429067E-05  0.1888903E+04  0.7818609E-02  0.8660400E-01
        1   -1    0    0  501    0  0.00000000000E+00  0.00000000000E+00  0.18987713889E+04  0.18987713889E+04  0.50400001928E-02 0.  1.
       -1   -1    0    0    0  501  0.00000000000E+00  0.00000000000E+00 -0.46977158032E+03  0.46977158035E+03  0.50400001928E-02 0. -1.
    10030    2    1    2    0    0  0.00000000000E+00  0.00000000000E+00  0.14289998086E+04  0.23685429693E+04  0.18889032120E+04 0.  0.
        3    1    3    3  502    0 -0.59358273367E+03  0.50032810731E+03  0.13889672110E+04  0.15911940800E+04  0.10100000352E+00 0.  1.
       -3    1    3    3    0  502  0.59358273367E+03 -0.50032810731E+03  0.40032597611E+02  0.77734888933E+03  0.10100000352E+00 0. -1.
</event>
<event>
 5   0  0.2879462E-05  0.1900353E+04  0.7818609E-02  0.8654681E-01
       -2   -1    0    0    0  501  0.00000000000E+00  0.00000000000E+00  0.10583700355E+04  0.10583700355E+04  0.25500000920E-02 0.  1.
        2   -1    0    0  501    0  0.00000000000E+00  0.00000000000E+00 -0.85304305193E+03  0.85304305194E+03  0.25500000920E-02 0. -1.
    10030    2    1    2    0    0  0.00000000000E+00  0.00000000000E+00  0.20532698356E+03  0.19114130874E+04  0.19003528148E+04 0.  0.
        4    1    3    3  502    0  0.35027388895E+03 -0.30386760283E+03  0.93683121908E+03  0.10453141457E+04  0.12699999809E+01 0.  1.
       -4    1    3    3    0  502 -0.35027388895E+03  0.30386760283E+03 -0.73150423552E+03  0.86609894170E+03  0.12699999809E+01 0. -1.
</event>
<event>
 5   0  0.1344119E-05  0.1894643E+04  0.7818609E-02  0.8657528E-01
        1   -1    0    0  501    0  0.00000000000E+00  0.00000000000E+00  0.80960550709E+03  0.80960550711E+03  0.50400001928E-02 0.  1.
       -1   -1    0    0    0  501  0.00000000000E+00  0.00000000000E+00 -0.11084628971E+04  0.11084628971E+04  0.50400001928E-02 0. -1.
    10030    2    1    2    0    0  0.00000000000E+00  0.00000000000E+00 -0.29885739004E+03  0.19180684043E+04  0.18946426217E+04 0.  0.
        2    1    3    3  502    0 -0.78860948084E+03  0.20602988686E+03 -0.63816521806E+03  0.10351850429E+04  0.25500000920E-02 0. -1.
       -2    1    3    3    0  502  0.78860948084E+03 -0.20602988686E+03  0.33930782802E+03  0.88288336133E+03  0.25500000920E-02 0.  1.
</event>
<event>
 5   0  0.1429067E-05  0.1895669E+04  0.7818609E-02  0.8657015E-01
        1   -1    0    0  501    0  0.00000000000E+00  0.00000000000E+00  0.14919571013E+04  0.14919571013E+04  0.50400001928E-02 0. -1.
       -1   -1    0    0    0  501  0.00000000000E+00  0.00000000000E+00 -0.60215523312E+03  0.60215523314E+03  0.50400001928E-02 0.  1.
    10030    2    1    2    0    0  0.00000000000E+00  0.00000000000E+00  0.88980186822E+03  0.20941123345E+04  0.18956685113E+04 0.  0.
        3    1    3    3  502    0  0.72428907671E+03  0.34529693010E+03 -0.11246065447E+03  0.81022962522E+03  0.10100000352E+00 0.  1.
       -3    1    3    3    0  502 -0.72428907671E+03 -0.34529693010E+03  0.10022625227E+04  0.12838827093E+04  0.10100000352E+00 0. -1.
</event>
<event>
 5   0  0.2789718E-05  0.1887552E+04  0.7818609E-02  0.8661077E-01
       -2   -1    0    0    0  501  0.00000000000E+00  0.00000000000E+00  0.34059128186E+03  0.34059128187E+03  0.25500000920E-02 0.  1.
        2   -1    0    0  501    0  0.00000000000E+00  0.00000000000E+00 -0.26151974585E+04  0.26151974585E+04  0.25500000920E-02 0. -1.
    10030    2    1    2    0    0  0.00000000000E+00  0.00000000000E+00 -0.22746061766E+04  0.29557887404E+04  0.18875523354E+04 0.  0.
        5    1    3    3  502    0 -0.55113906382E+03  0.35704549101E+03 -0.21987448481E+04  0.22947193178E+04  0.46999998093E+01 0. -1.
       -5    1    3    3    0  502  0.55113906382E+03 -0.35704549101E+03 -0.75861328537E+02  0.66106942259E+03  0.46999998093E+01 0.  1.
</event>
<event>
 5   0  0.1344119E-05  0.1899671E+04  0.7818609E-02  0.8655020E-01
        1   -1    0    0  501    0  0.00000000000E+00  0.00000000000E+00  0.15062393597E+04  0.15062393598E+04  0.50400001928E-02 0. -1.
       -1   -1    0    0    0  501  0.00000000000E+00  0.00000000000E+00 -0.59896667789E+03  0.59896667791E+03  0.50400001928E-02 0.  1.
    10030    2    1    2    0    0  0.00000000000E+00  0.00000000000E+00  0.90727268186E+03  0.21052060377E+04  0.18996706930E+04 0.  0.
        2    1    3    3  502    0  0.66139677785E+03 -0.25413242220E+03  0.11546591429E+04  0.13547201638E+04  0.25500000920E-02 0. -1.
       -2    1    3    3    0  502 -0.66139677785E+03  0.25413242220E+03 -0.24738646108E+03  0.75048587389E+03  0.25500000920E-02 0.  1.
</event>
<event>
 5   0  0.1327254E-05  0.1879953E+04  0.7818609E-02  0.8664900E-01
        1   -1    0    0  501    0  0.00000000000E+00  0.00000000000E+00  0.78792854552E+03  0.78792854553E+03  0.50400001928E-02 0. -1.
       -1   -1    0    0    0  501  0.00000000000E+00  0.00000000000E+00 -0.11213657691E+04  0.11213657691E+04  0.50400001928E-02 0.  1.
    10030    2    1    2    0    0  0.00000000000E+00  0.00000000000E+00 -0.33343722356E+03  0.19092943146E+04  0.18799532967E+04 0.  0.
        5    1    3    3  502    0  0.51292948517E+03  0.62432702726E+03 -0.65447782538E+03  0.10398289319E+04  0.46999998093E+01 0.  1.
       -5    1    3    3    0  502 -0.51292948517E+03 -0.62432702726E+03  0.32104060182E+03  0.86946538271E+03  0.46999998093E+01 0. -1.
</event>
<event>
 5   0  0.1327254E-05  0.1897447E+04  0.7818609E-02  0.8656128E-01
        1   -1    0    0  501    0  0.00000000000E+00  0.00000000000E+00  0.24102679998E+04  0.24102679998E+04  0.50400001928E-02 0. -1.
       -1   -1    0    0    0  501  0.00000000000E+00  0.00000000000E+00 -0.37343411476E+03  0.37343411479E+03  0.50400001928E-02 0.  1.
    10030    2    1    2    0    0  0.00000000000E+00  0.00000000000E+00  0.20368338851E+04  0.27837021146E+04  0.18974470184E+04 0.  0.
        5    1    3    3  502    0 -0.70966763248E+03 -0.28091181612E+03  0.18450922354E+04  0.19967290864E+04  0.46999998093E+01 0. -1.
       -5    1    3    3    0  502  0.70966763248E+03  0.28091181612E+03  0.19174164964E+03  0.78697302828E+03  0.46999998093E+01 0.  1.
</event>
<event>
 5   0  0.2813537E-05  0.1901301E+04  0.7818609E-02  0.8654209E-01
       -2   -1    0    0    0  501  0.00000000000E+00  0.00000000000E+00  0.44190347128E+03  0.44190347129E+03  0.25500000920E-02 0. -1.
        2   -1    0    0  501    0  0.00000000000E+00  0.00000000000E+00 -0.20451000158E+04  0.20451000158E+04  0.25500000920E-02 0.  1.
    10030    2    1    2    0    0  0.00000000000E+00  0.00000000000E+00 -0.16031965445E+04  0.24870034870E+04  0.19013014449E+04 0.  0.
        2    1    3    3  502    0 -0.38478813707E+03 -0.39032105886E+03 -0.18176149694E+04  0.18984563773E+04  0.25500000920E-02 0.  1.
       -2    1    3    3    0  502  0.38478813707E+03  0.39032105886E+03  0.21441842496E+03  0.58854710975E+03  0.25500000920E-02 0. -1.
</event>
<event>
 5   0  0.2813537E-05  0.1898219E+04  0.7818609E-02  0.8655744E-01
        2   -1    0    0  501    0  0.00000000000E+00  0.00000000000E+00  0.63061953269E+03  0.63061953269E+03  0.25500000920E-02 0. -1.
       -2   -1    0    0    0  501  0.00000000000E+00  0.00000000000E+00 -0.14284501266E+04  0.14284501266E+04  0.25500000920E-02 0.  1.
    10030    2    1    2    0    0  0.00000000000E+00  0.00000000000E+00 -0.79783059393E+03  0.20590696593E+04  0.18982186927E+04 0.  0.
        2    1    3    3  502    0  0.26869353314E+02  0.73210123344E+03 -0.10534666197E+04  0.12831547440E+04  0.25500000920E-02 0.  1.
       -2    1    3    3    0  502 -0.26869353314E+02 -0.73210123344E+03  0.25563602578E+03  0.77591491533E+03  0.25500000920E-02 0. -1.
</event>
<event>
 5   0  0.2789718E-05  0.1898525E+04  0.7818609E-02  0.8655591E-01
        2   -1    0    0  501    0  0.00000000000E+00  0.00000000000E+00  0.10629179321E+04  0.10629179321E+04  0.25500000920E-02 0.  1.
       -2   -1    0    0    0  501  0.00000000000E+00  0.00000000000E+00 -0.84775969297E+03  0.84775969297E+03  0.25500000920E-02 0. -1.
    10030    2    1    2    0    0  0.00000000000E+00  0.00000000000E+00  0.21515823911E+03  0.19106776251E+04  0.18985246691E+04 0.  0.
        5    1    3    3  502    0  0.77037488715E+03  0.46640549072E+03  0.40960907777E+03  0.98934990530E+03  0.46999998093E+01 0.  1.
       -5    1    3    3    0  502 -0.77037488715E+03 -0.46640549072E+03 -0.19445083867E+03  0.92132771975E+03  0.46999998093E+01 0. -1.
</event>
<event>
 5   0  0.2879462E-05  0.1899999E+04  0.7818609E-02  0.8654857E-01
        2   -1    0    0  501    0  0.00000000000E+00  0.00000000000E+00  0.10169985908E+04  0.10169985908E+04  0.25500000920E-02 0. -1.
       -2   -1    0    0    0  501  0.00000000000E+00  0.00000000000E+00 -0.88741406743E+03  0.88741406744E+03  0.25500000920E-02 0.  1.
    10030    2    1    2    0    0  0.00000000000E+00  0.00000000000E+00  0.12958452334E+03  0.19044126582E+04  0.18999987958E+04 0.  0.
        4    1    3    3  502    0 -0.53957390623E+03  0.40128852640E+03  0.73741361046E+03  0.99797441225E+03  0.12699999809E+01 0. -1.
       -4    1    3    3    0  502  0.53957390623E+03 -0.40128852640E+03 -0.60782908712E+03  0.90643824597E+03  0.12699999809E+01 0.  1.
</event>
<event>
 5   0  0.1413011E-05  0.1905886E+04  0.7818609E-02  0.8651932E-01
       -1   -1    0    0    0  501  0.00000000000E+00  0.00000000000E+00  0.54285966941E+03  0.54285966944E+03  0.50400001928E-02 0.  1.
        1   -1    0    0  501    0  0.00000000000E+00  0.00000000000E+00 -0.16728094640E+04  0.16728094640E+04  0.50400001928E-02 0. -1.
    10030    2    1    2    0    0  0.00000000000E+00  0.00000000000E+00 -0.11299497946E+04  0.22156691335E+04  0.19058864527E+04 0.  0.
        1    1    3    3  502    0 -0.12752842607E+03  0.23154785949E+02  0.53256449771E+03  0.54811001434E+03  0.50400001928E-02 0.  1.
       -1    1    3    3    0  502  0.12752842607E+03 -0.23154785949E+02 -0.16625142923E+04  0.16675591191E+04  0.50400001928E-02 0. -1.
</event>
<event>
 5   0  0.2879462E-05  0.1898485E+04  0.7818609E-02  0.8655611E-01
       -2   -1    0    0    0  501  0.00000000000E+00  0.00000000000E+00  0.65990579559E+03  0.65990579559E+03  0.25500000920E-02 0. -1.
        2   -1    0    0  501    0  0.00000000000E+00  0.00000000000E+00 -0.13654395918E+04  0.13654395918E+04  0.25500000920E-02 0.  1.
    10030    2    1    2    0    0  0.00000000000E+00  0.00000000000E+00 -0.70553379624E+03  0.20253453874E+04  0.18984851858E+04 0.  0.
        4    1    3    3  502    0  0.75792568277E+03  0.43943161433E+03  0.37037004736E+02  0.87688359370E+03  0.12699999809E+01 0. -1.
       -4    1    3    3    0  502 -0.75792568277E+03 -0.43943161433E+03 -0.74257080098E+03  0.11484617937E+04  0.12699999809E+01 0.  1.
</event>
<event>
 5   0  0.1471485E-05  0.1901926E+04  0.7818609E-02  0.8653898E-01
        1   -1    0    0  501    0  0.00000000000E+00  0.00000000000E+00  0.77238099380E+03  0.77238099382E+03  0.50400001928E-02 0.  1.
       -1   -1    0    0    0  501  0.00000000000E+00  0.00000000000E+00 -0.11708343831E+04  0.11708343831E+04  0.50400001928E-02 0. -1.
    10030    2    1    2    0    0  0.00000000000E+00  0.00000000000E+00 -0.39845338927E+03  0.19432153769E+04  0.19019255762E+04 0.  0.
        4    1    3    3  502    0  0.92934555626E+03 -0.16688181337E+03 -0.31480145187E+03  0.99530611852E+03  0.12699999809E+01 0.  1.
       -4    1    3    3    0  502 -0.92934555626E+03  0.16688181337E+03 -0.83651937394E+02  0.94790925837E+03  0.12699999809E+01 0. -1.
</event>
<event>
 5   0  0.2855141E-05  0.1900437E+04  0.7818609E-02  0.8654639E-01
        2   -1    0    0  501    0  0.00000000000E+00  0.00000000000E+00  0.30146249382E+04  0.30146249382E+04  0.25500000920E-02 0.  1.
       -2   -1    0    0    0  501  0.00000000000E+00  0.00000000000E+00 -0.29951162772E+03  0.29951162773E+03  0.25500000920E-02 0. -1.
    10030    2    1    2    0    0  0.00000000000E+00  0.00000000000E+00  0.27151133105E+04  0.33141365659E+04  0.19004370257E+04 0.  0.
        1    1    3    3  502    0  0.82650187666E+03  0.29084916337E+03  0.71629986318E+03  0.11317173154E+04  0.50400001928E-02 0. -1.
       -1    1    3    3    0  502 -0.82650187666E+03 -0.29084916337E+03  0.19988134473E+04  0.21824192505E+04  0.50400001928E-02 0.  1.
</event>
<event>
 5   0  0.1429067E-05  0.1903090E+04  0.7818609E-02  0.8653320E-01
        1   -1    0    0  501    0  0.00000000000E+00  0.00000000000E+00  0.90589813664E+03  0.90589813665E+03  0.50400001928E-02 0. -1.
       -1   -1    0    0    0  501  0.00000000000E+00  0.00000000000E+00 -0.99949143829E+03  0.99949143830E+03  0.50400001928E-02 0.  1.
    10030    2    1    2    0    0  0.00000000000E+00  0.00000000000E+00 -0.93593301647E+02  0.19053895750E+04  0.19030895213E+04 0.  0.
        3    1    3    3  502    0 -0.14500389843E+03  0.43402525636E+03  0.78849780102E+03  0.91166487600E+03  0.10100000352E+00 0. -1.
       -3    1    3    3    0  502  0.14500389843E+03 -0.43402525636E+03 -0.88209110266E+03  0.99372469896E+03  0.10100000352E+00 0.  1.
</event>
<event>
 5   0  0.2888776E-05  0.1900961E+04  0.7818609E-02  0.8654378E-01
        2   -1    0    0  501    0  0.00000000000E+00  0.00000000000E+00  0.15546876207E+04  0.15546876207E+04  0.25500000920E-02 0. -1.
       -2   -1    0    0    0  501  0.00000000000E+00  0.00000000000E+00 -0.58109007692E+03  0.58109007692E+03  0.25500000920E-02 0.  1.
    10030    2    1    2    0    0  0.00000000000E+00  0.00000000000E+00  0.97359754374E+03  0.21357776976E+04  0.19009613874E+04 0.  0.
        3    1    3    3  502    0  0.64299054387E+03  0.44026103242E+03 -0.12461661471E+03  0.78917420576E+03  0.10100000352E+00 0.  1.
       -3    1    3    3    0  502 -0.64299054387E+03 -0.44026103242E+03  0.10982141585E+04  0.13466034918E+04  0.10100000352E+00 0. -1.
</event>
<event>
 5   0  0.1327254E-05  0.1899890E+04  0.7818609E-02  0.8654911E-01
        1   -1    0    0  501    0  0.00000000000E+00  0.00000000000E+00  0.11134570731E+04  0.11134570731E+04  0.50400001928E-02 0. -1.
       -1   -1    0    0    0  501  0.00000000000E+00  0.00000000000E+00 -0.81044484943E+03  0.81044484945E+03  0.50400001928E-02 0.  1.
    10030    2    1    2    0    0  0.00000000000E+00  0.00000000000E+00  0.30301222365E+03  0.19239019225E+04  0.18998900494E+04 0.  0.
        5    1    3    3  502    0 -0.89440089267E+02 -0.54888991071E+03  0.93136522433E+03  0.10847778274E+04  0.46999998093E+01 0. -1.
       -5    1    3    3    0  502  0.89440089267E+02  0.54888991071E+03 -0.62835300068E+03  0.83912409518E+03  0.46999998093E+01 0.  1.
</event>
<event>
 5   0  0.2855141E-05  0.1900510E+04  0.7818609E-02  0.8654603E-01
       -2   -1    0    0    0  501  0.00000000000E+00  0.00000000000E+00  0.51986234721E+03  0.51986234722E+03  0.25500000920E-02 0.  1.
        2   -1    0    0  501    0  0.00000000000E+00  0.00000000000E+00 -0.17369686321E+04  0.17369686321E+04  0.25500000920E-02 0. -1.
    10030    2    1    2    0    0  0.00000000000E+00  0.00000000000E+00 -0.12171062849E+04  0.22568309794E+04  0.19005100264E+04 0.  0.
        1    1    3    3  502    0 -0.41816881413E+03  0.78177812559E+03 -0.10146361924E+04  0.13474155995E+04  0.50400001928E-02 0. -1.
       -1    1    3    3    0  502  0.41816881413E+03 -0.78177812559E+03 -0.20247009250E+03  0.90941537987E+03  0.50400001928E-02 0.  1.
</event>
<event>
 5   0  0.2888776E-05  0.1894314E+04  0.7818609E-02  0.8657692E-01
       -2   -1    0    0    0  501  0.00000000000E+00  0.00000000000E+00  0.65442876314E+03  0.65442876315E+03  0.25500000920E-02 0. -1.
        2   -1    0    0  501    0  0.00000000000E+00  0.00000000000E+00 -0.13708241496E+04  0.13708241496E+04  0.25500000920E-02 0.  1.
    10030    2    1    2    0    0  0.00000000000E+00  0.00000000000E+00 -0.71639538646E+03  0.20252529128E+04  0.18943143907E+04 0.  0.
        3    1    3    3  502    0  0.33019777805E+03  0.47761448232E+03  0.44183168056E+03  0.72963100983E+03  0.10100000352E+00 0. -1.
       -3    1    3    3    0  502 -0.33019777805E+03 -0.47761448232E+03 -0.11582270670E+04  0.12956219029E+04  0.10100000352E+00 0.  1.
</event>
<event>
 5   0  0.1010725E-05  0.1911078E+04  0.7818609E-02  0.8649362E-01
       -3   -1    0    0    0  501  0.00000000000E+00  0.00000000000E+00  0.50616961348E+03  0.50616962355E+03  0.10100000352E+00 0.  1.
        3   -1    0    0  501    0  0.00000000000E+00  0.00000000000E+00 -0.18038510691E+04  0.18038510720E+04  0.10100000352E+00 0. -1.
    10030    2    1    2    0    0  0.00000000000E+00  0.00000000000E+00 -0.12976814557E+04  0.23100206955E+04  0.19110778250E+04 0.  0.
        3    1    3    3  502    0 -0.63175402077E+02  0.25372792925E+03 -0.17597665083E+04  0.17790860483E+04  0.10100000352E+00 0. -1.
       -3    1    3    3    0  502  0.63175402077E+02 -0.25372792925E+03  0.46208505263E+03  0.53093464718E+03  0.10100000352E+00 0.  1.
</event>
<event>
 5   0  0.1471485E-05  0.1899476E+04  0.7818609E-02  0.8655117E-01
       -1   -1    0    0    0  501  0.00000000000E+00  0.00000000000E+00  0.55786755646E+03  0.55786755648E+03  0.50400001928E-02 0.  1.
        1   -1    0    0  501    0  0.00000000000E+00  0.00000000000E+00 -0.16168758344E+04  0.16168758344E+04  0.50400001928E-02 0. -1.
    10030    2    1    2    0    0  0.00000000000E+00  0.00000000000E+00 -0.10590082780E+04  0.21747433909E+04  0.18994763182E+04 0.  0.
        4    1    3    3  502    0  0.45979795240E+03 -0.82971875990E+03 -0.47637232034E+03  0.10614987414E+04  0.12699999809E+01 0.  1.
       -4    1    3    3    0  502 -0.45979795240E+03  0.82971875990E+03 -0.58263595761E+03  0.11132446495E+04  0.12699999809E+01 0. -1.
</event>
<event>
 5   0  0.1344119E-05  0.1907080E+04  0.7818609E-02  0.8651340E-01
        1   -1    0    0  501    0  0.00000000000E+00  0.00000000000E+00  0.11489763265E+04  0.11489763265E+04  0.50400001928E-02 0.  1.
       -1   -1    0    0    0  501  0.00000000000E+00  0.00000000000E+00 -0.79134662829E+03  0.79134662831E+03  0.50400001928E-02 0. -1.
    10030    2    1    2    0    0  0.00000000000E+00  0.00000000000E+00  0.35762969823E+03  0.19403229548E+04  0.19070800109E+04 0.  0.
        2    1    3    3  502    0  0.50752170040E+03  0.79392658671E+03  0.30183346700E+02  0.94276653308E+03  0.25500000920E-02 0. -1.
       -2    1    3    3    0  502 -0.50752170040E+03 -0.79392658671E+03  0.32744635153E+03  0.99755642176E+03  0.25500000920E-02 0.  1.
</event>
<event>
 5   0  0.2879462E-05  0.1899697E+04  0.7818609E-02  0.8655007E-01
        2   -1    0    0  501    0  0.00000000000E+00  0.00000000000E+00  0.15364018833E+04  0.15364018833E+04  0.25500000920E-02 0.  1.
       -2   -1    0    0    0  501  0.00000000000E+00  0.00000000000E+00 -0.58722424881E+03  0.58722424881E+03  0.25500000920E-02 0. -1.
    10030    2    1    2    0    0  0.00000000000E+00  0.00000000000E+00  0.94917763448E+03  0.21236261321E+04  0.18996972830E+04 0.  0.
        4    1    3    3  502    0  0.67876179562E+03 -0.20066758398E+03  0.11826781816E+04  0.13783012547E+04  0.12699999809E+01 0.  1.
       -4    1    3    3    0  502 -0.67876179562E+03  0.20066758398E+03 -0.23350054717E+03  0.74532487741E+03  0.12699999809E+01 0. -1.
</event>
<event>
 5   0  0.2855141E-05  0.1900147E+04  0.7818609E-02  0.8654783E-01
        2   -1    0    0  501    0  0.00000000000E+00  0.00000000000E+00  0.78667970165E+03  0.78667970165E+03  0.25500000920E-02 0. -1.
       -2   -1    0    0    0  501  0.00000000000E+00  0.00000000000E+00 -0.11474040804E+04  0.11474040805E+04  0.25500000920E-02 0.  1.
    10030    2    1    2    0    0  0.00000000000E+00  0.00000000000E+00 -0.36072437880E+03  0.19340837821E+04  0.19001468361E+04 0.  0.
        1    1    3    3  502    0  0.33845076265E+03 -0.88611735594E+03 -0.23504897026E+03  0.97724147767E+03  0.50400001928E-02 0. -1.
       -1    1    3    3    0  502 -0.33845076265E+03  0.88611735594E+03 -0.12567540854E+03  0.95684230444E+03  0.50400001928E-02 0.  1.
</event>
<event>
 5   0  0.1413011E-05  0.1895759E+04  0.7818609E-02  0.8656970E-01
        1   -1    0    0  501    0  0.00000000000E+00  0.00000000000E+00  0.94759363235E+03  0.94759363237E+03  0.50400001928E-02 0. -1.
       -1   -1    0    0    0  501  0.00000000000E+00  0.00000000000E+00 -0.94816541353E+03  0.94816541354E+03  0.50400001928E-02 0.  1.
    10030    2    1    2    0    0  0.00000000000E+00  0.00000000000E+00 -0.57178117109E+00  0.18957590459E+04  0.18957589597E+04 0.  0.
        1    1    3    3  502    0 -0.87106044739E+03 -0.33792306689E+03 -0.16008954653E+03  0.94792772144E+03  0.50400001928E-02 0. -1.
       -1    1    3    3    0  502  0.87106044739E+03  0.33792306689E+03  0.15951776536E+03  0.94783132446E+03  0.50400001928E-02 0.  1.
</event>
<event>
 5   0  0.2789718E-05  0.1900835E+04  0.7818609E-02  0.8654441E-01
        2   -1    0    0  501    0  0.00000000000E+00  0.00000000000E+00  0.15950206583E+04  0.15950206583E+04  0.25500000920E-02 0.  1.
       -2   -1    0    0    0  501  0.00000000000E+00  0.00000000000E+00 -0.56632099037E+03  0.56632099038E+03  0.25500000920E-02 0. -1.
    10030    2    1    2    0    0  0.00000000000E+00  0.00000000000E+00  0.10286996679E+04  0.21613416487E+04  0.19008352678E+04 0.  0.
        5    1    3    3  502    0 -0.65652841372E+03  0.47805830243E+03 -0.46967878259E+02  0.81350929320E+03  0.46999998093E+01 0. -1.
       -5    1    3    3    0  502  0.65652841372E+03 -0.47805830243E+03  0.10756675462E+04  0.13478323555E+04  0.46999998093E+01 0.  1.
</event>
<event>
 5   0  0.1471485E-05  0.1899581E+04  0.7818609E-02  0.8655065E-01
       -1   -1    0    0    0  501  0.00000000000E+00  0.00000000000E+00  0.42690217892E+03  0.42690217895E+03  0.50400001928E-02 0.  1.
        1   -1    0    0  501    0  0.00000000000E+00  0.00000000000E+00 -0.21131361533E+04  0.21131361533E+04  0.50400001928E-02 0. -1.
    10030    2    1    2    0    0  0.00000000000E+00  0.00000000000E+00 -0.16862339744E+04  0.25400383323E+04  0.18995814573E+04 0.  0.
        4    1    3    3  502    0 -0.91345329129E+03  0.22273946323E+03 -0.10229684664E+04  0.13894156613E+04  0.12699999809E+01 0. -1.
       -4    1    3    3    0  502  0.91345329129E+03 -0.22273946323E+03 -0.66326550804E+03  0.11506226710E+04  0.12699999809E+01 0.  1.
</event>
<event>
 5   0  0.1327254E-05  0.1900204E+04  0.7818609E-02  0.8654755E-01
        1   -1    0    0  501    0  0.00000000000E+00  0.00000000000E+00  0.12239183261E+04  0.12239183261E+04  0.50400001928E-02 0. -1.
       -1   -1    0    0    0  501  0.00000000000E+00  0.00000000000E+00 -0.73754414533E+03  0.73754414534E+03  0.50400001928E-02 0.  1.
    10030    2    1    2    0    0  0.00000000000E+00  0.00000000000E+00  0.48637418075E+03  0.19614624714E+04  0.19002039846E+04 0.  0.
        5    1    3    3  502    0  0.86518598372E+03  0.21216797146E+03 -0.97779166849E+02  0.89618351358E+03  0.46999998093E+01 0.  1.
       -5    1    3    3    0  502 -0.86518598372E+03 -0.21216797146E+03  0.58415334760E+03  0.10652789579E+04  0.46999998093E+01 0. -1.
</event>
<event>
 5   0  0.1344119E-05  0.1892325E+04  0.7818609E-02  0.8658686E-01
        1   -1    0    0  501    0  0.00000000000E+00  0.00000000000E+00  0.13118481937E+04  0.13118481937E+04  0.50400001928E-02 0. -1.
       -1   -1    0    0    0  501  0.00000000000E+00  0.00000000000E+00 -0.68241381119E+03  0.68241381121E+03  0.50400001928E-02 0.  1.
    10030    2    1    2    0    0  0.00000000000E+00  0.00000000000E+00  0.62943438249E+03  0.19942620049E+04  0.18923248406E+04 0.  0.
        2    1    3    3  502    0 -0.17134399904E+03  0.11738910307E+03 -0.65809234919E+03  0.69009021700E+03  0.25500000920E-02 0.  1.
       -2    1    3    3    0  502  0.17134399904E+03 -0.11738910307E+03  0.12875267317E+04  0.13041717879E+04  0.25500000920E-02 0. -1.
</event>
<event>
 5   0  0.2879462E-05  0.1899755E+04  0.7818609E-02  0.8654979E-01
        2   -1    0    0  501    0  0.00000000000E+00  0.00000000000E+00  0.71424118829E+03  0.71424118830E+03  0.25500000920E-02 0.  1.
       -2   -1    0    0    0  501  0.00000000000E+00  0.00000000000E+00 -0.12632522613E+04  0.12632522613E+04  0.25500000920E-02 0. -1.
    10030    2    1    2    0    0  0.00000000000E+00  0.00000000000E+00 -0.54901107297E+03  0.19774934496E+04  0.18997545065E+04 0.  0.
        4    1    3    3  502    0 -0.60874156940E+03 -0.69248663190E+03 -0.36771618695E+02  0.92274470929E+03  0.12699999809E+01 0.  1.
       -4    1    3    3    0  502  0.60874156940E+03  0.69248663190E+03 -0.51223945427E+03  0.10547487403E+04  0.12699999809E+01 0. -1.
</event>
<event>
 5   0  0.1413011E-05  0.1898361E+04  0.7818609E-02  0.8655673E-01
        1   -1    0    0  501    0  0.00000000000E+00  0.00000000000E+00  0.15580224982E+04  0.15580224982E+04  0.50400001928E-02 0.  1.
       -1   -1    0    0    0  501  0.00000000000E+00  0.00000000000E+00 -0.57826097136E+03  0.57826097138E+03  0.50400001928E-02 0. -1.
    10030    2    1    2    0    0  0.00000000000E+00  0.00000000000E+00  0.97976152686E+03  0.21362834696E+04  0.18983609807E+04 0.  0.
        1    1    3    3  502    0 -0.55023902122E+03 -0.26128108609E+03 -0.32930480572E+03  0.69243948582E+03  0.50400001928E-02 0. -1.
       -1    1    3    3    0  502  0.55023902122E+03  0.26128108609E+03  0.13090663326E+04  0.14438439838E+04  0.50400001928E-02 0.  1.
</event>
<event>
 5   0  0.1429067E-05  0.1900639E+04  0.7818609E-02  0.8654539E-01
       -1   -1    0    0    0  501  0.00000000000E+00  0.00000000000E+00  0.48839347336E+03  0.48839347339E+03  0.50400001928E-02 0.  1.
        1   -1    0    0  501    0  0.00000000000E+00  0.00000000000E+00 -0.18491377209E+04  0.18491377209E+04  0.50400001928E-02 0. -1.
    10030    2    1    2    0    0  0.00000000000E+00  0.00000000000E+00 -0.13607442475E+04  0.23375311943E+04  0.19006386235E+04 0.  0.
        3    1    3    3  502    0 -0.14196510070E+03 -0.18894089180E+03 -0.18124197212E+04  0.18277631155E+04  0.10100000352E+00 0. -1.
       -3    1    3    3    0  502  0.14196510070E+03  0.18894089180E+03  0.45167547368E+03  0.50976807877E+03  0.10100000352E+00 0.  1.
</event>
<event>
 5   0  0.2813537E-05  0.1897426E+04  0.7818609E-02  0.8656139E-01
       -2   -1    0    0    0  501  0.00000000000E+00  0.00000000000E+00  0.74496856836E+03  0.74496856837E+03  0.25500000920E-02 0.  1.
        2   -1    0    0  501    0  0.00000000000E+00  0.00000000000E+00 -0.12081801987E+04  0.12081801987E+04  0.25500000920E-02 0. -1.
    10030    2    1    2    0    0  0.00000000000E+00  0.00000000000E+00 -0.46321163033E+03  0.19531487671E+04  0.18974259121E+04 0.  0.
        2    1    3    3  502    0  0.25591014791E+03 -0.99818636113E+02 -0.11663501087E+04  0.11982597131E+04  0.25500000920E-02 0. -1.
       -2    1    3    3    0  502 -0.25591014791E+03  0.99818636113E+02  0.70313847841E+03  0.75488905394E+03  0.25500000920E-02 0.  1.
</event>
<event>
 5   0  0.2879462E-05  0.1904770E+04  0.7818609E-02  0.8652486E-01
       -2   -1    0    0    0  501  0.00000000000E+00  0.00000000000E+00  0.12445968597E+04  0.12445968597E+04  0.25500000920E-02 0. -1.
        2   -1    0    0  501    0  0.00000000000E+00  0.00000000000E+00 -0.72877985989E+03  0.72877985990E+03  0.25500000920E-02 0.  1.
    10030    2    1    2    0    0  0.00000000000E+00  0.00000000000E+00  0.51581699978E+03  0.19733767196E+04  0.19047699336E+04 0.  0.
        4    1    3    3  502    0 -0.33692185379E+03 -0.31741172109E+03  0.11202150568E+04  0.12120849486E+04  0.12699999809E+01 0.  1.
       -4    1    3    3    0  502  0.33692185379E+03  0.31741172109E+03 -0.60439805705E+03  0.76129177095E+03  0.12699999809E+01 0. -1.
</event>
<event>
 5   0  0.1327254E-05  0.1901196E+04  0.7818609E-02  0.8654261E-01
        1   -1    0    0  501    0  0.00000000000E+00  0.00000000000E+00  0.12131390343E+04  0.12131390344E+04  0.50400001928E-02 0.  1.
       -1   -1    0    0    0  501  0.00000000000E+00  0.00000000000E+00 -0.74487483944E+03  0.74487483946E+03  0.50400001928E-02 0. -1.
    10030    2    1    2    0    0  0.00000000000E+00  0.00000000000E+00  0.46826419490E+03  0.19580138738E+04  0.19011961955E+04 0.  0.
        5    1    3    3  502    0  0.80798616790E+03  0.39650583048E+03 -0.80878350258E+02  0.90367135545E+03  0.46999998093E+01 0. -1.
       -5    1    3    3    0  502 -0.80798616790E+03 -0.39650583048E+03  0.54914254515E+03  0.10543425184E+04  0.46999998093E+01 0.  1.
</event>
<event>
 5   0  0.2879462E-05  0.1899384E+04  0.7818609E-02  0.8655163E-01
        2   -1    0    0  501    0  0.00000000000E+00  0.00000000000E+00  0.10439126739E+04  0.10439126739E+04  0.25500000920E-02 0. -1.
       -2   -1    0    0    0  501  0.00000000000E+00  0.00000000000E+00 -0.86397536759E+03  0.86397536759E+03  0.25500000920E-02 0.  1.
    10030    2    1    2    0    0  0.00000000000E+00  0.00000000000E+00  0.17993730633E+03  0.19078880415E+04  0.18993839382E+04 0.  0.
        4    1    3    3  502    0  0.26370630471E+03 -0.61870425585E+03  0.76347592463E+03  0.10174640395E+04  0.12699999809E+01 0. -1.
       -4    1    3    3    0  502 -0.26370630471E+03  0.61870425585E+03 -0.58353861830E+03  0.89042400198E+03  0.12699999809E+01 0.  1.
</event>
<event>
 5   0  0.1344119E-05  0.1898040E+04  0.7818609E-02  0.8655833E-01
       -1   -1    0    0    0  501  0.00000000000E+00  0.00000000000E+00  0.96904184252E+03  0.96904184253E+03  0.50400001928E-02 0.  1.
        1   -1    0    0  501    0  0.00000000000E+00  0.00000000000E+00 -0.92941181088E+03  0.92941181089E+03  0.50400001928E-02 0. -1.
    10030    2    1    2    0    0  0.00000000000E+00  0.00000000000E+00  0.39630031640E+02  0.18984536534E+04  0.18980399719E+04 0.  0.
        2    1    3    3  502    0  0.58271585720E+03 -0.46404086397E+03  0.60794592730E+03  0.96150400113E+03  0.25500000920E-02 0.  1.
       -2    1    3    3    0  502 -0.58271585720E+03  0.46404086397E+03 -0.56831589566E+03  0.93694965229E+03  0.25500000920E-02 0. -1.
</event>
<event>
 5   0  0.2789718E-05  0.1903766E+04  0.7818609E-02  0.8652984E-01
       -2   -1    0    0    0  501  0.00000000000E+00  0.00000000000E+00  0.94670257883E+03  0.94670257883E+03  0.25500000920E-02 0. -1.
        2   -1    0    0  501    0  0.00000000000E+00  0.00000000000E+00 -0.95709144933E+03  0.95709144933E+03  0.25500000920E-02 0.  1.
    10030    2    1    2    0    0  0.00000000000E+00  0.00000000000E+00 -0.10388870505E+02  0.19037940282E+04  0.19037656823E+04 0.  0.
        5    1    3    3  502    0 -0.43011877104E+03  0.66275239065E+03  0.52567688337E+03  0.94900008652E+03  0.46999998093E+01 0. -1.
       -5    1    3    3    0  502  0.43011877104E+03 -0.66275239065E+03 -0.53606575388E+03  0.95479394164E+03  0.46999998093E+01 0.  1.
</event>
<event>
 5   0  0.1471485E-05  0.1893070E+04  0.7818609E-02  0.8658314E-01
        1   -1    0    0  501    0  0.00000000000E+00  0.00000000000E+00  0.70266725507E+03  0.70266725509E+03  0.50400001928E-02 0.  1.
       -1   -1    0    0    0  501  0.00000000000E+00  0.00000000000E+00 -0.12750393352E+04  0.12750393353E+04  0.50400001928E-02 0. -1.
    10030    2    1    2    0    0  0.00000000000E+00  0.00000000000E+00 -0.57237208018E+03  0.19777065903E+04  0.18930698770E+04 0.  0.
        4    1    3    3  502    0  0.35590220092E+03  0.32288099026E+02 -0.12018527411E+04  0.12538582544E+04  0.12699999809E+01 0. -1.
       -4    1    3    3    0  502 -0.35590220092E+03 -0.32288099026E+02  0.62948066096E+03  0.72384833590E+03  0.12699999809E+01 0.  1.
</event>
<event>
 5   0  0.2888776E-05  0.1904455E+04  0.7818609E-02  0.8652642E-01
        2   -1    0    0  501    0  0.00000000000E+00  0.00000000000E+00  0.49259961337E+03  0.49259961337E+03  0.25500000920E-02 0.  1.
       -2   -1    0    0    0  501  0.00000000000E+00  0.00000000000E+00 -0.18407179092E+04  0.18407179092E+04  0.25500000920E-02 0. -1.
    10030    2    1    2    0    0  0.00000000000E+00  0.00000000000E+00 -0.13481182958E+04  0.23333175225E+04  0.19044547045E+04 0.  0.
        3    1    3    3  502    0 -0.66968414668E+03 -0.66187801277E+03 -0.50002377860E+03  0.10661065376E+04  0.10100000352E+00 0.  1.
       -3    1    3    3    0  502  0.66968414668E+03  0.66187801277E+03 -0.84809451718E+03  0.12672109849E+04  0.10100000352E+00 0. -1.
</event>
<event>
 5   0  0.1344119E-05  0.1893547E+04  0.7818609E-02  0.8658075E-01
        1   -1    0    0  501    0  0.00000000000E+00  0.00000000000E+00  0.79436890251E+03  0.79436890252E+03  0.50400001928E-02 0. -1.
       -1   -1    0    0    0  501  0.00000000000E+00  0.00000000000E+00 -0.11284176860E+04  0.11284176860E+04  0.50400001928E-02 0.  1.
    10030    2    1    2    0    0  0.00000000000E+00  0.00000000000E+00 -0.33404878347E+03  0.19227865885E+04  0.18935468505E+04 0.  0.
        2    1    3    3  502    0 -0.73667429280E+03 -0.23995087117E+03 -0.71959127762E+03  0.10573916214E+04  0.25500000920E-02 0.  1.
       -2    1    3    3    0  502  0.73667429280E+03  0.23995087117E+03  0.38554249415E+03  0.86539496708E+03  0.25500000920E-02 0. -1.
</event>
<event>
 5   0  0.2813537E-05  0.1885357E+04  0.7818609E-02  0.8662180E-01
        2   -1    0    0  501    0  0.00000000000E+00  0.00000000000E+00  0.12708053497E+04  0.12708053497E+04  0.25500000920E-02 0. -1.
       -2   -1    0    0    0  501  0.00000000000E+00  0.00000000000E+00 -0.69927547629E+03  0.69927547630E+03  0.25500000920E-02 0.  1.
    10030    2    1    2    0    0  0.00000000000E+00  0.00000000000E+00  0.57152987340E+03  0.19700808260E+04  0.18853572777E+04 0.  0.
        2    1    3    3  502    0  0.51161909848E+03 -0.61385054164E+03 -0.23678374945E+03  0.83344653903E+03  0.25500000920E-02 0.  1.
       -2    1    3    3    0  502 -0.51161909848E+03  0.61385054164E+03  0.80831362285E+03  0.11366342870E+04  0.25500000920E-02 0. -1.
</event>
<event>
 5   0  0.2879462E-05  0.1899253E+04  0.7818609E-02  0.8655228E-01
       -2   -1    0    0    0  501  0.00000000000E+00  0.00000000000E+00  0.10166687789E+04  0.10166687789E+04  0.25500000920E-02 0. -1.
        2   -1    0    0  501    0  0.00000000000E+00  0.00000000000E+00 -0.88700495135E+03  0.88700495135E+03  0.25500000920E-02 0.  1.
    10030    2    1    2    0    0  0.00000000000E+00  0.00000000000E+00  0.12966382758E+03  0.19036737303E+04  0.18992527381E+04 0.  0.
        4    1    3    3  502    0 -0.42866461084E+03  0.15736752722E+03 -0.76973505410E+03  0.89499248802E+03  0.12699999809E+01 0.  1.
       -4    1    3    3    0  502  0.42866461084E+03 -0.15736752722E+03  0.89939888168E+03  0.10086812423E+04  0.12699999809E+01 0. -1.
</event>
<event>
 5   0  0.2789718E-05  0.1908598E+04  0.7818609E-02  0.8650589E-01
        2   -1    0    0  501    0  0.00000000000E+00  0.00000000000E+00  0.81820263251E+03  0.81820263252E+03  0.25500000920E-02 0. -1.
       -2   -1    0    0    0  501  0.00000000000E+00  0.00000000000E+00 -0.11130325790E+04  0.11130325790E+04  0.25500000920E-02 0.  1.
    10030    2    1    2    0    0  0.00000000000E+00  0.00000000000E+00 -0.29482994647E+03  0.19312352115E+04  0.19085975859E+04 0.  0.
        5    1    3    3  502    0 -0.92825457230E+02  0.94126901210E+03 -0.19183104196E+02  0.94604122538E+03  0.46999998093E+01 0.  1.
       -5    1    3    3    0  502  0.92825457230E+02 -0.94126901210E+03 -0.27564684228E+03  0.98519398612E+03  0.46999998093E+01 0. -1.
</event>
<event>
 5   0  0.1413011E-05  0.1899523E+04  0.7818609E-02  0.8655094E-01
       -1   -1    0    0    0  501  0.00000000000E+00  0.00000000000E+00  0.68522575263E+03  0.68522575265E+03  0.50400001928E-02 0. -1.
        1   -1    0    0  501    0  0.00000000000E+00  0.00000000000E+00 -0.13164223423E+04  0.13164223423E+04  0.50400001928E-02 0.  1.
    10030    2    1    2    0    0  0.00000000000E+00  0.00000000000E+00 -0.63119658965E+03  0.20016480949E+04  0.18995225614E+04 0.  0.
        1    1    3    3  502    0  0.83090117119E+03  0.28385982219E+03  0.65906891874E+02  0.88052079667E+03  0.50400001928E-02 0. -1.
       -1    1    3    3    0  502 -0.83090117119E+03 -0.28385982219E+03 -0.69710348153E+03  0.11211272983E+04  0.50400001928E-02 0.  1.
</event>
<event>
 5   0  0.1344119E-05  0.1899085E+04  0.7818609E-02  0.8655312E-01
       -1   -1    0    0    0  501  0.00000000000E+00  0.00000000000E+00  0.72992337549E+03  0.72992337551E+03  0.50400001928E-02 0.  1.
        1   -1    0    0  501    0  0.00000000000E+00  0.00000000000E+00 -0.12352402367E+04  0.12352402367E+04  0.50400001928E-02 0. -1.
    10030    2    1    2    0    0  0.00000000000E+00  0.00000000000E+00 -0.50531686124E+03  0.19651636123E+04  0.18990847513E+04 0.  0.
        2    1    3    3  502    0 -0.70567532943E+03  0.63120472959E+03 -0.32751955932E+03  0.10018313945E+04  0.25500000920E-02 0. -1.
       -2    1    3    3    0  502  0.70567532943E+03 -0.63120472959E+03 -0.17779730192E+03  0.96333221777E+03  0.25500000920E-02 0.  1.
</event>
<event>
 5   0  0.2789718E-05  0.1902037E+04  0.7818609E-02  0.8653843E-01
        2   -1    0    0  501    0  0.00000000000E+00  0.00000000000E+00  0.10450458271E+04  0.10450458271E+04  0.25500000920E-02 0. -1.
       -2   -1    0    0    0  501  0.00000000000E+00  0.00000000000E+00 -0.86545121051E+03  0.86545121052E+03  0.25500000920E-02 0.  1.
    10030    2    1    2    0    0  0.00000000000E+00  0.00000000000E+00  0.17959461657E+03  0.19104970376E+04  0.19020369882E+04 0.  0.
        5    1    3    3  502    0 -0.50195038657E+03 -0.46968816886E+03 -0.57028081658E+03  0.89319844732E+03  0.46999998093E+01 0.  1.
       -5    1    3    3    0  502  0.50195038657E+03  0.46968816886E+03  0.74987543315E+03  0.10172985903E+04  0.46999998093E+01 0. -1.
</event>
<event>
 5   0  0.1429067E-05  0.1898286E+04  0.7818609E-02  0.8655710E-01
        1   -1    0    0  501    0  0.00000000000E+00  0.00000000000E+00  0.12172905297E+04  0.12172905297E+04  0.50400001928E-02 0.  1.
       -1   -1    0    0    0  501  0.00000000000E+00  0.00000000000E+00 -0.74006324620E+03  0.74006324621E+03  0.50400001928E-02 0. -1.
    10030    2    1    2    0    0  0.00000000000E+00  0.00000000000E+00  0.47722728346E+03  0.19573537759E+04  0.18982855222E+04 0.  0.
        3    1    3    3  502    0  0.52586205424E+03  0.16776703944E+03  0.10347767746E+04  0.11727913979E+04  0.10100000352E+00 0.  1.
       -3    1    3    3    0  502 -0.52586205424E+03 -0.16776703944E+03 -0.55754949114E+03  0.78456237795E+03  0.10100000352E+00 0. -1.
</event>
<event>
 5   0  0.2855141E-05  0.1900201E+04  0.7818609E-02  0.8654756E-01
        2   -1    0    0  501    0  0.00000000000E+00  0.00000000000E+00  0.14966848510E+04  0.14966848510E+04  0.25500000920E-02 0.  1.
       -2   -1    0    0    0  501  0.00000000000E+00  0.00000000000E+00 -0.60312720616E+03  0.60312720617E+03  0.25500000920E-02 0. -1.
    10030    2    1    2    0    0  0.00000000000E+00  0.00000000000E+00  0.89355764487E+03  0.20998120572E+04  0.19002014132E+04 0.  0.
        1    1    3    3  502    0  0.20962501416E+03 -0.74825281507E+03  0.10508934576E+04  0.13069820125E+04  0.50400001928E-02 0.  1.
       -1    1    3    3    0  502 -0.20962501416E+03  0.74825281507E+03 -0.15733581269E+03  0.79283004471E+03  0.50400001928E-02 0. -1.
</event>
<event>
 5   0  0.1413011E-05  0.1898830E+04  0.7818609E-02  0.8655439E-01
        1   -1    0    0  501    0  0.00000000000E+00  0.00000000000E+00  0.22315757025E+04  0.22315757025E+04  0.50400001928E-02 0.  1.
       -1   -1    0    0    0  501  0.00000000000E+00  0.00000000000E+00 -0.40392501065E+03  0.40392501068E+03  0.50400001928E-02 0. -1.
    10030    2    1    2    0    0  0.00000000000E+00  0.00000000000E+00  0.18276506918E+04  0.26355007132E+04  0.18988304184E+04 0.  0.
        1    1    3    3  502    0 -0.51753119566E+03 -0.66747716835E+03  0.31198031886E+03  0.90038659926E+03  0.50400001928E-02 0. -1.
       -1    1    3    3    0  502  0.51753119566E+03  0.66747716835E+03  0.15156703730E+04  0.17351141139E+04  0.50400001928E-02 0.  1.
</event>
<event>
 5   0  0.2855141E-05  0.1898042E+04  0.7818609E-02  0.8655831E-01
       -2   -1    0    0    0  501  0.00000000000E+00  0.00000000000E+00  0.83912791051E+03  0.83912791052E+03  0.25500000920E-02 0. -1.
        2   -1    0    0  501    0  0.00000000000E+00  0.00000000000E+00 -0.10733062063E+04  0.10733062063E+04  0.25500000920E-02 0.  1.
    10030    2    1    2    0    0  0.00000000000E+00  0.00000000000E+00 -0.23417829583E+03  0.19124341169E+04  0.18980423539E+04 0.  0.
        1    1    3    3  502    0 -0.22658251164E+03 -0.63938767208E+03  0.55163364770E+03  0.87433169397E+03  0.50400001928E-02 0. -1.
       -1    1    3    3    0  502  0.22658251164E+03  0.63938767208E+03 -0.78581194353E+03  0.10381024229E+04  0.50400001928E-02 0.  1.
</event>
<event>
 5   0  0.2855141E-05  0.1907456E+04  0.7818609E-02  0.8651154E-01
        2   -1    0    0  501    0  0.00000000000E+00  0.00000000000E+00  0.28776274591E+04  0.28776274591E+04  0.25500000920E-02 0.  1.
       -2   -1    0    0    0  501  0.00000000000E+00  0.00000000000E+00 -0.31609265348E+03  0.31609265349E+03  0.25500000920E-02 0. -1.
    10030    2    1    2    0    0  0.00000000000E+00  0.00000000000E+00  0.25615348056E+04  0.31937201126E+04  0.19074557917E+04 0.  0.
        1    1    3    3  502    0 -0.62186850807E+03 -0.50538580362E+03  0.41485665603E+03  0.90235319964E+03  0.50400001928E-02 0. -1.
       -1    1    3    3    0  502  0.62186850807E+03  0.50538580362E+03  0.21466781496E+04  0.22913669130E+04  0.50400001928E-02 0.  1.
</event>
<event>
 5   0  0.2789718E-05  0.1898107E+04  0.7818609E-02  0.8655799E-01
       -2   -1    0    0    0  501  0.00000000000E+00  0.00000000000E+00  0.28597544448E+04  0.28597544448E+04  0.25500000920E-02 0. -1.
        2   -1    0    0  501    0  0.00000000000E+00  0.00000000000E+00 -0.31495800454E+03  0.31495800455E+03  0.25500000920E-02 0.  1.
    10030    2    1    2    0    0  0.00000000000E+00  0.00000000000E+00  0.25447964402E+04  0.31747124493E+04  0.18981070079E+04 0.  0.
        5    1    3    3  502    0 -0.54487221819E+03  0.41947550641E+03  0.17838675830E+03  0.71041492113E+03  0.46999998093E+01 0.  1.
       -5    1    3    3    0  502  0.54487221819E+03 -0.41947550641E+03  0.23664096819E+04  0.24642975282E+04  0.46999998093E+01 0. -1.
</event>
<event>
 5   0  0.2888776E-05  0.1896678E+04  0.7818609E-02  0.8656512E-01
       -2   -1    0    0    0  501  0.00000000000E+00  0.00000000000E+00  0.85064819352E+03  0.85064819352E+03  0.25500000920E-02 0. -1.
        2   -1    0    0  501    0  0.00000000000E+00  0.00000000000E+00 -0.10572488921E+04  0.10572488921E+04  0.25500000920E-02 0.  1.
    10030    2    1    2    0    0  0.00000000000E+00  0.00000000000E+00 -0.20660069862E+03  0.19078970857E+04  0.18966780014E+04 0.  0.
        3    1    3    3  502    0  0.66128545224E+02  0.94489780277E+03 -0.56744756029E+02  0.94890717128E+03  0.10100000352E+00 0.  1.
       -3    1    3    3    0  502 -0.66128545224E+02 -0.94489780277E+03 -0.14985594259E+03  0.95898991439E+03  0.10100000352E+00 0. -1.
</event>
<event>
 5   0  0.1344119E-05  0.1898969E+04  0.7818609E-02  0.8655370E-01
       -1   -1    0    0    0  501  0.00000000000E+00  0.00000000000E+00  0.75375333593E+03  0.75375333595E+03  0.50400001928E-02 0.  1.
        1   -1    0    0  501    0  0.00000000000E+00  0.00000000000E+00 -0.11960422393E+04  0.11960422393E+04  0.50400001928E-02 0. -1.
    10030    2    1    2    0    0  0.00000000000E+00  0.00000000000E+00 -0.44228890335E+03  0.19497955752E+04  0.18989690127E+04 0.  0.
        2    1    3    3  502    0 -0.75979500501E+03  0.15645487252E+03  0.34100770080E+03  0.84737997899E+03  0.25500000920E-02 0.  1.
       -2    1    3    3    0  502  0.75979500501E+03 -0.15645487252E+03 -0.78329660415E+03  0.11024155962E+04  0.25500000920E-02 0. -1.
</event>
<event>
 5   0  0.1429067E-05  0.1896721E+04  0.7818609E-02  0.8656490E-01
        1   -1    0    0  501    0  0.00000000000E+00  0.00000000000E+00  0.12534482184E+04  0.12534482184E+04  0.50400001928E-02 0.  1.
       -1   -1    0    0    0  501  0.00000000000E+00  0.00000000000E+00 -0.71753093247E+03  0.71753093248E+03  0.50400001928E-02 0. -1.
    10030    2    1    2    0    0  0.00000000000E+00  0.00000000000E+00  0.53591728597E+03  0.19709791509E+04  0.18967212436E+04 0.  0.
        3    1    3    3  502    0 -0.27161069228E+03  0.67310982998E+03  0.90221406516E+03  0.11579462168E+04  0.10100000352E+00 0.  1.
       -3    1    3    3    0  502  0.27161069228E+03 -0.67310982998E+03 -0.36629677918E+03  0.81303293416E+03  0.10100000352E+00 0. -1.
</event>
<event>
 5   0  0.1344119E-05  0.1900409E+04  0.7818609E-02  0.8654653E-01
       -1   -1    0    0    0  501  0.00000000000E+00  0.00000000000E+00  0.11432169862E+04  0.11432169862E+04  0.50400001928E-02 0. -1.
        1   -1    0    0  501    0  0.00000000000E+00  0.00000000000E+00 -0.78977867220E+03  0.78977867222E+03  0.50400001928E-02 0.  1.
    10030    2    1    2    0    0  0.00000000000E+00  0.00000000000E+00  0.35343831403E+03  0.19329956585E+04  0.19004087912E+04 0.  0.
        2    1    3    3  502    0 -0.81277873594E+01 -0.77505319616E+03 -0.38235562441E+03  0.86427388097E+03  0.25500000920E-02 0.  1.
       -2    1    3    3    0  502  0.81277873594E+01  0.77505319616E+03  0.73579393844E+03  0.10687217775E+04  0.25500000920E-02 0. -1.
</event>
<event>
 5   0  0.1413011E-05  0.1899345E+04  0.7818609E-02  0.8655182E-01
       -1   -1    0    0    0  501  0.00000000000E+00  0.00000000000E+00  0.14023993056E+04  0.14023993056E+04  0.50400001928E-02 0.  1.
        1   -1    0    0  501    0  0.00000000000E+00  0.00000000000E+00 -0.64309641887E+03  0.64309641889E+03  0.50400001928E-02 0. -1.
    10030    2    1    2    0    0  0.00000000000E+00  0.00000000000E+00  0.75930288669E+03  0.20454957245E+04  0.18993451201E+04 0.  0.
        1    1    3    3  502    0  0.20271285851E+03 -0.77259668405E+03 -0.17356845211E+03  0.81738861431E+03  0.50400001928E-02 0. -1.
       -1    1    3    3    0  502 -0.20271285851E+03  0.77259668405E+03  0.93287133881E+03  0.12281071102E+04  0.50400001928E-02 0.  1.
</event>
<event>
 5   0  0.2855141E-05  0.1898485E+04  0.7818609E-02  0.8655611E-01
       -2   -1    0    0    0  501  0.00000000000E+00  0.00000000000E+00  0.11058703265E+04  0.11058703265E+04  0.25500000920E-02 0. -1.
        2   -1    0    0  501    0  0.00000000000E+00  0.00000000000E+00 -0.81479838378E+03  0.81479838379E+03  0.25500000920E-02 0.  1.
    10030    2    1    2    0    0  0.00000000000E+00  0.00000000000E+00  0.29107194272E+03  0.19206687103E+04  0.18984850326E+04 0.  0.
        1    1    3    3  502    0  0.20311868858E+03 -0.67570448019E+03 -0.49688604147E+03  0.86297710540E+03  0.50400001928E-02 0.  1.
       -1    1    3    3    0  502 -0.20311868858E+03  0.67570448019E+03  0.78795798420E+03  0.10576916049E+04  0.50400001928E-02 0. -1.
</event>
<event>
 5   0  0.1429067E-05  0.1898980E+04  0.7818609E-02  0.8655364E-01
       -1   -1    0    0    0  501  0.00000000000E+00  0.00000000000E+00  0.10575048127E+04  0.10575048127E+04  0.50400001928E-02 0.  1.
        1   -1    0    0  501    0  0.00000000000E+00  0.00000000000E+00 -0.85250753993E+03  0.85250753994E+03  0.50400001928E-02 0. -1.
    10030    2    1    2    0    0  0.00000000000E+00  0.00000000000E+00  0.20499727275E+03  0.19100123526E+04  0.18989795432E+04 0.  0.
        3    1    3    3  502    0  0.31550188744E+03  0.16469776822E+03 -0.78287918231E+03  0.85998059288E+03  0.10100000352E+00 0. -1.
       -3    1    3    3    0  502 -0.31550188744E+03 -0.16469776822E+03  0.98787645506E+03  0.10500317598E+04  0.10100000352E+00 0.  1.
</event>
<event>
 5   0  0.2813537E-05  0.1900071E+04  0.7818609E-02  0.8654821E-01
        2   -1    0    0  501    0  0.00000000000E+00  0.00000000000E+00  0.71221258078E+03  0.71221258078E+03  0.25500000920E-02 0. -1.
       -2   -1    0    0    0  501  0.00000000000E+00  0.00000000000E+00 -0.12672731214E+04  0.12672731214E+04  0.25500000920E-02 0.  1.
    10030    2    1    2    0    0  0.00000000000E+00  0.00000000000E+00 -0.55506054062E+03  0.19794857022E+04  0.19000714306E+04 0.  0.
        2    1    3    3  502    0  0.10472697524E+03 -0.84111557670E+03  0.16950158958E+03  0.86439223828E+03  0.25500000920E-02 0. -1.
       -2    1    3    3    0  502 -0.10472697524E+03  0.84111557670E+03 -0.72456213021E+03  0.11150934639E+04  0.25500000920E-02 0.  1.
</event>
<event>
 5   0  0.1327254E-05  0.1901926E+04  0.7818609E-02  0.8653898E-01
        1   -1    0    0  501    0  0.00000000000E+00  0.00000000000E+00  0.15393186269E+04  0.15393186269E+04  0.50400001928E-02 0. -1.
       -1   -1    0    0    0  501  0.00000000000E+00  0.00000000000E+00 -0.58748769490E+03  0.58748769492E+03  0.50400001928E-02 0.  1.
    10030    2    1    2    0    0  0.00000000000E+00  0.00000000000E+00  0.95183093199E+03  0.21268063218E+04  0.19019261309E+04 0.  0.
        5    1    3    3  502    0  0.40319696337E+03 -0.14526863288E+03  0.14251922183E+04  0.14882424923E+04  0.46999998093E+01 0. -1.
       -5    1    3    3    0  502 -0.40319696337E+03  0.14526863288E+03 -0.47336128629E+03  0.63856382948E+03  0.46999998093E+01 0.  1.
</event>
<event>
 5   0  0.2879462E-05  0.1899528E+04  0.7818609E-02  0.8655091E-01
        2   -1    0    0  501    0  0.00000000000E+00  0.00000000000E+00  0.11764781669E+04  0.11764781669E+04  0.25500000920E-02 0.  1.
       -2   -1    0    0    0  501  0.00000000000E+00  0.00000000000E+00 -0.76673933328E+03  0.76673933329E+03  0.25500000920E-02 0. -1.
    10030    2    1    2    0    0  0.00000000000E+00  0.00000000000E+00  0.40973883364E+03  0.19432175002E+04  0.18995284524E+04 0.  0.
        4    1    3    3  502    0 -0.23703771745E+03 -0.29263428961E+03  0.10968343054E+04  0.11596847905E+04  0.12699999809E+01 0.  1.
       -4    1    3    3    0  502  0.23703771745E+03  0.29263428961E+03 -0.68709547176E+03  0.78353270970E+03  0.12699999809E+01 0. -1.
</event>
<event>
 5   0  0.2855141E-05  0.1898218E+04  0.7818609E-02  0.8655744E-01
        2   -1    0    0  501    0  0.00000000000E+00  0.00000000000E+00  0.14593704691E+04  0.14593704691E+04  0.25500000920E-02 0. -1.
       -2   -1    0    0    0  501  0.00000000000E+00  0.00000000000E+00 -0.61725785503E+03  0.61725785504E+03  0.25500000920E-02 0.  1.
    10030    2    1    2    0    0  0.00000000000E+00  0.00000000000E+00  0.84211261410E+03  0.20766283242E+04  0.18982179911E+04 0.  0.
        1    1    3    3  502    0  0.67416409254E+01  0.50091802976E+03  0.13029517506E+04  0.13959396787E+04  0.50400001928E-02 0. -1.
       -1    1    3    3    0  502 -0.67416409254E+01 -0.50091802976E+03 -0.46083913650E+03  0.68068864543E+03  0.50400001928E-02 0.  1.
</event>
<event>
 5   0  0.2855141E-05  0.1900817E+04  0.7818609E-02  0.8654450E-01
        2   -1    0    0  501    0  0.00000000000E+00  0.00000000000E+00  0.10382316555E+04  0.10382316555E+04  0.25500000920E-02 0. -1.
       -2   -1    0    0    0  501  0.00000000000E+00  0.00000000000E+00 -0.87001433147E+03  0.87001433147E+03  0.25500000920E-02 0.  1.
    10030    2    1    2    0    0  0.00000000000E+00  0.00000000000E+00  0.16821732398E+03  0.19082459869E+04  0.19008171081E+04 0.  0.
        1    1    3    3  502    0 -0.45292491969E+02  0.80813494976E+03 -0.41597764535E+03  0.91003895977E+03  0.50400001928E-02 0.  1.
       -1    1    3    3    0  502  0.45292491969E+02 -0.80813494976E+03  0.58419496933E+03  0.99820702716E+03  0.50400001928E-02 0. -1.
</event>
<event>
 5   0  0.1471485E-05  0.1903303E+04  0.7818609E-02  0.8653214E-01
        1   -1    0    0  501    0  0.00000000000E+00  0.00000000000E+00  0.16652353574E+04  0.16652353574E+04  0.50400001928E-02 0.  1.
       -1   -1    0    0    0  501  0.00000000000E+00  0.00000000000E+00 -0.54385111697E+03  0.54385111699E+03  0.50400001928E-02 0. -1.
    10030    2    1    2    0    0  0.00000000000E+00  0.00000000000E+00  0.11213842404E+04  0.22090864744E+04  0.19033025079E+04 0.  0.
        4    1    3    3  502    0 -0.68645055017E+03  0.42912535347E+03  0.11413417131E+04  0.13992946243E+04  0.12699999809E+01 0.  1.
       -4    1    3    3    0  502  0.68645055017E+03 -0.42912535347E+03 -0.19957472639E+02  0.80979185006E+03  0.12699999809E+01 0. -1.
</event>
<event>
 5   0  0.2879462E-05  0.1899278E+04  0.7818609E-02  0.8655216E-01
        2   -1    0    0  501    0  0.00000000000E+00  0.00000000000E+00  0.15404223731E+04  0.15404223731E+04  0.25500000920E-02 0. -1.
       -2   -1    0    0    0  501  0.00000000000E+00  0.00000000000E+00 -0.58543302343E+03  0.58543302343E+03  0.25500000920E-02 0.  1.
    10030    2    1    2    0    0  0.00000000000E+00  0.00000000000E+00  0.95498934971E+03  0.21258553966E+04  0.18992778915E+04 0.  0.
        4    1    3    3  502    0  0.67293581252E+03  0.16882183906E+03  0.12032867907E+04  0.13889723304E+04  0.12699999809E+01 0. -1.
       -4    1    3    3    0  502 -0.67293581252E+03 -0.16882183906E+03 -0.24829744097E+03  0.73688306617E+03  0.12699999809E+01 0.  1.
</event>
<event>
 5   0  0.2879462E-05  0.1898150E+04  0.7818609E-02  0.8655778E-01
        2   -1    0    0  501    0  0.00000000000E+00  0.00000000000E+00  0.14896806464E+04  0.14896806465E+04  0.25500000920E-02 0. -1.
       -2   -1    0    0    0  501  0.00000000000E+00  0.00000000000E+00 -0.60465521045E+03  0.60465521046E+03  0.25500000920E-02 0.  1.
    10030    2    1    2    0    0  0.00000000000E+00  0.00000000000E+00  0.88502543600E+03  0.20943358569E+04  0.18981497989E+04 0.  0.
        4    1    3    3  502    0 -0.46358969602E+03  0.84304345005E+02 -0.46648087871E+03  0.66304498486E+03  0.12699999809E+01 0.  1.
       -4    1    3    3    0  502  0.46358969602E+03 -0.84304345005E+02  0.13515063147E+04  0.14312908721E+04  0.12699999809E+01 0. -1.
</event>
<event>
 5   0  0.1344119E-05  0.1898079E+04  0.7818609E-02  0.8655813E-01
        1   -1    0    0  501    0  0.00000000000E+00  0.00000000000E+00  0.16001547640E+04  0.16001547641E+04  0.50400001928E-02 0. -1.
       -1   -1    0    0    0  501  0.00000000000E+00  0.00000000000E+00 -0.56286819274E+03  0.56286819276E+03  0.50400001928E-02 0.  1.
    10030    2    1    2    0    0  0.00000000000E+00  0.00000000000E+00  0.10372865713E+04  0.21630229568E+04  0.18980792609E+04 0.  0.
        2    1    3    3  502    0  0.41611699931E+03 -0.40702284468E+03  0.13728421959E+04  0.14911460854E+04  0.25500000920E-02 0. -1.
       -2    1    3    3    0  502 -0.41611699931E+03  0.40702284468E+03 -0.33555562454E+03  0.67187687144E+03  0.25500000920E-02 0.  1.
</event>
<event>
 5   0  0.2855141E-05  0.1899259E+04  0.7818609E-02  0.8655225E-01
        2   -1    0    0  501    0  0.00000000000E+00  0.00000000000E+00  0.23382505396E+04  0.23382505396E+04  0.25500000920E-02 0.  1.
       -2   -1    0    0    0  501  0.00000000000E+00  0.00000000000E+00 -0.38567137851E+03  0.38567137852E+03  0.25500000920E-02 0. -1.
    10030    2    1    2    0    0  0.00000000000E+00  0.00000000000E+00  0.19525791611E+04  0.27239219182E+04  0.18992591281E+04 0.  0.
        1    1    3    3  502    0 -0.67803515403E+03 -0.17302485764E+03  0.55572954705E+02  0.70196696844E+03  0.50400001928E-02 0. -1.
       -1    1    3    3    0  502  0.67803515403E+03  0.17302485764E+03  0.18970062064E+04  0.20219549497E+04  0.50400001928E-02 0.  1.
</event>
<event>
 5   0  0.1327254E-05  0.1894898E+04  0.7818609E-02  0.8657400E-01
       -1   -1    0    0    0  501  0.00000000000E+00  0.00000000000E+00  0.41020572542E+03  0.41020572545E+03  0.50400001928E-02 0.  1.
        1   -1    0    0  501    0  0.00000000000E+00  0.00000000000E+00 -0.21883150366E+04  0.21883150366E+04  0.50400001928E-02 0. -1.
    10030    2    1    2    0    0  0.00000000000E+00  0.00000000000E+00 -0.17781093112E+04  0.25985207620E+04  0.18948977356E+04 0.  0.
        5    1    3    3  502    0 -0.46364427604E+03 -0.78714503742E+03 -0.12334564480E+04  0.15349267812E+04  0.46999998093E+01 0. -1.
       -5    1    3    3    0  502  0.46364427604E+03  0.78714503742E+03 -0.54465286318E+03  0.10635939808E+04  0.46999998093E+01 0.  1.
</event>
<event>
 5   0  0.1327254E-05  0.1897950E+04  0.7818609E-02  0.8655878E-01
        1   -1    0    0  501    0  0.00000000000E+00  0.00000000000E+00  0.96926905102E+03  0.96926905103E+03  0.50400001928E-02 0. -1.
       -1   -1    0    0    0  501  0.00000000000E+00  0.00000000000E+00 -0.92910548544E+03  0.92910548545E+03  0.50400001928E-02 0.  1.
    10030    2    1    2    0    0  0.00000000000E+00  0.00000000000E+00  0.40163565580E+02  0.18983745365E+04  0.18979496223E+04 0.  0.
        5    1    3    3  502    0  0.67295419633E+03 -0.27499053704E+03  0.63017240056E+03  0.96209484473E+03  0.46999998093E+01 0. -1.
       -5    1    3    3    0  502 -0.67295419633E+03  0.27499053704E+03 -0.59000883498E+03  0.93627969175E+03  0.46999998093E+01 0.  1.
</event>
<event>
 5   0  0.1327254E-05  0.1902155E+04  0.7818609E-02  0.8653785E-01
       -1   -1    0    0    0  501  0.00000000000E+00  0.00000000000E+00  0.84685179884E+03  0.84685179886E+03  0.50400001928E-02 0. -1.
        1   -1    0    0  501    0  0.00000000000E+00  0.00000000000E+00 -0.10681304704E+04  0.10681304704E+04  0.50400001928E-02 0.  1.
    10030    2    1    2    0    0  0.00000000000E+00  0.00000000000E+00 -0.22127867159E+03  0.19149822693E+04  0.19021547890E+04 0.  0.
        5    1    3    3  502    0 -0.81191614783E+03  0.24051784665E+02 -0.60868733914E+03  0.10150412239E+04  0.46999998093E+01 0.  1.
       -5    1    3    3    0  502  0.81191614783E+03 -0.24051784665E+02  0.38740866755E+03  0.89994104537E+03  0.46999998093E+01 0. -1.
</event>
<event>
 5   0  0.1344119E-05  0.1899775E+04  0.7818609E-02  0.8654968E-01
       -1   -1    0    0    0  501  0.00000000000E+00  0.00000000000E+00  0.65251979675E+03  0.65251979677E+03  0.50400001928E-02 0.  1.
        1   -1    0    0  501    0  0.00000000000E+00  0.00000000000E+00 -0.13827729544E+04  0.13827729544E+04  0.50400001928E-02 0. -1.
    10030    2    1    2    0    0  0.00000000000E+00  0.00000000000E+00 -0.73025315764E+03  0.20352927512E+04  0.18997754890E+04 0.  0.
        2    1    3    3  502    0  0.54029352066E+02 -0.91127156085E+03 -0.83808857728E+02  0.91671094307E+03  0.25500000920E-02 0.  1.
       -2    1    3    3    0  502 -0.54029352066E+02  0.91127156085E+03 -0.64644429991E+03  0.11185818081E+04  0.25500000920E-02 0. -1.
</event>
<event>
 5   0  0.2888776E-05  0.1901447E+04  0.7818609E-02  0.8654136E-01
        2   -1    0    0  501    0  0.00000000000E+00  0.00000000000E+00  0.14314396250E+04  0.14314396250E+04  0.25500000920E-02 0.  1.
       -2   -1    0    0    0  501  0.00000000000E+00  0.00000000000E+00 -0.63144500873E+03  0.63144500874E+03  0.25500000920E-02 0. -1.
    10030    2    1    2    0    0  0.00000000000E+00  0.00000000000E+00  0.79999461631E+03  0.20628846338E+04  0.19014472452E+04 0.  0.
        3    1    3    3  502    0  0.54636368284E+03 -0.50719144489E+03  0.10401071422E+04  0.12796793791E+04  0.10100000352E+00 0.  1.
       -3    1    3    3    0  502 -0.54636368284E+03  0.50719144489E+03 -0.24011252593E+03  0.78320525471E+03  0.10100000352E+00 0. -1.
</event>
<event>
 5   0  0.2789718E-05  0.1911432E+04  0.7818609E-02  0.8649187E-01
       -2   -1    0    0    0  501  0.00000000000E+00  0.00000000000E+00  0.15398531171E+04  0.15398531171E+04  0.25500000920E-02 0. -1.
        2   -1    0    0  501    0  0.00000000000E+00  0.00000000000E+00 -0.59316887630E+03  0.59316887630E+03  0.25500000920E-02 0.  1.
    10030    2    1    2    0    0  0.00000000000E+00  0.00000000000E+00  0.94668424080E+03  0.21330219934E+04  0.19114318645E+04 0.  0.
        5    1    3    3  502    0  0.32898354327E+03 -0.88890752528E+03  0.33674179295E+03  0.10058846283E+04  0.46999998093E+01 0. -1.
       -5    1    3    3    0  502 -0.32898354327E+03  0.88890752528E+03  0.60994244784E+03  0.11271373651E+04  0.46999998093E+01 0.  1.
</event>
<event>
 5   0  0.2813537E-05  0.1899444E+04  0.7818609E-02  0.8655133E-01
       -2   -1    0    0    0  501  0.00000000000E+00  0.00000000000E+00  0.51478970886E+03  0.51478970887E+03  0.25500000920E-02 0. -1.
        2   -1    0    0  501    0  0.00000000000E+00  0.00000000000E+00 -0.17521167284E+04  0.17521167284E+04  0.25500000920E-02 0.  1.
    10030    2    1    2    0    0  0.00000000000E+00  0.00000000000E+00 -0.12373270195E+04  0.22669064372E+04  0.18994437717E+04 0.  0.
        2    1    3    3  502    0  0.88220604580E+03 -0.22855445231E+03 -0.29965725370E+03  0.95933264023E+03  0.25500000920E-02 0.  1.
       -2    1    3    3    0  502 -0.88220604580E+03  0.22855445231E+03 -0.93766976582E+03  0.13075737970E+04  0.25500000920E-02 0. -1.
</event>
<event>
 5   0  0.1471485E-05  0.1914079E+04  0.7818609E-02  0.8647880E-01
       -1   -1    0    0    0  501  0.00000000000E+00  0.00000000000E+00  0.82517731297E+03  0.82517731298E+03  0.50400001928E-02 0. -1.
        1   -1    0    0  501    0  0.00000000000E+00  0.00000000000E+00 -0.11099727356E+04  0.11099727357E+04  0.50400001928E-02 0.  1.
    10030    2    1    2    0    0  0.00000000000E+00  0.00000000000E+00 -0.28479542268E+03  0.19351500486E+04  0.19140787021E+04 0.  0.
        4    1    3    3  502    0 -0.31767443834E+03  0.56710533983E+03  0.56775735673E+03  0.86306172680E+03  0.12699999809E+01 0. -1.
       -4    1    3    3    0  502  0.31767443834E+03 -0.56710533983E+03 -0.85255277941E+03  0.10720883218E+04  0.12699999809E+01 0.  1.
</event>
<event>
 5   0  0.2855141E-05  0.1889053E+04  0.7818609E-02  0.8660324E-01
       -2   -1    0    0    0  501  0.00000000000E+00  0.00000000000E+00  0.41216971213E+03  0.41216971214E+03  0.25500000920E-02 0. -1.
        2   -1    0    0  501    0  0.00000000000E+00  0.00000000000E+00 -0.21644741218E+04  0.21644741218E+04  0.25500000920E-02 0.  1.
    10030    2    1    2    0    0  0.00000000000E+00  0.00000000000E+00 -0.17523044097E+04  0.25766438339E+04  0.18890533880E+04 0.  0.
        1    1    3    3  502    0 -0.38069660424E+03 -0.54122094170E+02 -0.20528796255E+04  0.20885817826E+04  0.50400001928E-02 0.  1.
       -1    1    3    3    0  502  0.38069660424E+03  0.54122094170E+02  0.30057521587E+03  0.48806205136E+03  0.50400001928E-02 0. -1.
</event>
<event>
 5   0  0.1344119E-05  0.1903398E+04  0.7818609E-02  0.8653167E-01
       -1   -1    0    0    0  501  0.00000000000E+00  0.00000000000E+00  0.48422799219E+03  0.48422799222E+03  0.50400001928E-02 0.  1.
        1   -1    0    0  501    0  0.00000000000E+00  0.00000000000E+00 -0.18704643142E+04  0.18704643142E+04  0.50400001928E-02 0. -1.
    10030    2    1    2    0    0  0.00000000000E+00  0.00000000000E+00 -0.13862363220E+04  0.23546923065E+04  0.19033982026E+04 0.  0.
        2    1    3    3  502    0 -0.88871049058E+02  0.21215006646E+03  0.44932496765E+03  0.50477583205E+03  0.25500000920E-02 0.  1.
       -2    1    3    3    0  502  0.88871049058E+02 -0.21215006646E+03 -0.18355612897E+04  0.18499164744E+04  0.25500000920E-02 0. -1.
</event>
<event>
 5   0  0.1413011E-05  0.1904701E+04  0.7818609E-02  0.8652520E-01
       -1   -1    0    0    0  501  0.00000000000E+00  0.00000000000E+00  0.57364383084E+03  0.57364383086E+03  0.50400001928E-02 0. -1.
        1   -1    0    0  501    0  0.00000000000E+00  0.00000000000E+00 -0.15810709369E+04  0.15810709369E+04  0.50400001928E-02 0.  1.
    10030    2    1    2    0    0  0.00000000000E+00  0.00000000000E+00 -0.10074271060E+04  0.21547147678E+04  0.19047011200E+04 0.  0.
        1    1    3    3  502    0 -0.66724235381E+03  0.40742862479E+03 -0.11189378962E+04  0.13650027320E+04  0.50400001928E-02 0.  1.
       -1    1    3    3    0  502  0.66724235381E+03 -0.40742862479E+03  0.11151079011E+03  0.78971203571E+03  0.50400001928E-02 0. -1.
</event>
<event>
 5   0  0.1429067E-05  0.1896199E+04  0.7818609E-02  0.8656751E-01
       -1   -1    0    0    0  501  0.00000000000E+00  0.00000000000E+00  0.50988512802E+03  0.50988512805E+03  0.50400001928E-02 0. -1.
        1   -1    0    0  501    0  0.00000000000E+00  0.00000000000E+00 -0.17629310751E+04  0.17629310751E+04  0.50400001928E-02 0.  1.
    10030    2    1    2    0    0  0.00000000000E+00  0.00000000000E+00 -0.12530459470E+04  0.22728162031E+04  0.18961986573E+04 0.  0.
        3    1    3    3  502    0  0.87970834665E+03  0.31287653221E+01 -0.20275500442E+03  0.90277691949E+03  0.10100000352E+00 0.  1.
       -3    1    3    3    0  502 -0.87970834665E+03 -0.31287653221E+01 -0.10502909426E+04  0.13700392836E+04  0.10100000352E+00 0. -1.
</event>
<event>
 5   0  0.1344119E-05  0.1903203E+04  0.7818609E-02  0.8653264E-01
       -1   -1    0    0    0  501  0.00000000000E+00  0.00000000000E+00  0.75256265582E+03  0.75256265584E+03  0.50400001928E-02 0.  1.
        1   -1    0    0  501    0  0.00000000000E+00  0.00000000000E+00 -0.12032820209E+04  0.12032820209E+04  0.50400001928E-02 0. -1.
    10030    2    1    2    0    0  0.00000000000E+00  0.00000000000E+00 -0.45071936511E+03  0.19558446768E+04  0.19032026833E+04 0.  0.
        2    1    3    3  502    0  0.55164691425E+02 -0.62193696546E+03  0.51262332649E+03  0.80785605590E+03  0.25500000920E-02 0.  1.
       -2    1    3    3    0  502 -0.55164691425E+02  0.62193696546E+03 -0.96334269160E+03  0.11479886209E+04  0.25500000920E-02 0. -1.
</event>
<event>
 5   0  0.1429067E-05  0.1903435E+04  0.7818609E-02  0.8653148E-01
        1   -1    0    0  501    0  0.00000000000E+00  0.00000000000E+00  0.10273109957E+04  0.10273109957E+04  0.50400001928E-02 0.  1.
       -1   -1    0    0    0  501  0.00000000000E+00  0.00000000000E+00 -0.88168690843E+03  0.88168690844E+03  0.50400001928E-02 0. -1.
    10030    2    1    2    0    0  0.00000000000E+00  0.00000000000E+00  0.14562408729E+03  0.19089979042E+04  0.19034354792E+04 0.  0.
        3    1    3    3  502    0  0.52792340743E+03  0.34208955514E+02  0.86625814764E+03  0.10150254013E+04  0.10100000352E+00 0.  1.
       -3    1    3    3    0  502 -0.52792340743E+03 -0.34208955514E+02 -0.72063406035E+03  0.89397250287E+03  0.10100000352E+00 0. -1.
</event>
<event>
 5   0  0.1413011E-05  0.1902690E+04  0.7818609E-02  0.8653518E-01
        1   -1    0    0  501    0  0.00000000000E+00  0.00000000000E+00  0.12477904236E+04  0.12477904236E+04  0.50400001928E-02 0. -1.
       -1   -1    0    0    0  501  0.00000000000E+00  0.00000000000E+00 -0.72532827310E+03  0.72532827312E+03  0.50400001928E-02 0.  1.
    10030    2    1    2    0    0  0.00000000000E+00  0.00000000000E+00  0.52246215054E+03  0.19731186968E+04  0.19026903828E+04 0.  0.
        1    1    3    3  502    0 -0.23370045535E+03  0.56158000129E+02  0.12157853553E+04  0.12393158008E+04  0.50400001928E-02 0. -1.
       -1    1    3    3    0  502  0.23370045535E+03 -0.56158000129E+02 -0.69332320480E+03  0.73380289598E+03  0.50400001928E-02 0.  1.
</event>
<event>
 5   0  0.1344119E-05  0.1896192E+04  0.7818609E-02  0.8656754E-01
        1   -1    0    0  501    0  0.00000000000E+00  0.00000000000E+00  0.73982906207E+03  0.73982906209E+03  0.50400001928E-02 0.  1.
       -1   -1    0    0    0  501  0.00000000000E+00  0.00000000000E+00 -0.12149920506E+04  0.12149920506E+04  0.50400001928E-02 0. -1.
    10030    2    1    2    0    0  0.00000000000E+00  0.00000000000E+00 -0.47516298856E+03  0.19548211127E+04  0.18961924262E+04 0.  0.
        2    1    3    3  502    0 -0.27456381570E+03 -0.50442596526E+03 -0.10152633362E+04  0.11664435199E+04  0.25500000920E-02 0. -1.
       -2    1    3    3    0  502  0.27456381570E+03  0.50442596526E+03  0.54010034763E+03  0.78837759281E+03  0.25500000920E-02 0.  1.
</event>
<event>
 5   0  0.2813537E-05  0.1902109E+04  0.7818609E-02  0.8653807E-01
       -2   -1    0    0    0  501  0.00000000000E+00  0.00000000000E+00  0.70160900478E+03  0.70160900479E+03  0.25500000920E-02 0. -1.
        2   -1    0    0  501    0  0.00000000000E+00  0.00000000000E+00 -0.12891861238E+04  0.12891861238E+04  0.25500000920E-02 0.  1.
    10030    2    1    2    0    0  0.00000000000E+00  0.00000000000E+00 -0.58757711898E+03  0.19907951286E+04  0.19021089278E+04 0.  0.
        2    1    3    3  502    0 -0.82037821887E+03 -0.39506660585E+03 -0.58119448376E+03  0.10802245475E+04  0.25500000920E-02 0.  1.
       -2    1    3    3    0  502  0.82037821887E+03  0.39506660585E+03 -0.63826352208E+01  0.91057058106E+03  0.25500000920E-02 0. -1.
</event>
<event>
 5   0  0.1344119E-05  0.1894358E+04  0.7818609E-02  0.8657670E-01
        1   -1    0    0  501    0  0.00000000000E+00  0.00000000000E+00  0.20482074518E+04  0.20482074518E+04  0.50400001928E-02 0.  1.
       -1   -1    0    0    0  501  0.00000000000E+00  0.00000000000E+00 -0.43801636421E+03  0.43801636424E+03  0.50400001928E-02 0. -1.
    10030    2    1    2    0    0  0.00000000000E+00  0.00000000000E+00  0.16101910876E+04  0.24862238161E+04  0.18943583412E+04 0.  0.
        2    1    3    3  502    0 -0.68931059708E+03  0.64961419279E+03  0.80401127913E+03  0.12424096891E+04  0.25500000920E-02 0. -1.
       -2    1    3    3    0  502  0.68931059708E+03 -0.64961419279E+03  0.80617980846E+03  0.12438141269E+04  0.25500000920E-02 0.  1.
</event>
<event>
 5   0  0.1327254E-05  0.1902076E+04  0.7818609E-02  0.8653824E-01
        1   -1    0    0  501    0  0.00000000000E+00  0.00000000000E+00  0.99109020276E+03  0.99109020277E+03  0.50400001928E-02 0.  1.
       -1   -1    0    0    0  501  0.00000000000E+00  0.00000000000E+00 -0.91260433040E+03  0.91260433041E+03  0.50400001928E-02 0. -1.
    10030    2    1    2    0    0  0.00000000000E+00  0.00000000000E+00  0.78485872361E+02  0.19036945332E+04  0.19020759300E+04 0.  0.
        5    1    3    3  502    0 -0.46077839932E+03  0.50468508867E+03 -0.62270278500E+03  0.92455644525E+03  0.46999998093E+01 0. -1.
       -5    1    3    3    0  502  0.46077839932E+03 -0.50468508867E+03  0.70118865737E+03  0.97913808793E+03  0.46999998093E+01 0.  1.
</event>
<event>
 5   0  0.2888776E-05  0.1899150E+04  0.7818609E-02  0.8655279E-01
        2   -1    0    0  501    0  0.00000000000E+00  0.00000000000E+00  0.91324919473E+03  0.91324919474E+03  0.25500000920E-02 0. -1.
       -2   -1    0    0    0  501  0.00000000000E+00  0.00000000000E+00 -0.98734603043E+03  0.98734603043E+03  0.25500000920E-02 0.  1.
    10030    2    1    2    0    0  0.00000000000E+00  0.00000000000E+00 -0.74096835695E+02  0.19005952252E+04  0.18991503018E+04 0.  0.
        3    1    3    3  502    0  0.84731032350E+03 -0.40794874148E+03  0.94717990695E+02  0.94516055142E+03  0.10100000352E+00 0.  1.
       -3    1    3    3    0  502 -0.84731032350E+03  0.40794874148E+03 -0.16881482639E+03  0.95543467375E+03  0.10100000352E+00 0. -1.
</event>
<event>
 5   0  0.2888776E-05  0.1902944E+04  0.7818609E-02  0.8653392E-01
        2   -1    0    0  501    0  0.00000000000E+00  0.00000000000E+00  0.72800221357E+03  0.72800221357E+03  0.25500000920E-02 0.  1.
       -2   -1    0    0    0  501  0.00000000000E+00  0.00000000000E+00 -0.12435389491E+04  0.12435389491E+04  0.25500000920E-02 0. -1.
    10030    2    1    2    0    0  0.00000000000E+00  0.00000000000E+00 -0.51553673548E+03  0.19715411626E+04  0.19029441480E+04 0.  0.
        3    1    3    3  502    0 -0.68438673137E+02 -0.27611591999E+03 -0.11984491634E+04  0.12317484568E+04  0.10100000352E+00 0. -1.
       -3    1    3    3    0  502  0.68438673137E+02  0.27611591999E+03  0.68291242792E+03  0.73979270587E+03  0.10100000352E+00 0.  1.
</event>
<event>
 5   0  0.2879462E-05  0.1909059E+04  0.7818609E-02  0.8650360E-01
        2   -1    0    0  501    0  0.00000000000E+00  0.00000000000E+00  0.12304306619E+04  0.12304306619E+04  0.25500000920E-02 0.  1.
       -2   -1    0    0    0  501  0.00000000000E+00  0.00000000000E+00 -0.74049434889E+03  0.74049434890E+03  0.25500000920E-02 0. -1.
    10030    2    1    2    0    0  0.00000000000E+00  0.00000000000E+00  0.48993631304E+03  0.19709250108E+04  0.19090594039E+04 0.  0.
        4    1    3    3  502    0  0.62415426881E+03  0.31721589405E+03 -0.42484865527E+03  0.81895815980E+03  0.12699999809E+01 0. -1.
       -4    1    3    3    0  502 -0.62415426881E+03 -0.31721589405E+03  0.91478496831E+03  0.11519668510E+04  0.12699999809E+01 0.  1.
</event>
<event>
 5   0  0.2888776E-05  0.1900386E+04  0.7818609E-02  0.8654664E-01
        2   -1    0    0  501    0  0.00000000000E+00  0.00000000000E+00  0.22270464062E+04  0.22270464062E+04  0.25500000920E-02 0. -1.
       -2   -1    0    0    0  501  0.00000000000E+00  0.00000000000E+00 -0.40540994208E+03  0.40540994209E+03  0.25500000920E-02 0.  1.
    10030    2    1    2    0    0  0.00000000000E+00  0.00000000000E+00  0.18216364641E+04  0.26324563483E+04  0.19003860182E+04 0.  0.
        3    1    3    3  502    0  0.22819825148E+03  0.60005979340E+03 -0.59549783245E+02  0.64474210698E+03  0.10100000352E+00 0.  1.
       -3    1    3    3    0  502 -0.22819825148E+03 -0.60005979340E+03  0.18811862474E+04  0.19877142413E+04  0.10100000352E+00 0. -1.
</event>
<event>
 5   0  0.2855141E-05  0.1895488E+04  0.7818609E-02  0.8657106E-01
        2   -1    0    0  501    0  0.00000000000E+00  0.00000000000E+00  0.15250116024E+04  0.15250116024E+04  0.25500000920E-02 0.  1.
       -2   -1    0    0    0  501  0.00000000000E+00  0.00000000000E+00 -0.58899122718E+03  0.58899122719E+03  0.25500000920E-02 0. -1.
    10030    2    1    2    0    0  0.00000000000E+00  0.00000000000E+00  0.93602037525E+03  0.21140028296E+04  0.18954877527E+04 0.  0.
        1    1    3    3  502    0  0.37508866678E+03  0.84225148890E+03  0.71271066290E+03  0.11653478311E+04  0.50400001928E-02 0. -1.
       -1    1    3    3    0  502 -0.37508866678E+03 -0.84225148890E+03  0.22330971235E+03  0.94865499849E+03  0.50400001928E-02 0.  1.
</event>
<event>
 5   0  0.2789718E-05  0.1898578E+04  0.7818609E-02  0.8655565E-01
        2   -1    0    0  501    0  0.00000000000E+00  0.00000000000E+00  0.23443039131E+04  0.23443039131E+04  0.25500000920E-02 0. -1.
       -2   -1    0    0    0  501  0.00000000000E+00  0.00000000000E+00 -0.38439952606E+03  0.38439952607E+03  0.25500000920E-02 0.  1.
    10030    2    1    2    0    0  0.00000000000E+00  0.00000000000E+00  0.19599043871E+04  0.27287034392E+04  0.18985776920E+04 0.  0.
        5    1    3    3  502    0  0.10734649464E+03  0.83864709698E+03  0.16002571489E+04  0.18098887413E+04  0.46999998093E+01 0. -1.
       -5    1    3    3    0  502 -0.10734649464E+03 -0.83864709698E+03  0.35964723817E+03  0.91881469792E+03  0.46999998093E+01 0.  1.
</event>
<event>
 5   0  0.2789718E-05  0.1895424E+04  0.7818609E-02  0.8657138E-01
       -2   -1    0    0    0  501  0.00000000000E+00  0.00000000000E+00  0.11996198092E+04  0.11996198092E+04  0.25500000920E-02 0.  1.
        2   -1    0    0  501    0  0.00000000000E+00  0.00000000000E+00 -0.74870206928E+03  0.74870206928E+03  0.25500000920E-02 0. -1.
    10030    2    1    2    0    0  0.00000000000E+00  0.00000000000E+00  0.45091773990E+03  0.19483218785E+04  0.18954237874E+04 0.  0.
        5    1    3    3  502    0 -0.11467440735E+03 -0.16980171107E+03  0.11765673360E+04  0.11942845670E+04  0.46999998093E+01 0.  1.
       -5    1    3    3    0  502  0.11467440735E+03  0.16980171107E+03 -0.72564959611E+03  0.75403731148E+03  0.46999998093E+01 0. -1.
</event>
<event>
 5   0  0.1327254E-05  0.1907920E+04  0.7818609E-02  0.8650924E-01
        1   -1    0    0  501    0  0.00000000000E+00  0.00000000000E+00  0.11360208352E+04  0.11360208352E+04  0.50400001928E-02 0. -1.
       -1   -1    0    0    0  501  0.00000000000E+00  0.00000000000E+00 -0.80107685112E+03  0.80107685113E+03  0.50400001928E-02 0.  1.
    10030    2    1    2    0    0  0.00000000000E+00  0.00000000000E+00  0.33494398408E+03  0.19370976863E+04  0.19079203269E+04 0.  0.
        5    1    3    3  502    0  0.11342729834E+03 -0.87938574264E+03 -0.18980845701E+03  0.90677140268E+03  0.46999998093E+01 0.  1.
       -5    1    3    3    0  502 -0.11342729834E+03  0.87938574264E+03  0.52475244110E+03  0.10303262837E+04  0.46999998093E+01 0. -1.
</event>
<event>
 5   0  0.1413011E-05  0.1910085E+04  0.7818609E-02  0.8649852E-01
       -1   -1    0    0    0  501  0.00000000000E+00  0.00000000000E+00  0.10986249721E+04  0.10986249721E+04  0.50400001928E-02 0.  1.
        1   -1    0    0  501    0  0.00000000000E+00  0.00000000000E+00 -0.83022558462E+03  0.83022558464E+03  0.50400001928E-02 0. -1.
    10030    2    1    2    0    0  0.00000000000E+00  0.00000000000E+00  0.26839938746E+03  0.19288505567E+04  0.19100854010E+04 0.  0.
        1    1    3    3  502    0 -0.10006299220E+03 -0.55433595288E+03 -0.64461354087E+03  0.85605348441E+03  0.50400001928E-02 0. -1.
       -1    1    3    3    0  502  0.10006299220E+03  0.55433595288E+03  0.91301292833E+03  0.10727970723E+04  0.50400001928E-02 0.  1.
</event>
<event>
 5   0  0.1429067E-05  0.1899062E+04  0.7818609E-02  0.8655324E-01
        1   -1    0    0  501    0  0.00000000000E+00  0.00000000000E+00  0.11813135383E+04  0.11813135383E+04  0.50400001928E-02 0.  1.
       -1   -1    0    0    0  501  0.00000000000E+00  0.00000000000E+00 -0.76322552910E+03  0.76322552912E+03  0.50400001928E-02 0. -1.
    10030    2    1    2    0    0  0.00000000000E+00  0.00000000000E+00  0.41808800921E+03  0.19445390674E+04  0.18990615054E+04 0.  0.
        3    1    3    3  502    0 -0.54512214093E+03  0.49473579114E+03 -0.40505728053E+03  0.84023393307E+03  0.10100000352E+00 0. -1.
       -3    1    3    3    0  502  0.54512214093E+03 -0.49473579114E+03  0.82314528974E+03  0.11043051344E+04  0.10100000352E+00 0.  1.
</event>
<event>
 5   0  0.1413011E-05  0.1897297E+04  0.7818609E-02  0.8656203E-01
        1   -1    0    0  501    0  0.00000000000E+00  0.00000000000E+00  0.83566380968E+03  0.83566380970E+03  0.50400001928E-02 0. -1.
       -1   -1    0    0    0  501  0.00000000000E+00  0.00000000000E+00 -0.10769086896E+04  0.10769086897E+04  0.50400001928E-02 0.  1.
    10030    2    1    2    0    0  0.00000000000E+00  0.00000000000E+00 -0.24124487996E+03  0.19125724994E+04  0.18972966224E+04 0.  0.
        1    1    3    3  502    0 -0.57128159496E+02  0.77705069198E+03  0.42490216526E+03  0.88747577690E+03  0.50400001928E-02 0.  1.
       -1    1    3    3    0  502  0.57128159496E+02 -0.77705069198E+03 -0.66614704522E+03  0.10250967225E+04  0.50400001928E-02 0. -1.
</event>
<event>
 5   0  0.1471485E-05  0.1897581E+04  0.7818609E-02  0.8656062E-01
        1   -1    0    0  501    0  0.00000000000E+00  0.00000000000E+00  0.17874319638E+04  0.17874319638E+04  0.50400001928E-02 0. -1.
       -1   -1    0    0    0  501  0.00000000000E+00  0.00000000000E+00 -0.50362935754E+03  0.50362935756E+03  0.50400001928E-02 0.  1.
    10030    2    1    2    0    0  0.00000000000E+00  0.00000000000E+00  0.12838026063E+04  0.22910613214E+04  0.18975807879E+04 0.  0.
        4    1    3    3  502    0  0.73652230508E+03 -0.23661480365E+03  0.13051249862E+04  0.15171699027E+04  0.12699999809E+01 0. -1.
       -4    1    3    3    0  502 -0.73652230508E+03  0.23661480365E+03 -0.21322379882E+02  0.77389141872E+03  0.12699999809E+01 0.  1.
</event>
<event>
 5   0  0.2879462E-05  0.1900191E+04  0.7818609E-02  0.8654761E-01
        2   -1    0    0  501    0  0.00000000000E+00  0.00000000000E+00  0.15241075729E+04  0.15241075729E+04  0.25500000920E-02 0. -1.
       -2   -1    0    0    0  501  0.00000000000E+00  0.00000000000E+00 -0.59226866234E+03  0.59226866234E+03  0.25500000920E-02 0.  1.
    10030    2    1    2    0    0  0.00000000000E+00  0.00000000000E+00  0.93183891054E+03  0.21163762352E+04  0.19001906783E+04 0.  0.
        4    1    3    3  502    0  0.89792793314E+03  0.21261995903E+03  0.21390758038E+03  0.94722747317E+03  0.12699999809E+01 0.  1.
       -4    1    3    3    0  502 -0.89792793314E+03 -0.21261995903E+03  0.71793133017E+03  0.11691487621E+04  0.12699999809E+01 0. -1.
</event>
<event>
 5   0  0.2789718E-05  0.1899493E+04  0.7818609E-02  0.8655109E-01
       -2   -1    0    0    0  501  0.00000000000E+00  0.00000000000E+00  0.80179535794E+03  0.80179535794E+03  0.25500000920E-02 0. -1.
        2   -1    0    0  501    0  0.00000000000E+00  0.00000000000E+00 -0.11249977464E+04  0.11249977464E+04  0.25500000920E-02 0.  1.
    10030    2    1    2    0    0  0.00000000000E+00  0.00000000000E+00 -0.32320238846E+03  0.19267931043E+04  0.18994925330E+04 0.  0.
        5    1    3    3  502    0  0.55630593945E+03 -0.13009074099E+03 -0.93118579572E+03  0.10924875172E+04  0.46999998093E+01 0.  1.
       -5    1    3    3    0  502 -0.55630593945E+03  0.13009074099E+03  0.60798340727E+03  0.83430558710E+03  0.46999998093E+01 0. -1.
</event>
<event>
 5   0  0.1413011E-05  0.1903050E+04  0.7818609E-02  0.8653340E-01
        1   -1    0    0  501    0  0.00000000000E+00  0.00000000000E+00  0.91467614385E+03  0.91467614386E+03  0.50400001928E-02 0.  1.
       -1   -1    0    0    0  501  0.00000000000E+00  0.00000000000E+00 -0.98985787107E+03  0.98985787109E+03  0.50400001928E-02 0. -1.
    10030    2    1    2    0    0  0.00000000000E+00  0.00000000000E+00 -0.75181727227E+02  0.19045340149E+04  0.19030495322E+04 0.  0.
        1    1    3    3  502    0  0.26752648655E+03 -0.86880389851E+03  0.24371334141E+03  0.94116248750E+03  0.50400001928E-02 0. -1.
       -1    1    3    3    0  502 -0.26752648655E+03  0.86880389851E+03 -0.31889506863E+03  0.96337152745E+03  0.50400001928E-02 0.  1.
</event>
<event>
 5   0  0.2888776E-05  0.1901917E+04  0.7818609E-02  0.8653903E-01
        2   -1    0    0  501    0  0.00000000000E+00  0.00000000000E+00  0.13555084907E+04  0.13555084907E+04  0.25500000920E-02 0.  1.
       -2   -1    0    0    0  501  0.00000000000E+00  0.00000000000E+00 -0.66714615501E+03  0.66714615502E+03  0.25500000920E-02 0. -1.
    10030    2    1    2    0    0  0.00000000000E+00  0.00000000000E+00  0.68836233570E+03  0.20226546457E+04  0.19019172197E+04 0.  0.
        3    1    3    3  502    0  0.10821181917E+03  0.26058936421E+03 -0.62160195445E+03  0.68264603897E+03  0.10100000352E+00 0. -1.
       -3    1    3    3    0  502 -0.10821181917E+03 -0.26058936421E+03  0.13099642901E+04  0.13400086068E+04  0.10100000352E+00 0.  1.
</event>
<event>
 5   0  0.2855141E-05  0.1901928E+04  0.7818609E-02  0.8653897E-01
        2   -1    0    0  501    0  0.00000000000E+00  0.00000000000E+00  0.12422851802E+04  0.12422851802E+04  0.25500000920E-02 0. -1.
       -2   -1    0    0    0  501  0.00000000000E+00  0.00000000000E+00 -0.72795923674E+03  0.72795923674E+03  0.25500000920E-02 0.  1.
    10030    2    1    2    0    0  0.00000000000E+00  0.00000000000E+00  0.51432594350E+03  0.19702444170E+04  0.19019284651E+04 0.  0.
        1    1    3    3  502    0  0.27227905964E+02  0.70508517209E+03 -0.40326829844E+03  0.81271875782E+03  0.50400001928E-02 0.  1.
       -1    1    3    3    0  502 -0.27227905964E+02 -0.70508517209E+03  0.91759424194E+03  0.11575256592E+04  0.50400001928E-02 0. -1.
</event>
<event>
 5   0  0.2813537E-05  0.1900098E+04  0.7818609E-02  0.8654808E-01
       -2   -1    0    0    0  501  0.00000000000E+00  0.00000000000E+00  0.14200686739E+04  0.14200686739E+04  0.25500000920E-02 0. -1.
        2   -1    0    0  501    0  0.00000000000E+00  0.00000000000E+00 -0.63559821797E+03  0.63559821798E+03  0.25500000920E-02 0.  1.
    10030    2    1    2    0    0  0.00000000000E+00  0.00000000000E+00  0.78447045588E+03  0.20556668918E+04  0.19000980170E+04 0.  0.
        2    1    3    3  502    0  0.51975584240E+03  0.22778426001E+03 -0.43209415988E+03  0.71325813548E+03  0.25500000920E-02 0.  1.
       -2    1    3    3    0  502 -0.51975584240E+03 -0.22778426001E+03  0.12165646158E+04  0.13424087564E+04  0.25500000920E-02 0. -1.
</event>
<event>
 5   0  0.1344119E-05  0.1900055E+04  0.7818609E-02  0.8654829E-01
        1   -1    0    0  501    0  0.00000000000E+00  0.00000000000E+00  0.70299776587E+03  0.70299776589E+03  0.50400001928E-02 0. -1.
       -1   -1    0    0    0  501  0.00000000000E+00  0.00000000000E+00 -0.12838615352E+04  0.12838615352E+04  0.50400001928E-02 0.  1.
    10030    2    1    2    0    0  0.00000000000E+00  0.00000000000E+00 -0.58086376933E+03  0.19868593011E+04  0.19000545160E+04 0.  0.
        2    1    3    3  502    0 -0.83834383510E+03  0.13661078323E+03  0.15453017556E+03  0.86334377111E+03  0.25500000920E-02 0. -1.
       -2    1    3    3    0  502  0.83834383510E+03 -0.13661078323E+03 -0.73539394489E+03  0.11235155300E+04  0.25500000920E-02 0.  1.
</event>
<event>
 5   0  0.1471485E-05  0.1903570E+04  0.7818609E-02  0.8653082E-01
        1   -1    0    0  501    0  0.00000000000E+00  0.00000000000E+00  0.53274506147E+03  0.53274506149E+03  0.50400001928E-02 0.  1.
       -1   -1    0    0    0  501  0.00000000000E+00  0.00000000000E+00 -0.17004272952E+04  0.17004272952E+04  0.50400001928E-02 0. -1.
    10030    2    1    2    0    0  0.00000000000E+00  0.00000000000E+00 -0.11676822338E+04  0.22331723567E+04  0.19035695353E+04 0.  0.
        4    1    3    3  502    0 -0.76164811080E+03 -0.24186316449E+03 -0.11903573271E+04  0.14337216655E+04  0.12699999809E+01 0. -1.
       -4    1    3    3    0  502  0.76164811080E+03  0.24186316449E+03  0.22675093292E+02  0.79945069127E+03  0.12699999809E+01 0.  1.
</event>
<event>
 5   0  0.2789718E-05  0.1907955E+04  0.7818609E-02  0.8650907E-01
       -2   -1    0    0    0  501  0.00000000000E+00  0.00000000000E+00  0.60817012902E+03  0.60817012902E+03  0.25500000920E-02 0. -1.
        2   -1    0    0  501    0  0.00000000000E+00  0.00000000000E+00 -0.14964125086E+04  0.14964125086E+04  0.25500000920E-02 0.  1.
    10030    2    1    2    0    0  0.00000000000E+00  0.00000000000E+00 -0.88824237956E+03  0.21045826376E+04  0.19079553332E+04 0.  0.
        5    1    3    3  502    0  0.79329208138E+03 -0.33518823742E+03 -0.89676138142E+03  0.12433288166E+04  0.46999998093E+01 0.  1.
       -5    1    3    3    0  502 -0.79329208138E+03  0.33518823742E+03  0.85190018581E+01  0.86125382105E+03  0.46999998093E+01 0. -1.
</event>
<event>
 5   0  0.1344119E-05  0.1898404E+04  0.7818609E-02  0.8655651E-01
        1   -1    0    0  501    0  0.00000000000E+00  0.00000000000E+00  0.67258203270E+03  0.67258203272E+03  0.50400001928E-02 0.  1.
       -1   -1    0    0    0  501  0.00000000000E+00  0.00000000000E+00 -0.13395900782E+04  0.13395900782E+04  0.50400001928E-02 0. -1.
    10030    2    1    2    0    0  0.00000000000E+00  0.00000000000E+00 -0.66700804550E+03  0.20121721109E+04  0.18984037693E+04 0.  0.
        2    1    3    3  502    0  0.42974871136E+03 -0.43261482822E+03  0.43751261912E+03  0.75050438800E+03  0.25500000920E-02 0.  1.
       -2    1    3    3    0  502 -0.42974871136E+03  0.43261482822E+03 -0.11045206646E+04  0.12616677229E+04  0.25500000920E-02 0. -1.
</event>
<event>
 5   0  0.1327254E-05  0.1902963E+04  0.7818609E-02  0.8653383E-01
        1   -1    0    0  501    0  0.00000000000E+00  0.00000000000E+00  0.18760425868E+04  0.18760425868E+04  0.50400001928E-02 0.  1.
       -1   -1    0    0    0  501  0.00000000000E+00  0.00000000000E+00 -0.48256725347E+03  0.48256725350E+03  0.50400001928E-02 0. -1.
    10030    2    1    2    0    0  0.00000000000E+00  0.00000000000E+00  0.13934753333E+04  0.23586098403E+04  0.19029626571E+04 0.  0.
        5    1    3    3  502    0 -0.81568726627E+03 -0.28302209512E+03  0.11922775753E+04  0.14720717134E+04  0.46999998093E+01 0.  1.
       -5    1    3    3    0  502  0.81568726627E+03  0.28302209512E+03  0.20119775798E+03  0.88653812692E+03  0.46999998093E+01 0. -1.
</event>
<event>
 5   0  0.1471485E-05  0.1905450E+04  0.7818609E-02  0.8652148E-01
        1   -1    0    0  501    0  0.00000000000E+00  0.00000000000E+00  0.21312264206E+04  0.21312264207E+04  0.50400001928E-02 0. -1.
       -1   -1    0    0    0  501  0.00000000000E+00  0.00000000000E+00 -0.42589788362E+03  0.42589788365E+03  0.50400001928E-02 0.  1.
    10030    2    1    2    0    0  0.00000000000E+00  0.00000000000E+00  0.17053285370E+04  0.25571243043E+04  0.19054498914E+04 0.  0.
        4    1    3    3  502    0 -0.10401286738E+03  0.23467558575E+03 -0.37861531828E+03  0.45743029990E+03  0.12699999809E+01 0.  1.
       -4    1    3    3    0  502  0.10401286738E+03 -0.23467558575E+03  0.20839438553E+04  0.20996940044E+04  0.12699999809E+01 0. -1.
</event>
<event>
 5   0  0.1429067E-05  0.1897082E+04  0.7818609E-02  0.8656310E-01
       -1   -1    0    0    0  501  0.00000000000E+00  0.00000000000E+00  0.84171159108E+03  0.84171159110E+03  0.50400001928E-02 0. -1.
        1   -1    0    0  501    0  0.00000000000E+00  0.00000000000E+00 -0.10689288718E+04  0.10689288718E+04  0.50400001928E-02 0.  1.
    10030    2    1    2    0    0  0.00000000000E+00  0.00000000000E+00 -0.22721728070E+03  0.19106404629E+04  0.18970817815E+04 0.  0.
        3    1    3    3  502    0 -0.85179737259E+03  0.36949381617E+03  0.81802215024E+02  0.93208157193E+03  0.10100000352E+00 0.  1.
       -3    1    3    3    0  502  0.85179737259E+03 -0.36949381617E+03 -0.30901949572E+03  0.97855889096E+03  0.10100000352E+00 0. -1.
</event>
<event>
 5   0  0.1327254E-05  0.1899996E+04  0.7818609E-02  0.8654858E-01
       -1   -1    0    0    0  501  0.00000000000E+00  0.00000000000E+00  0.67345477174E+03  0.67345477176E+03  0.50400001928E-02 0.  1.
        1   -1    0    0  501    0  0.00000000000E+00  0.00000000000E+00 -0.13400997198E+04  0.13400997198E+04  0.50400001928E-02 0. -1.
    10030    2    1    2    0    0  0.00000000000E+00  0.00000000000E+00 -0.66664494801E+03  0.20135544915E+04  0.18999963694E+04 0.  0.
        5    1    3    3  502    0 -0.28112474796E+03  0.29595922961E+03  0.57576504930E+03  0.70579775538E+03  0.46999998093E+01 0.  1.
       -5    1    3    3    0  502  0.28112474796E+03 -0.29595922961E+03 -0.12424099973E+04  0.13077567361E+04  0.46999998093E+01 0. -1.
</event>
<event>
 5   0  0.1413011E-05  0.1896259E+04  0.7818609E-02  0.8656721E-01
       -1   -1    0    0    0  501  0.00000000000E+00  0.00000000000E+00  0.75601204944E+03  0.75601204945E+03  0.50400001928E-02 0.  1.
        1   -1    0    0  501    0  0.00000000000E+00  0.00000000000E+00 -0.11890672970E+04  0.11890672970E+04  0.50400001928E-02 0. -1.
    10030    2    1    2    0    0  0.00000000000E+00  0.00000000000E+00 -0.43305524751E+03  0.19450793464E+04  0.18962586365E+04 0.  0.
        1    1    3    3  502    0 -0.30694581314E+02 -0.41246945777E+03  0.65859406709E+03  0.77770132837E+03  0.50400001928E-02 0.  1.
       -1    1    3    3    0  502  0.30694581314E+02  0.41246945777E+03 -0.10916493146E+04  0.11673780180E+04  0.50400001928E-02 0. -1.
</event>
<event>
 5   0  0.2855141E-05  0.1898748E+04  0.7818609E-02  0.8655480E-01
       -2   -1    0    0    0  501  0.00000000000E+00  0.00000000000E+00  0.78582903993E+03  0.78582903993E+03  0.25500000920E-02 0.  1.
        2   -1    0    0  501    0  0.00000000000E+00  0.00000000000E+00 -0.11469559359E+04  0.11469559359E+04  0.25500000920E-02 0. -1.
    10030    2    1    2    0    0  0.00000000000E+00  0.00000000000E+00 -0.36112689598E+03  0.19327849758E+04  0.18987483055E+04 0.  0.
        1    1    3    3  502    0 -0.12682251151E+03  0.90440918116E+03 -0.44458006595E+03  0.10157220838E+04  0.50400001928E-02 0.  1.
       -1    1    3    3    0  502  0.12682251151E+03 -0.90440918116E+03  0.83453169975E+02  0.91706289206E+03  0.50400001928E-02 0. -1.
</event>
<event>
 5   0  0.1413011E-05  0.1897518E+04  0.7818609E-02  0.8656093E-01
       -1   -1    0    0    0  501  0.00000000000E+00  0.00000000000E+00  0.11781882050E+04  0.11781882050E+04  0.50400001928E-02 0.  1.
        1   -1    0    0  501    0  0.00000000000E+00  0.00000000000E+00 -0.76400668856E+03  0.76400668857E+03  0.50400001928E-02 0. -1.
    10030    2    1    2    0    0  0.00000000000E+00  0.00000000000E+00  0.41418151646E+03  0.19421948936E+04  0.18975180305E+04 0.  0.
        1    1    3    3  502    0  0.19098560869E+03  0.12462020152E+03 -0.73553683867E+03  0.77007800801E+03  0.50400001928E-02 0. -1.
       -1    1    3    3    0  502 -0.19098560869E+03 -0.12462020152E+03  0.11497183551E+04  0.11721168856E+04  0.50400001928E-02 0.  1.
</event>
<event>
 5   0  0.2879462E-05  0.1900431E+04  0.7818609E-02  0.8654642E-01
       -2   -1    0    0    0  501  0.00000000000E+00  0.00000000000E+00  0.10142875596E+04  0.10142875596E+04  0.25500000920E-02 0.  1.
        2   -1    0    0  501    0  0.00000000000E+00  0.00000000000E+00 -0.89019049372E+03  0.89019049372E+03  0.25500000920E-02 0. -1.
    10030    2    1    2    0    0  0.00000000000E+00  0.00000000000E+00  0.12409706590E+03  0.19044780533E+04  0.19004306285E+04 0.  0.
        4    1    3    3  502    0 -0.16017070739E+02 -0.38297356094E+03 -0.80927560717E+03  0.89546296194E+03  0.12699999809E+01 0. -1.
       -4    1    3    3    0  502  0.16017070739E+02  0.38297356094E+03  0.93337267307E+03  0.10090150914E+04  0.12699999809E+01 0.  1.
</event>
<event>
 5   0  0.2789718E-05  0.1902705E+04  0.7818609E-02  0.8653511E-01
        2   -1    0    0  501    0  0.00000000000E+00  0.00000000000E+00  0.12803333146E+04  0.12803333146E+04  0.25500000920E-02 0. -1.
       -2   -1    0    0    0  501  0.00000000000E+00  0.00000000000E+00 -0.70690280677E+03  0.70690280677E+03  0.25500000920E-02 0.  1.
    10030    2    1    2    0    0  0.00000000000E+00  0.00000000000E+00  0.57343050782E+03  0.19872361214E+04  0.19027046157E+04 0.  0.
        5    1    3    3  502    0  0.62158160773E+02 -0.81121947067E+03  0.80168075377E+03  0.11422148605E+04  0.46999998093E+01 0. -1.
       -5    1    3    3    0  502 -0.62158160773E+02  0.81121947067E+03 -0.22825024595E+03  0.84502126087E+03  0.46999998093E+01 0.  1.
</event>
<event>
 5   0  0.1344119E-05  0.1900005E+04  0.7818609E-02  0.8654854E-01
       -1   -1    0    0    0  501  0.00000000000E+00  0.00000000000E+00  0.16815770474E+04  0.16815770474E+04  0.50400001928E-02 0.  1.
        1   -1    0    0  501    0  0.00000000000E+00  0.00000000000E+00 -0.53670147663E+03  0.53670147665E+03  0.50400001928E-02 0. -1.
    10030    2    1    2    0    0  0.00000000000E+00  0.00000000000E+00  0.11448755708E+04  0.22182785240E+04  0.19000051415E+04 0.  0.
        2    1    3    3  502    0 -0.82573068832E+03 -0.46245690019E+03  0.47611041411E+03  0.10594237493E+04  0.25500000920E-02 0.  1.
       -2    1    3    3    0  502  0.82573068832E+03  0.46245690019E+03  0.66876515665E+03  0.11588547747E+04  0.25500000920E-02 0. -1.
</event>
<event>
 5   0  0.1413011E-05  0.1902120E+04  0.7818609E-02  0.8653802E-01
        1   -1    0    0  501    0  0.00000000000E+00  0.00000000000E+00  0.15236647771E+04  0.15236647771E+04  0.50400001928E-02 0. -1.
       -1   -1    0    0    0  501  0.00000000000E+00  0.00000000000E+00 -0.59364435474E+03  0.59364435476E+03  0.50400001928E-02 0.  1.
    10030    2    1    2    0    0  0.00000000000E+00  0.00000000000E+00  0.93002042238E+03  0.21173091319E+04  0.19021198632E+04 0.  0.
        1    1    3    3  502    0  0.85036120526E+03  0.14675426764E+02 -0.88039584806E+01  0.85053339574E+03  0.50400001928E-02 0.  1.
       -1    1    3    3    0  502 -0.85036120526E+03 -0.14675426764E+02  0.93882438086E+03  0.12667757362E+04  0.50400001928E-02 0. -1.
</event>
<event>
 5   0  0.2813537E-05  0.1898919E+04  0.7818609E-02  0.8655394E-01
       -2   -1    0    0    0  501  0.00000000000E+00  0.00000000000E+00  0.11060966515E+04  0.11060966515E+04  0.25500000920E-02 0. -1.
        2   -1    0    0  501    0  0.00000000000E+00  0.00000000000E+00 -0.81500439089E+03  0.81500439089E+03  0.25500000920E-02 0.  1.
    10030    2    1    2    0    0  0.00000000000E+00  0.00000000000E+00  0.29109226064E+03  0.19211010424E+04  0.18989193008E+04 0.  0.
        2    1    3    3  502    0  0.53102337267E+03 -0.26442001677E+02  0.94136614998E+03  0.10811360831E+04  0.25500000920E-02 0. -1.
       -2    1    3    3    0  502 -0.53102337267E+03  0.26442001677E+02 -0.65027388934E+03  0.83996495936E+03  0.25500000920E-02 0.  1.
</event>
<event>
 5   0  0.1429067E-05  0.1905642E+04  0.7818609E-02  0.8652053E-01
        1   -1    0    0  501    0  0.00000000000E+00  0.00000000000E+00  0.85319791185E+03  0.85319791186E+03  0.50400001928E-02 0.  1.
       -1   -1    0    0    0  501  0.00000000000E+00  0.00000000000E+00 -0.10640762689E+04  0.10640762689E+04  0.50400001928E-02 0. -1.
    10030    2    1    2    0    0  0.00000000000E+00  0.00000000000E+00 -0.21087835707E+03  0.19172741808E+04  0.19056417824E+04 0.  0.
        3    1    3    3  502    0  0.13678147870E+03 -0.60050177178E+03 -0.83689566886E+03  0.10390889864E+04  0.10100000352E+00 0. -1.
       -3    1    3    3    0  502 -0.13678147870E+03  0.60050177178E+03  0.62601731179E+03  0.87818519442E+03  0.10100000352E+00 0.  1.
</event>
<event>
 5   0  0.1429067E-05  0.1898195E+04  0.7818609E-02  0.8655755E-01
        1   -1    0    0  501    0  0.00000000000E+00  0.00000000000E+00  0.14259629114E+04  0.14259629114E+04  0.50400001928E-02 0.  1.
       -1   -1    0    0    0  501  0.00000000000E+00  0.00000000000E+00 -0.63170384668E+03  0.63170384670E+03  0.50400001928E-02 0. -1.
    10030    2    1    2    0    0  0.00000000000E+00  0.00000000000E+00  0.79425906471E+03  0.20576667581E+04  0.18981952022E+04 0.  0.
        3    1    3    3  502    0  0.94618354880E+03 -0.31366479977E+02  0.47016237221E+03  0.10570240444E+04  0.10100000352E+00 0. -1.
       -3    1    3    3    0  502 -0.94618354880E+03  0.31366479977E+02  0.32409669250E+03  0.10006427136E+04  0.10100000352E+00 0.  1.
</event>
<event>
 5   0  0.2813537E-05  0.1900519E+04  0.7818609E-02  0.8654598E-01
        2   -1    0    0  501    0  0.00000000000E+00  0.00000000000E+00  0.16453717450E+04  0.16453717450E+04  0.25500000920E-02 0. -1.
       -2   -1    0    0    0  501  0.00000000000E+00  0.00000000000E+00 -0.54880823906E+03  0.54880823907E+03  0.25500000920E-02 0.  1.
    10030    2    1    2    0    0  0.00000000000E+00  0.00000000000E+00  0.10965635059E+04  0.21941799841E+04  0.19005194763E+04 0.  0.
        2    1    3    3  502    0 -0.33288080096E+03  0.88518896804E+03  0.44106436924E+03  0.10435070266E+04  0.25500000920E-02 0. -1.
       -2    1    3    3    0  502  0.33288080096E+03 -0.88518896804E+03  0.65549913670E+03  0.11506729575E+04  0.25500000920E-02 0.  1.
</event>
<event>
 5   0  0.1327254E-05  0.1916769E+04  0.7818609E-02  0.8646554E-01
       -1   -1    0    0    0  501  0.00000000000E+00  0.00000000000E+00  0.63307763317E+03  0.63307763319E+03  0.50400001928E-02 0.  1.
        1   -1    0    0  501    0  0.00000000000E+00  0.00000000000E+00 -0.14508501420E+04  0.14508501420E+04  0.50400001928E-02 0. -1.
    10030    2    1    2    0    0  0.00000000000E+00  0.00000000000E+00 -0.81777250886E+03  0.20839277752E+04  0.19167689209E+04 0.  0.
        5    1    3    3  502    0  0.28050038120E+03  0.10137260740E+02  0.58737629647E+03  0.65101169848E+03  0.46999998093E+01 0.  1.
       -5    1    3    3    0  502 -0.28050038120E+03 -0.10137260740E+02 -0.14051488053E+04  0.14329160768E+04  0.46999998093E+01 0. -1.
</event>
<event>
 5   0  0.2888776E-05  0.1897734E+04  0.7818609E-02  0.8655985E-01
        2   -1    0    0  501    0  0.00000000000E+00  0.00000000000E+00  0.14814327552E+04  0.14814327552E+04  0.25500000920E-02 0. -1.
       -2   -1    0    0    0  501  0.00000000000E+00  0.00000000000E+00 -0.60775504892E+03  0.60775504893E+03  0.25500000920E-02 0.  1.
    10030    2    1    2    0    0  0.00000000000E+00  0.00000000000E+00  0.87367770627E+03  0.20891878041E+04  0.18977336342E+04 0.  0.
        3    1    3    3  502    0 -0.45691447127E+03 -0.82709708954E+03  0.53210075619E+03  0.10844314891E+04  0.10100000352E+00 0. -1.
       -3    1    3    3    0  502  0.45691447127E+03  0.82709708954E+03  0.34157695008E+03  0.10047563150E+04  0.10100000352E+00 0.  1.
</event>
<event>
 5   0  0.2888776E-05  0.1898903E+04  0.7818609E-02  0.8655403E-01
        2   -1    0    0  501    0  0.00000000000E+00  0.00000000000E+00  0.89381922272E+03  0.89381922272E+03  0.25500000920E-02 0.  1.
       -2   -1    0    0    0  501  0.00000000000E+00  0.00000000000E+00 -0.10085465159E+04  0.10085465159E+04  0.25500000920E-02 0. -1.
    10030    2    1    2    0    0  0.00000000000E+00  0.00000000000E+00 -0.11472729322E+03  0.19023657387E+04  0.18989031181E+04 0.  0.
        3    1    3    3  502    0 -0.18953271976E+03 -0.42463614294E+02 -0.98843041111E+03  0.10073333600E+04  0.10100000352E+00 0. -1.
       -3    1    3    3    0  502  0.18953271976E+03  0.42463614294E+02  0.87370311790E+03  0.89503237864E+03  0.10100000352E+00 0.  1.
</event>
<event>
 5   0  0.2813537E-05  0.1902466E+04  0.7818609E-02  0.8653630E-01
       -2   -1    0    0    0  501  0.00000000000E+00  0.00000000000E+00  0.50498017360E+03  0.50498017360E+03  0.25500000920E-02 0. -1.
        2   -1    0    0  501    0  0.00000000000E+00  0.00000000000E+00 -0.17918403346E+04  0.17918403346E+04  0.25500000920E-02 0.  1.
    10030    2    1    2    0    0  0.00000000000E+00  0.00000000000E+00 -0.12868601610E+04  0.22968205082E+04  0.19024656036E+04 0.  0.
        2    1    3    3  502    0  0.66712677235E+03 -0.67171709374E+03 -0.75527105093E+03  0.12110723945E+04  0.25500000920E-02 0. -1.
       -2    1    3    3    0  502 -0.66712677235E+03  0.67171709374E+03 -0.53158911006E+03  0.10857481137E+04  0.25500000920E-02 0.  1.
</event>
<event>
 5   0  0.1471485E-05  0.1898834E+04  0.7818609E-02  0.8655437E-01
        1   -1    0    0  501    0  0.00000000000E+00  0.00000000000E+00  0.10345325444E+04  0.10345325445E+04  0.50400001928E-02 0.  1.
       -1   -1    0    0    0  501  0.00000000000E+00  0.00000000000E+00 -0.87130401164E+03  0.87130401166E+03  0.50400001928E-02 0. -1.
    10030    2    1    2    0    0  0.00000000000E+00  0.00000000000E+00  0.16322853281E+03  0.19058365561E+04  0.18988337012E+04 0.  0.
        4    1    3    3  502    0  0.49316406514E+03  0.43816256153E+03  0.76691601052E+03  0.10116120826E+04  0.12699999809E+01 0.  1.
       -4    1    3    3    0  502 -0.49316406514E+03 -0.43816256153E+03 -0.60368747772E+03  0.89422447357E+03  0.12699999809E+01 0. -1.
</event>
<event>
 5   0  0.2855141E-05  0.1899172E+04  0.7818609E-02  0.8655268E-01
       -2   -1    0    0    0  501  0.00000000000E+00  0.00000000000E+00  0.46008411856E+03  0.46008411857E+03  0.25500000920E-02 0.  1.
        2   -1    0    0  501    0  0.00000000000E+00  0.00000000000E+00 -0.19598891640E+04  0.19598891640E+04  0.25500000920E-02 0. -1.
    10030    2    1    2    0    0  0.00000000000E+00  0.00000000000E+00 -0.14998050454E+04  0.24199732825E+04  0.18991723234E+04 0.  0.
        1    1    3    3  502    0  0.28385189116E+02  0.92353329929E+03 -0.47075003483E+03  0.10369788181E+04  0.50400001928E-02 0.  1.
       -1    1    3    3    0  502 -0.28385189116E+02 -0.92353329929E+03 -0.10290550106E+04  0.13829944644E+04  0.50400001928E-02 0. -1.
</event>
<event>
 5   0  0.2813537E-05  0.1899897E+04  0.7818609E-02  0.8654907E-01
        2   -1    0    0  501    0  0.00000000000E+00  0.00000000000E+00  0.16516452935E+04  0.16516452935E+04  0.25500000920E-02 0. -1.
       -2   -1    0    0    0  501  0.00000000000E+00  0.00000000000E+00 -0.54636585955E+03  0.54636585956E+03  0.25500000920E-02 0.  1.
    10030    2    1    2    0    0  0.00000000000E+00  0.00000000000E+00  0.11052794340E+04  0.21980111531E+04  0.18998974714E+04 0.  0.
        2    1    3    3  502    0  0.94041383654E+03  0.13090326897E+03  0.51814999440E+03  0.10816622701E+04  0.25500000920E-02 0. -1.
       -2    1    3    3    0  502 -0.94041383654E+03 -0.13090326897E+03  0.58712943957E+03  0.11163488830E+04  0.25500000920E-02 0.  1.
</event>
<event>
 5   0  0.2855141E-05  0.1900843E+04  0.7818609E-02  0.8654437E-01
       -2   -1    0    0    0  501  0.00000000000E+00  0.00000000000E+00  0.54846515353E+03  0.54846515354E+03  0.25500000920E-02 0. -1.
        2   -1    0    0  501    0  0.00000000000E+00  0.00000000000E+00 -0.16469609669E+04  0.16469609669E+04  0.25500000920E-02 0.  1.
    10030    2    1    2    0    0  0.00000000000E+00  0.00000000000E+00 -0.10984958134E+04  0.21954261205E+04  0.19008426548E+04 0.  0.
        1    1    3    3  502    0  0.64092224134E+03 -0.53834207618E+03 -0.10692525646E+04  0.13579007907E+04  0.50400001928E-02 0.  1.
       -1    1    3    3    0  502 -0.64092224134E+03  0.53834207618E+03 -0.29243248811E+02  0.83752532980E+03  0.50400001928E-02 0. -1.
</event>
<event>
 5   0  0.2888776E-05  0.1902663E+04  0.7818609E-02  0.8653532E-01
        2   -1    0    0  501    0  0.00000000000E+00  0.00000000000E+00  0.16170524113E+04  0.16170524113E+04  0.25500000920E-02 0. -1.
       -2   -1    0    0    0  501  0.00000000000E+00  0.00000000000E+00 -0.55968006033E+03  0.55968006033E+03  0.25500000920E-02 0.  1.
    10030    2    1    2    0    0  0.00000000000E+00  0.00000000000E+00  0.10573723510E+04  0.21767324716E+04  0.19026633871E+04 0.  0.
        3    1    3    3  502    0  0.56794946443E+03  0.74976556138E+03  0.36561666203E+03  0.10091533803E+04  0.10100000352E+00 0.  1.
       -3    1    3    3    0  502 -0.56794946443E+03 -0.74976556138E+03  0.69175568894E+03  0.11675790913E+04  0.10100000352E+00 0. -1.
</event>
<event>
 5   0  0.1344119E-05  0.1898818E+04  0.7818609E-02  0.8655445E-01
        1   -1    0    0  501    0  0.00000000000E+00  0.00000000000E+00  0.13372593331E+04  0.13372593331E+04  0.50400001928E-02 0.  1.
       -1   -1    0    0    0  501  0.00000000000E+00  0.00000000000E+00 -0.67404855969E+03  0.67404855971E+03  0.50400001928E-02 0. -1.
    10030    2    1    2    0    0  0.00000000000E+00  0.00000000000E+00  0.66321077344E+03  0.20113078928E+04  0.18988182930E+04 0.  0.
        2    1    3    3  502    0 -0.18250623216E+03  0.77962038145E+02 -0.65183162198E+03  0.68137439605E+03  0.25500000920E-02 0. -1.
       -2    1    3    3    0  502  0.18250623216E+03 -0.77962038145E+02  0.13150423954E+04  0.13299334968E+04  0.25500000920E-02 0.  1.
</event>
<event>
 5   0  0.2888776E-05  0.1900167E+04  0.7818609E-02  0.8654773E-01
       -2   -1    0    0    0  501  0.00000000000E+00  0.00000000000E+00  0.13473317130E+04  0.13473317130E+04  0.25500000920E-02 0.  1.
        2   -1    0    0  501    0  0.00000000000E+00  0.00000000000E+00 -0.66996035573E+03  0.66996035573E+03  0.25500000920E-02 0. -1.
    10030    2    1    2    0    0  0.00000000000E+00  0.00000000000E+00  0.67737135727E+03  0.20172920687E+04  0.19001671860E+04 0.  0.
        3    1    3    3  502    0 -0.68354846540E+03 -0.12862534197E+03  0.10257851638E+04  0.12393620115E+04  0.10100000352E+00 0.  1.
       -3    1    3    3    0  502  0.68354846540E+03  0.12862534197E+03 -0.34841380651E+03  0.77793005721E+03  0.10100000352E+00 0. -1.
</event>
<event>
 5   0  0.2879462E-05  0.1898536E+04  0.7818609E-02  0.8655586E-01
        2   -1    0    0  501    0  0.00000000000E+00  0.00000000000E+00  0.12709704057E+04  0.12709704057E+04  0.25500000920E-02 0.  1.
       -2   -1    0    0    0  501  0.00000000000E+00  0.00000000000E+00 -0.70899326285E+03  0.70899326285E+03  0.25500000920E-02 0. -1.
    10030    2    1    2    0    0  0.00000000000E+00  0.00000000000E+00  0.56197714290E+03  0.19799636686E+04  0.18985357041E+04 0.  0.
        4    1    3    3  502    0 -0.22495542000E+03  0.28678356965E+03 -0.63310787798E+03  0.73053196705E+03  0.12699999809E+01 0. -1.
       -4    1    3    3    0  502  0.22495542000E+03 -0.28678356965E+03  0.11950850209E+04  0.12494317016E+04  0.12699999809E+01 0.  1.
</event>
<event>
 5   0  0.1413011E-05  0.1900518E+04  0.7818609E-02  0.8654598E-01
       -1   -1    0    0    0  501  0.00000000000E+00  0.00000000000E+00  0.10266161709E+04  0.10266161709E+04  0.50400001928E-02 0.  1.
        1   -1    0    0  501    0  0.00000000000E+00  0.00000000000E+00 -0.87958145008E+03  0.87958145010E+03  0.50400001928E-02 0. -1.
    10030    2    1    2    0    0  0.00000000000E+00  0.00000000000E+00  0.14703472083E+03  0.19061976210E+04  0.19005183928E+04 0.  0.
        1    1    3    3  502    0 -0.92723630223E+03 -0.14943601996E+03 -0.71463042564E+02  0.94191573440E+03  0.50400001928E-02 0. -1.
       -1    1    3    3    0  502  0.92723630223E+03  0.14943601996E+03  0.21849776339E+03  0.96428188662E+03  0.50400001928E-02 0.  1.
</event>
<event>
 5   0  0.1344119E-05  0.1899735E+04  0.7818609E-02  0.8654988E-01
        1   -1    0    0  501    0  0.00000000000E+00  0.00000000000E+00  0.16846950617E+04  0.16846950617E+04  0.50400001928E-02 0.  1.
       -1   -1    0    0    0  501  0.00000000000E+00  0.00000000000E+00 -0.53555574142E+03  0.53555574144E+03  0.50400001928E-02 0. -1.
    10030    2    1    2    0    0  0.00000000000E+00  0.00000000000E+00  0.11491393203E+04  0.22202508031E+04  0.18997348371E+04 0.  0.
        2    1    3    3  502    0 -0.39970505687E+03  0.20599361808E+03  0.15524231005E+04  0.16162348178E+04  0.25500000920E-02 0.  1.
       -2    1    3    3    0  502  0.39970505687E+03 -0.20599361808E+03 -0.40328378023E+03  0.60401598537E+03  0.25500000920E-02 0. -1.
</event>
<event>
 5   0  0.1327254E-05  0.1901431E+04  0.7818609E-02  0.8654145E-01
       -1   -1    0    0    0  501  0.00000000000E+00  0.00000000000E+00  0.53889006995E+03  0.53889006998E+03  0.50400001928E-02 0. -1.
        1   -1    0    0  501    0  0.00000000000E+00  0.00000000000E+00 -0.16772614308E+04  0.16772614308E+04  0.50400001928E-02 0.  1.
    10030    2    1    2    0    0  0.00000000000E+00  0.00000000000E+00 -0.11383713609E+04  0.22161515008E+04  0.19014305455E+04 0.  0.
        5    1    3    3  502    0  0.44679119337E+03 -0.59753296884E+03  0.11755015786E+03  0.75531989842E+03  0.46999998093E+01 0. -1.
       -5    1    3    3    0  502 -0.44679119337E+03  0.59753296884E+03 -0.12559215187E+04  0.14608316024E+04  0.46999998093E+01 0.  1.
</event>
<event>
 5   0  0.1429067E-05  0.1898883E+04  0.7818609E-02  0.8655413E-01
       -1   -1    0    0    0  501  0.00000000000E+00  0.00000000000E+00  0.11763077738E+04  0.11763077738E+04  0.50400001928E-02 0. -1.
        1   -1    0    0  501    0  0.00000000000E+00  0.00000000000E+00 -0.76632924508E+03  0.76632924510E+03  0.50400001928E-02 0.  1.
    10030    2    1    2    0    0  0.00000000000E+00  0.00000000000E+00  0.40997852868E+03  0.19426370189E+04  0.18988828803E+04 0.  0.
        3    1    3    3  502    0 -0.16765852983E+03 -0.92497382717E+03  0.34130006509E+03  0.10000858504E+04  0.10100000352E+00 0.  1.
       -3    1    3    3    0  502  0.16765852983E+03  0.92497382717E+03  0.68678463587E+02  0.94255116844E+03  0.10100000352E+00 0. -1.
</event>
<event>
 5   0  0.2879462E-05  0.1900711E+04  0.7818609E-02  0.8654502E-01
        2   -1    0    0  501    0  0.00000000000E+00  0.00000000000E+00  0.12823392580E+04  0.12823392580E+04  0.25500000920E-02 0. -1.
       -2   -1    0    0    0  501  0.00000000000E+00  0.00000000000E+00 -0.70431911041E+03  0.70431911041E+03  0.25500000920E-02 0.  1.
    10030    2    1    2    0    0  0.00000000000E+00  0.00000000000E+00  0.57802014762E+03  0.19866583684E+04  0.19007114936E+04 0.  0.
        4    1    3    3  502    0  0.51275970603E+03 -0.60379931812E+02  0.11229646869E+04  0.12359690745E+04  0.12699999809E+01 0. -1.
       -4    1    3    3    0  502 -0.51275970603E+03  0.60379931812E+02 -0.54494453924E+03  0.75068929394E+03  0.12699999809E+01 0.  1.
</event>
<event>
 5   0  0.1413011E-05  0.1872931E+04  0.7818609E-02  0.8668449E-01
       -1   -1    0    0    0  501  0.00000000000E+00  0.00000000000E+00  0.85885134915E+03  0.85885134916E+03  0.50400001928E-02 0.  1.
        1   -1    0    0  501    0  0.00000000000E+00  0.00000000000E+00 -0.10210937802E+04  0.10210937803E+04  0.50400001928E-02 0. -1.
    10030    2    1    2    0    0  0.00000000000E+00  0.00000000000E+00 -0.16224243110E+03  0.18799451294E+04  0.18729311475E+04 0.  0.
        1    1    3    3  502    0 -0.44715501792E+03 -0.42654318737E+03  0.62513376228E+03  0.87902157056E+03  0.50400001928E-02 0.  1.
       -1    1    3    3    0  502  0.44715501792E+03  0.42654318737E+03 -0.78737619338E+03  0.10009235589E+04  0.50400001928E-02 0. -1.
</event>
<event>
 5   0  0.2789718E-05  0.1897211E+04  0.7818609E-02  0.8656246E-01
       -2   -1    0    0    0  501  0.00000000000E+00  0.00000000000E+00  0.14380901796E+04  0.14380901796E+04  0.25500000920E-02 0.  1.
        2   -1    0    0  501    0  0.00000000000E+00  0.00000000000E+00 -0.62572757110E+03  0.62572757110E+03  0.25500000920E-02 0. -1.
    10030    2    1    2    0    0  0.00000000000E+00  0.00000000000E+00  0.81236260854E+03  0.20638177507E+04  0.18972112957E+04 0.  0.
        5    1    3    3  502    0  0.31714301452E+03 -0.79093572971E+03 -0.47154478918E+02  0.85346625889E+03  0.46999998093E+01 0. -1.
       -5    1    3    3    0  502 -0.31714301452E+03  0.79093572971E+03  0.85951708746E+03  0.12103514919E+04  0.46999998093E+01 0.  1.
</event>
<event>
 5   0  0.2789718E-05  0.1901258E+04  0.7818609E-02  0.8654230E-01
       -2   -1    0    0    0  501  0.00000000000E+00  0.00000000000E+00  0.77119976813E+03  0.77119976814E+03  0.25500000920E-02 0. -1.
        2   -1    0    0  501    0  0.00000000000E+00  0.00000000000E+00 -0.11718047791E+04  0.11718047791E+04  0.25500000920E-02 0.  1.
    10030    2    1    2    0    0  0.00000000000E+00  0.00000000000E+00 -0.40060501094E+03  0.19430045472E+04  0.19012580824E+04 0.  0.
        5    1    3    3  502    0 -0.26163135857E+03 -0.53418279576E+03 -0.95811760262E+03  0.11277471603E+04  0.46999998093E+01 0.  1.
       -5    1    3    3    0  502  0.26163135857E+03  0.53418279576E+03  0.55751259168E+03  0.81525738694E+03  0.46999998093E+01 0. -1.
</event>
<event>
 5   0  0.2789718E-05  0.1899129E+04  0.7818609E-02  0.8655290E-01
        2   -1    0    0  501    0  0.00000000000E+00  0.00000000000E+00  0.13872403543E+04  0.13872403543E+04  0.25500000920E-02 0. -1.
       -2   -1    0    0    0  501  0.00000000000E+00  0.00000000000E+00 -0.64997610329E+03  0.64997610329E+03  0.25500000920E-02 0.  1.
    10030    2    1    2    0    0  0.00000000000E+00  0.00000000000E+00  0.73726425104E+03  0.20372164576E+04  0.18991293582E+04 0.  0.
        5    1    3    3  502    0  0.55004072008E+03  0.22584151648E+03 -0.42553744910E+03  0.73119996915E+03  0.46999998093E+01 0.  1.
       -5    1    3    3    0  502 -0.55004072008E+03 -0.22584151648E+03  0.11628017001E+04  0.13060164885E+04  0.46999998093E+01 0. -1.
</event>
<event>
 5   0  0.2813537E-05  0.1894566E+04  0.7818609E-02  0.8657566E-01
       -2   -1    0    0    0  501  0.00000000000E+00  0.00000000000E+00  0.11601791439E+04  0.11601791439E+04  0.25500000920E-02 0. -1.
        2   -1    0    0  501    0  0.00000000000E+00  0.00000000000E+00 -0.77345387401E+03  0.77345387401E+03  0.25500000920E-02 0.  1.
    10030    2    1    2    0    0  0.00000000000E+00  0.00000000000E+00  0.38672526988E+03  0.19336330179E+04  0.18945659697E+04 0.  0.
        2    1    3    3  502    0 -0.31334593076E+03  0.89187042357E+03  0.13105854574E+03  0.95435573409E+03  0.25500000920E-02 0.  1.
       -2    1    3    3    0  502  0.31334593076E+03 -0.89187042357E+03  0.25566672414E+03  0.97927728382E+03  0.25500000920E-02 0. -1.
</event>
<event>
 5   0  0.1471485E-05  0.1897747E+04  0.7818609E-02  0.8655978E-01
       -1   -1    0    0    0  501  0.00000000000E+00  0.00000000000E+00  0.11499434454E+04  0.11499434454E+04  0.50400001928E-02 0. -1.
        1   -1    0    0  501    0  0.00000000000E+00  0.00000000000E+00 -0.78296135538E+03  0.78296135540E+03  0.50400001928E-02 0.  1.
    10030    2    1    2    0    0  0.00000000000E+00  0.00000000000E+00  0.36698208999E+03  0.19329048008E+04  0.18977473790E+04 0.  0.
        4    1    3    3  502    0 -0.87120770219E+03  0.37544012987E+03  0.16308200624E+03  0.96257753201E+03  0.12699999809E+01 0. -1.
       -4    1    3    3    0  502  0.87120770219E+03 -0.37544012987E+03  0.20390008375E+03  0.97032726877E+03  0.12699999809E+01 0.  1.
</event>
<event>
 5   0  0.2855141E-05  0.1916504E+04  0.7818609E-02  0.8646684E-01
       -2   -1    0    0    0  501  0.00000000000E+00  0.00000000000E+00  0.10042620307E+04  0.10042620307E+04  0.25500000920E-02 0.  1.
        2   -1    0    0  501    0  0.00000000000E+00  0.00000000000E+00 -0.91435032510E+03  0.91435032510E+03  0.25500000920E-02 0. -1.
    10030    2    1    2    0    0  0.00000000000E+00  0.00000000000E+00  0.89911705633E+02  0.19186123558E+04  0.19165044370E+04 0.  0.
        1    1    3    3  502    0 -0.99839820605E+01  0.49425818646E+03  0.86674634492E+03  0.99781764929E+03  0.50400001928E-02 0.  1.
       -1    1    3    3    0  502  0.99839820605E+01 -0.49425818646E+03 -0.77683463929E+03  0.92079470655E+03  0.50400001928E-02 0. -1.
</event>
<event>
 5   0  0.2789718E-05  0.1898524E+04  0.7818609E-02  0.8655591E-01
       -2   -1    0    0    0  501  0.00000000000E+00  0.00000000000E+00  0.73236949583E+03  0.73236949583E+03  0.25500000920E-02 0.  1.
        2   -1    0    0  501    0  0.00000000000E+00  0.00000000000E+00 -0.12303878829E+04  0.12303878829E+04  0.25500000920E-02 0. -1.
    10030    2    1    2    0    0  0.00000000000E+00  0.00000000000E+00 -0.49801838707E+03  0.19627573787E+04  0.18985242200E+04 0.  0.
        5    1    3    3  502    0 -0.11586341024E+03 -0.77371820521E+03 -0.80479649422E+03  0.11224008544E+04  0.46999998093E+01 0. -1.
       -5    1    3    3    0  502  0.11586341024E+03  0.77371820521E+03  0.30677810715E+03  0.84035652430E+03  0.46999998093E+01 0.  1.
</event>
<event>
 5   0  0.2879462E-05  0.1920848E+04  0.7818609E-02  0.8644548E-01
       -2   -1    0    0    0  501  0.00000000000E+00  0.00000000000E+00  0.11459927041E+04  0.11459927041E+04  0.25500000920E-02 0. -1.
        2   -1    0    0  501    0  0.00000000000E+00  0.00000000000E+00 -0.80490417250E+03  0.80490417251E+03  0.25500000920E-02 0.  1.
    10030    2    1    2    0    0  0.00000000000E+00  0.00000000000E+00  0.34108853160E+03  0.19508968766E+04  0.19208480515E+04 0.  0.
        4    1    3    3  502    0  0.48844584932E+03  0.66044481350E+03 -0.33488101159E+03  0.88708150935E+03  0.12699999809E+01 0.  1.
       -4    1    3    3    0  502 -0.48844584932E+03 -0.66044481350E+03  0.67596954319E+03  0.10638153673E+04  0.12699999809E+01 0. -1.
</event>
<event>
 5   0  0.2789718E-05  0.1898991E+04  0.7818609E-02  0.8655359E-01
       -2   -1    0    0    0  501  0.00000000000E+00  0.00000000000E+00  0.97559914606E+03  0.97559914606E+03  0.25500000920E-02 0. -1.
        2   -1    0    0  501    0  0.00000000000E+00  0.00000000000E+00 -0.92409051164E+03  0.92409051165E+03  0.25500000920E-02 0.  1.
    10030    2    1    2    0    0  0.00000000000E+00  0.00000000000E+00  0.51508634417E+02  0.18996896577E+04  0.18989912207E+04 0.  0.
        5    1    3    3  502    0 -0.74177513881E+03 -0.91741280287E+02  0.61152326862E+03  0.96572750666E+03  0.46999998093E+01 0. -1.
       -5    1    3    3    0  502  0.74177513881E+03  0.91741280287E+02 -0.56001463420E+03  0.93396215105E+03  0.46999998093E+01 0.  1.
</event>
<event>
 5   0  0.2789718E-05  0.1901832E+04  0.7818609E-02  0.8653945E-01
       -2   -1    0    0    0  501  0.00000000000E+00  0.00000000000E+00  0.92757920732E+03  0.92757920732E+03  0.25500000920E-02 0. -1.
        2   -1    0    0  501    0  0.00000000000E+00  0.00000000000E+00 -0.97483972654E+03  0.97483972654E+03  0.25500000920E-02 0.  1.
    10030    2    1    2    0    0  0.00000000000E+00  0.00000000000E+00 -0.47260519217E+02  0.19024189339E+04  0.19018318126E+04 0.  0.
        5    1    3    3  502    0 -0.44409533439E+03 -0.81973916806E+03 -0.21084038349E+03  0.95586020264E+03  0.46999998093E+01 0.  1.
       -5    1    3    3    0  502  0.44409533439E+03  0.81973916806E+03  0.16357986428E+03  0.94655873123E+03  0.46999998093E+01 0. -1.
</event>
<event>
 5   0  0.1471485E-05  0.1897445E+04  0.7818609E-02  0.8656129E-01
       -1   -1    0    0    0  501  0.00000000000E+00  0.00000000000E+00  0.78823030658E+03  0.78823030659E+03  0.50400001928E-02 0. -1.
        1   -1    0    0  501    0  0.00000000000E+00  0.00000000000E+00 -0.11418925563E+04  0.11418925563E+04  0.50400001928E-02 0.  1.
    10030    2    1    2    0    0  0.00000000000E+00  0.00000000000E+00 -0.35366224968E+03  0.19301228629E+04  0.18974449343E+04 0.  0.
        4    1    3    3  502    0  0.43626155460E+03 -0.12221949830E+03  0.67107759838E+03  0.80969655163E+03  0.12699999809E+01 0. -1.
       -4    1    3    3    0  502 -0.43626155460E+03  0.12221949830E+03 -0.10247398481E+04  0.11204263112E+04  0.12699999809E+01 0.  1.
</event>
<event>
 5   0  0.1429067E-05  0.1905548E+04  0.7818609E-02  0.8652099E-01
        1   -1    0    0  501    0  0.00000000000E+00  0.00000000000E+00  0.66136217079E+03  0.66136217081E+03  0.50400001928E-02 0. -1.
       -1   -1    0    0    0  501  0.00000000000E+00  0.00000000000E+00 -0.13725894682E+04  0.13725894682E+04  0.50400001928E-02 0.  1.
    10030    2    1    2    0    0  0.00000000000E+00  0.00000000000E+00 -0.71122729738E+03  0.20339516390E+04  0.19055484778E+04 0.  0.
        3    1    3    3  502    0 -0.77215960101E+03 -0.51690961786E+03 -0.13082165637E+03  0.93837109847E+03  0.10100000352E+00 0.  1.
       -3    1    3    3    0  502  0.77215960101E+03  0.51690961786E+03 -0.58040564101E+03  0.10955805405E+04  0.10100000352E+00 0. -1.
</event>
<event>
 5   0  0.1327254E-05  0.1899870E+04  0.7818609E-02  0.8654921E-01
       -1   -1    0    0    0  501  0.00000000000E+00  0.00000000000E+00  0.84180413254E+03  0.84180413256E+03  0.50400001928E-02 0.  1.
        1   -1    0    0  501    0  0.00000000000E+00  0.00000000000E+00 -0.10719558680E+04  0.10719558680E+04  0.50400001928E-02 0. -1.
    10030    2    1    2    0    0  0.00000000000E+00  0.00000000000E+00 -0.23015173546E+03  0.19137600006E+04  0.18998703952E+04 0.  0.
        5    1    3    3  502    0  0.73727323361E+03  0.39367159931E+03  0.33967296970E+03  0.90219120226E+03  0.46999998093E+01 0.  1.
       -5    1    3    3    0  502 -0.73727323361E+03 -0.39367159931E+03 -0.56982470517E+03  0.10115687983E+04  0.46999998093E+01 0. -1.
</event>
<event>
 5   0  0.2855141E-05  0.1902697E+04  0.7818609E-02  0.8653515E-01
       -2   -1    0    0    0  501  0.00000000000E+00  0.00000000000E+00  0.84948273679E+03  0.84948273680E+03  0.25500000920E-02 0.  1.
        2   -1    0    0  501    0  0.00000000000E+00  0.00000000000E+00 -0.10654292810E+04  0.10654292810E+04  0.25500000920E-02 0. -1.
    10030    2    1    2    0    0  0.00000000000E+00  0.00000000000E+00 -0.21594654424E+03  0.19149120178E+04  0.19026968035E+04 0.  0.
        1    1    3    3  502    0 -0.60569375220E+03  0.65464658218E+03 -0.44121335855E+03  0.99503582689E+03  0.50400001928E-02 0.  1.
       -1    1    3    3    0  502  0.60569375220E+03 -0.65464658218E+03  0.22526681431E+03  0.91987619094E+03  0.50400001928E-02 0. -1.
</event>
<event>
 5   0  0.2789718E-05  0.1901445E+04  0.7818609E-02  0.8654138E-01
        2   -1    0    0  501    0  0.00000000000E+00  0.00000000000E+00  0.55919767000E+03  0.55919767001E+03  0.25500000920E-02 0.  1.
       -2   -1    0    0    0  501  0.00000000000E+00  0.00000000000E+00 -0.16163744562E+04  0.16163744562E+04  0.25500000920E-02 0. -1.
    10030    2    1    2    0    0  0.00000000000E+00  0.00000000000E+00 -0.10571767862E+04  0.21755721262E+04  0.19014445348E+04 0.  0.
        5    1    3    3  502    0 -0.26698028253E+03  0.23697837492E+03 -0.15367644253E+04  0.15776895165E+04  0.46999998093E+01 0. -1.
       -5    1    3    3    0  502  0.26698028253E+03 -0.23697837492E+03  0.47958763912E+03  0.59788260975E+03  0.46999998093E+01 0.  1.
</event>
<event>
 5   0  0.1327254E-05  0.1897483E+04  0.7818609E-02  0.8656110E-01
       -1   -1    0    0    0  501  0.00000000000E+00  0.00000000000E+00  0.71796030199E+03  0.71796030201E+03  0.50400001928E-02 0. -1.
        1   -1    0    0  501    0  0.00000000000E+00  0.00000000000E+00 -0.12537048090E+04  0.12537048090E+04  0.50400001928E-02 0.  1.
    10030    2    1    2    0    0  0.00000000000E+00  0.00000000000E+00 -0.53574450703E+03  0.19716651110E+04  0.18974828414E+04 0.  0.
        5    1    3    3  502    0 -0.50176274930E+03  0.25234507439E+02  0.56838019115E+03  0.75860448762E+03  0.46999998093E+01 0. -1.
       -5    1    3    3    0  502  0.50176274930E+03 -0.25234507439E+02 -0.11041246982E+04  0.12130606234E+04  0.46999998093E+01 0.  1.
</event>
<event>
 5   0  0.1413011E-05  0.1902137E+04  0.7818609E-02  0.8653793E-01
        1   -1    0    0  501    0  0.00000000000E+00  0.00000000000E+00  0.48145243986E+03  0.48145243988E+03  0.50400001928E-02 0.  1.
       -1   -1    0    0    0  501  0.00000000000E+00  0.00000000000E+00 -0.18787558918E+04  0.18787558918E+04  0.50400001928E-02 0. -1.
    10030    2    1    2    0    0  0.00000000000E+00  0.00000000000E+00 -0.13973034520E+04  0.23602083317E+04  0.19021373326E+04 0.  0.
        1    1    3    3  502    0  0.38741525947E+03  0.18736341222E+02 -0.17761586091E+04  0.18180156871E+04  0.50400001928E-02 0. -1.
       -1    1    3    3    0  502 -0.38741525947E+03 -0.18736341222E+02  0.37885515716E+03  0.54219264462E+03  0.50400001928E-02 0.  1.
</event>
<event>
 5   0  0.2879462E-05  0.1901547E+04  0.7818609E-02  0.8654086E-01
       -2   -1    0    0    0  501  0.00000000000E+00  0.00000000000E+00  0.11692449338E+04  0.11692449338E+04  0.25500000920E-02 0.  1.
        2   -1    0    0  501    0  0.00000000000E+00  0.00000000000E+00 -0.77312348203E+03  0.77312348203E+03  0.25500000920E-02 0. -1.
    10030    2    1    2    0    0  0.00000000000E+00  0.00000000000E+00  0.39612145178E+03  0.19423684158E+04  0.19015474904E+04 0.  0.
        4    1    3    3  502    0 -0.36971995590E+03 -0.41768049957E+03  0.98453692164E+03  0.11315760728E+04  0.12699999809E+01 0.  1.
       -4    1    3    3    0  502  0.36971995590E+03  0.41768049957E+03 -0.58841546986E+03  0.81079234307E+03  0.12699999809E+01 0. -1.
</event>
<event>
 5   0  0.1413011E-05  0.1898376E+04  0.7818609E-02  0.8655665E-01
        1   -1    0    0  501    0  0.00000000000E+00  0.00000000000E+00  0.11263119562E+04  0.11263119562E+04  0.50400001928E-02 0. -1.
       -1   -1    0    0    0  501  0.00000000000E+00  0.00000000000E+00 -0.79991886370E+03  0.79991886372E+03  0.50400001928E-02 0.  1.
    10030    2    1    2    0    0  0.00000000000E+00  0.00000000000E+00  0.32639309251E+03  0.19262308199E+04  0.18983763380E+04 0.  0.
        1    1    3    3  502    0  0.24562395866E+03 -0.39121566253E+03  0.10045661114E+04  0.11056825475E+04  0.50400001928E-02 0. -1.
       -1    1    3    3    0  502 -0.24562395866E+03  0.39121566253E+03 -0.67817301893E+03  0.82054827238E+03  0.50400001928E-02 0.  1.
</event>
<event>
 5   0  0.2879462E-05  0.1897800E+04  0.7818609E-02  0.8655952E-01
        2   -1    0    0  501    0  0.00000000000E+00  0.00000000000E+00  0.65574539670E+03  0.65574539670E+03  0.25500000920E-02 0. -1.
       -2   -1    0    0    0  501  0.00000000000E+00  0.00000000000E+00 -0.13731111631E+04  0.13731111631E+04  0.25500000920E-02 0.  1.
    10030    2    1    2    0    0  0.00000000000E+00  0.00000000000E+00 -0.71736576642E+03  0.20288565598E+04  0.18978001205E+04 0.  0.
        4    1    3    3  502    0 -0.34959368919E+03 -0.79329307705E+03  0.53812543618E+02  0.86857760526E+03  0.12699999809E+01 0. -1.
       -4    1    3    3    0  502  0.34959368919E+03  0.79329307705E+03 -0.77117831004E+03  0.11602789546E+04  0.12699999809E+01 0.  1.
</event>
<event>
 5   0  0.2855141E-05  0.1956284E+04  0.7818609E-02  0.8627337E-01
       -2   -1    0    0    0  501  0.00000000000E+00  0.00000000000E+00  0.55853111154E+03  0.55853111155E+03  0.25500000920E-02 0. -1.
        2   -1    0    0  501    0  0.00000000000E+00  0.00000000000E+00 -0.17129962652E+04  0.17129962652E+04  0.25500000920E-02 0.  1.
    10030    2    1    2    0    0  0.00000000000E+00  0.00000000000E+00 -0.11544651537E+04  0.22715273768E+04  0.19562839345E+04 0.  0.
        1    1    3    3  502    0 -0.92600858916E+02 -0.77738882810E+03 -0.12581159794E+04  0.14818110968E+04  0.50400001928E-02 0.  1.
       -1    1    3    3    0  502  0.92600858916E+02  0.77738882810E+03  0.10365082568E+03  0.78971627995E+03  0.50400001928E-02 0. -1.
</event>
<event>
 5   0  0.1344119E-05  0.1906631E+04  0.7818609E-02  0.8651563E-01
        1   -1    0    0  501    0  0.00000000000E+00  0.00000000000E+00  0.82918612603E+03  0.82918612604E+03  0.50400001928E-02 0. -1.
       -1   -1    0    0    0  501  0.00000000000E+00  0.00000000000E+00 -0.10960272305E+04  0.10960272306E+04  0.50400001928E-02 0.  1.
    10030    2    1    2    0    0  0.00000000000E+00  0.00000000000E+00 -0.26684110452E+03  0.19252133566E+04  0.19066311372E+04 0.  0.
        2    1    3    3  502    0  0.81835737920E+03  0.42654676986E+03 -0.37483145245E+03  0.99606704830E+03  0.25500000920E-02 0. -1.
       -2    1    3    3    0  502 -0.81835737920E+03 -0.42654676986E+03  0.10799034793E+03  0.92914630830E+03  0.25500000920E-02 0.  1.
</event>
<event>
 5   0  0.1413011E-05  0.1898270E+04  0.7818609E-02  0.8655718E-01
        1   -1    0    0  501    0  0.00000000000E+00  0.00000000000E+00  0.16613946555E+04  0.16613946555E+04  0.50400001928E-02 0. -1.
       -1   -1    0    0    0  501  0.00000000000E+00  0.00000000000E+00 -0.54222938607E+03  0.54222938610E+03  0.50400001928E-02 0.  1.
    10030    2    1    2    0    0  0.00000000000E+00  0.00000000000E+00  0.11191652694E+04  0.22036240416E+04  0.18982697428E+04 0.  0.
        1    1    3    3  502    0 -0.40210047888E+03  0.21232103083E+03  0.15267198437E+04  0.15929967032E+04  0.50400001928E-02 0. -1.
       -1    1    3    3    0  502  0.40210047888E+03 -0.21232103083E+03 -0.40755457433E+03  0.61062733834E+03  0.50400001928E-02 0.  1.
</event>
<event>
 5   0  0.1010725E-05  0.1908729E+04  0.7818609E-02  0.8650523E-01
       -3   -1    0    0    0  501  0.00000000000E+00  0.00000000000E+00  0.65358152334E+03  0.65358153115E+03  0.10100000352E+00 0.  1.
        3   -1    0    0  501    0  0.00000000000E+00  0.00000000000E+00 -0.13935702081E+04  0.13935702117E+04  0.10100000352E+00 0. -1.
    10030    2    1    2    0    0  0.00000000000E+00  0.00000000000E+00 -0.73998868472E+03  0.20471517429E+04  0.19087291596E+04 0.  0.
        5    1    3    3  502    0 -0.16547828716E+03  0.89028879360E+03 -0.46824651437E+02  0.90675897432E+03  0.46999998093E+01 0.  1.
       -5    1    3    3    0  502  0.16547828716E+03 -0.89028879360E+03 -0.69316403328E+03  0.11403927686E+04  0.46999998093E+01 0. -1.
</event>
<event>
 5   0  0.2879462E-05  0.1899399E+04  0.7818609E-02  0.8655156E-01
       -2   -1    0    0    0  501  0.00000000000E+00  0.00000000000E+00  0.49140403550E+03  0.49140403550E+03  0.25500000920E-02 0. -1.
        2   -1    0    0  501    0  0.00000000000E+00  0.00000000000E+00 -0.18354122733E+04  0.18354122733E+04  0.25500000920E-02 0.  1.
    10030    2    1    2    0    0  0.00000000000E+00  0.00000000000E+00 -0.13440082378E+04  0.23268163088E+04  0.18993988501E+04 0.  0.
        4    1    3    3  502    0  0.47180694790E+03 -0.62885601598E+03 -0.19320988198E+02  0.78640739976E+03  0.12699999809E+01 0. -1.
       -4    1    3    3    0  502 -0.47180694790E+03  0.62885601598E+03 -0.13246872497E+04  0.15404089091E+04  0.12699999809E+01 0.  1.
</event>
<event>
 5   0  0.1471485E-05  0.1898492E+04  0.7818609E-02  0.8655607E-01
       -1   -1    0    0    0  501  0.00000000000E+00  0.00000000000E+00  0.99348660355E+03  0.99348660357E+03  0.50400001928E-02 0.  1.
        1   -1    0    0  501    0  0.00000000000E+00  0.00000000000E+00 -0.90697560118E+03  0.90697560119E+03  0.50400001928E-02 0. -1.
    10030    2    1    2    0    0  0.00000000000E+00  0.00000000000E+00  0.86511002376E+02  0.19004622048E+04  0.18984921486E+04 0.  0.
        4    1    3    3  502    0  0.11528305189E+03  0.42485023044E+03 -0.79861576991E+03  0.91190825262E+03  0.12699999809E+01 0. -1.
       -4    1    3    3    0  502 -0.11528305189E+03 -0.42485023044E+03  0.88512677228E+03  0.98855395213E+03  0.12699999809E+01 0.  1.
</event>
<event>
 5   0  0.2879462E-05  0.1900229E+04  0.7818609E-02  0.8654742E-01
        2   -1    0    0  501    0  0.00000000000E+00  0.00000000000E+00  0.12995838963E+04  0.12995838963E+04  0.25500000920E-02 0.  1.
       -2   -1    0    0    0  501  0.00000000000E+00  0.00000000000E+00 -0.69462046003E+03  0.69462046004E+03  0.25500000920E-02 0. -1.
    10030    2    1    2    0    0  0.00000000000E+00  0.00000000000E+00  0.60496343631E+03  0.19942043564E+04  0.19002290009E+04 0.  0.
        4    1    3    3  502    0 -0.23808535860E+03 -0.86988016863E+03  0.61616127774E+03  0.10922602615E+04  0.12699999809E+01 0.  1.
       -4    1    3    3    0  502  0.23808535860E+03  0.86988016863E+03 -0.11197841425E+02  0.90194409489E+03  0.12699999809E+01 0. -1.
</event>
<event>
 5   0  0.1344119E-05  0.1906014E+04  0.7818609E-02  0.8651868E-01
        1   -1    0    0  501    0  0.00000000000E+00  0.00000000000E+00  0.97972733499E+03  0.97972733501E+03  0.50400001928E-02 0.  1.
       -1   -1    0    0    0  501  0.00000000000E+00  0.00000000000E+00 -0.92701575541E+03  0.92701575542E+03  0.50400001928E-02 0. -1.
    10030    2    1    2    0    0  0.00000000000E+00  0.00000000000E+00  0.52711579583E+02  0.19067430904E+04  0.19060143500E+04 0.  0.
        2    1    3    3  502    0 -0.24239313637E+03  0.81371220350E+03 -0.40663840758E+03  0.94140149628E+03  0.25500000920E-02 0. -1.
       -2    1    3    3    0  502  0.24239313637E+03 -0.81371220350E+03  0.45934998716E+03  0.96534159415E+03  0.25500000920E-02 0.  1.
</event>
<event>
 5   0  0.2855141E-05  0.1899110E+04  0.7818609E-02  0.8655300E-01
        2   -1    0    0  501    0  0.00000000000E+00  0.00000000000E+00  0.18619293501E+04  0.18619293501E+04  0.25500000920E-02 0. -1.
       -2   -1    0    0    0  501  0.00000000000E+00  0.00000000000E+00 -0.48425821986E+03  0.48425821987E+03  0.25500000920E-02 0.  1.
    10030    2    1    2    0    0  0.00000000000E+00  0.00000000000E+00  0.13776711303E+04  0.23461875700E+04  0.18991098890E+04 0.  0.
        1    1    3    3  502    0  0.91692397409E+03  0.22105115423E+03  0.82440170372E+03  0.12526976316E+04  0.50400001928E-02 0.  1.
       -1    1    3    3    0  502 -0.91692397409E+03 -0.22105115423E+03  0.55326942656E+03  0.10934899384E+04  0.50400001928E-02 0. -1.
</event>
<event>
 5   0  0.1429067E-05  0.1899652E+04  0.7818609E-02  0.8655030E-01
       -1   -1    0    0    0  501  0.00000000000E+00  0.00000000000E+00  0.11349681254E+04  0.11349681254E+04  0.50400001928E-02 0. -1.
        1   -1    0    0  501    0  0.00000000000E+00  0.00000000000E+00 -0.79488495369E+03  0.79488495370E+03  0.50400001928E-02 0.  1.
    10030    2    1    2    0    0  0.00000000000E+00  0.00000000000E+00  0.34008317173E+03  0.19298530791E+04  0.18996516374E+04 0.  0.
        3    1    3    3  502    0 -0.31480819276E+03 -0.88665574093E+03  0.37949497204E+02  0.94164896628E+03  0.10100000352E+00 0. -1.
       -3    1    3    3    0  502  0.31480819276E+03  0.88665574093E+03  0.30213367452E+03  0.98820411284E+03  0.10100000352E+00 0.  1.
</event>
<event>
 5   0  0.1413011E-05  0.1901142E+04  0.7818609E-02  0.8654288E-01
       -1   -1    0    0    0  501  0.00000000000E+00  0.00000000000E+00  0.53311126338E+03  0.53311126341E+03  0.50400001928E-02 0. -1.
        1   -1    0    0  501    0  0.00000000000E+00  0.00000000000E+00 -0.16949286418E+04  0.16949286418E+04  0.50400001928E-02 0.  1.
    10030    2    1    2    0    0  0.00000000000E+00  0.00000000000E+00 -0.11618173785E+04  0.22280399053E+04  0.19011423404E+04 0.  0.
        1    1    3    3  502    0 -0.26810959961E+03  0.90423627837E+03 -0.44194735826E+03  0.10415581943E+04  0.50400001928E-02 0. -1.
       -1    1    3    3    0  502  0.26810959961E+03 -0.90423627837E+03 -0.71987002019E+03  0.11864817110E+04  0.50400001928E-02 0.  1.
</event>
<event>
 5   0  0.1429067E-05  0.1901692E+04  0.7818609E-02  0.8654015E-01
        1   -1    0    0  501    0  0.00000000000E+00  0.00000000000E+00  0.10029283044E+04  0.10029283044E+04  0.50400001928E-02 0. -1.
       -1   -1    0    0    0  501  0.00000000000E+00  0.00000000000E+00 -0.90146815195E+03  0.90146815196E+03  0.50400001928E-02 0.  1.
    10030    2    1    2    0    0  0.00000000000E+00  0.00000000000E+00  0.10146015242E+03  0.19043964563E+04  0.19016917995E+04 0.  0.
        3    1    3    3  502    0  0.66840966376E+03 -0.52166809725E+03  0.48168947169E+03  0.97515836644E+03  0.10100000352E+00 0. -1.
       -3    1    3    3    0  502 -0.66840966376E+03  0.52166809725E+03 -0.38022931927E+03  0.92923808991E+03  0.10100000352E+00 0.  1.
</event>
<event>
 5   0  0.2888776E-05  0.1897807E+04  0.7818609E-02  0.8655949E-01
        2   -1    0    0  501    0  0.00000000000E+00  0.00000000000E+00  0.87352125057E+03  0.87352125057E+03  0.25500000920E-02 0. -1.
       -2   -1    0    0    0  501  0.00000000000E+00  0.00000000000E+00 -0.10307913280E+04  0.10307913280E+04  0.25500000920E-02 0.  1.
    10030    2    1    2    0    0  0.00000000000E+00  0.00000000000E+00 -0.15727007743E+03  0.19043125786E+04  0.18978072925E+04 0.  0.
        3    1    3    3  502    0 -0.22408317309E+03  0.67524324125E+03  0.55141168285E+03  0.90012307908E+03  0.10100000352E+00 0. -1.
       -3    1    3    3    0  502  0.22408317309E+03 -0.67524324125E+03 -0.70868176027E+03  0.10041894995E+04  0.10100000352E+00 0.  1.
</event>
<event>
 5   0  0.2813537E-05  0.1896137E+04  0.7818609E-02  0.8656781E-01
       -2   -1    0    0    0  501  0.00000000000E+00  0.00000000000E+00  0.51707558023E+03  0.51707558024E+03  0.25500000920E-02 0. -1.
        2   -1    0    0  501    0  0.00000000000E+00  0.00000000000E+00 -0.17383036183E+04  0.17383036183E+04  0.25500000920E-02 0.  1.
    10030    2    1    2    0    0  0.00000000000E+00  0.00000000000E+00 -0.12212280380E+04  0.22553791985E+04  0.18961374972E+04 0.  0.
        2    1    3    3  502    0  0.80439268741E+03 -0.28156469545E+02 -0.12065249989E+04  0.14503595952E+04  0.25500000920E-02 0.  1.
       -2    1    3    3    0  502 -0.80439268741E+03  0.28156469545E+02 -0.14703039087E+02  0.80501960330E+03  0.25500000920E-02 0. -1.
</event>
<event>
 5   0  0.1471485E-05  0.1896807E+04  0.7818609E-02  0.8656447E-01
        1   -1    0    0  501    0  0.00000000000E+00  0.00000000000E+00  0.22268051465E+04  0.22268051465E+04  0.50400001928E-02 0. -1.
       -1   -1    0    0    0  501  0.00000000000E+00  0.00000000000E+00 -0.40392804807E+03  0.40392804810E+03  0.50400001928E-02 0.  1.
    10030    2    1    2    0    0  0.00000000000E+00  0.00000000000E+00  0.18228770985E+04  0.26307331946E+04  0.18968068498E+04 0.  0.
        4    1    3    3  502    0 -0.41915000318E+03 -0.53985085265E+03 -0.50361523052E+00  0.68346728875E+03  0.12699999809E+01 0.  1.
       -4    1    3    3    0  502  0.41915000318E+03  0.53985085265E+03  0.18233807137E+04  0.19472659059E+04  0.12699999809E+01 0. -1.
</event>
<event>
 5   0  0.2855141E-05  0.1902501E+04  0.7818609E-02  0.8653613E-01
        2   -1    0    0  501    0  0.00000000000E+00  0.00000000000E+00  0.63284557678E+03  0.63284557679E+03  0.25500000920E-02 0.  1.
       -2   -1    0    0    0  501  0.00000000000E+00  0.00000000000E+00 -0.14298548410E+04  0.14298548410E+04  0.25500000920E-02 0. -1.
    10030    2    1    2    0    0  0.00000000000E+00  0.00000000000E+00 -0.79700926422E+03  0.20627004178E+04  0.19025007875E+04 0.  0.
        1    1    3    3  502    0 -0.20077079026E+03 -0.84884564457E+03 -0.80997351470E+03  0.11903381591E+04  0.50400001928E-02 0. -1.
       -1    1    3    3    0  502  0.20077079026E+03  0.84884564457E+03  0.12964250479E+02  0.87236225866E+03  0.50400001928E-02 0.  1.
</event>
<event>
 5   0  0.1010725E-05  0.1902060E+04  0.7818609E-02  0.8653832E-01
        4   -1    0    0  501    0  0.00000000000E+00  0.00000000000E+00  0.15476172225E+04  0.15476177436E+04  0.12699999809E+01 0.  1.
       -4   -1    0    0    0  501  0.00000000000E+00  0.00000000000E+00 -0.58441825797E+03  0.58441963788E+03  0.12699999809E+01 0. -1.
    10030    2    1    2    0    0  0.00000000000E+00  0.00000000000E+00  0.96319896453E+03  0.21320373815E+04  0.19020597127E+04 0.  0.
        4    1    3    3  502    0 -0.14359322960E+03 -0.74327574029E+03  0.11268564792E+04  0.13575289976E+04  0.12699999809E+01 0.  1.
       -4    1    3    3    0  502  0.14359322960E+03  0.74327574029E+03 -0.16365751467E+03  0.77450838388E+03  0.12699999809E+01 0. -1.
</event>
<event>
 5   0  0.1471485E-05  0.1898651E+04  0.7818609E-02  0.8655528E-01
        1   -1    0    0  501    0  0.00000000000E+00  0.00000000000E+00  0.73963398940E+03  0.73963398942E+03  0.50400001928E-02 0.  1.
       -1   -1    0    0    0  501  0.00000000000E+00  0.00000000000E+00 -0.12184659706E+04  0.12184659706E+04  0.50400001928E-02 0. -1.
    10030    2    1    2    0    0  0.00000000000E+00  0.00000000000E+00 -0.47883198119E+03  0.19580999600E+04  0.18986509387E+04 0.  0.
        4    1    3    3  502    0 -0.62873547954E+03 -0.47615897596E+03 -0.78433642637E+03  0.11123043272E+04  0.12699999809E+01 0. -1.
       -4    1    3    3    0  502  0.62873547954E+03  0.47615897596E+03  0.30550444518E+03  0.84579563284E+03  0.12699999809E+01 0.  1.
</event>
<event>
 5   0  0.2855141E-05  0.1894935E+04  0.7818609E-02  0.8657382E-01
       -2   -1    0    0    0  501  0.00000000000E+00  0.00000000000E+00  0.13831396084E+04  0.13831396084E+04  0.25500000920E-02 0. -1.
        2   -1    0    0  501    0  0.00000000000E+00  0.00000000000E+00 -0.64902683291E+03  0.64902683291E+03  0.25500000920E-02 0.  1.
    10030    2    1    2    0    0  0.00000000000E+00  0.00000000000E+00  0.73411277550E+03  0.20321664413E+04  0.18949350591E+04 0.  0.
        1    1    3    3  502    0  0.24129872127E+03  0.53107429381E+02 -0.61387054014E+03  0.66172691650E+03  0.50400001928E-02 0.  1.
       -1    1    3    3    0  502 -0.24129872127E+03 -0.53107429381E+02  0.13479833156E+04  0.13704395248E+04  0.50400001928E-02 0. -1.
</event>
<event>
 5   0  0.1413011E-05  0.1896966E+04  0.7818609E-02  0.8656368E-01
       -1   -1    0    0    0  501  0.00000000000E+00  0.00000000000E+00  0.15613531641E+04  0.15613531641E+04  0.50400001928E-02 0.  1.
        1   -1    0    0  501    0  0.00000000000E+00  0.00000000000E+00 -0.57617966351E+03  0.57617966353E+03  0.50400001928E-02 0. -1.
    10030    2    1    2    0    0  0.00000000000E+00  0.00000000000E+00  0.98517350056E+03  0.21375328276E+04  0.18969659361E+04 0.  0.
        1    1    3    3  502    0  0.55214703740E+03  0.96113999097E+02  0.13548155586E+04  0.14661614678E+04  0.50400001928E-02 0.  1.
       -1    1    3    3    0  502 -0.55214703740E+03 -0.96113999097E+02 -0.36964205803E+03  0.67137135984E+03  0.50400001928E-02 0. -1.
</event>
<event>
 5   0  0.2855141E-05  0.1901839E+04  0.7818609E-02  0.8653941E-01
        2   -1    0    0  501    0  0.00000000000E+00  0.00000000000E+00  0.12423402975E+04  0.12423402975E+04  0.25500000920E-02 0. -1.
       -2   -1    0    0    0  501  0.00000000000E+00  0.00000000000E+00 -0.72785873270E+03  0.72785873271E+03  0.25500000920E-02 0.  1.
    10030    2    1    2    0    0  0.00000000000E+00  0.00000000000E+00  0.51448156481E+03  0.19701990302E+04  0.19018393566E+04 0.  0.
        1    1    3    3  502    0  0.20908887799E+02  0.69929231990E+03  0.92444122723E+03  0.11593267498E+04  0.50400001928E-02 0. -1.
       -1    1    3    3    0  502 -0.20908887799E+02 -0.69929231990E+03 -0.40995966243E+03  0.81087228038E+03  0.50400001928E-02 0.  1.
</event>
<event>
 5   0  0.1471485E-05  0.1899612E+04  0.7818609E-02  0.8655049E-01
        1   -1    0    0  501    0  0.00000000000E+00  0.00000000000E+00  0.60873885812E+03  0.60873885814E+03  0.50400001928E-02 0.  1.
       -1   -1    0    0    0  501  0.00000000000E+00  0.00000000000E+00 -0.14819684803E+04  0.14819684803E+04  0.50400001928E-02 0. -1.
    10030    2    1    2    0    0  0.00000000000E+00  0.00000000000E+00 -0.87322962218E+03  0.20907073384E+04  0.18996123820E+04 0.  0.
        4    1    3    3  502    0  0.65041107472E+02 -0.89893179065E+03 -0.10676339745E+03  0.90758401586E+03  0.12699999809E+01 0.  1.
       -4    1    3    3    0  502 -0.65041107472E+02  0.89893179065E+03 -0.76646622473E+03  0.11831233226E+04  0.12699999809E+01 0. -1.
</event>
<event>
 5   0  0.2813537E-05  0.1900363E+04  0.7818609E-02  0.8654676E-01
        2   -1    0    0  501    0  0.00000000000E+00  0.00000000000E+00  0.92400081284E+03  0.92400081284E+03  0.25500000920E-02 0.  1.
       -2   -1    0    0    0  501  0.00000000000E+00  0.00000000000E+00 -0.97710398963E+03  0.97710398963E+03  0.25500000920E-02 0. -1.
    10030    2    1    2    0    0  0.00000000000E+00  0.00000000000E+00 -0.53103176787E+02  0.19011048025E+04  0.19003629976E+04 0.  0.
        2    1    3    3  502    0  0.77365166136E+03  0.18880596115E+02 -0.57808477079E+03  0.96595826632E+03  0.25500000920E-02 0. -1.
       -2    1    3    3    0  502 -0.77365166136E+03 -0.18880596115E+02  0.52498159400E+03  0.93514653616E+03  0.25500000920E-02 0.  1.
</event>
<event>
 5   0  0.2813537E-05  0.1902143E+04  0.7818609E-02  0.8653790E-01
       -2   -1    0    0    0  501  0.00000000000E+00  0.00000000000E+00  0.55046228559E+03  0.55046228559E+03  0.25500000920E-02 0.  1.
        2   -1    0    0  501    0  0.00000000000E+00  0.00000000000E+00 -0.16432323733E+04  0.16432323734E+04  0.25500000920E-02 0. -1.
    10030    2    1    2    0    0  0.00000000000E+00  0.00000000000E+00 -0.10927700878E+04  0.21936946589E+04  0.19021434730E+04 0.  0.
        2    1    3    3  502    0  0.21208888510E+03 -0.90761502575E+03 -0.76456663818E+03  0.12055326102E+04  0.25500000920E-02 0.  1.
       -2    1    3    3    0  502 -0.21208888510E+03  0.90761502575E+03 -0.32820344959E+03  0.98816204869E+03  0.25500000920E-02 0. -1.
</event>
<event>
 5   0  0.1471485E-05  0.1895626E+04  0.7818609E-02  0.8657037E-01
       -1   -1    0    0    0  501  0.00000000000E+00  0.00000000000E+00  0.78211028446E+03  0.78211028447E+03  0.50400001928E-02 0.  1.
        1   -1    0    0  501    0  0.00000000000E+00  0.00000000000E+00 -0.11486227624E+04  0.11486227624E+04  0.50400001928E-02 0. -1.
    10030    2    1    2    0    0  0.00000000000E+00  0.00000000000E+00 -0.36651247790E+03  0.19307330468E+04  0.18956262030E+04 0.  0.
        4    1    3    3  502    0  0.88280915609E+03 -0.31703515681E+03 -0.32173287439E+03  0.99165364523E+03  0.12699999809E+01 0.  1.
       -4    1    3    3    0  502 -0.88280915609E+03  0.31703515681E+03 -0.44779603509E+02  0.93907940161E+03  0.12699999809E+01 0. -1.
</event>
<event>
 5   0  0.1327254E-05  0.1906211E+04  0.7818609E-02  0.8651771E-01
        1   -1    0    0  501    0  0.00000000000E+00  0.00000000000E+00  0.85429013659E+03  0.85429013660E+03  0.50400001928E-02 0. -1.
       -1   -1    0    0    0  501  0.00000000000E+00  0.00000000000E+00 -0.10633507364E+04  0.10633507364E+04  0.50400001928E-02 0.  1.
    10030    2    1    2    0    0  0.00000000000E+00  0.00000000000E+00 -0.20906059978E+03  0.19176408730E+04  0.19062109493E+04 0.  0.
        5    1    3    3  502    0 -0.96620047482E+02  0.77489576152E+03  0.44517924642E+03  0.89889127610E+03  0.46999998093E+01 0. -1.
       -5    1    3    3    0  502  0.96620047482E+02 -0.77489576152E+03 -0.65423984621E+03  0.10187495969E+04  0.46999998093E+01 0.  1.
</event>
<event>
 5   0  0.1344119E-05  0.1900476E+04  0.7818609E-02  0.8654619E-01
        1   -1    0    0  501    0  0.00000000000E+00  0.00000000000E+00  0.16447234566E+04  0.16447234566E+04  0.50400001928E-02 0.  1.
       -1   -1    0    0    0  501  0.00000000000E+00  0.00000000000E+00 -0.54899961981E+03  0.54899961984E+03  0.50400001928E-02 0. -1.
    10030    2    1    2    0    0  0.00000000000E+00  0.00000000000E+00  0.10957238368E+04  0.21937230765E+04  0.19004763113E+04 0.  0.
        2    1    3    3  502    0  0.39793159565E+03 -0.33058677219E+03 -0.37219358802E+03  0.63731094117E+03  0.25500000920E-02 0. -1.
       -2    1    3    3    0  502 -0.39793159565E+03  0.33058677219E+03  0.14679174248E+04  0.15564121353E+04  0.25500000920E-02 0.  1.
</event>
<event>
 5   0  0.2888776E-05  0.1900904E+04  0.7818609E-02  0.8654407E-01
        2   -1    0    0  501    0  0.00000000000E+00  0.00000000000E+00  0.10618575073E+04  0.10618575073E+04  0.25500000920E-02 0. -1.
       -2   -1    0    0    0  501  0.00000000000E+00  0.00000000000E+00 -0.85073472866E+03  0.85073472867E+03  0.25500000920E-02 0.  1.
    10030    2    1    2    0    0  0.00000000000E+00  0.00000000000E+00  0.21112277862E+03  0.19125922359E+04  0.19009040569E+04 0.  0.
        3    1    3    3  502    0  0.45943941528E+02 -0.49383043969E+03  0.92133628253E+03  0.10463459775E+04  0.10100000352E+00 0. -1.
       -3    1    3    3    0  502 -0.45943941528E+02  0.49383043969E+03 -0.71021350391E+03  0.86624625844E+03  0.10100000352E+00 0.  1.
</event>
<event>
 5   0  0.1344119E-05  0.1941087E+04  0.7818609E-02  0.8634671E-01
        1   -1    0    0  501    0  0.00000000000E+00  0.00000000000E+00  0.59936620940E+03  0.59936620942E+03  0.50400001928E-02 0.  1.
       -1   -1    0    0    0  501  0.00000000000E+00  0.00000000000E+00 -0.15715840382E+04  0.15715840382E+04  0.50400001928E-02 0. -1.
    10030    2    1    2    0    0  0.00000000000E+00  0.00000000000E+00 -0.97221782880E+03  0.21709502476E+04  0.19410866727E+04 0.  0.
        2    1    3    3  502    0  0.19180605245E+03  0.50774000146E+03 -0.13859783810E+04  0.14884641559E+04  0.25500000920E-02 0. -1.
       -2    1    3    3    0  502 -0.19180605245E+03 -0.50774000146E+03  0.41376055220E+03  0.68248609172E+03  0.25500000920E-02 0.  1.
</event>
<event>
 5   0  0.1413011E-05  0.1900654E+04  0.7818609E-02  0.8654531E-01
        1   -1    0    0  501    0  0.00000000000E+00  0.00000000000E+00  0.13668357400E+04  0.13668357400E+04  0.50400001928E-02 0. -1.
       -1   -1    0    0    0  501  0.00000000000E+00  0.00000000000E+00 -0.66073862149E+03  0.66073862151E+03  0.50400001928E-02 0.  1.
    10030    2    1    2    0    0  0.00000000000E+00  0.00000000000E+00  0.70609711849E+03  0.20275743615E+04  0.19006537430E+04 0.  0.
        1    1    3    3  502    0  0.10766152138E+03  0.81081396401E+03  0.86920883773E+03  0.11935385587E+04  0.50400001928E-02 0. -1.
       -1    1    3    3    0  502 -0.10766152138E+03 -0.81081396401E+03 -0.16311171924E+03  0.83403580282E+03  0.50400001928E-02 0.  1.
</event>
<event>
 5   0  0.2855141E-05  0.1904547E+04  0.7818609E-02  0.8652596E-01
       -2   -1    0    0    0  501  0.00000000000E+00  0.00000000000E+00  0.66867811401E+03  0.66867811402E+03  0.25500000920E-02 0. -1.
        2   -1    0    0  501    0  0.00000000000E+00  0.00000000000E+00 -0.13561459657E+04  0.13561459657E+04  0.25500000920E-02 0.  1.
    10030    2    1    2    0    0  0.00000000000E+00  0.00000000000E+00 -0.68746785171E+03  0.20248240797E+04  0.19045473233E+04 0.  0.
        1    1    3    3  502    0  0.32036120993E+03 -0.79547425291E+03  0.96434970589E+02  0.86296598742E+03  0.50400001928E-02 0. -1.
       -1    1    3    3    0  502 -0.32036120993E+03  0.79547425291E+03 -0.78390282230E+03  0.11618580923E+04  0.50400001928E-02 0.  1.
</event>
<event>
 5   0  0.1010725E-05  0.1900448E+04  0.7818609E-02  0.8654633E-01
       -3   -1    0    0    0  501  0.00000000000E+00  0.00000000000E+00  0.70841511994E+03  0.70841512714E+03  0.10100000352E+00 0. -1.
        3   -1    0    0  501    0  0.00000000000E+00  0.00000000000E+00 -0.12745713455E+04  0.12745713495E+04  0.10100000352E+00 0.  1.
    10030    2    1    2    0    0  0.00000000000E+00  0.00000000000E+00 -0.56615622553E+03  0.19829864766E+04  0.19004479721E+04 0.  0.
        4    1    3    3  502    0 -0.83907286024E+03  0.20324244771E+03  0.13111704646E+03  0.87323768248E+03  0.12699999809E+01 0. -1.
       -4    1    3    3    0  502  0.83907286024E+03 -0.20324244771E+03 -0.69727327199E+03  0.11097487941E+04  0.12699999809E+01 0.  1.
</event>
<event>
 5   0  0.1327254E-05  0.1896967E+04  0.7818609E-02  0.8656368E-01
       -1   -1    0    0    0  501  0.00000000000E+00  0.00000000000E+00  0.82667450219E+03  0.82667450221E+03  0.50400001928E-02 0.  1.
        1   -1    0    0  501    0  0.00000000000E+00  0.00000000000E+00 -0.10882409180E+04  0.10882409180E+04  0.50400001928E-02 0. -1.
    10030    2    1    2    0    0  0.00000000000E+00  0.00000000000E+00 -0.26156641584E+03  0.19149154202E+04  0.18969670732E+04 0.  0.
        5    1    3    3  502    0 -0.57085289420E+03  0.39865938957E+03  0.51935755165E+03  0.86865222740E+03  0.46999998093E+01 0.  1.
       -5    1    3    3    0  502  0.57085289420E+03 -0.39865938957E+03 -0.78092396749E+03  0.10462631928E+04  0.46999998093E+01 0. -1.
</event>
<event>
 5   0  0.2813537E-05  0.1890617E+04  0.7818609E-02  0.8659541E-01
       -2   -1    0    0    0  501  0.00000000000E+00  0.00000000000E+00  0.52699375176E+03  0.52699375177E+03  0.25500000920E-02 0. -1.
        2   -1    0    0  501    0  0.00000000000E+00  0.00000000000E+00 -0.16956711705E+04  0.16956711705E+04  0.25500000920E-02 0.  1.
    10030    2    1    2    0    0  0.00000000000E+00  0.00000000000E+00 -0.11686774187E+04  0.22226649222E+04  0.18906169489E+04 0.  0.
        2    1    3    3  502    0 -0.38103796994E+03 -0.84664557356E+03 -0.37532300444E+03  0.10014319844E+04  0.25500000920E-02 0. -1.
       -2    1    3    3    0  502  0.38103796994E+03  0.84664557356E+03 -0.79335441426E+03  0.12212329378E+04  0.25500000920E-02 0.  1.
</event>
<event>
 5   0  0.2813537E-05  0.1902942E+04  0.7818609E-02  0.8653393E-01
        2   -1    0    0  501    0  0.00000000000E+00  0.00000000000E+00  0.17575228936E+04  0.17575228936E+04  0.25500000920E-02 0.  1.
       -2   -1    0    0    0  501  0.00000000000E+00  0.00000000000E+00 -0.51509839380E+03  0.51509839381E+03  0.25500000920E-02 0. -1.
    10030    2    1    2    0    0  0.00000000000E+00  0.00000000000E+00  0.12424244997E+04  0.22726212874E+04  0.19029421637E+04 0.  0.
        2    1    3    3  502    0 -0.16503660059E+03  0.48355758602E+03 -0.33735524012E+03  0.61226920270E+03  0.25500000920E-02 0. -1.
       -2    1    3    3    0  502  0.16503660059E+03 -0.48355758602E+03  0.15797797399E+04  0.16603520847E+04  0.25500000920E-02 0.  1.
</event>
<event>
 5   0  0.1429067E-05  0.1904857E+04  0.7818609E-02  0.8652443E-01
        1   -1    0    0  501    0  0.00000000000E+00  0.00000000000E+00  0.78931381780E+03  0.78931381782E+03  0.50400001928E-02 0.  1.
       -1   -1    0    0    0  501  0.00000000000E+00  0.00000000000E+00 -0.11492510297E+04  0.11492510297E+04  0.50400001928E-02 0. -1.
    10030    2    1    2    0    0  0.00000000000E+00  0.00000000000E+00 -0.35993721193E+03  0.19385648476E+04  0.19048566538E+04 0.  0.
        3    1    3    3  502    0  0.67894268523E+03  0.66438422543E+03 -0.10982772943E+03  0.95625922697E+03  0.10100000352E+00 0.  1.
       -3    1    3    3    0  502 -0.67894268523E+03 -0.66438422543E+03 -0.25010948250E+03  0.98230562060E+03  0.10100000352E+00 0. -1.
</event>
<event>
 5   0  0.2789718E-05  0.1903461E+04  0.7818609E-02  0.8653135E-01
        2   -1    0    0  501    0  0.00000000000E+00  0.00000000000E+00  0.21985011603E+04  0.21985011603E+04  0.25500000920E-02 0.  1.
       -2   -1    0    0    0  501  0.00000000000E+00  0.00000000000E+00 -0.41200391588E+03  0.41200391589E+03  0.25500000920E-02 0. -1.
    10030    2    1    2    0    0  0.00000000000E+00  0.00000000000E+00  0.17864972445E+04  0.26105050762E+04  0.19034611497E+04 0.  0.
        5    1    3    3  502    0  0.22121799204E+03 -0.68308554127E+03  0.36529458611E+02  0.71895740350E+03  0.46999998093E+01 0. -1.
       -5    1    3    3    0  502 -0.22121799204E+03  0.68308554127E+03  0.17499677858E+04  0.18915476727E+04  0.46999998093E+01 0.  1.
</event>
<event>
 5   0  0.1471485E-05  0.1898909E+04  0.7818609E-02  0.8655400E-01
        1   -1    0    0  501    0  0.00000000000E+00  0.00000000000E+00  0.19677072824E+04  0.19677072824E+04  0.50400001928E-02 0.  1.
       -1   -1    0    0    0  501  0.00000000000E+00  0.00000000000E+00 -0.45812883271E+03  0.45812883274E+03  0.50400001928E-02 0. -1.
    10030    2    1    2    0    0  0.00000000000E+00  0.00000000000E+00  0.15095784497E+04  0.24258361151E+04  0.18989085712E+04 0.  0.
        4    1    3    3  502    0 -0.59901065395E+03  0.57680599471E+03  0.16944948887E+03  0.84866581247E+03  0.12699999809E+01 0. -1.
       -4    1    3    3    0  502  0.59901065395E+03 -0.57680599471E+03  0.13401289608E+04  0.15771703026E+04  0.12699999809E+01 0.  1.
</event>
<event>
 5   0  0.2813537E-05  0.1912140E+04  0.7818609E-02  0.8648837E-01
       -2   -1    0    0    0  501  0.00000000000E+00  0.00000000000E+00  0.81813359431E+03  0.81813359431E+03  0.25500000920E-02 0. -1.
        2   -1    0    0  501    0  0.00000000000E+00  0.00000000000E+00 -0.11172620016E+04  0.11172620016E+04  0.25500000920E-02 0.  1.
    10030    2    1    2    0    0  0.00000000000E+00  0.00000000000E+00 -0.29912840727E+03  0.19353955959E+04  0.19121397199E+04 0.  0.
        2    1    3    3  502    0 -0.93829922709E+03  0.18132823106E+03 -0.17790854487E+03  0.97207860654E+03  0.25500000920E-02 0.  1.
       -2    1    3    3    0  502  0.93829922709E+03 -0.18132823106E+03 -0.12121986240E+03  0.96331698936E+03  0.25500000920E-02 0. -1.
</event>
<event>
 5   0  0.1327254E-05  0.1901933E+04  0.7818609E-02  0.8653895E-01
       -1   -1    0    0    0  501  0.00000000000E+00  0.00000000000E+00  0.79029176540E+03  0.79029176542E+03  0.50400001928E-02 0.  1.
        1   -1    0    0  501    0  0.00000000000E+00  0.00000000000E+00 -0.11443081645E+04  0.11443081645E+04  0.50400001928E-02 0. -1.
    10030    2    1    2    0    0  0.00000000000E+00  0.00000000000E+00 -0.35401639909E+03  0.19345999299E+04  0.19019330372E+04 0.  0.
        5    1    3    3  502    0  0.24341625278E+03 -0.80056299011E+03  0.28259611724E+03  0.88319603074E+03  0.46999998093E+01 0.  1.
       -5    1    3    3    0  502 -0.24341625278E+03  0.80056299011E+03 -0.63661251633E+03  0.10514038992E+04  0.46999998093E+01 0. -1.
</event>
<event>
 5   0  0.1010725E-05  0.1889639E+04  0.7818609E-02  0.8660031E-01
        3   -1    0    0  501    0  0.00000000000E+00  0.00000000000E+00  0.81149295996E+03  0.81149296624E+03  0.10100000352E+00 0.  1.
       -3   -1    0    0    0  501  0.00000000000E+00  0.00000000000E+00 -0.11000507866E+04  0.11000507913E+04  0.10100000352E+00 0. -1.
    10030    2    1    2    0    0  0.00000000000E+00  0.00000000000E+00 -0.28855782668E+03  0.19115437575E+04  0.18896385680E+04 0.  0.
        1    1    3    3  502    0 -0.63880151512E+03  0.83554919110E+02  0.55484382178E+03  0.85023553608E+03  0.50400001928E-02 0.  1.
       -1    1    3    3    0  502  0.63880151512E+03 -0.83554919110E+02 -0.84340164846E+03  0.10613082214E+04  0.50400001928E-02 0. -1.
</event>
<event>
 5   0  0.1344119E-05  0.1899610E+04  0.7818609E-02  0.8655050E-01
       -1   -1    0    0    0  501  0.00000000000E+00  0.00000000000E+00  0.58997126098E+03  0.58997126100E+03  0.50400001928E-02 0.  1.
        1   -1    0    0  501    0  0.00000000000E+00  0.00000000000E+00 -0.15291078745E+04  0.15291078745E+04  0.50400001928E-02 0. -1.
    10030    2    1    2    0    0  0.00000000000E+00  0.00000000000E+00 -0.93913661356E+03  0.21190791355E+04  0.18996101715E+04 0.  0.
        2    1    3    3  502    0  0.40036995114E+02 -0.53674127969E+02  0.58733485579E+03  0.59113966694E+03  0.25500000920E-02 0.  1.
       -2    1    3    3    0  502 -0.40036995114E+02  0.53674127969E+02 -0.15264714693E+04  0.15279394686E+04  0.25500000920E-02 0. -1.
</event>
<event>
 5   0  0.1327254E-05  0.1884443E+04  0.7818609E-02  0.8662639E-01
        1   -1    0    0  501    0  0.00000000000E+00  0.00000000000E+00  0.14249675641E+04  0.14249675641E+04  0.50400001928E-02 0.  1.
       -1   -1    0    0    0  501  0.00000000000E+00  0.00000000000E+00 -0.62301844620E+03  0.62301844622E+03  0.50400001928E-02 0. -1.
    10030    2    1    2    0    0  0.00000000000E+00  0.00000000000E+00  0.80194911789E+03  0.20479860103E+04  0.18844427056E+04 0.  0.
        5    1    3    3  502    0  0.27174449048E+03  0.87318097462E+03  0.64753109108E+03  0.11205394622E+04  0.46999998093E+01 0.  1.
       -5    1    3    3    0  502 -0.27174449048E+03 -0.87318097462E+03  0.15441802681E+03  0.92744654808E+03  0.46999998093E+01 0. -1.
</event>
<event>
 5   0  0.2813537E-05  0.1897227E+04  0.7818609E-02  0.8656238E-01
        2   -1    0    0  501    0  0.00000000000E+00  0.00000000000E+00  0.86885705648E+03  0.86885705648E+03  0.25500000920E-02 0.  1.
       -2   -1    0    0    0  501  0.00000000000E+00  0.00000000000E+00 -0.10356909280E+04  0.10356909280E+04  0.25500000920E-02 0. -1.
    10030    2    1    2    0    0  0.00000000000E+00  0.00000000000E+00 -0.16683387154E+03  0.19045479845E+04  0.18972267879E+04 0.  0.
        2    1    3    3  502    0 -0.14612425669E+03  0.27177652687E+03 -0.98390275581E+03  0.10311544074E+04  0.25500000920E-02 0. -1.
       -2    1    3    3    0  502  0.14612425669E+03 -0.27177652687E+03  0.81706888426E+03  0.87339357714E+03  0.25500000920E-02 0.  1.
</event>
<event>
 5   0  0.2813537E-05  0.1899257E+04  0.7818609E-02  0.8655226E-01
        2   -1    0    0  501    0  0.00000000000E+00  0.00000000000E+00  0.10079236272E+04  0.10079236272E+04  0.25500000920E-02 0.  1.
       -2   -1    0    0    0  501  0.00000000000E+00  0.00000000000E+00 -0.89470471548E+03  0.89470471548E+03  0.25500000920E-02 0. -1.
    10030    2    1    2    0    0  0.00000000000E+00  0.00000000000E+00  0.11321891174E+03  0.19026283427E+04  0.18992567200E+04 0.  0.
        2    1    3    3  502    0  0.24734421202E+03  0.51367759565E+03  0.81739834896E+03  0.99658611890E+03  0.25500000920E-02 0.  1.
       -2    1    3    3    0  502 -0.24734421202E+03 -0.51367759565E+03 -0.70417943722E+03  0.90604222380E+03  0.25500000920E-02 0. -1.
</event>
<event>
 5   0  0.1471485E-05  0.1899476E+04  0.7818609E-02  0.8655117E-01
       -1   -1    0    0    0  501  0.00000000000E+00  0.00000000000E+00  0.11500881901E+04  0.11500881901E+04  0.50400001928E-02 0. -1.
        1   -1    0    0  501    0  0.00000000000E+00  0.00000000000E+00 -0.78428943281E+03  0.78428943283E+03  0.50400001928E-02 0.  1.
    10030    2    1    2    0    0  0.00000000000E+00  0.00000000000E+00  0.36579875728E+03  0.19343776229E+04  0.18994757322E+04 0.  0.
        4    1    3    3  502    0 -0.88698166365E+03 -0.29624174024E+03  0.35179230039E+03  0.99912715699E+03  0.12699999809E+01 0. -1.
       -4    1    3    3    0  502  0.88698166365E+03  0.29624174024E+03  0.14006456891E+02  0.93525046595E+03  0.12699999809E+01 0.  1.
</event>
<event>
 5   0  0.2879462E-05  0.1910392E+04  0.7818609E-02  0.8649701E-01
        2   -1    0    0  501    0  0.00000000000E+00  0.00000000000E+00  0.96486655433E+03  0.96486655433E+03  0.25500000920E-02 0. -1.
       -2   -1    0    0    0  501  0.00000000000E+00  0.00000000000E+00 -0.94562226512E+03  0.94562226512E+03  0.25500000920E-02 0.  1.
    10030    2    1    2    0    0  0.00000000000E+00  0.00000000000E+00  0.19244289210E+02  0.19104888195E+04  0.19103918935E+04 0.  0.
        4    1    3    3  502    0 -0.96818314603E+02 -0.93907195146E+03 -0.13587670656E+03  0.95377880473E+03  0.12699999809E+01 0. -1.
       -4    1    3    3    0  502  0.96818314603E+02  0.93907195146E+03  0.15512099577E+03  0.95671001473E+03  0.12699999809E+01 0.  1.
</event>
<event>
 5   0  0.1010725E-05  0.1916420E+04  0.7818609E-02  0.8646726E-01
        3   -1    0    0  501    0  0.00000000000E+00  0.00000000000E+00  0.63098065185E+03  0.63098065994E+03  0.10100000352E+00 0.  1.
       -3   -1    0    0    0  501  0.00000000000E+00  0.00000000000E+00 -0.14551417648E+04  0.14551417683E+04  0.10100000352E+00 0. -1.
    10030    2    1    2    0    0  0.00000000000E+00  0.00000000000E+00 -0.82416111291E+03  0.20861224282E+04  0.19164199032E+04 0.  0.
        5    1    3    3  502    0 -0.48672420350E+03  0.66615903923E+03 -0.94254819640E+03  0.12526322319E+04  0.46999998093E+01 0. -1.
       -5    1    3    3    0  502  0.48672420350E+03 -0.66615903923E+03  0.11838708350E+03  0.83349019632E+03  0.46999998093E+01 0.  1.
</event>
<event>
 5   0  0.1010725E-05  0.1911929E+04  0.7818609E-02  0.8648941E-01
        3   -1    0    0  501    0  0.00000000000E+00  0.00000000000E+00  0.13870877735E+04  0.13870877772E+04  0.10100000352E+00 0.  1.
       -3   -1    0    0    0  501  0.00000000000E+00  0.00000000000E+00 -0.65883909697E+03  0.65883910471E+03  0.10100000352E+00 0. -1.
    10030    2    1    2    0    0  0.00000000000E+00  0.00000000000E+00  0.72824867657E+03  0.20459268819E+04  0.19119285215E+04 0.  0.
        4    1    3    3  502    0  0.14390369531E+03  0.85201544345E+03  0.80171924715E+03  0.11787255633E+04  0.12699999809E+01 0.  1.
       -4    1    3    3    0  502 -0.14390369531E+03 -0.85201544345E+03 -0.73470570574E+02  0.86720131864E+03  0.12699999809E+01 0. -1.
</event>
<event>
 5   0  0.1327254E-05  0.1897241E+04  0.7818609E-02  0.8656231E-01
       -1   -1    0    0    0  501  0.00000000000E+00  0.00000000000E+00  0.69064536507E+03  0.69064536509E+03  0.50400001928E-02 0. -1.
        1   -1    0    0  501    0  0.00000000000E+00  0.00000000000E+00 -0.13029561883E+04  0.13029561883E+04  0.50400001928E-02 0.  1.
    10030    2    1    2    0    0  0.00000000000E+00  0.00000000000E+00 -0.61231082324E+03  0.19936015534E+04  0.18972407885E+04 0.  0.
        5    1    3    3  502    0 -0.23297206945E+03  0.89309906002E+03 -0.76042857769E+02  0.92612446375E+03  0.46999998093E+01 0. -1.
       -5    1    3    3    0  502  0.23297206945E+03 -0.89309906002E+03 -0.53626796547E+03  0.10674770897E+04  0.46999998093E+01 0.  1.
</event>
<event>
 5   0  0.2813537E-05  0.1896538E+04  0.7818609E-02  0.8656581E-01
       -2   -1    0    0    0  501  0.00000000000E+00  0.00000000000E+00  0.88062120195E+03  0.88062120195E+03  0.25500000920E-02 0.  1.
        2   -1    0    0  501    0  0.00000000000E+00  0.00000000000E+00 -0.10211136898E+04  0.10211136898E+04  0.25500000920E-02 0. -1.
    10030    2    1    2    0    0  0.00000000000E+00  0.00000000000E+00 -0.14049248787E+03  0.19017348918E+04  0.18965382831E+04 0.  0.
        2    1    3    3  502    0  0.20209257308E+03  0.18325804295E+03 -0.98091389273E+03  0.10181438913E+04  0.25500000920E-02 0. -1.
       -2    1    3    3    0  502 -0.20209257308E+03 -0.18325804295E+03  0.84042140486E+03  0.88359100049E+03  0.25500000920E-02 0.  1.
</event>
<event>
 5   0  0.1413011E-05  0.1876978E+04  0.7818609E-02  0.8666401E-01
        1   -1    0    0  501    0  0.00000000000E+00  0.00000000000E+00  0.30871487063E+03  0.30871487067E+03  0.50400001928E-02 0. -1.
       -1   -1    0    0    0  501  0.00000000000E+00  0.00000000000E+00 -0.28529948463E+04  0.28529948464E+04  0.50400001928E-02 0.  1.
    10030    2    1    2    0    0  0.00000000000E+00  0.00000000000E+00 -0.25442799757E+04  0.31617097170E+04  0.18769783536E+04 0.  0.
        1    1    3    3  502    0 -0.89610035966E+03 -0.81485546672E+02 -0.82290094778E+03  0.12193447908E+04  0.50400001928E-02 0. -1.
       -1    1    3    3    0  502  0.89610035966E+03  0.81485546672E+02 -0.17213790279E+04  0.19423649262E+04  0.50400001928E-02 0.  1.
</event>
<event>
 5   0  0.2813537E-05  0.1910285E+04  0.7818609E-02  0.8649754E-01
       -2   -1    0    0    0  501  0.00000000000E+00  0.00000000000E+00  0.10371544350E+04  0.10371544350E+04  0.25500000920E-02 0.  1.
        2   -1    0    0  501    0  0.00000000000E+00  0.00000000000E+00 -0.87961584789E+03  0.87961584790E+03  0.25500000920E-02 0. -1.
    10030    2    1    2    0    0  0.00000000000E+00  0.00000000000E+00  0.15753858711E+03  0.19167702829E+04  0.19102852957E+04 0.  0.
        2    1    3    3  502    0 -0.25340652556E+03  0.76741181834E+03 -0.43203819396E+03  0.91640207724E+03  0.25500000920E-02 0. -1.
       -2    1    3    3    0  502  0.25340652556E+03 -0.76741181834E+03  0.58957678107E+03  0.10003682057E+04  0.25500000920E-02 0.  1.
</event>
<event>
 5   0  0.2813537E-05  0.1894289E+04  0.7818609E-02  0.8657704E-01
        2   -1    0    0  501    0  0.00000000000E+00  0.00000000000E+00  0.63612822098E+03  0.63612822099E+03  0.25500000920E-02 0.  1.
       -2   -1    0    0    0  501  0.00000000000E+00  0.00000000000E+00 -0.14102235081E+04  0.14102235081E+04  0.25500000920E-02 0. -1.
    10030    2    1    2    0    0  0.00000000000E+00  0.00000000000E+00 -0.77409528715E+03  0.20463517291E+04  0.18942892825E+04 0.  0.
        2    1    3    3  502    0  0.25763193035E+03 -0.74055984248E+03 -0.96099748791E+03  0.12402899917E+04  0.25500000920E-02 0. -1.
       -2    1    3    3    0  502 -0.25763193035E+03  0.74055984248E+03  0.18690220076E+03  0.80606173739E+03  0.25500000920E-02 0.  1.
</event>
<event>
 5   0  0.1429067E-05  0.1885410E+04  0.7818609E-02  0.8662153E-01
       -1   -1    0    0    0  501  0.00000000000E+00  0.00000000000E+00  0.62615519077E+03  0.62615519079E+03  0.50400001928E-02 0. -1.
        1   -1    0    0  501    0  0.00000000000E+00  0.00000000000E+00 -0.14192851167E+04  0.14192851167E+04  0.50400001928E-02 0.  1.
    10030    2    1    2    0    0  0.00000000000E+00  0.00000000000E+00 -0.79312992592E+03  0.20454403075E+04  0.18854100276E+04 0.  0.
        3    1    3    3  502    0  0.41500182096E+03  0.10178089044E+03 -0.13081899416E+04  0.13762073951E+04  0.10100000352E+00 0.  1.
       -3    1    3    3    0  502 -0.41500182096E+03 -0.10178089044E+03  0.51506001563E+03  0.66923291234E+03  0.10100000352E+00 0. -1.
</event>
<event>
 5   0  0.1413011E-05  0.1907208E+04  0.7818609E-02  0.8651277E-01
        1   -1    0    0  501    0  0.00000000000E+00  0.00000000000E+00  0.82462430314E+03  0.82462430315E+03  0.50400001928E-02 0.  1.
       -1   -1    0    0    0  501  0.00000000000E+00  0.00000000000E+00 -0.11027569984E+04  0.11027569984E+04  0.50400001928E-02 0. -1.
    10030    2    1    2    0    0  0.00000000000E+00  0.00000000000E+00 -0.27813269529E+03  0.19273813016E+04  0.19072076147E+04 0.  0.
        1    1    3    3  502    0  0.46113170979E+03  0.25817802371E+03  0.66309414790E+03  0.84793407450E+03  0.50400001928E-02 0.  1.
       -1    1    3    3    0  502 -0.46113170979E+03 -0.25817802371E+03 -0.94122684319E+03  0.10794472271E+04  0.50400001928E-02 0. -1.
</event>
<event>
 5   0  0.1429067E-05  0.1905890E+04  0.7818609E-02  0.8651930E-01
        1   -1    0    0  501    0  0.00000000000E+00  0.00000000000E+00  0.19089211222E+04  0.19089211223E+04  0.50400001928E-02 0. -1.
       -1   -1    0    0    0  501  0.00000000000E+00  0.00000000000E+00 -0.47571594171E+03  0.47571594174E+03  0.50400001928E-02 0.  1.
    10030    2    1    2    0    0  0.00000000000E+00  0.00000000000E+00  0.14332051805E+04  0.23846370640E+04  0.19058900381E+04 0.  0.
        3    1    3    3  502    0 -0.54948621994E+03  0.68455473587E+03  0.25255671715E+03  0.91341950816E+03  0.10100000352E+00 0.  1.
       -3    1    3    3    0  502  0.54948621994E+03 -0.68455473587E+03  0.11806484634E+04  0.14712175558E+04  0.10100000352E+00 0. -1.
</event>
<event>
 5   0  0.1010725E-05  0.1898190E+04  0.7818609E-02  0.8655758E-01
        3   -1    0    0  501    0  0.00000000000E+00  0.00000000000E+00  0.75030678709E+03  0.75030679388E+03  0.10100000352E+00 0.  1.
       -3   -1    0    0    0  501  0.00000000000E+00  0.00000000000E+00 -0.12005501503E+04  0.12005501546E+04  0.10100000352E+00 0. -1.
    10030    2    1    2    0    0  0.00000000000E+00  0.00000000000E+00 -0.45024336323E+03  0.19508569484E+04  0.18981895973E+04 0.  0.
        3    1    3    3  502    0  0.25561975180E+03  0.53920812673E+02  0.71262666583E+03  0.75900308734E+03  0.10100000352E+00 0.  1.
       -3    1    3    3    0  502 -0.25561975180E+03 -0.53920812673E+02 -0.11628700291E+04  0.11918538611E+04  0.10100000352E+00 0. -1.
</event>
<event>
 5   0  0.1471485E-05  0.1899049E+04  0.7818609E-02  0.8655330E-01
        1   -1    0    0  501    0  0.00000000000E+00  0.00000000000E+00  0.10695396931E+04  0.10695396931E+04  0.50400001928E-02 0. -1.
       -1   -1    0    0    0  501  0.00000000000E+00  0.00000000000E+00 -0.84297604630E+03  0.84297604632E+03  0.50400001928E-02 0.  1.
    10030    2    1    2    0    0  0.00000000000E+00  0.00000000000E+00  0.22656364683E+03  0.19125157395E+04  0.18990485427E+04 0.  0.
        4    1    3    3  502    0 -0.41476566110E+03 -0.41282775901E+03  0.86633948200E+03  0.10454678490E+04  0.12699999809E+01 0. -1.
       -4    1    3    3    0  502  0.41476566110E+03  0.41282775901E+03 -0.63977583518E+03  0.86704789050E+03  0.12699999809E+01 0.  1.
</event>
<event>
 5   0  0.1471485E-05  0.1897080E+04  0.7818609E-02  0.8656311E-01
        1   -1    0    0  501    0  0.00000000000E+00  0.00000000000E+00  0.12278822571E+04  0.12278822571E+04  0.50400001928E-02 0.  1.
       -1   -1    0    0    0  501  0.00000000000E+00  0.00000000000E+00 -0.73274806367E+03  0.73274806369E+03  0.50400001928E-02 0. -1.
    10030    2    1    2    0    0  0.00000000000E+00  0.00000000000E+00  0.49513419345E+03  0.19606303208E+04  0.18970802264E+04 0.  0.
        4    1    3    3  502    0 -0.88794177341E+03  0.30732691027E+03  0.38166854966E+03  0.10141809096E+04  0.12699999809E+01 0.  1.
       -4    1    3    3    0  502  0.88794177341E+03 -0.30732691027E+03  0.11346564379E+03  0.94644941120E+03  0.12699999809E+01 0. -1.
</event>
<event>
 5   0  0.2855141E-05  0.1900129E+04  0.7818609E-02  0.8654792E-01
        2   -1    0    0  501    0  0.00000000000E+00  0.00000000000E+00  0.13687706529E+04  0.13687706529E+04  0.25500000920E-02 0.  1.
       -2   -1    0    0    0  501  0.00000000000E+00  0.00000000000E+00 -0.65944006062E+03  0.65944006063E+03  0.25500000920E-02 0. -1.
    10030    2    1    2    0    0  0.00000000000E+00  0.00000000000E+00  0.70933059228E+03  0.20282107135E+04  0.19001286297E+04 0.  0.
        1    1    3    3  502    0  0.90307068131E+03  0.17505122585E+03  0.60825617852E+03  0.11027942536E+04  0.50400001928E-02 0.  1.
       -1    1    3    3    0  502 -0.90307068131E+03 -0.17505122585E+03  0.10107441376E+03  0.92541645990E+03  0.50400001928E-02 0. -1.
</event>
<event>
 5   0  0.2888776E-05  0.1909653E+04  0.7818609E-02  0.8650067E-01
        2   -1    0    0  501    0  0.00000000000E+00  0.00000000000E+00  0.20712457913E+04  0.20712457913E+04  0.25500000920E-02 0. -1.
       -2   -1    0    0    0  501  0.00000000000E+00  0.00000000000E+00 -0.44016659869E+03  0.44016659870E+03  0.25500000920E-02 0.  1.
    10030    2    1    2    0    0  0.00000000000E+00  0.00000000000E+00  0.16310791926E+04  0.25114123900E+04  0.19096525496E+04 0.  0.
        3    1    3    3  502    0 -0.47539016812E+03 -0.20020277052E+02 -0.27314720592E+03  0.54864016417E+03  0.10100000352E+00 0.  1.
       -3    1    3    3    0  502  0.47539016812E+03  0.20020277052E+02  0.19042263985E+04  0.19627722258E+04  0.10100000352E+00 0. -1.
</event>
<event>
 5   0  0.1010725E-05  0.1883688E+04  0.7818609E-02  0.8663019E-01
       -3   -1    0    0    0  501  0.00000000000E+00  0.00000000000E+00  0.14129283283E+04  0.14129283319E+04  0.10100000352E+00 0.  1.
        3   -1    0    0  501    0  0.00000000000E+00  0.00000000000E+00 -0.62782358970E+03  0.62782359782E+03  0.10100000352E+00 0. -1.
    10030    2    1    2    0    0  0.00000000000E+00  0.00000000000E+00  0.78510473861E+03  0.20407519297E+04  0.18836876037E+04 0.  0.
        1    1    3    3  502    0 -0.18199279787E+03 -0.84961767619E+03  0.78631068748E+03  0.11718600904E+04  0.50400001928E-02 0.  1.
       -1    1    3    3    0  502  0.18199279787E+03  0.84961767619E+03 -0.12059488664E+01  0.86889183936E+03  0.50400001928E-02 0. -1.
</event>
<event>
 5   0  0.2813537E-05  0.1904839E+04  0.7818609E-02  0.8652451E-01
        2   -1    0    0  501    0  0.00000000000E+00  0.00000000000E+00  0.19308332749E+04  0.19308332749E+04  0.25500000920E-02 0.  1.
       -2   -1    0    0    0  501  0.00000000000E+00  0.00000000000E+00 -0.46979870361E+03  0.46979870362E+03  0.25500000920E-02 0. -1.
    10030    2    1    2    0    0  0.00000000000E+00  0.00000000000E+00  0.14610345713E+04  0.24006319785E+04  0.19048390687E+04 0.  0.
        2    1    3    3  502    0 -0.60297756202E+02  0.83432514140E+03  0.15661373930E+03  0.85103591247E+03  0.25500000920E-02 0.  1.
       -2    1    3    3    0  502  0.60297756202E+02 -0.83432514140E+03  0.13044208320E+04  0.15495960660E+04  0.25500000920E-02 0. -1.
</event>
<event>
 5   0  0.2879462E-05  0.1898449E+04  0.7818609E-02  0.8655629E-01
        2   -1    0    0  501    0  0.00000000000E+00  0.00000000000E+00  0.15120386433E+04  0.15120386433E+04  0.25500000920E-02 0.  1.
       -2   -1    0    0    0  501  0.00000000000E+00  0.00000000000E+00 -0.59590212190E+03  0.59590212190E+03  0.25500000920E-02 0. -1.
    10030    2    1    2    0    0  0.00000000000E+00  0.00000000000E+00  0.91613652137E+03  0.21079407652E+04  0.18984488783E+04 0.  0.
        4    1    3    3  502    0 -0.71925140275E+03 -0.94808966446E+02 -0.22161960234E+03  0.75856982639E+03  0.12699999809E+01 0. -1.
       -4    1    3    3    0  502  0.71925140275E+03  0.94808966446E+02  0.11377561237E+04  0.13493709388E+04  0.12699999809E+01 0.  1.
</event>
<event>
 5   0  0.1471485E-05  0.1903186E+04  0.7818609E-02  0.8653272E-01
       -1   -1    0    0    0  501  0.00000000000E+00  0.00000000000E+00  0.87312737315E+03  0.87312737316E+03  0.50400001928E-02 0.  1.
        1   -1    0    0  501    0  0.00000000000E+00  0.00000000000E+00 -0.10371103172E+04  0.10371103172E+04  0.50400001928E-02 0. -1.
    10030    2    1    2    0    0  0.00000000000E+00  0.00000000000E+00 -0.16398294404E+03  0.19102376904E+04  0.19031861779E+04 0.  0.
        4    1    3    3  502    0  0.76654986255E+02  0.86094639839E+03 -0.48149019644E+03  0.98941351820E+03  0.12699999809E+01 0. -1.
       -4    1    3    3    0  502 -0.76654986255E+02 -0.86094639839E+03  0.31750725240E+03  0.92082417217E+03  0.12699999809E+01 0.  1.
</event>
<event>
 5   0  0.2789718E-05  0.1900575E+04  0.7818609E-02  0.8654570E-01
       -2   -1    0    0    0  501  0.00000000000E+00  0.00000000000E+00  0.44244439690E+03  0.44244439691E+03  0.25500000920E-02 0.  1.
        2   -1    0    0  501    0  0.00000000000E+00  0.00000000000E+00 -0.20410399891E+04  0.20410399891E+04  0.25500000920E-02 0. -1.
    10030    2    1    2    0    0  0.00000000000E+00  0.00000000000E+00 -0.15985955922E+04  0.24834843860E+04  0.19005753940E+04 0.  0.
        5    1    3    3  502    0 -0.74993980882E+03 -0.48952500103E+03 -0.38406238014E+03  0.97445905266E+03  0.46999998093E+01 0.  1.
       -5    1    3    3    0  502  0.74993980882E+03  0.48952500103E+03 -0.12145332121E+04  0.15090253333E+04  0.46999998093E+01 0. -1.
</event>
<event>
 5   0  0.2888776E-05  0.1902149E+04  0.7818609E-02  0.8653787E-01
        2   -1    0    0  501    0  0.00000000000E+00  0.00000000000E+00  0.10200141177E+04  0.10200141177E+04  0.25500000920E-02 0.  1.
       -2   -1    0    0    0  501  0.00000000000E+00  0.00000000000E+00 -0.88679453800E+03  0.88679453800E+03  0.25500000920E-02 0. -1.
    10030    2    1    2    0    0  0.00000000000E+00  0.00000000000E+00  0.13321957973E+03  0.19068086557E+04  0.19021492563E+04 0.  0.
        3    1    3    3  502    0  0.28919802451E+01 -0.63109474835E+03  0.77986795791E+03  0.10032362568E+04  0.10100000352E+00 0.  1.
       -3    1    3    3    0  502 -0.28919802451E+01  0.63109474835E+03 -0.64664837818E+03  0.90357239895E+03  0.10100000352E+00 0. -1.
</event>
<event>
 5   0  0.1471485E-05  0.1896544E+04  0.7818609E-02  0.8656579E-01
        1   -1    0    0  501    0  0.00000000000E+00  0.00000000000E+00  0.10336124154E+04  0.10336124154E+04  0.50400001928E-02 0.  1.
       -1   -1    0    0    0  501  0.00000000000E+00  0.00000000000E+00 -0.86997783013E+03  0.86997783015E+03  0.50400001928E-02 0. -1.
    10030    2    1    2    0    0  0.00000000000E+00  0.00000000000E+00  0.16363458527E+03  0.19035902456E+04  0.18965441059E+04 0.  0.
        4    1    3    3  502    0 -0.46966565869E+03 -0.99585937682E+02  0.90260545305E+03  0.10223509215E+04  0.12699999809E+01 0.  1.
       -4    1    3    3    0  502  0.46966565869E+03  0.99585937682E+02 -0.73897086778E+03  0.88123932405E+03  0.12699999809E+01 0. -1.
</event>
<event>
 5   0  0.1429067E-05  0.1953826E+04  0.7818609E-02  0.8628518E-01
       -1   -1    0    0    0  501  0.00000000000E+00  0.00000000000E+00  0.12024529433E+04  0.12024529433E+04  0.50400001928E-02 0.  1.
        1   -1    0    0  501    0  0.00000000000E+00  0.00000000000E+00 -0.79367700811E+03  0.79367700813E+03  0.50400001928E-02 0. -1.
    10030    2    1    2    0    0  0.00000000000E+00  0.00000000000E+00  0.40877593515E+03  0.19961299514E+04  0.19538262507E+04 0.  0.
        3    1    3    3  502    0  0.13846500406E+03  0.67197268098E+03 -0.50611142186E+03  0.85256590530E+03  0.10100000352E+00 0. -1.
       -3    1    3    3    0  502 -0.13846500406E+03 -0.67197268098E+03  0.91488735702E+03  0.11435640461E+04  0.10100000352E+00 0.  1.
</event>
<event>
 5   0  0.2879462E-05  0.1900031E+04  0.7818609E-02  0.8654841E-01
       -2   -1    0    0    0  501  0.00000000000E+00  0.00000000000E+00  0.94636373111E+03  0.94636373112E+03  0.25500000920E-02 0. -1.
        2   -1    0    0  501    0  0.00000000000E+00  0.00000000000E+00 -0.95368089041E+03  0.95368089041E+03  0.25500000920E-02 0.  1.
    10030    2    1    2    0    0  0.00000000000E+00  0.00000000000E+00 -0.73171592955E+01  0.19000446215E+04  0.19000305321E+04 0.  0.
        4    1    3    3  502    0 -0.38368491001E+03  0.52805577295E+03 -0.69393203977E+03  0.95268058563E+03  0.12699999809E+01 0.  1.
       -4    1    3    3    0  502  0.38368491001E+03 -0.52805577295E+03  0.68661488048E+03  0.94736403590E+03  0.12699999809E+01 0. -1.
</event>
<event>
 5   0  0.2888776E-05  0.1901130E+04  0.7818609E-02  0.8654294E-01
        2   -1    0    0  501    0  0.00000000000E+00  0.00000000000E+00  0.13661260233E+04  0.13661260233E+04  0.25500000920E-02 0.  1.
       -2   -1    0    0    0  501  0.00000000000E+00  0.00000000000E+00 -0.66141336921E+03  0.66141336921E+03  0.25500000920E-02 0. -1.
    10030    2    1    2    0    0  0.00000000000E+00  0.00000000000E+00  0.70471265409E+03  0.20275393925E+04  0.19011302068E+04 0.  0.
        3    1    3    3  502    0 -0.50887961459E+03 -0.36414673830E+03 -0.41077240220E+03  0.74852874746E+03  0.10100000352E+00 0. -1.
       -3    1    3    3    0  502  0.50887961459E+03  0.36414673830E+03  0.11154850563E+04  0.12790106451E+04  0.10100000352E+00 0.  1.
</event>
<event>
 5   0  0.2813537E-05  0.1898552E+04  0.7818609E-02  0.8655578E-01
       -2   -1    0    0    0  501  0.00000000000E+00  0.00000000000E+00  0.17530016712E+04  0.17530016712E+04  0.25500000920E-02 0.  1.
        2   -1    0    0  501    0  0.00000000000E+00  0.00000000000E+00 -0.51404657238E+03  0.51404657238E+03  0.25500000920E-02 0. -1.
    10030    2    1    2    0    0  0.00000000000E+00  0.00000000000E+00  0.12389550988E+04  0.22670482436E+04  0.18985515536E+04 0.  0.
        2    1    3    3  502    0  0.77886800284E+03  0.34067886006E+03  0.11238701581E+04  0.14091776268E+04  0.25500000920E-02 0.  1.
       -2    1    3    3    0  502 -0.77886800284E+03 -0.34067886006E+03  0.11508494068E+03  0.85787061677E+03  0.25500000920E-02 0. -1.
</event>
<event>
 5   0  0.2813537E-05  0.1902194E+04  0.7818609E-02  0.8653765E-01
       -2   -1    0    0    0  501  0.00000000000E+00  0.00000000000E+00  0.36495030422E+03  0.36495030423E+03  0.25500000920E-02 0.  1.
        2   -1    0    0  501    0  0.00000000000E+00  0.00000000000E+00 -0.24786532921E+04  0.24786532921E+04  0.25500000920E-02 0. -1.
    10030    2    1    2    0    0  0.00000000000E+00  0.00000000000E+00 -0.21137029879E+04  0.28436035963E+04  0.19021937578E+04 0.  0.
        2    1    3    3  502    0 -0.70101372354E+03  0.24891575891E+03 -0.17092997238E+03  0.76327999521E+03  0.25500000920E-02 0.  1.
       -2    1    3    3    0  502  0.70101372354E+03 -0.24891575891E+03 -0.19427730155E+04  0.20803236011E+04  0.25500000920E-02 0. -1.
</event>
<event>
 5   0  0.2879462E-05  0.1898961E+04  0.7818609E-02  0.8655374E-01
       -2   -1    0    0    0  501  0.00000000000E+00  0.00000000000E+00  0.12137463535E+04  0.12137463535E+04  0.25500000920E-02 0.  1.
        2   -1    0    0  501    0  0.00000000000E+00  0.00000000000E+00 -0.74275236104E+03  0.74275236104E+03  0.25500000920E-02 0. -1.
    10030    2    1    2    0    0  0.00000000000E+00  0.00000000000E+00  0.47099399242E+03  0.19564987145E+04  0.18989607365E+04 0.  0.
        4    1    3    3  502    0  0.40168450281E+03  0.26832684394E+03 -0.60668188186E+03  0.77550902874E+03  0.12699999809E+01 0.  1.
       -4    1    3    3    0  502 -0.40168450281E+03 -0.26832684394E+03  0.10776758743E+04  0.11809896858E+04  0.12699999809E+01 0. -1.
</event>
<event>
 5   0  0.2789718E-05  0.1899460E+04  0.7818609E-02  0.8655125E-01
       -2   -1    0    0    0  501  0.00000000000E+00  0.00000000000E+00  0.45912822389E+03  0.45912822389E+03  0.25500000920E-02 0.  1.
        2   -1    0    0  501    0  0.00000000000E+00  0.00000000000E+00 -0.19645650230E+04  0.19645650230E+04  0.25500000920E-02 0. -1.
    10030    2    1    2    0    0  0.00000000000E+00  0.00000000000E+00 -0.15054367991E+04  0.24236932468E+04  0.18994601862E+04 0.  0.
        5    1    3    3  502    0  0.79580515591E+03 -0.44035443819E+03 -0.11015735678E+04  0.14285322162E+04  0.46999998093E+01 0. -1.
       -5    1    3    3    0  502 -0.79580515591E+03  0.44035443819E+03 -0.40386323130E+03  0.99516103069E+03  0.46999998093E+01 0.  1.
</event>
<event>
 5   0  0.2789718E-05  0.1901347E+04  0.7818609E-02  0.8654186E-01
        2   -1    0    0  501    0  0.00000000000E+00  0.00000000000E+00  0.15949712881E+04  0.15949712881E+04  0.25500000920E-02 0. -1.
       -2   -1    0    0    0  501  0.00000000000E+00  0.00000000000E+00 -0.56664328830E+03  0.56664328831E+03  0.25500000920E-02 0.  1.
    10030    2    1    2    0    0  0.00000000000E+00  0.00000000000E+00  0.10283279998E+04  0.21616145764E+04  0.19013466548E+04 0.  0.
        5    1    3    3  502    0  0.16712960013E+03 -0.25044307084E+03 -0.51099188888E+03  0.59311789340E+03  0.46999998093E+01 0.  1.
       -5    1    3    3    0  502 -0.16712960013E+03  0.25044307084E+03  0.15393198887E+04  0.15684966830E+04  0.46999998093E+01 0. -1.
</event>
<event>
 5   0  0.2888776E-05  0.1901608E+04  0.7818609E-02  0.8654056E-01
       -2   -1    0    0    0  501  0.00000000000E+00  0.00000000000E+00  0.52899469592E+03  0.52899469593E+03  0.25500000920E-02 0.  1.
        2   -1    0    0  501    0  0.00000000000E+00  0.00000000000E+00 -0.17089552324E+04  0.17089552324E+04  0.25500000920E-02 0. -1.
    10030    2    1    2    0    0  0.00000000000E+00  0.00000000000E+00 -0.11799605365E+04  0.22379499284E+04  0.19016080075E+04 0.  0.
        3    1    3    3  502    0 -0.10916333129E+03  0.37424827744E+03 -0.16105734879E+04  0.16570833945E+04  0.10100000352E+00 0. -1.
       -3    1    3    3    0  502  0.10916333129E+03 -0.37424827744E+03  0.43061295141E+03  0.58086653388E+03  0.10100000352E+00 0.  1.
</event>
<event>
 5   0  0.1413011E-05  0.1900539E+04  0.7818609E-02  0.8654588E-01
        1   -1    0    0  501    0  0.00000000000E+00  0.00000000000E+00  0.13793698136E+04  0.13793698136E+04  0.50400001928E-02 0.  1.
       -1   -1    0    0    0  501  0.00000000000E+00  0.00000000000E+00 -0.65465563997E+03  0.65465563999E+03  0.50400001928E-02 0. -1.
    10030    2    1    2    0    0  0.00000000000E+00  0.00000000000E+00  0.72471417362E+03  0.20340254536E+04  0.19005391110E+04 0.  0.
        1    1    3    3  502    0 -0.50556094796E+03 -0.26416688440E+03 -0.45104780160E+03  0.72720020233E+03  0.50400001928E-02 0. -1.
       -1    1    3    3    0  502  0.50556094796E+03  0.26416688440E+03  0.11757619752E+04  0.13068252513E+04  0.50400001928E-02 0.  1.
</event>
<event>
 5   0  0.1413011E-05  0.1877400E+04  0.7818609E-02  0.8666188E-01
       -1   -1    0    0    0  501  0.00000000000E+00  0.00000000000E+00  0.69206475183E+03  0.69206475185E+03  0.50400001928E-02 0.  1.
        1   -1    0    0  501    0  0.00000000000E+00  0.00000000000E+00 -0.12732300318E+04  0.12732300318E+04  0.50400001928E-02 0. -1.
    10030    2    1    2    0    0  0.00000000000E+00  0.00000000000E+00 -0.58116528000E+03  0.19652947837E+04  0.18773999319E+04 0.  0.
        1    1    3    3  502    0 -0.25498775045E+03 -0.88998835418E+03 -0.45295613102E+03  0.10306635145E+04  0.50400001928E-02 0. -1.
       -1    1    3    3    0  502  0.25498775045E+03  0.88998835418E+03 -0.12820914897E+03  0.93463126920E+03  0.50400001928E-02 0.  1.
</event>
<event>
 5   0  0.2813537E-05  0.1896583E+04  0.7818609E-02  0.8656559E-01
        2   -1    0    0  501    0  0.00000000000E+00  0.00000000000E+00  0.23234605677E+04  0.23234605677E+04  0.25500000920E-02 0. -1.
       -2   -1    0    0    0  501  0.00000000000E+00  0.00000000000E+00 -0.38703320991E+03  0.38703320992E+03  0.25500000920E-02 0.  1.
    10030    2    1    2    0    0  0.00000000000E+00  0.00000000000E+00  0.19364273578E+04  0.27104937776E+04  0.18965826126E+04 0.  0.
        2    1    3    3  502    0  0.65308433528E+03  0.55247961527E+03  0.15531231159E+04  0.17731171105E+04  0.25500000920E-02 0. -1.
       -2    1    3    3    0  502 -0.65308433528E+03 -0.55247961527E+03  0.38330424191E+03  0.93737666717E+03  0.25500000920E-02 0.  1.
</event>
<event>
 5   0  0.2879462E-05  0.1899401E+04  0.7818609E-02  0.8655155E-01
       -2   -1    0    0    0  501  0.00000000000E+00  0.00000000000E+00  0.53073997994E+03  0.53073997995E+03  0.25500000920E-02 0. -1.
        2   -1    0    0  501    0  0.00000000000E+00  0.00000000000E+00 -0.16993834544E+04  0.16993834544E+04  0.25500000920E-02 0.  1.
    10030    2    1    2    0    0  0.00000000000E+00  0.00000000000E+00 -0.11686434744E+04  0.22301234343E+04  0.18994006849E+04 0.  0.
        4    1    3    3  502    0 -0.81463468308E+02 -0.19536095978E+03 -0.16713350934E+04  0.16846853737E+04  0.12699999809E+01 0.  1.
       -4    1    3    3    0  502  0.81463468308E+02  0.19536095978E+03  0.50269161894E+03  0.54543806058E+03  0.12699999809E+01 0. -1.
</event>
<event>
 5   0  0.1327254E-05  0.1900587E+04  0.7818609E-02  0.8654564E-01
       -1   -1    0    0    0  501  0.00000000000E+00  0.00000000000E+00  0.95230709143E+03  0.95230709144E+03  0.50400001928E-02 0.  1.
        1   -1    0    0  501    0  0.00000000000E+00  0.00000000000E+00 -0.94828436667E+03  0.94828436668E+03  0.50400001928E-02 0. -1.
    10030    2    1    2    0    0  0.00000000000E+00  0.00000000000E+00  0.40227247603E+01  0.19005914581E+04  0.19005872009E+04 0.  0.
        5    1    3    3  502    0  0.10010315295E+03 -0.81095718623E+03 -0.48313262900E+03  0.94926889042E+03  0.46999998093E+01 0. -1.
       -5    1    3    3    0  502 -0.10010315295E+03  0.81095718623E+03  0.48715535376E+03  0.95132256770E+03  0.46999998093E+01 0.  1.
</event>
<event>
 5   0  0.2855141E-05  0.1901896E+04  0.7818609E-02  0.8653913E-01
        2   -1    0    0  501    0  0.00000000000E+00  0.00000000000E+00  0.62441404335E+03  0.62441404335E+03  0.25500000920E-02 0. -1.
       -2   -1    0    0    0  501  0.00000000000E+00  0.00000000000E+00 -0.14482410344E+04  0.14482410344E+04  0.25500000920E-02 0.  1.
    10030    2    1    2    0    0  0.00000000000E+00  0.00000000000E+00 -0.82382699110E+03  0.20726550778E+04  0.19018959383E+04 0.  0.
        1    1    3    3  502    0  0.50456671082E+03 -0.80060774312E+03 -0.51380515392E+03  0.10768268478E+04  0.50400001928E-02 0.  1.
       -1    1    3    3    0  502 -0.50456671082E+03  0.80060774312E+03 -0.31002183718E+03  0.99582822995E+03  0.50400001928E-02 0. -1.
</event>
<event>
 5   0  0.1327254E-05  0.1903205E+04  0.7818609E-02  0.8653263E-01
       -1   -1    0    0    0  501  0.00000000000E+00  0.00000000000E+00  0.10717077022E+04  0.10717077022E+04  0.50400001928E-02 0. -1.
        1   -1    0    0  501    0  0.00000000000E+00  0.00000000000E+00 -0.84495698030E+03  0.84495698032E+03  0.50400001928E-02 0.  1.
    10030    2    1    2    0    0  0.00000000000E+00  0.00000000000E+00  0.22675072191E+03  0.19166646825E+04  0.19032045648E+04 0.  0.
        5    1    3    3  502    0  0.56957427792E+03  0.68945708146E+03 -0.21413052447E+03  0.91958680762E+03  0.46999998093E+01 0.  1.
       -5    1    3    3    0  502 -0.56957427792E+03 -0.68945708146E+03  0.44088124637E+03  0.99707787491E+03  0.46999998093E+01 0. -1.
</event>
<event>
 5   0  0.1471485E-05  0.1902858E+04  0.7818609E-02  0.8653435E-01
       -1   -1    0    0    0  501  0.00000000000E+00  0.00000000000E+00  0.53146672277E+03  0.53146672279E+03  0.50400001928E-02 0. -1.
        1   -1    0    0  501    0  0.00000000000E+00  0.00000000000E+00 -0.17032425799E+04  0.17032425800E+04  0.50400001928E-02 0.  1.
    10030    2    1    2    0    0  0.00000000000E+00  0.00000000000E+00 -0.11717758572E+04  0.22347093027E+04  0.19028575901E+04 0.  0.
        4    1    3    3  502    0 -0.87049387010E+03 -0.17626459606E+03 -0.98653851313E+03  0.13274368672E+04  0.12699999809E+01 0.  1.
       -4    1    3    3    0  502  0.87049387010E+03  0.17626459606E+03 -0.18523734405E+03  0.90727243551E+03  0.12699999809E+01 0. -1.
</event>
<event>
 5   0  0.1413011E-05  0.1900063E+04  0.7818609E-02  0.8654825E-01
       -1   -1    0    0    0  501  0.00000000000E+00  0.00000000000E+00  0.44218735578E+03  0.44218735581E+03  0.50400001928E-02 0. -1.
        1   -1    0    0  501    0  0.00000000000E+00  0.00000000000E+00 -0.20411257857E+04  0.20411257858E+04  0.50400001928E-02 0.  1.
    10030    2    1    2    0    0  0.00000000000E+00  0.00000000000E+00 -0.15989384300E+04  0.24833131416E+04  0.19000631716E+04 0.  0.
        1    1    3    3  502    0  0.72801312019E+03  0.37722461802E+03 -0.14266190042E+04  0.16454614243E+04  0.50400001928E-02 0.  1.
       -1    1    3    3    0  502 -0.72801312019E+03 -0.37722461802E+03 -0.17231942575E+03  0.83785171727E+03  0.50400001928E-02 0. -1.
</event>
<event>
 5   0  0.1413011E-05  0.1900852E+04  0.7818609E-02  0.8654432E-01
        1   -1    0    0  501    0  0.00000000000E+00  0.00000000000E+00  0.10049105791E+04  0.10049105791E+04  0.50400001928E-02 0.  1.
       -1   -1    0    0    0  501  0.00000000000E+00  0.00000000000E+00 -0.89889578949E+03  0.89889578950E+03  0.50400001928E-02 0. -1.
    10030    2    1    2    0    0  0.00000000000E+00  0.00000000000E+00  0.10601478965E+03  0.19038063687E+04  0.19008523230E+04 0.  0.
        1    1    3    3  502    0  0.10370336625E+03 -0.94457255705E+03  0.71425772285E+02  0.95292882456E+03  0.50400001928E-02 0. -1.
       -1    1    3    3    0  502 -0.10370336625E+03  0.94457255705E+03  0.34589017363E+02  0.95087754409E+03  0.50400001928E-02 0.  1.
</event>
<event>
 5   0  0.1413011E-05  0.1899116E+04  0.7818609E-02  0.8655296E-01
       -1   -1    0    0    0  501  0.00000000000E+00  0.00000000000E+00  0.57021774381E+03  0.57021774384E+03  0.50400001928E-02 0.  1.
        1   -1    0    0  501    0  0.00000000000E+00  0.00000000000E+00 -0.15812566867E+04  0.15812566867E+04  0.50400001928E-02 0. -1.
    10030    2    1    2    0    0  0.00000000000E+00  0.00000000000E+00 -0.10110389429E+04  0.21514744306E+04  0.18991162369E+04 0.  0.
        1    1    3    3  502    0  0.24755190479E+02  0.21875058814E+03 -0.15519467265E+04  0.15674831039E+04  0.50400001928E-02 0. -1.
       -1    1    3    3    0  502 -0.24755190479E+02 -0.21875058814E+03  0.54090778355E+03  0.58399132665E+03  0.50400001928E-02 0.  1.
</event>
<event>
 5   0  0.1344119E-05  0.1906740E+04  0.7818609E-02  0.8651509E-01
       -1   -1    0    0    0  501  0.00000000000E+00  0.00000000000E+00  0.10921647994E+04  0.10921647994E+04  0.50400001928E-02 0. -1.
        1   -1    0    0  501    0  0.00000000000E+00  0.00000000000E+00 -0.83221312648E+03  0.83221312649E+03  0.50400001928E-02 0.  1.
    10030    2    1    2    0    0  0.00000000000E+00  0.00000000000E+00  0.25995167295E+03  0.19243779259E+04  0.19067395023E+04 0.  0.
        2    1    3    3  502    0 -0.28420210753E+03 -0.24332490125E+02  0.10480893500E+04  0.10862109342E+04  0.25500000920E-02 0. -1.
       -2    1    3    3    0  502  0.28420210753E+03  0.24332490125E+02 -0.78813767706E+03  0.83816699172E+03  0.25500000920E-02 0.  1.
</event>
<event>
 5   0  0.1327254E-05  0.1888267E+04  0.7818609E-02  0.8660719E-01
       -1   -1    0    0    0  501  0.00000000000E+00  0.00000000000E+00  0.59073206468E+03  0.59073206471E+03  0.50400001928E-02 0. -1.
        1   -1    0    0  501    0  0.00000000000E+00  0.00000000000E+00 -0.15089548341E+04  0.15089548341E+04  0.50400001928E-02 0.  1.
    10030    2    1    2    0    0  0.00000000000E+00  0.00000000000E+00 -0.91822276942E+03  0.20996868988E+04  0.18882669353E+04 0.  0.
        5    1    3    3  502    0  0.85148759584E+03  0.39789871640E+03 -0.55863940520E+03  0.10933684600E+04  0.46999998093E+01 0.  1.
       -5    1    3    3    0  502 -0.85148759584E+03 -0.39789871640E+03 -0.35958336423E+03  0.10063184388E+04  0.46999998093E+01 0. -1.
</event>
<event>
 5   0  0.2888776E-05  0.1901725E+04  0.7818609E-02  0.8653998E-01
       -2   -1    0    0    0  501  0.00000000000E+00  0.00000000000E+00  0.82619587603E+03  0.82619587604E+03  0.25500000920E-02 0.  1.
        2   -1    0    0  501    0  0.00000000000E+00  0.00000000000E+00 -0.10943407244E+04  0.10943407244E+04  0.25500000920E-02 0. -1.
    10030    2    1    2    0    0  0.00000000000E+00  0.00000000000E+00 -0.26814484835E+03  0.19205366004E+04  0.19017253150E+04 0.  0.
        3    1    3    3  502    0 -0.11465566963E+03 -0.36545355624E+03 -0.10129901407E+04  0.10829825759E+04  0.10100000352E+00 0. -1.
       -3    1    3    3    0  502  0.11465566963E+03  0.36545355624E+03  0.74484529232E+03  0.83755402455E+03  0.10100000352E+00 0.  1.
</event>
<event>
 5   0  0.1429067E-05  0.1904226E+04  0.7818609E-02  0.8652756E-01
       -1   -1    0    0    0  501  0.00000000000E+00  0.00000000000E+00  0.71673475810E+03  0.71673475811E+03  0.50400001928E-02 0.  1.
        1   -1    0    0  501    0  0.00000000000E+00  0.00000000000E+00 -0.12647905274E+04  0.12647905274E+04  0.50400001928E-02 0. -1.
    10030    2    1    2    0    0  0.00000000000E+00  0.00000000000E+00 -0.54805576933E+03  0.19815252856E+04  0.19042261764E+04 0.  0.
        3    1    3    3  502    0  0.57150570636E+02  0.95007583898E+03 -0.29970831020E+03  0.99786540623E+03  0.10100000352E+00 0. -1.
       -3    1    3    3    0  502 -0.57150570636E+02 -0.95007583898E+03 -0.24834745913E+03  0.98365987933E+03  0.10100000352E+00 0.  1.
</event>
<event>
 5   0  0.1344119E-05  0.1897429E+04  0.7818609E-02  0.8656137E-01
        1   -1    0    0  501    0  0.00000000000E+00  0.00000000000E+00  0.80614892904E+03  0.80614892905E+03  0.50400001928E-02 0.  1.
       -1   -1    0    0    0  501  0.00000000000E+00  0.00000000000E+00 -0.11164926878E+04  0.11164926878E+04  0.50400001928E-02 0. -1.
    10030    2    1    2    0    0  0.00000000000E+00  0.00000000000E+00 -0.31034375878E+03  0.19226416169E+04  0.18974291919E+04 0.  0.
        2    1    3    3  502    0 -0.61100397785E+03 -0.49804456450E+03 -0.69009289829E+03  0.10476652411E+04  0.25500000920E-02 0. -1.
       -2    1    3    3    0  502  0.61100397785E+03  0.49804456450E+03  0.37974913951E+03  0.87497637576E+03  0.25500000920E-02 0.  1.
</event>
<event>
 5   0  0.2789718E-05  0.1896733E+04  0.7818609E-02  0.8656485E-01
       -2   -1    0    0    0  501  0.00000000000E+00  0.00000000000E+00  0.17072970735E+04  0.17072970735E+04  0.25500000920E-02 0. -1.
        2   -1    0    0  501    0  0.00000000000E+00  0.00000000000E+00 -0.52679677407E+03  0.52679677407E+03  0.25500000920E-02 0.  1.
    10030    2    1    2    0    0  0.00000000000E+00  0.00000000000E+00  0.11805002994E+04  0.22340938476E+04  0.18967325491E+04 0.  0.
        5    1    3    3  502    0 -0.11161324566E+03 -0.33008470612E+03 -0.44865238659E+03  0.56808844717E+03  0.46999998093E+01 0.  1.
       -5    1    3    3    0  502  0.11161324566E+03  0.33008470612E+03  0.16291526860E+04  0.16660054004E+04  0.46999998093E+01 0. -1.
</event>
<event>
 5   0  0.2888776E-05  0.1903500E+04  0.7818609E-02  0.8653116E-01
        2   -1    0    0  501    0  0.00000000000E+00  0.00000000000E+00  0.15981524861E+04  0.15981524861E+04  0.25500000920E-02 0. -1.
       -2   -1    0    0    0  501  0.00000000000E+00  0.00000000000E+00 -0.56679678024E+03  0.56679678025E+03  0.25500000920E-02 0.  1.
    10030    2    1    2    0    0  0.00000000000E+00  0.00000000000E+00  0.10313557058E+04  0.21649492663E+04  0.19034996017E+04 0.  0.
        3    1    3    3  502    0 -0.86726410151E+03 -0.23521390990E+03  0.15898590557E+03  0.91255089368E+03  0.10100000352E+00 0.  1.
       -3    1    3    3    0  502  0.86726410151E+03  0.23521390990E+03  0.87236980024E+03  0.12523983726E+04  0.10100000352E+00 0. -1.
</event>
<event>
 5   0  0.1413011E-05  0.1897117E+04  0.7818609E-02  0.8656293E-01
        1   -1    0    0  501    0  0.00000000000E+00  0.00000000000E+00  0.11903715977E+04  0.11903715977E+04  0.50400001928E-02 0.  1.
       -1   -1    0    0    0  501  0.00000000000E+00  0.00000000000E+00 -0.75586713612E+03  0.75586713614E+03  0.50400001928E-02 0. -1.
    10030    2    1    2    0    0  0.00000000000E+00  0.00000000000E+00  0.43450446160E+03  0.19462387339E+04  0.18971165178E+04 0.  0.
        1    1    3    3  502    0  0.72323881493E+03 -0.51349673883E-01  0.84689355046E+03  0.11136889476E+04  0.50400001928E-02 0.  1.
       -1    1    3    3    0  502 -0.72323881493E+03  0.51349673883E-01 -0.41238908886E+03  0.83254978632E+03  0.50400001928E-02 0. -1.
</event>
<event>
 5   0  0.2879462E-05  0.1908938E+04  0.7818609E-02  0.8650420E-01
       -2   -1    0    0    0  501  0.00000000000E+00  0.00000000000E+00  0.45523345552E+03  0.45523345553E+03  0.25500000920E-02 0.  1.
        2   -1    0    0  501    0  0.00000000000E+00  0.00000000000E+00 -0.20011961999E+04  0.20011961999E+04  0.25500000920E-02 0. -1.
    10030    2    1    2    0    0  0.00000000000E+00  0.00000000000E+00 -0.15459627444E+04  0.24564296554E+04  0.19089384079E+04 0.  0.
        4    1    3    3  502    0 -0.34338141631E+03  0.55321598859E+03 -0.16710296606E+04  0.17934047136E+04  0.12699999809E+01 0. -1.
       -4    1    3    3    0  502  0.34338141631E+03 -0.55321598859E+03  0.12506691624E+03  0.66302494187E+03  0.12699999809E+01 0.  1.
</event>
<event>
 5   0  0.2855141E-05  0.1900438E+04  0.7818609E-02  0.8654638E-01
        2   -1    0    0  501    0  0.00000000000E+00  0.00000000000E+00  0.14059508424E+04  0.14059508424E+04  0.25500000920E-02 0. -1.
       -2   -1    0    0    0  501  0.00000000000E+00  0.00000000000E+00 -0.64221052808E+03  0.64221052809E+03  0.25500000920E-02 0.  1.
    10030    2    1    2    0    0  0.00000000000E+00  0.00000000000E+00  0.76374031430E+03  0.20481613705E+04  0.19004382999E+04 0.  0.
        1    1    3    3  502    0 -0.75893370545E+03 -0.55669388024E+03  0.52250471625E+03  0.10765220035E+04  0.50400001928E-02 0. -1.
       -1    1    3    3    0  502  0.75893370545E+03  0.55669388024E+03  0.24123559805E+03  0.97163936693E+03  0.50400001928E-02 0.  1.
</event>
<event>
 5   0  0.2888776E-05  0.1900611E+04  0.7818609E-02  0.8654552E-01
        2   -1    0    0  501    0  0.00000000000E+00  0.00000000000E+00  0.11480118611E+04  0.11480118611E+04  0.25500000920E-02 0. -1.
       -2   -1    0    0    0  501  0.00000000000E+00  0.00000000000E+00 -0.78664746823E+03  0.78664746823E+03  0.25500000920E-02 0.  1.
    10030    2    1    2    0    0  0.00000000000E+00  0.00000000000E+00  0.36136439292E+03  0.19346593294E+04  0.19006110850E+04 0.  0.
        3    1    3    3  502    0 -0.18396041511E+03 -0.44623191595E+03  0.10139532991E+04  0.11229717985E+04  0.10100000352E+00 0. -1.
       -3    1    3    3    0  502  0.18396041511E+03  0.44623191595E+03 -0.65258890620E+03  0.81168753092E+03  0.10100000352E+00 0.  1.
</event>
<event>
 5   0  0.1327254E-05  0.1902821E+04  0.7818609E-02  0.8653453E-01
        1   -1    0    0  501    0  0.00000000000E+00  0.00000000000E+00  0.13028928273E+04  0.13028928273E+04  0.50400001928E-02 0. -1.
       -1   -1    0    0    0  501  0.00000000000E+00  0.00000000000E+00 -0.69474784513E+03  0.69474784514E+03  0.50400001928E-02 0.  1.
    10030    2    1    2    0    0  0.00000000000E+00  0.00000000000E+00  0.60814498220E+03  0.19976406725E+04  0.19028210470E+04 0.  0.
        5    1    3    3  502    0  0.69259863117E+03 -0.53176002559E+03  0.70065068756E+03  0.11195512783E+04  0.46999998093E+01 0. -1.
       -5    1    3    3    0  502 -0.69259863117E+03  0.53176002559E+03 -0.92505705357E+02  0.87808939421E+03  0.46999998093E+01 0.  1.
</event>
<event>
 5   0  0.1344119E-05  0.1899982E+04  0.7818609E-02  0.8654865E-01
        1   -1    0    0  501    0  0.00000000000E+00  0.00000000000E+00  0.97056642136E+03  0.97056642138E+03  0.50400001928E-02 0. -1.
       -1   -1    0    0    0  501  0.00000000000E+00  0.00000000000E+00 -0.92985162703E+03  0.92985162705E+03  0.50400001928E-02 0.  1.
    10030    2    1    2    0    0  0.00000000000E+00  0.00000000000E+00  0.40714794332E+02  0.19004180484E+04  0.18999818589E+04 0.  0.
        2    1    3    3  502    0 -0.68927205416E+03  0.37857090155E+03  0.55346275296E+03  0.96163034014E+03  0.25500000920E-02 0. -1.
       -2    1    3    3    0  502  0.68927205416E+03 -0.37857090155E+03 -0.51274795863E+03  0.93878770829E+03  0.25500000920E-02 0.  1.
</event>
<event>
 5   0  0.1429067E-05  0.1897618E+04  0.7818609E-02  0.8656043E-01
        1   -1    0    0  501    0  0.00000000000E+00  0.00000000000E+00  0.12795867572E+04  0.12795867572E+04  0.50400001928E-02 0.  1.
       -1   -1    0    0    0  501  0.00000000000E+00  0.00000000000E+00 -0.70353850002E+03  0.70353850004E+03  0.50400001928E-02 0. -1.
    10030    2    1    2    0    0  0.00000000000E+00  0.00000000000E+00  0.57604825715E+03  0.19831252572E+04  0.18976180309E+04 0.  0.
        3    1    3    3  502    0 -0.10024056249E+03 -0.89059003691E+03 -0.37524739429E+02  0.89699882970E+03  0.10100000352E+00 0. -1.
       -3    1    3    3    0  502  0.10024056249E+03  0.89059003691E+03  0.61357299658E+03  0.10861264275E+04  0.10100000352E+00 0.  1.
</event>
<event>
 5   0  0.2813537E-05  0.1898474E+04  0.7818609E-02  0.8655616E-01
       -2   -1    0    0    0  501  0.00000000000E+00  0.00000000000E+00  0.71847479444E+03  0.71847479444E+03  0.25500000920E-02 0. -1.
        2   -1    0    0  501    0  0.00000000000E+00  0.00000000000E+00 -0.12541168108E+04  0.12541168108E+04  0.25500000920E-02 0.  1.
    10030    2    1    2    0    0  0.00000000000E+00  0.00000000000E+00 -0.53564201634E+03  0.19725916052E+04  0.18984744590E+04 0.  0.
        2    1    3    3  502    0 -0.33145597671E+03  0.32458239767E+03  0.59266159076E+03  0.75263839826E+03  0.25500000920E-02 0. -1.
       -2    1    3    3    0  502  0.33145597671E+03 -0.32458239767E+03 -0.11283036071E+04  0.12199532070E+04  0.25500000920E-02 0.  1.
</event>
<event>
 5   0  0.2879462E-05  0.1898711E+04  0.7818609E-02  0.8655498E-01
       -2   -1    0    0    0  501  0.00000000000E+00  0.00000000000E+00  0.72067041713E+03  0.72067041714E+03  0.25500000920E-02 0. -1.
        2   -1    0    0  501    0  0.00000000000E+00  0.00000000000E+00 -0.12506071970E+04  0.12506071970E+04  0.25500000920E-02 0.  1.
    10030    2    1    2    0    0  0.00000000000E+00  0.00000000000E+00 -0.52993677983E+03  0.19712776141E+04  0.18987107313E+04 0.  0.
        4    1    3    3  502    0 -0.55144592594E+03  0.71676981312E+03  0.34899791197E+02  0.90502551487E+03  0.12699999809E+01 0. -1.
       -4    1    3    3    0  502  0.55144592594E+03 -0.71676981312E+03 -0.56483657102E+03  0.10662520992E+04  0.12699999809E+01 0.  1.
</event>
<event>
 5   0  0.1344119E-05  0.1902103E+04  0.7818609E-02  0.8653811E-01
       -1   -1    0    0    0  501  0.00000000000E+00  0.00000000000E+00  0.44089573088E+03  0.44089573091E+03  0.50400001928E-02 0.  1.
        1   -1    0    0  501    0  0.00000000000E+00  0.00000000000E+00 -0.20515021512E+04  0.20515021512E+04  0.50400001928E-02 0. -1.
    10030    2    1    2    0    0  0.00000000000E+00  0.00000000000E+00 -0.16106064203E+04  0.24923978821E+04  0.19021025634E+04 0.  0.
        2    1    3    3  502    0  0.30556143365E+03  0.21670984173E+02 -0.19850888743E+04  0.20085853878E+04  0.25500000920E-02 0. -1.
       -2    1    3    3    0  502 -0.30556143365E+03 -0.21670984173E+02  0.37448245398E+03  0.48381249430E+03  0.25500000920E-02 0.  1.
</event>
<event>
 5   0  0.1327254E-05  0.1899207E+04  0.7818609E-02  0.8655251E-01
       -1   -1    0    0    0  501  0.00000000000E+00  0.00000000000E+00  0.98672935011E+03  0.98672935012E+03  0.50400001928E-02 0. -1.
        1   -1    0    0  501    0  0.00000000000E+00  0.00000000000E+00 -0.91387423121E+03  0.91387423122E+03  0.50400001928E-02 0.  1.
    10030    2    1    2    0    0  0.00000000000E+00  0.00000000000E+00  0.72855118900E+02  0.19006035813E+04  0.18992067041E+04 0.  0.
        5    1    3    3  502    0 -0.75036792299E+03  0.21531256355E+03 -0.50462980360E+03  0.92956164322E+03  0.46999998093E+01 0. -1.
       -5    1    3    3    0  502  0.75036792299E+03 -0.21531256355E+03  0.57748492250E+03  0.97104193812E+03  0.46999998093E+01 0.  1.
</event>
<event>
 5   0  0.1344119E-05  0.1897597E+04  0.7818609E-02  0.8656053E-01
       -1   -1    0    0    0  501  0.00000000000E+00  0.00000000000E+00  0.74962553891E+03  0.74962553892E+03  0.50400001928E-02 0. -1.
        1   -1    0    0  501    0  0.00000000000E+00  0.00000000000E+00 -0.12008911163E+04  0.12008911163E+04  0.50400001928E-02 0.  1.
    10030    2    1    2    0    0  0.00000000000E+00  0.00000000000E+00 -0.45126557741E+03  0.19505166553E+04  0.18975970597E+04 0.  0.
        2    1    3    3  502    0 -0.93573472793E+03 -0.15621237673E+03 -0.24076972409E+03  0.97876036277E+03  0.25500000920E-02 0. -1.
       -2    1    3    3    0  502  0.93573472793E+03  0.15621237673E+03 -0.21049585332E+03  0.97175629248E+03  0.25500000920E-02 0.  1.
</event>
<event>
 5   0  0.2813537E-05  0.1900741E+04  0.7818609E-02  0.8654488E-01
        2   -1    0    0  501    0  0.00000000000E+00  0.00000000000E+00  0.16649918454E+04  0.16649918454E+04  0.25500000920E-02 0.  1.
       -2   -1    0    0    0  501  0.00000000000E+00  0.00000000000E+00 -0.54246742035E+03  0.54246742035E+03  0.25500000920E-02 0. -1.
    10030    2    1    2    0    0  0.00000000000E+00  0.00000000000E+00  0.11225244250E+04  0.22074592657E+04  0.19007407306E+04 0.  0.
        2    1    3    3  502    0  0.39464132354E+03  0.71529004660E+03 -0.27157914165E+01  0.81693879853E+03  0.25500000920E-02 0. -1.
       -2    1    3    3    0  502 -0.39464132354E+03 -0.71529004660E+03  0.11252402164E+04  0.13905204672E+04  0.25500000920E-02 0.  1.
</event>
<event>
 5   0  0.2888776E-05  0.1910920E+04  0.7818609E-02  0.8649440E-01
       -2   -1    0    0    0  501  0.00000000000E+00  0.00000000000E+00  0.84827674496E+03  0.84827674497E+03  0.25500000920E-02 0. -1.
        2   -1    0    0  501    0  0.00000000000E+00  0.00000000000E+00 -0.10761868269E+04  0.10761868269E+04  0.25500000920E-02 0.  1.
    10030    2    1    2    0    0  0.00000000000E+00  0.00000000000E+00 -0.22791008190E+03  0.19244635718E+04  0.19109204677E+04 0.  0.
        3    1    3    3  502    0  0.60980983595E+03  0.54510352545E+03 -0.61131580505E+03  0.10211331515E+04  0.10100000352E+00 0.  1.
       -3    1    3    3    0  502 -0.60980983595E+03 -0.54510352545E+03  0.38340572315E+03  0.90333042029E+03  0.10100000352E+00 0. -1.
</event>
<event>
 5   0  0.2813537E-05  0.1895256E+04  0.7818609E-02  0.8657221E-01
       -2   -1    0    0    0  501  0.00000000000E+00  0.00000000000E+00  0.48009199378E+03  0.48009199379E+03  0.25500000920E-02 0. -1.
        2   -1    0    0  501    0  0.00000000000E+00  0.00000000000E+00 -0.18704729007E+04  0.18704729007E+04  0.25500000920E-02 0.  1.
    10030    2    1    2    0    0  0.00000000000E+00  0.00000000000E+00 -0.13903809069E+04  0.23505648944E+04  0.18952562510E+04 0.  0.
        2    1    3    3  502    0 -0.33432312756E+03 -0.27465369027E+03  0.35043395933E+03  0.55678592211E+03  0.25500000920E-02 0. -1.
       -2    1    3    3    0  502  0.33432312756E+03  0.27465369027E+03 -0.17408148662E+04  0.17937789723E+04  0.25500000920E-02 0.  1.
</event>
<event>
 5   0  0.1429067E-05  0.1904878E+04  0.7818609E-02  0.8652432E-01
        1   -1    0    0  501    0  0.00000000000E+00  0.00000000000E+00  0.12100522669E+04  0.12100522669E+04  0.50400001928E-02 0.  1.
       -1   -1    0    0    0  501  0.00000000000E+00  0.00000000000E+00 -0.74967021606E+03  0.74967021608E+03  0.50400001928E-02 0. -1.
    10030    2    1    2    0    0  0.00000000000E+00  0.00000000000E+00  0.46038205080E+03  0.19597224830E+04  0.19048781004E+04 0.  0.
        3    1    3    3  502    0  0.45253962986E+03  0.49859484570E+03  0.92319588209E+03  0.11426633729E+04  0.10100000352E+00 0.  1.
       -3    1    3    3    0  502 -0.45253962986E+03 -0.49859484570E+03 -0.46281383129E+03  0.81705911010E+03  0.10100000352E+00 0. -1.
</event>
<event>
 5   0  0.1327254E-05  0.1894397E+04  0.7818609E-02  0.8657651E-01
        1   -1    0    0  501    0  0.00000000000E+00  0.00000000000E+00  0.12202258840E+04  0.12202258840E+04  0.50400001928E-02 0.  1.
       -1   -1    0    0    0  501  0.00000000000E+00  0.00000000000E+00 -0.73526106264E+03  0.73526106266E+03  0.50400001928E-02 0. -1.
    10030    2    1    2    0    0  0.00000000000E+00  0.00000000000E+00  0.48496482136E+03  0.19554869467E+04  0.18943965584E+04 0.  0.
        5    1    3    3  502    0 -0.22058750110E+03  0.26325980295E+03 -0.66870543422E+03  0.75176699664E+03  0.46999998093E+01 0. -1.
       -5    1    3    3    0  502  0.22058750110E+03 -0.26325980295E+03  0.11536702556E+04  0.12037199500E+04  0.46999998093E+01 0.  1.
</event>
<event>
 5   0  0.2789718E-05  0.1890254E+04  0.7818609E-02  0.8659723E-01
       -2   -1    0    0    0  501  0.00000000000E+00  0.00000000000E+00  0.59338169455E+03  0.59338169455E+03  0.25500000920E-02 0.  1.
        2   -1    0    0  501    0  0.00000000000E+00  0.00000000000E+00 -0.15053801281E+04  0.15053801281E+04  0.25500000920E-02 0. -1.
    10030    2    1    2    0    0  0.00000000000E+00  0.00000000000E+00 -0.91199843352E+03  0.20987618226E+04  0.18902539632E+04 0.  0.
        5    1    3    3  502    0 -0.71725150710E+03 -0.50493401847E+03 -0.84671810928E+03  0.12191643589E+04  0.46999998093E+01 0. -1.
       -5    1    3    3    0  502  0.71725150710E+03  0.50493401847E+03 -0.65280324237E+02  0.87959746371E+03  0.46999998093E+01 0.  1.
</event>
<event>
 5   0  0.1327254E-05  0.1900913E+04  0.7818609E-02  0.8654402E-01
       -1   -1    0    0    0  501  0.00000000000E+00  0.00000000000E+00  0.87255642946E+03  0.87255642947E+03  0.50400001928E-02 0. -1.
        1   -1    0    0  501    0  0.00000000000E+00  0.00000000000E+00 -0.10353117506E+04  0.10353117506E+04  0.50400001928E-02 0.  1.
    10030    2    1    2    0    0  0.00000000000E+00  0.00000000000E+00 -0.16275532118E+03  0.19078681801E+04  0.19009133852E+04 0.  0.
        5    1    3    3  502    0  0.43609809465E+03 -0.56734077799E+03 -0.70919702170E+03  0.10074917430E+04  0.46999998093E+01 0.  1.
       -5    1    3    3    0  502 -0.43609809465E+03  0.56734077799E+03  0.54644170052E+03  0.90037643716E+03  0.46999998093E+01 0. -1.
</event>
<event>
 5   0  0.1344119E-05  0.1899570E+04  0.7818609E-02  0.8655070E-01
        1   -1    0    0  501    0  0.00000000000E+00  0.00000000000E+00  0.61765152885E+03  0.61765152887E+03  0.50400001928E-02 0.  1.
       -1   -1    0    0    0  501  0.00000000000E+00  0.00000000000E+00 -0.14605187865E+04  0.14605187865E+04  0.50400001928E-02 0. -1.
    10030    2    1    2    0    0  0.00000000000E+00  0.00000000000E+00 -0.84286725767E+03  0.20781703154E+04  0.18995701213E+04 0.  0.
        2    1    3    3  502    0  0.16828976131E+03  0.46507350689E+03  0.46565301480E+03  0.67929930132E+03  0.25500000920E-02 0.  1.
       -2    1    3    3    0  502 -0.16828976131E+03 -0.46507350689E+03 -0.13085202725E+04  0.13988710141E+04  0.25500000920E-02 0. -1.
</event>
<event>
 5   0  0.2789718E-05  0.1900279E+04  0.7818609E-02  0.8654718E-01
        2   -1    0    0  501    0  0.00000000000E+00  0.00000000000E+00  0.10981921922E+04  0.10981921922E+04  0.25500000920E-02 0.  1.
       -2   -1    0    0    0  501  0.00000000000E+00  0.00000000000E+00 -0.82204610346E+03  0.82204610346E+03  0.25500000920E-02 0. -1.
    10030    2    1    2    0    0  0.00000000000E+00  0.00000000000E+00  0.27614608877E+03  0.19202382957E+04  0.19002785190E+04 0.  0.
        5    1    3    3  502    0 -0.12920774338E+03  0.43760797577E+03  0.98022164552E+03  0.10812270556E+04  0.46999998093E+01 0.  1.
       -5    1    3    3    0  502  0.12920774338E+03 -0.43760797577E+03 -0.70407555675E+03  0.83901124010E+03  0.46999998093E+01 0. -1.
</event>
<event>
 5   0  0.1413011E-05  0.1902170E+04  0.7818609E-02  0.8653777E-01
       -1   -1    0    0    0  501  0.00000000000E+00  0.00000000000E+00  0.38906780040E+03  0.38906780043E+03  0.50400001928E-02 0. -1.
        1   -1    0    0  501    0  0.00000000000E+00  0.00000000000E+00 -0.23249482461E+04  0.23249482461E+04  0.50400001928E-02 0.  1.
    10030    2    1    2    0    0  0.00000000000E+00  0.00000000000E+00 -0.19358804457E+04  0.27140160465E+04  0.19021698139E+04 0.  0.
        1    1    3    3  502    0  0.54031844384E+03  0.76575874228E+03 -0.73685133656E+03  0.11921746367E+04  0.50400001928E-02 0. -1.
       -1    1    3    3    0  502 -0.54031844384E+03 -0.76575874228E+03 -0.11990291091E+04  0.15218414098E+04  0.50400001928E-02 0.  1.
</event>
<event>
 5   0  0.2888776E-05  0.1902406E+04  0.7818609E-02  0.8653660E-01
       -2   -1    0    0    0  501  0.00000000000E+00  0.00000000000E+00  0.15275071655E+04  0.15275071655E+04  0.25500000920E-02 0. -1.
        2   -1    0    0  501    0  0.00000000000E+00  0.00000000000E+00 -0.59232928600E+03  0.59232928601E+03  0.25500000920E-02 0.  1.
    10030    2    1    2    0    0  0.00000000000E+00  0.00000000000E+00  0.93517787950E+03  0.21198364515E+04  0.19024060857E+04 0.  0.
        3    1    3    3  502    0  0.41447637754E+03 -0.52064984368E+03 -0.28973668081E+03  0.72581973084E+03  0.10100000352E+00 0.  1.
       -3    1    3    3    0  502 -0.41447637754E+03  0.52064984368E+03  0.12249145603E+04  0.13940167207E+04  0.10100000352E+00 0. -1.
</event>
<event>
 5   0  0.2855141E-05  0.1862698E+04  0.7818609E-02  0.8673650E-01
       -2   -1    0    0    0  501  0.00000000000E+00  0.00000000000E+00  0.38450941069E+03  0.38450941070E+03  0.25500000920E-02 0.  1.
        2   -1    0    0  501    0  0.00000000000E+00  0.00000000000E+00 -0.22558911984E+04  0.22558911984E+04  0.25500000920E-02 0. -1.
    10030    2    1    2    0    0  0.00000000000E+00  0.00000000000E+00 -0.18713817877E+04  0.26404006091E+04  0.18626984676E+04 0.  0.
        1    1    3    3  502    0 -0.13822714603E+03 -0.77712951159E+03 -0.16364279717E+04  0.18168471394E+04  0.50400001928E-02 0. -1.
       -1    1    3    3    0  502  0.13822714603E+03  0.77712951159E+03 -0.23495381608E+03  0.82355346967E+03  0.50400001928E-02 0.  1.
</event>
<event>
 5   0  0.2888776E-05  0.1901080E+04  0.7818609E-02  0.8654319E-01
       -2   -1    0    0    0  501  0.00000000000E+00  0.00000000000E+00  0.54342429740E+03  0.54342429740E+03  0.25500000920E-02 0. -1.
        2   -1    0    0  501    0  0.00000000000E+00  0.00000000000E+00 -0.16626541239E+04  0.16626541239E+04  0.25500000920E-02 0.  1.
    10030    2    1    2    0    0  0.00000000000E+00  0.00000000000E+00 -0.11192298265E+04  0.22060784213E+04  0.19010803761E+04 0.  0.
        3    1    3    3  502    0  0.58387953929E+03 -0.34913812944E+03 -0.13299839810E+04  0.14938775552E+04  0.10100000352E+00 0.  1.
       -3    1    3    3    0  502 -0.58387953929E+03  0.34913812944E+03  0.21075415456E+03  0.71220086611E+03  0.10100000352E+00 0. -1.
</event>
<event>
 5   0  0.1344119E-05  0.1900319E+04  0.7818609E-02  0.8654697E-01
       -1   -1    0    0    0  501  0.00000000000E+00  0.00000000000E+00  0.67012865058E+03  0.67012865060E+03  0.50400001928E-02 0. -1.
        1   -1    0    0  501    0  0.00000000000E+00  0.00000000000E+00 -0.13472089248E+04  0.13472089248E+04  0.50400001928E-02 0.  1.
    10030    2    1    2    0    0  0.00000000000E+00  0.00000000000E+00 -0.67708027421E+03  0.20173375754E+04  0.19003192351E+04 0.  0.
        2    1    3    3  502    0 -0.86872500055E+03 -0.51585376899E+02 -0.74341656546E+03  0.11445577170E+04  0.25500000920E-02 0. -1.
       -2    1    3    3    0  502  0.86872500055E+03  0.51585376899E+02  0.66336291254E+02  0.87277985841E+03  0.25500000920E-02 0.  1.
</event>
<event>
 5   0  0.2879462E-05  0.1896166E+04  0.7818609E-02  0.8656767E-01
       -2   -1    0    0    0  501  0.00000000000E+00  0.00000000000E+00  0.45087881997E+03  0.45087881998E+03  0.25500000920E-02 0. -1.
        2   -1    0    0  501    0  0.00000000000E+00  0.00000000000E+00 -0.19935759147E+04  0.19935759147E+04  0.25500000920E-02 0.  1.
    10030    2    1    2    0    0  0.00000000000E+00  0.00000000000E+00 -0.15426970948E+04  0.24444547347E+04  0.18961657691E+04 0.  0.
        4    1    3    3  502    0  0.33523700795E+03 -0.44030565662E+03 -0.17637535548E+04  0.18485348624E+04  0.12699999809E+01 0.  1.
       -4    1    3    3    0  502 -0.33523700795E+03  0.44030565662E+03  0.22105646002E+03  0.59591987227E+03  0.12699999809E+01 0. -1.
</event>
<event>
 5   0  0.1327254E-05  0.1907363E+04  0.7818609E-02  0.8651200E-01
       -1   -1    0    0    0  501  0.00000000000E+00  0.00000000000E+00  0.68613976427E+03  0.68613976429E+03  0.50400001928E-02 0. -1.
        1   -1    0    0  501    0  0.00000000000E+00  0.00000000000E+00 -0.13255436662E+04  0.13255436662E+04  0.50400001928E-02 0.  1.
    10030    2    1    2    0    0  0.00000000000E+00  0.00000000000E+00 -0.63940390192E+03  0.20116834305E+04  0.19073628063E+04 0.  0.
        5    1    3    3  502    0  0.90418167810E+03 -0.30020718364E+03 -0.27474095886E+03  0.99155108017E+03  0.46999998093E+01 0. -1.
       -5    1    3    3    0  502 -0.90418167810E+03  0.30020718364E+03 -0.36466294306E+03  0.10201323503E+04  0.46999998093E+01 0.  1.
</event>
<event>
 5   0  0.1344119E-05  0.1905740E+04  0.7818609E-02  0.8652004E-01
        1   -1    0    0  501    0  0.00000000000E+00  0.00000000000E+00  0.92303438334E+03  0.92303438335E+03  0.50400001928E-02 0. -1.
       -1   -1    0    0    0  501  0.00000000000E+00  0.00000000000E+00 -0.98367048355E+03  0.98367048356E+03  0.50400001928E-02 0.  1.
    10030    2    1    2    0    0  0.00000000000E+00  0.00000000000E+00 -0.60636100209E+02  0.19067048669E+04  0.19057404631E+04 0.  0.
        2    1    3    3  502    0  0.53412944286E+03  0.34199022207E+03 -0.74181089281E+03  0.97597898256E+03  0.25500000920E-02 0.  1.
       -2    1    3    3    0  502 -0.53412944286E+03 -0.34199022207E+03  0.68117479260E+03  0.93072588435E+03  0.25500000920E-02 0. -1.
</event>
<event>
 5   0  0.1344119E-05  0.1902468E+04  0.7818609E-02  0.8653629E-01
        1   -1    0    0  501    0  0.00000000000E+00  0.00000000000E+00  0.17938200642E+04  0.17938200642E+04  0.50400001928E-02 0.  1.
       -1   -1    0    0    0  501  0.00000000000E+00  0.00000000000E+00 -0.50442431860E+03  0.50442431863E+03  0.50400001928E-02 0. -1.
    10030    2    1    2    0    0  0.00000000000E+00  0.00000000000E+00  0.12893957456E+04  0.22982443828E+04  0.19024683583E+04 0.  0.
        2    1    3    3  502    0  0.94482538378E+02  0.92475946546E+03  0.40086833414E+03  0.10123252641E+04  0.25500000920E-02 0. -1.
       -2    1    3    3    0  502 -0.94482538378E+02 -0.92475946546E+03  0.88852741145E+03  0.12859191187E+04  0.25500000920E-02 0.  1.
</event>
<event>
 5   0  0.1429067E-05  0.1899361E+04  0.7818609E-02  0.8655174E-01
        1   -1    0    0  501    0  0.00000000000E+00  0.00000000000E+00  0.99041867574E+03  0.99041867575E+03  0.50400001928E-02 0.  1.
       -1   -1    0    0    0  501  0.00000000000E+00  0.00000000000E+00 -0.91061845552E+03  0.91061845553E+03  0.50400001928E-02 0. -1.
    10030    2    1    2    0    0  0.00000000000E+00  0.00000000000E+00  0.79800220222E+02  0.19010371313E+04  0.18993614978E+04 0.  0.
        3    1    3    3  502    0 -0.15786586732E+03  0.92975758674E+03 -0.72103539483E+02  0.94581696579E+03  0.10100000352E+00 0. -1.
       -3    1    3    3    0  502  0.15786586732E+03 -0.92975758674E+03  0.15190375971E+03  0.95522016550E+03  0.10100000352E+00 0.  1.
</event>
<event>
 5   0  0.1327254E-05  0.1897801E+04  0.7818609E-02  0.8655952E-01
        1   -1    0    0  501    0  0.00000000000E+00  0.00000000000E+00  0.11400648985E+04  0.11400648985E+04  0.50400001928E-02 0. -1.
       -1   -1    0    0    0  501  0.00000000000E+00  0.00000000000E+00 -0.78979054748E+03  0.78979054749E+03  0.50400001928E-02 0.  1.
    10030    2    1    2    0    0  0.00000000000E+00  0.00000000000E+00  0.35027435105E+03  0.19298554460E+04  0.18978013388E+04 0.  0.
        5    1    3    3  502    0 -0.64717525402E+03 -0.17468413062E+03  0.85807564589E+03  0.10888830327E+04  0.46999998093E+01 0. -1.
       -5    1    3    3    0  502  0.64717525402E+03  0.17468413062E+03 -0.50780129484E+03  0.84097241330E+03  0.46999998093E+01 0.  1.
</event>
<event>
 5   0  0.2789718E-05  0.1896979E+04  0.7818609E-02  0.8656362E-01
       -2   -1    0    0    0  501  0.00000000000E+00  0.00000000000E+00  0.84970399285E+03  0.84970399285E+03  0.25500000920E-02 0.  1.
        2   -1    0    0  501    0  0.00000000000E+00  0.00000000000E+00 -0.10587591898E+04  0.10587591898E+04  0.25500000920E-02 0. -1.
    10030    2    1    2    0    0  0.00000000000E+00  0.00000000000E+00 -0.20905519695E+03  0.19084631827E+04  0.18969785566E+04 0.  0.
        5    1    3    3  502    0 -0.60440483461E+03 -0.58182380001E+03 -0.54968318642E+03  0.10029944336E+04  0.46999998093E+01 0. -1.
       -5    1    3    3    0  502  0.60440483461E+03  0.58182380001E+03  0.34062798947E+03  0.90546874908E+03  0.46999998093E+01 0.  1.
</event>
<event>
 5   0  0.1429067E-05  0.1898611E+04  0.7818609E-02  0.8655548E-01
        1   -1    0    0  501    0  0.00000000000E+00  0.00000000000E+00  0.16884249483E+04  0.16884249483E+04  0.50400001928E-02 0. -1.
       -1   -1    0    0    0  501  0.00000000000E+00  0.00000000000E+00 -0.53374052504E+03  0.53374052506E+03  0.50400001928E-02 0.  1.
    10030    2    1    2    0    0  0.00000000000E+00  0.00000000000E+00  0.11546844233E+04  0.22221654734E+04  0.18986108800E+04 0.  0.
        3    1    3    3  502    0  0.49305201330E+02  0.66172548631E+03  0.13719069106E+04  0.15239554468E+04  0.10100000352E+00 0. -1.
       -3    1    3    3    0  502 -0.49305201330E+02 -0.66172548631E+03 -0.21722248732E+03  0.69821002664E+03  0.10100000352E+00 0.  1.
</event>
<event>
 5   0  0.1327254E-05  0.1902550E+04  0.7818609E-02  0.8653588E-01
       -1   -1    0    0    0  501  0.00000000000E+00  0.00000000000E+00  0.16114972335E+04  0.16114972335E+04  0.50400001928E-02 0. -1.
        1   -1    0    0  501    0  0.00000000000E+00  0.00000000000E+00 -0.56154235557E+03  0.56154235559E+03  0.50400001928E-02 0.  1.
    10030    2    1    2    0    0  0.00000000000E+00  0.00000000000E+00  0.10499548779E+04  0.21730395891E+04  0.19025498180E+04 0.  0.
        5    1    3    3  502    0 -0.65710962638E+03 -0.22899143913E+03  0.12657813401E+04  0.14444565176E+04  0.46999998093E+01 0. -1.
       -5    1    3    3    0  502  0.65710962638E+03  0.22899143913E+03 -0.21582646220E+03  0.72858307149E+03  0.46999998093E+01 0.  1.
</event>
<event>
 5   0  0.1471485E-05  0.1901477E+04  0.7818609E-02  0.8654122E-01
       -1   -1    0    0    0  501  0.00000000000E+00  0.00000000000E+00  0.10559591009E+04  0.10559591009E+04  0.50400001928E-02 0. -1.
        1   -1    0    0  501    0  0.00000000000E+00  0.00000000000E+00 -0.85600236120E+03  0.85600236121E+03  0.50400001928E-02 0.  1.
    10030    2    1    2    0    0  0.00000000000E+00  0.00000000000E+00  0.19995673972E+03  0.19119614621E+04  0.19014767774E+04 0.  0.
        4    1    3    3  502    0 -0.87274902280E+03 -0.37582083059E+03  0.13129036112E+03  0.95925540151E+03  0.12699999809E+01 0. -1.
       -4    1    3    3    0  502  0.87274902280E+03  0.37582083059E+03  0.68666378602E+02  0.95270606063E+03  0.12699999809E+01 0.  1.
</event>
<event>
 5   0  0.1344119E-05  0.1897836E+04  0.7818609E-02  0.8655934E-01
       -1   -1    0    0    0  501  0.00000000000E+00  0.00000000000E+00  0.84293262933E+03  0.84293262935E+03  0.50400001928E-02 0.  1.
        1   -1    0    0  501    0  0.00000000000E+00  0.00000000000E+00 -0.10682290933E+04  0.10682290933E+04  0.50400001928E-02 0. -1.
    10030    2    1    2    0    0  0.00000000000E+00  0.00000000000E+00 -0.22529646400E+03  0.19111617227E+04  0.18978357762E+04 0.  0.
        2    1    3    3  502    0 -0.43468496907E+02  0.52275900015E+03  0.68364975598E+03  0.86170962123E+03  0.25500000920E-02 0.  1.
       -2    1    3    3    0  502  0.43468496907E+02 -0.52275900015E+03 -0.90894621998E+03  0.10494521015E+04  0.25500000920E-02 0. -1.
</event>
<event>
 5   0  0.2813537E-05  0.1896720E+04  0.7818609E-02  0.8656491E-01
        2   -1    0    0  501    0  0.00000000000E+00  0.00000000000E+00  0.13743908352E+04  0.13743908352E+04  0.25500000920E-02 0. -1.
       -2   -1    0    0    0  501  0.00000000000E+00  0.00000000000E+00 -0.65438917291E+03  0.65438917292E+03  0.25500000920E-02 0.  1.
    10030    2    1    2    0    0  0.00000000000E+00  0.00000000000E+00  0.72000166227E+03  0.20287800081E+04  0.18967197810E+04 0.  0.
        2    1    3    3  502    0 -0.33826305389E+03 -0.88361065155E+03  0.42929411850E+03  0.10389817695E+04  0.25500000920E-02 0.  1.
       -2    1    3    3    0  502  0.33826305389E+03  0.88361065155E+03  0.29070754378E+03  0.98979823862E+03  0.25500000920E-02 0. -1.
</event>
<event>
 5   0  0.2888776E-05  0.1898253E+04  0.7818609E-02  0.8655726E-01
       -2   -1    0    0    0  501  0.00000000000E+00  0.00000000000E+00  0.73406410594E+03  0.73406410595E+03  0.25500000920E-02 0.  1.
        2   -1    0    0  501    0  0.00000000000E+00  0.00000000000E+00 -0.12271967811E+04  0.12271967811E+04  0.25500000920E-02 0. -1.
    10030    2    1    2    0    0  0.00000000000E+00  0.00000000000E+00 -0.49313267520E+03  0.19612608871E+04  0.18982529947E+04 0.  0.
        3    1    3    3  502    0 -0.81382748641E+03  0.58632128398E+02 -0.74751899322E+03  0.11065882520E+04  0.10100000352E+00 0. -1.
       -3    1    3    3    0  502  0.81382748641E+03 -0.58632128398E+02  0.25438631801E+03  0.85467263506E+03  0.10100000352E+00 0.  1.
</event>
<event>
 5   0  0.2879462E-05  0.1897739E+04  0.7818609E-02  0.8655983E-01
        2   -1    0    0  501    0  0.00000000000E+00  0.00000000000E+00  0.92496848217E+03  0.92496848217E+03  0.25500000920E-02 0. -1.
       -2   -1    0    0    0  501  0.00000000000E+00  0.00000000000E+00 -0.97338778807E+03  0.97338778808E+03  0.25500000920E-02 0.  1.
    10030    2    1    2    0    0  0.00000000000E+00  0.00000000000E+00 -0.48419305903E+02  0.18983562702E+04  0.18977386805E+04 0.  0.
        4    1    3    3  502    0 -0.90153726175E+03 -0.13922429797E+03 -0.28544320383E+03  0.95584113480E+03  0.12699999809E+01 0.  1.
       -4    1    3    3    0  502  0.90153726175E+03  0.13922429797E+03  0.23702389793E+03  0.94251513545E+03  0.12699999809E+01 0. -1.
</event>
<event>
 5   0  0.1327254E-05  0.1905829E+04  0.7818609E-02  0.8651960E-01
       -1   -1    0    0    0  501  0.00000000000E+00  0.00000000000E+00  0.72237205986E+03  0.72237205987E+03  0.50400001928E-02 0.  1.
        1   -1    0    0  501    0  0.00000000000E+00  0.00000000000E+00 -0.12570336546E+04  0.12570336546E+04  0.50400001928E-02 0. -1.
    10030    2    1    2    0    0  0.00000000000E+00  0.00000000000E+00 -0.53466159475E+03  0.19794057145E+04  0.19058289434E+04 0.  0.
        5    1    3    3  502    0 -0.14845094897E+03  0.26601151362E+03 -0.12050858311E+04  0.12430019147E+04  0.46999998093E+01 0. -1.
       -5    1    3    3    0  502  0.14845094897E+03 -0.26601151362E+03  0.67042423636E+03  0.73640379978E+03  0.46999998093E+01 0.  1.
</event>
<event>
 5   0  0.2855141E-05  0.1895378E+04  0.7818609E-02  0.8657161E-01
       -2   -1    0    0    0  501  0.00000000000E+00  0.00000000000E+00  0.10366401553E+04  0.10366401553E+04  0.25500000920E-02 0.  1.
        2   -1    0    0  501    0  0.00000000000E+00  0.00000000000E+00 -0.86637011473E+03  0.86637011473E+03  0.25500000920E-02 0. -1.
    10030    2    1    2    0    0  0.00000000000E+00  0.00000000000E+00  0.17027004056E+03  0.19030102700E+04  0.18953775880E+04 0.  0.
        1    1    3    3  502    0  0.46957463785E+03 -0.55222945226E+03 -0.52777913182E+03  0.89666522207E+03  0.50400001928E-02 0. -1.
       -1    1    3    3    0  502 -0.46957463785E+03  0.55222945226E+03  0.69804917238E+03  0.10063450480E+04  0.50400001928E-02 0.  1.
</event>
<event>
 5   0  0.2789718E-05  0.1903387E+04  0.7818609E-02  0.8653172E-01
        2   -1    0    0  501    0  0.00000000000E+00  0.00000000000E+00  0.21900061148E+04  0.21900061148E+04  0.25500000920E-02 0. -1.
       -2   -1    0    0    0  501  0.00000000000E+00  0.00000000000E+00 -0.41356978143E+03  0.41356978143E+03  0.25500000920E-02 0.  1.
    10030    2    1    2    0    0  0.00000000000E+00  0.00000000000E+00  0.17764363334E+04  0.26035758963E+04  0.19033868238E+04 0.  0.
        5    1    3    3  502    0  0.38688423990E+02 -0.49386820339E+02 -0.41072230060E+03  0.41551263565E+03  0.46999998093E+01 0.  1.
       -5    1    3    3    0  502 -0.38688423990E+02  0.49386820339E+02  0.21871586340E+04  0.21880632606E+04  0.46999998093E+01 0. -1.
</event>
<event>
 5   0  0.1471485E-05  0.1928491E+04  0.7818609E-02  0.8640803E-01
       -1   -1    0    0    0  501  0.00000000000E+00  0.00000000000E+00  0.13123449407E+04  0.13123449407E+04  0.50400001928E-02 0. -1.
        1   -1    0    0  501    0  0.00000000000E+00  0.00000000000E+00 -0.70847941415E+03  0.70847941417E+03  0.50400001928E-02 0.  1.
    10030    2    1    2    0    0  0.00000000000E+00  0.00000000000E+00  0.60386552657E+03  0.20208243549E+04  0.19284909902E+04 0.  0.
        4    1    3    3  502    0 -0.18435010333E+03  0.83397066840E+03 -0.16701569242E+03  0.87028035182E+03  0.12699999809E+01 0.  1.
       -4    1    3    3    0  502  0.18435010333E+03 -0.83397066840E+03  0.77088121900E+03  0.11505440031E+04  0.12699999809E+01 0. -1.
</event>
<event>
 5   0  0.1344119E-05  0.1904383E+04  0.7818609E-02  0.8652678E-01
        1   -1    0    0  501    0  0.00000000000E+00  0.00000000000E+00  0.16458741127E+04  0.16458741127E+04  0.50400001928E-02 0.  1.
       -1   -1    0    0    0  501  0.00000000000E+00  0.00000000000E+00 -0.55087365294E+03  0.55087365297E+03  0.50400001928E-02 0. -1.
    10030    2    1    2    0    0  0.00000000000E+00  0.00000000000E+00  0.10950004598E+04  0.21967477657E+04  0.19043830337E+04 0.  0.
        2    1    3    3  502    0  0.82808297913E+03  0.20470221340E+02  0.58012845832E+01  0.82835626707E+03  0.25500000920E-02 0. -1.
       -2    1    3    3    0  502 -0.82808297913E+03 -0.20470221340E+02  0.10891991752E+04  0.13683914986E+04  0.25500000920E-02 0.  1.
</event>
<event>
 5   0  0.1344119E-05  0.1892666E+04  0.7818609E-02  0.8658515E-01
       -1   -1    0    0    0  501  0.00000000000E+00  0.00000000000E+00  0.51553896965E+03  0.51553896968E+03  0.50400001928E-02 0. -1.
        1   -1    0    0  501    0  0.00000000000E+00  0.00000000000E+00 -0.17371073157E+04  0.17371073157E+04  0.50400001928E-02 0.  1.
    10030    2    1    2    0    0  0.00000000000E+00  0.00000000000E+00 -0.12215683460E+04  0.22526462853E+04  0.18926663898E+04 0.  0.
        2    1    3    3  502    0 -0.33110823107E+03 -0.14904227376E+03 -0.16508968783E+04  0.16903569927E+04  0.25500000920E-02 0.  1.
       -2    1    3    3    0  502  0.33110823107E+03  0.14904227376E+03  0.42932853224E+03  0.56228929267E+03  0.25500000920E-02 0. -1.
</event>
<event>
 5   0  0.1327254E-05  0.1898552E+04  0.7818609E-02  0.8655577E-01
       -1   -1    0    0    0  501  0.00000000000E+00  0.00000000000E+00  0.69922801296E+03  0.69922801298E+03  0.50400001928E-02 0. -1.
        1   -1    0    0  501    0  0.00000000000E+00  0.00000000000E+00 -0.12887425317E+04  0.12887425317E+04  0.50400001928E-02 0.  1.
    10030    2    1    2    0    0  0.00000000000E+00  0.00000000000E+00 -0.58951451876E+03  0.19879705447E+04  0.18985519531E+04 0.  0.
        5    1    3    3  502    0  0.64242449567E+03 -0.29460205011E+03  0.36881165951E+03  0.79720996654E+03  0.46999998093E+01 0. -1.
       -5    1    3    3    0  502 -0.64242449567E+03  0.29460205011E+03 -0.95832617827E+03  0.11907605782E+04  0.46999998093E+01 0.  1.
</event>
<event>
 5   0  0.1344119E-05  0.1905863E+04  0.7818609E-02  0.8651943E-01
       -1   -1    0    0    0  501  0.00000000000E+00  0.00000000000E+00  0.95439365227E+03  0.95439365229E+03  0.50400001928E-02 0.  1.
        1   -1    0    0  501    0  0.00000000000E+00  0.00000000000E+00 -0.95147162178E+03  0.95147162179E+03  0.50400001928E-02 0. -1.
    10030    2    1    2    0    0  0.00000000000E+00  0.00000000000E+00  0.29220304976E+01  0.19058652741E+04  0.19058630341E+04 0.  0.
        2    1    3    3  502    0  0.68685702317E+01 -0.89215422014E+03 -0.33334103056E+03  0.95241932594E+03  0.25500000920E-02 0.  1.
       -2    1    3    3    0  502 -0.68685702317E+01  0.89215422014E+03  0.33626306105E+03  0.95344594813E+03  0.25500000920E-02 0. -1.
</event>
<event>
 5   0  0.2813537E-05  0.1885268E+04  0.7818609E-02  0.8662224E-01
        2   -1    0    0  501    0  0.00000000000E+00  0.00000000000E+00  0.10044780126E+04  0.10044780126E+04  0.25500000920E-02 0.  1.
       -2   -1    0    0    0  501  0.00000000000E+00  0.00000000000E+00 -0.88459759268E+03  0.88459759269E+03  0.25500000920E-02 0. -1.
    10030    2    1    2    0    0  0.00000000000E+00  0.00000000000E+00  0.11988041995E+03  0.18890756053E+04  0.18852679723E+04 0.  0.
        2    1    3    3  502    0  0.81375734104E+03 -0.44114742662E+03  0.23847630082E+03  0.95586767294E+03  0.25500000920E-02 0. -1.
       -2    1    3    3    0  502 -0.81375734104E+03  0.44114742662E+03 -0.11859588087E+03  0.93320793239E+03  0.25500000920E-02 0.  1.
</event>
<event>
 5   0  0.2813537E-05  0.1883141E+04  0.7818609E-02  0.8663294E-01
        2   -1    0    0  501    0  0.00000000000E+00  0.00000000000E+00  0.10012173726E+04  0.10012173726E+04  0.25500000920E-02 0. -1.
       -2   -1    0    0    0  501  0.00000000000E+00  0.00000000000E+00 -0.88547690389E+03  0.88547690389E+03  0.25500000920E-02 0.  1.
    10030    2    1    2    0    0  0.00000000000E+00  0.00000000000E+00  0.11574046870E+03  0.18866942765E+04  0.18831408436E+04 0.  0.
        2    1    3    3  502    0  0.25852139218E+03 -0.63055022961E+03  0.70880997559E+03  0.98327945355E+03  0.25500000920E-02 0. -1.
       -2    1    3    3    0  502 -0.25852139218E+03  0.63055022961E+03 -0.59306950689E+03  0.90341482293E+03  0.25500000920E-02 0.  1.
</event>
<event>
 5   0  0.2888776E-05  0.1903640E+04  0.7818609E-02  0.8653047E-01
       -2   -1    0    0    0  501  0.00000000000E+00  0.00000000000E+00  0.90113326451E+03  0.90113326451E+03  0.25500000920E-02 0.  1.
        2   -1    0    0  501    0  0.00000000000E+00  0.00000000000E+00 -0.10053573519E+04  0.10053573519E+04  0.25500000920E-02 0. -1.
    10030    2    1    2    0    0  0.00000000000E+00  0.00000000000E+00 -0.10422408737E+03  0.19064906164E+04  0.19036396219E+04 0.  0.
        3    1    3    3  502    0 -0.59799519094E+03  0.67419817950E+03  0.25464639146E+03  0.93647542867E+03  0.10100000352E+00 0. -1.
       -3    1    3    3    0  502  0.59799519094E+03 -0.67419817950E+03 -0.35887047882E+03  0.97001518771E+03  0.10100000352E+00 0.  1.
</event>
<event>
 5   0  0.1413011E-05  0.1896422E+04  0.7818609E-02  0.8656640E-01
       -1   -1    0    0    0  501  0.00000000000E+00  0.00000000000E+00  0.12006601411E+04  0.12006601411E+04  0.50400001928E-02 0. -1.
        1   -1    0    0  501    0  0.00000000000E+00  0.00000000000E+00 -0.74884119661E+03  0.74884119663E+03  0.50400001928E-02 0.  1.
    10030    2    1    2    0    0  0.00000000000E+00  0.00000000000E+00  0.45181894444E+03  0.19495013377E+04  0.18964216586E+04 0.  0.
        1    1    3    3  502    0  0.79213390507E+03  0.30853749243E+03  0.65770450347E+03  0.10748240422E+04  0.50400001928E-02 0. -1.
       -1    1    3    3    0  502 -0.79213390507E+03 -0.30853749243E+03 -0.20588555903E+03  0.87467729548E+03  0.50400001928E-02 0.  1.
</event>
<event>
 5   0  0.1344119E-05  0.1899531E+04  0.7818609E-02  0.8655090E-01
        1   -1    0    0  501    0  0.00000000000E+00  0.00000000000E+00  0.16856982680E+04  0.16856982680E+04  0.50400001928E-02 0.  1.
       -1   -1    0    0    0  501  0.00000000000E+00  0.00000000000E+00 -0.53512234073E+03  0.53512234075E+03  0.50400001928E-02 0. -1.
    10030    2    1    2    0    0  0.00000000000E+00  0.00000000000E+00  0.11505759273E+04  0.22208206088E+04  0.18995313137E+04 0.  0.
        2    1    3    3  502    0  0.10560563617E+03  0.52711881663E+03  0.14906950365E+04  0.15846698360E+04  0.25500000920E-02 0.  1.
       -2    1    3    3    0  502 -0.10560563617E+03 -0.52711881663E+03 -0.34011910923E+03  0.63615077277E+03  0.25500000920E-02 0. -1.
</event>
<event>
 5   0  0.1344119E-05  0.1903799E+04  0.7818609E-02  0.8652968E-01
       -1   -1    0    0    0  501  0.00000000000E+00  0.00000000000E+00  0.15743341134E+04  0.15743341134E+04  0.50400001928E-02 0. -1.
        1   -1    0    0  501    0  0.00000000000E+00  0.00000000000E+00 -0.57555309905E+03  0.57555309907E+03  0.50400001928E-02 0.  1.
    10030    2    1    2    0    0  0.00000000000E+00  0.00000000000E+00  0.99878101434E+03  0.21498872125E+04  0.19037992309E+04 0.  0.
        2    1    3    3  502    0 -0.74554794800E+03 -0.39530859347E+03  0.99678149731E+03  0.13060183690E+04  0.25500000920E-02 0. -1.
       -2    1    3    3    0  502  0.74554794800E+03  0.39530859347E+03  0.19995170214E+01  0.84386884343E+03  0.25500000920E-02 0.  1.
</event>
<event>
 5   0  0.2888776E-05  0.1898841E+04  0.7818609E-02  0.8655434E-01
        2   -1    0    0  501    0  0.00000000000E+00  0.00000000000E+00  0.11061025272E+04  0.11061025272E+04  0.25500000920E-02 0. -1.
       -2   -1    0    0    0  501  0.00000000000E+00  0.00000000000E+00 -0.81493283591E+03  0.81493283592E+03  0.25500000920E-02 0.  1.
    10030    2    1    2    0    0  0.00000000000E+00  0.00000000000E+00  0.29116969128E+03  0.19210353631E+04  0.18988409826E+04 0.  0.
        3    1    3    3  502    0  0.19082717853E+03  0.85851591519E+03 -0.21627541393E+03  0.90567083069E+03  0.10100000352E+00 0. -1.
       -3    1    3    3    0  502 -0.19082717853E+03 -0.85851591519E+03  0.50744510521E+03  0.10153645324E+04  0.10100000352E+00 0.  1.
</event>
<event>
 5   0  0.2813537E-05  0.1900042E+04  0.7818609E-02  0.8654835E-01
       -2   -1    0    0    0  501  0.00000000000E+00  0.00000000000E+00  0.73301565108E+03  0.73301565109E+03  0.25500000920E-02 0. -1.
        2   -1    0    0  501    0  0.00000000000E+00  0.00000000000E+00 -0.12312697490E+04  0.12312697490E+04  0.25500000920E-02 0.  1.
    10030    2    1    2    0    0  0.00000000000E+00  0.00000000000E+00 -0.49825409796E+03  0.19642854001E+04  0.19000421014E+04 0.  0.
        2    1    3    3  502    0 -0.61734410180E+03  0.45606863147E+03 -0.82790239692E+03  0.11289529288E+04  0.25500000920E-02 0.  1.
       -2    1    3    3    0  502  0.61734410180E+03 -0.45606863147E+03  0.32964829896E+03  0.83533247132E+03  0.25500000920E-02 0. -1.
</event>
<event>
 5   0  0.2813537E-05  0.1902060E+04  0.7818609E-02  0.8653832E-01
        2   -1    0    0  501    0  0.00000000000E+00  0.00000000000E+00  0.13673502074E+04  0.13673502074E+04  0.25500000920E-02 0.  1.
       -2   -1    0    0    0  501  0.00000000000E+00  0.00000000000E+00 -0.66146745723E+03  0.66146745723E+03  0.25500000920E-02 0. -1.
    10030    2    1    2    0    0  0.00000000000E+00  0.00000000000E+00  0.70588275021E+03  0.20288176647E+04  0.19020595836E+04 0.  0.
        2    1    3    3  502    0 -0.12145729406E+02 -0.22811315080E+02  0.13669756055E+04  0.13672198729E+04  0.25500000920E-02 0.  1.
       -2    1    3    3    0  502  0.12145729406E+02  0.22811315080E+02 -0.66109285525E+03  0.66159779180E+03  0.25500000920E-02 0. -1.
</event>
<event>
 5   0  0.1471485E-05  0.1902170E+04  0.7818609E-02  0.8653777E-01
       -1   -1    0    0    0  501  0.00000000000E+00  0.00000000000E+00  0.16242386070E+04  0.16242386070E+04  0.50400001928E-02 0. -1.
        1   -1    0    0  501    0  0.00000000000E+00  0.00000000000E+00 -0.55691517088E+03  0.55691517090E+03  0.50400001928E-02 0.  1.
    10030    2    1    2    0    0  0.00000000000E+00  0.00000000000E+00  0.10673234361E+04  0.21811537779E+04  0.19021704670E+04 0.  0.
        4    1    3    3  502    0  0.99817829048E+02 -0.72799000710E+03 -0.15874636994E+03  0.75175466231E+03  0.12699999809E+01 0.  1.
       -4    1    3    3    0  502 -0.99817829048E+02  0.72799000710E+03  0.12260698060E+04  0.14293991156E+04  0.12699999809E+01 0. -1.
</event>
<event>
 5   0  0.1010725E-05  0.1896091E+04  0.7818609E-02  0.8656805E-01
        3   -1    0    0  501    0  0.00000000000E+00  0.00000000000E+00  0.14690173596E+04  0.14690173630E+04  0.10100000352E+00 0. -1.
       -3   -1    0    0    0  501  0.00000000000E+00  0.00000000000E+00 -0.61183089727E+03  0.61183090560E+03  0.10100000352E+00 0.  1.
    10030    2    1    2    0    0  0.00000000000E+00  0.00000000000E+00  0.85718646231E+03  0.20808482686E+04  0.18960909488E+04 0.  0.
        3    1    3    3  502    0  0.26051269912E+03 -0.41552541607E+03  0.13189839659E+04  0.14072124751E+04  0.10100000352E+00 0. -1.
       -3    1    3    3    0  502 -0.26051269912E+03  0.41552541607E+03 -0.46179750356E+03  0.67363579351E+03  0.10100000352E+00 0.  1.
</event>
<event>
 5   0  0.2855141E-05  0.1906102E+04  0.7818609E-02  0.8651825E-01
        2   -1    0    0  501    0  0.00000000000E+00  0.00000000000E+00  0.19968302062E+04  0.19968302062E+04  0.25500000920E-02 0. -1.
       -2   -1    0    0    0  501  0.00000000000E+00  0.00000000000E+00 -0.45487401328E+03  0.45487401329E+03  0.25500000920E-02 0.  1.
    10030    2    1    2    0    0  0.00000000000E+00  0.00000000000E+00  0.15419561929E+04  0.24517042195E+04  0.19061019592E+04 0.  0.
        1    1    3    3  502    0 -0.32102727868E+03 -0.81258519997E+03  0.28127204119E+03  0.91786011029E+03  0.50400001928E-02 0. -1.
       -1    1    3    3    0  502  0.32102727868E+03  0.81258519997E+03  0.12606841517E+04  0.15338441092E+04  0.50400001928E-02 0.  1.
</event>
<event>
 5   0  0.2888776E-05  0.1896952E+04  0.7818609E-02  0.8656375E-01
       -2   -1    0    0    0  501  0.00000000000E+00  0.00000000000E+00  0.76951726065E+03  0.76951726065E+03  0.25500000920E-02 0. -1.
        2   -1    0    0  501    0  0.00000000000E+00  0.00000000000E+00 -0.11690528592E+04  0.11690528592E+04  0.25500000920E-02 0.  1.
    10030    2    1    2    0    0  0.00000000000E+00  0.00000000000E+00 -0.39953559856E+03  0.19385701199E+04  0.18969516112E+04 0.  0.
        3    1    3    3  502    0 -0.57177657770E+03  0.75637080472E+03 -0.17513302071E+03  0.96420787913E+03  0.10100000352E+00 0.  1.
       -3    1    3    3    0  502  0.57177657770E+03 -0.75637080472E+03 -0.22440257785E+03  0.97436224074E+03  0.10100000352E+00 0. -1.
</event>
<event>
 5   0  0.1344119E-05  0.1944691E+04  0.7818609E-02  0.8632925E-01
        1   -1    0    0  501    0  0.00000000000E+00  0.00000000000E+00  0.13559097396E+04  0.13559097396E+04  0.50400001928E-02 0. -1.
       -1   -1    0    0    0  501  0.00000000000E+00  0.00000000000E+00 -0.69728491696E+03  0.69728491698E+03  0.50400001928E-02 0.  1.
    10030    2    1    2    0    0  0.00000000000E+00  0.00000000000E+00  0.65862482266E+03  0.20531946566E+04  0.19446906286E+04 0.  0.
        2    1    3    3  502    0 -0.30021668846E+03  0.92405565406E+03  0.28915750830E+03  0.10137164182E+04  0.25500000920E-02 0. -1.
       -2    1    3    3    0  502  0.30021668846E+03 -0.92405565406E+03  0.36946731436E+03  0.10394782385E+04  0.25500000920E-02 0.  1.
</event>
<event>
 5   0  0.2888776E-05  0.1902326E+04  0.7818609E-02  0.8653700E-01
        2   -1    0    0  501    0  0.00000000000E+00  0.00000000000E+00  0.77291943093E+03  0.77291943094E+03  0.25500000920E-02 0.  1.
       -2   -1    0    0    0  501  0.00000000000E+00  0.00000000000E+00 -0.11705108997E+04  0.11705108997E+04  0.25500000920E-02 0. -1.
    10030    2    1    2    0    0  0.00000000000E+00  0.00000000000E+00 -0.39759146875E+03  0.19434303306E+04  0.19023255436E+04 0.  0.
        3    1    3    3  502    0 -0.15594973398E+03  0.40773551984E+03  0.66453347568E+03  0.79509328017E+03  0.10100000352E+00 0.  1.
       -3    1    3    3    0  502  0.15594973398E+03 -0.40773551984E+03 -0.10621249444E+04  0.11483370505E+04  0.10100000352E+00 0. -1.
</event>
<event>
 5   0  0.2813537E-05  0.1901571E+04  0.7818609E-02  0.8654075E-01
       -2   -1    0    0    0  501  0.00000000000E+00  0.00000000000E+00  0.43166423081E+03  0.43166423082E+03  0.25500000920E-02 0. -1.
        2   -1    0    0  501    0  0.00000000000E+00  0.00000000000E+00 -0.20942031957E+04  0.20942031957E+04  0.25500000920E-02 0.  1.
    10030    2    1    2    0    0  0.00000000000E+00  0.00000000000E+00 -0.16625389649E+04  0.25258674265E+04  0.19015705211E+04 0.  0.
        2    1    3    3  502    0  0.14754170075E+02  0.57735111439E+03  0.17196704564E+03  0.60259825723E+03  0.25500000920E-02 0. -1.
       -2    1    3    3    0  502 -0.14754170075E+02 -0.57735111439E+03 -0.18345060105E+04  0.19232691693E+04  0.25500000920E-02 0.  1.
</event>
<event>
 5   0  0.2789718E-05  0.1899917E+04  0.7818609E-02  0.8654898E-01
       -2   -1    0    0    0  501  0.00000000000E+00  0.00000000000E+00  0.62440905585E+03  0.62440905585E+03  0.25500000920E-02 0.  1.
        2   -1    0    0  501    0  0.00000000000E+00  0.00000000000E+00 -0.14452400853E+04  0.14452400853E+04  0.25500000920E-02 0. -1.
    10030    2    1    2    0    0  0.00000000000E+00  0.00000000000E+00 -0.82083102944E+03  0.20696491411E+04  0.18999168373E+04 0.  0.
        5    1    3    3  502    0  0.46451112933E+03 -0.76285523859E+03 -0.57968031421E+02  0.89504250569E+03  0.46999998093E+01 0.  1.
       -5    1    3    3    0  502 -0.46451112933E+03  0.76285523859E+03 -0.76286299802E+03  0.11746066355E+04  0.46999998093E+01 0. -1.
</event>
<event>
 5   0  0.1327254E-05  0.1903253E+04  0.7818609E-02  0.8653239E-01
       -1   -1    0    0    0  501  0.00000000000E+00  0.00000000000E+00  0.33813423974E+03  0.33813423978E+03  0.50400001928E-02 0. -1.
        1   -1    0    0  501    0  0.00000000000E+00  0.00000000000E+00 -0.26782050367E+04  0.26782050368E+04  0.50400001928E-02 0.  1.
    10030    2    1    2    0    0  0.00000000000E+00  0.00000000000E+00 -0.23400707970E+04  0.30163392765E+04  0.19032528198E+04 0.  0.
        5    1    3    3  502    0 -0.37709714812E+03  0.11533805762E+03 -0.25426017042E+04  0.25730042057E+04  0.46999998093E+01 0.  1.
       -5    1    3    3    0  502  0.37709714812E+03 -0.11533805762E+03  0.20253090716E+03  0.44333507080E+03  0.46999998093E+01 0. -1.
</event>
<event>
 5   0  0.1327254E-05  0.1894860E+04  0.7818609E-02  0.8657419E-01
       -1   -1    0    0    0  501  0.00000000000E+00  0.00000000000E+00  0.44998259325E+03  0.44998259328E+03  0.50400001928E-02 0.  1.
        1   -1    0    0  501    0  0.00000000000E+00  0.00000000000E+00 -0.19947959086E+04  0.19947959086E+04  0.50400001928E-02 0. -1.
    10030    2    1    2    0    0  0.00000000000E+00  0.00000000000E+00 -0.15448133154E+04  0.24447785019E+04  0.18948598217E+04 0.  0.
        5    1    3    3  502    0  0.43230019634E+03 -0.75603431074E+03 -0.12536589760E+04  0.15264842799E+04  0.46999998093E+01 0. -1.
       -5    1    3    3    0  502 -0.43230019634E+03  0.75603431074E+03 -0.29115433935E+03  0.91829422196E+03  0.46999998093E+01 0.  1.
</event>
<event>
 5   0  0.2855141E-05  0.1901833E+04  0.7818609E-02  0.8653944E-01
        2   -1    0    0  501    0  0.00000000000E+00  0.00000000000E+00  0.72396215784E+03  0.72396215785E+03  0.25500000920E-02 0. -1.
       -2   -1    0    0    0  501  0.00000000000E+00  0.00000000000E+00 -0.12490187070E+04  0.12490187070E+04  0.25500000920E-02 0.  1.
    10030    2    1    2    0    0  0.00000000000E+00  0.00000000000E+00 -0.52505654918E+03  0.19729808649E+04  0.19018330929E+04 0.  0.
        1    1    3    3  502    0 -0.13617961610E+03 -0.34548793498E+03 -0.11706831921E+04  0.12281717866E+04  0.50400001928E-02 0.  1.
       -1    1    3    3    0  502  0.13617961610E+03  0.34548793498E+03  0.64562664291E+03  0.74480907830E+03  0.50400001928E-02 0. -1.
</event>
<event>
 5   0  0.1471485E-05  0.1899135E+04  0.7818609E-02  0.8655287E-01
       -1   -1    0    0    0  501  0.00000000000E+00  0.00000000000E+00  0.15954436498E+04  0.15954436498E+04  0.50400001928E-02 0.  1.
        1   -1    0    0  501    0  0.00000000000E+00  0.00000000000E+00 -0.56515841674E+03  0.56515841677E+03  0.50400001928E-02 0. -1.
    10030    2    1    2    0    0  0.00000000000E+00  0.00000000000E+00  0.10302852331E+04  0.21606020666E+04  0.18991349685E+04 0.  0.
        4    1    3    3  502    0  0.70400097463E+03  0.58338161521E+03  0.22347696400E+03  0.94121997832E+03  0.12699999809E+01 0.  1.
       -4    1    3    3    0  502 -0.70400097463E+03 -0.58338161521E+03  0.80680826905E+03  0.12193820883E+04  0.12699999809E+01 0. -1.
</event>
<event>
 5   0  0.2813537E-05  0.1903777E+04  0.7818609E-02  0.8652978E-01
       -2   -1    0    0    0  501  0.00000000000E+00  0.00000000000E+00  0.14977725719E+04  0.14977725719E+04  0.25500000920E-02 0.  1.
        2   -1    0    0  501    0  0.00000000000E+00  0.00000000000E+00 -0.60495972062E+03  0.60495972063E+03  0.25500000920E-02 0. -1.
    10030    2    1    2    0    0  0.00000000000E+00  0.00000000000E+00  0.89281285131E+03  0.21027322926E+04  0.19037773785E+04 0.  0.
        2    1    3    3  502    0 -0.43777228096E+03 -0.17025873408E+03 -0.46804093937E+03  0.66309496111E+03  0.25500000920E-02 0. -1.
       -2    1    3    3    0  502  0.43777228096E+03  0.17025873408E+03  0.13608537907E+04  0.14396373315E+04  0.25500000920E-02 0.  1.
</event>
<event>
 5   0  0.1413011E-05  0.1942380E+04  0.7818609E-02  0.8634044E-01
        1   -1    0    0  501    0  0.00000000000E+00  0.00000000000E+00  0.18877969086E+04  0.18877969087E+04  0.50400001928E-02 0. -1.
       -1   -1    0    0    0  501  0.00000000000E+00  0.00000000000E+00 -0.49963529493E+03  0.49963529496E+03  0.50400001928E-02 0.  1.
    10030    2    1    2    0    0  0.00000000000E+00  0.00000000000E+00  0.13881616137E+04  0.23874322036E+04  0.19423799477E+04 0.  0.
        1    1    3    3  502    0 -0.17106068278E+03  0.19484561691E+03 -0.45630839969E+03  0.52482752145E+03  0.50400001928E-02 0.  1.
       -1    1    3    3    0  502  0.17106068278E+03 -0.19484561691E+03  0.18444700134E+04  0.18626046822E+04  0.50400001928E-02 0. -1.
</event>
<event>
 5   0  0.2879462E-05  0.1901352E+04  0.7818609E-02  0.8654184E-01
        2   -1    0    0  501    0  0.00000000000E+00  0.00000000000E+00  0.16253984276E+04  0.16253984276E+04  0.25500000920E-02 0.  1.
       -2   -1    0    0    0  501  0.00000000000E+00  0.00000000000E+00 -0.55603889984E+03  0.55603889985E+03  0.25500000920E-02 0. -1.
    10030    2    1    2    0    0  0.00000000000E+00  0.00000000000E+00  0.10693595278E+04  0.21814373275E+04  0.19013518912E+04 0.  0.
        4    1    3    3  502    0  0.66301644003E+03 -0.41965178732E+03 -0.81121179512E+02  0.78884769190E+03  0.12699999809E+01 0. -1.
       -4    1    3    3    0  502 -0.66301644003E+03  0.41965178732E+03  0.11504807073E+04  0.13925896356E+04  0.12699999809E+01 0.  1.
</event>
<event>
 5   0  0.1471485E-05  0.1900910E+04  0.7818609E-02  0.8654404E-01
       -1   -1    0    0    0  501  0.00000000000E+00  0.00000000000E+00  0.55203813914E+03  0.55203813916E+03  0.50400001928E-02 0. -1.
        1   -1    0    0  501    0  0.00000000000E+00  0.00000000000E+00 -0.16364171382E+04  0.16364171382E+04  0.50400001928E-02 0.  1.
    10030    2    1    2    0    0  0.00000000000E+00  0.00000000000E+00 -0.10843789991E+04  0.21884552774E+04  0.19009099630E+04 0.  0.
        4    1    3    3  502    0  0.50560177253E+03  0.77888653608E+03 -0.77548995576E+03  0.12098279518E+04  0.12699999809E+01 0.  1.
       -4    1    3    3    0  502 -0.50560177253E+03 -0.77888653608E+03 -0.30888904331E+03  0.97862732562E+03  0.12699999809E+01 0. -1.
</event>
<event>
 5   0  0.1010725E-05  0.1899172E+04  0.7818609E-02  0.8655269E-01
       -4   -1    0    0    0  501  0.00000000000E+00  0.00000000000E+00  0.74968293360E+03  0.74968400932E+03  0.12699999809E+01 0. -1.
        4   -1    0    0  501    0  0.00000000000E+00  0.00000000000E+00 -0.12027911683E+04  0.12027918388E+04  0.12699999809E+01 0.  1.
    10030    2    1    2    0    0  0.00000000000E+00  0.00000000000E+00 -0.45310823473E+03  0.19524758481E+04  0.18991721526E+04 0.  0.
        1    1    3    3  502    0 -0.25663990552E+01  0.27081380310E+03  0.70913749219E+03  0.75909333103E+03  0.50400001928E-02 0. -1.
       -1    1    3    3    0  502  0.25663990552E+01 -0.27081380310E+03 -0.11622457269E+04  0.11933825171E+04  0.50400001928E-02 0.  1.
</event>
<event>
 5   0  0.1471485E-05  0.1895768E+04  0.7818609E-02  0.8656966E-01
       -1   -1    0    0    0  501  0.00000000000E+00  0.00000000000E+00  0.94647799819E+03  0.94647799820E+03  0.50400001928E-02 0. -1.
        1   -1    0    0  501    0  0.00000000000E+00  0.00000000000E+00 -0.94929256616E+03  0.94929256617E+03  0.50400001928E-02 0.  1.
    10030    2    1    2    0    0  0.00000000000E+00  0.00000000000E+00 -0.28145679705E+01  0.18957705644E+04  0.18957684750E+04 0.  0.
        4    1    3    3  502    0  0.51615988801E+03  0.18302301267E+03  0.77226304700E+03  0.94673664755E+03  0.12699999809E+01 0. -1.
       -4    1    3    3    0  502 -0.51615988801E+03 -0.18302301267E+03 -0.77507761497E+03  0.94903391683E+03  0.12699999809E+01 0.  1.
</event>
<event>
 5   0  0.1327254E-05  0.1899816E+04  0.7818609E-02  0.8654948E-01
       -1   -1    0    0    0  501  0.00000000000E+00  0.00000000000E+00  0.10429628637E+04  0.10429628637E+04  0.50400001928E-02 0. -1.
        1   -1    0    0  501    0  0.00000000000E+00  0.00000000000E+00 -0.86515605388E+03  0.86515605390E+03  0.50400001928E-02 0.  1.
    10030    2    1    2    0    0  0.00000000000E+00  0.00000000000E+00  0.17780680980E+03  0.19081189176E+04  0.18998164496E+04 0.  0.
        5    1    3    3  502    0 -0.63572044331E+03  0.37393882329E+03 -0.51232167288E+03  0.89803469427E+03  0.46999998093E+01 0.  1.
       -5    1    3    3    0  502  0.63572044331E+03 -0.37393882329E+03  0.69012848269E+03  0.10100842233E+04  0.46999998093E+01 0. -1.
</event>
<event>
 5   0  0.2855141E-05  0.1896383E+04  0.7818609E-02  0.8656659E-01
       -2   -1    0    0    0  501  0.00000000000E+00  0.00000000000E+00  0.55790130249E+03  0.55790130250E+03  0.25500000920E-02 0.  1.
        2   -1    0    0  501    0  0.00000000000E+00  0.00000000000E+00 -0.16115163318E+04  0.16115163318E+04  0.25500000920E-02 0. -1.
    10030    2    1    2    0    0  0.00000000000E+00  0.00000000000E+00 -0.10536150293E+04  0.21694176343E+04  0.18963829365E+04 0.  0.
        1    1    3    3  502    0  0.91498924409E+03  0.24436370177E+03 -0.47378663916E+03  0.10589583160E+04  0.50400001928E-02 0.  1.
       -1    1    3    3    0  502 -0.91498924409E+03 -0.24436370177E+03 -0.57982839013E+03  0.11104593183E+04  0.50400001928E-02 0. -1.
</event>
<event>
 5   0  0.1327254E-05  0.1899901E+04  0.7818609E-02  0.8654906E-01
       -1   -1    0    0    0  501  0.00000000000E+00  0.00000000000E+00  0.64164813166E+03  0.64164813168E+03  0.50400001928E-02 0.  1.
        1   -1    0    0  501    0  0.00000000000E+00  0.00000000000E+00 -0.14063870479E+04  0.14063870479E+04  0.50400001928E-02 0. -1.
    10030    2    1    2    0    0  0.00000000000E+00  0.00000000000E+00 -0.76473891624E+03  0.20480351796E+04  0.18999006518E+04 0.  0.
        5    1    3    3  502    0 -0.21297061895E+03 -0.77221025667E+03  0.16804816931E+03  0.81849095428E+03  0.46999998093E+01 0.  1.
       -5    1    3    3    0  502  0.21297061895E+03  0.77221025667E+03 -0.93278708555E+03  0.12295442253E+04  0.46999998093E+01 0. -1.
</event>
<event>
 5   0  0.2855141E-05  0.1894991E+04  0.7818609E-02  0.8657354E-01
       -2   -1    0    0    0  501  0.00000000000E+00  0.00000000000E+00  0.12474844413E+04  0.12474844413E+04  0.25500000920E-02 0. -1.
        2   -1    0    0  501    0  0.00000000000E+00  0.00000000000E+00 -0.71964646132E+03  0.71964646132E+03  0.25500000920E-02 0.  1.
    10030    2    1    2    0    0  0.00000000000E+00  0.00000000000E+00  0.52783798003E+03  0.19671309027E+04  0.18949910435E+04 0.  0.
        1    1    3    3  502    0 -0.21132985776E+03 -0.40835127035E+03 -0.59607359925E+03  0.75280462574E+03  0.50400001928E-02 0.  1.
       -1    1    3    3    0  502  0.21132985776E+03  0.40835127035E+03  0.11239115793E+04  0.12143262769E+04  0.50400001928E-02 0. -1.
</event>
<event>
 5   0  0.1429067E-05  0.1898790E+04  0.7818609E-02  0.8655459E-01
       -1   -1    0    0    0  501  0.00000000000E+00  0.00000000000E+00  0.70167598438E+03  0.70167598440E+03  0.50400001928E-02 0. -1.
        1   -1    0    0  501    0  0.00000000000E+00  0.00000000000E+00 -0.12845690373E+04  0.12845690374E+04  0.50400001928E-02 0.  1.
    10030    2    1    2    0    0  0.00000000000E+00  0.00000000000E+00 -0.58289305296E+03  0.19862450218E+04  0.18987903979E+04 0.  0.
        3    1    3    3  502    0  0.29651605686E+03 -0.38448365291E+03 -0.11448669521E+04  0.12435713890E+04  0.10100000352E+00 0.  1.
       -3    1    3    3    0  502 -0.29651605686E+03  0.38448365291E+03  0.56197389912E+03  0.74267363277E+03  0.10100000352E+00 0. -1.
</event>
<event>
 5   0  0.1327254E-05  0.1901954E+04  0.7818609E-02  0.8653884E-01
        1   -1    0    0  501    0  0.00000000000E+00  0.00000000000E+00  0.11131502420E+04  0.11131502420E+04  0.50400001928E-02 0. -1.
       -1   -1    0    0    0  501  0.00000000000E+00  0.00000000000E+00 -0.81243044249E+03  0.81243044251E+03  0.50400001928E-02 0.  1.
    10030    2    1    2    0    0  0.00000000000E+00  0.00000000000E+00  0.30071979952E+03  0.19255806845E+04  0.19019538835E+04 0.  0.
        5    1    3    3  502    0 -0.92071610080E+03  0.22297687004E+03  0.23444723714E+03  0.97592234314E+03  0.46999998093E+01 0. -1.
       -5    1    3    3    0  502  0.92071610080E+03 -0.22297687004E+03  0.66272562385E+02  0.94965834139E+03  0.46999998093E+01 0.  1.
</event>
<event>
 5   0  0.2879462E-05  0.1895794E+04  0.7818609E-02  0.8656953E-01
        2   -1    0    0  501    0  0.00000000000E+00  0.00000000000E+00  0.22603794499E+04  0.22603794499E+04  0.25500000920E-02 0. -1.
       -2   -1    0    0    0  501  0.00000000000E+00  0.00000000000E+00 -0.39750368543E+03  0.39750368544E+03  0.25500000920E-02 0.  1.
    10030    2    1    2    0    0  0.00000000000E+00  0.00000000000E+00  0.18628757645E+04  0.26578831354E+04  0.18957944634E+04 0.  0.
        4    1    3    3  502    0  0.75156835338E+03  0.43417922468E+03  0.39731691532E+03  0.95458312003E+03  0.12699999809E+01 0.  1.
       -4    1    3    3    0  502 -0.75156835338E+03 -0.43417922468E+03  0.14655588492E+04  0.17033000154E+04  0.12699999809E+01 0. -1.
</event>
<event>
 5   0  0.2813537E-05  0.1901400E+04  0.7818609E-02  0.8654160E-01
        2   -1    0    0  501    0  0.00000000000E+00  0.00000000000E+00  0.13894652122E+04  0.13894652122E+04  0.25500000920E-02 0. -1.
       -2   -1    0    0    0  501  0.00000000000E+00  0.00000000000E+00 -0.65048812713E+03  0.65048812714E+03  0.25500000920E-02 0.  1.
    10030    2    1    2    0    0  0.00000000000E+00  0.00000000000E+00  0.73897708507E+03  0.20399533393E+04  0.19014001405E+04 0.  0.
        2    1    3    3  502    0  0.60259638809E+03 -0.41646481902E+03 -0.28069600489E+03  0.78444604632E+03  0.25500000920E-02 0.  1.
       -2    1    3    3    0  502 -0.60259638809E+03  0.41646481902E+03  0.10196730900E+04  0.12555072930E+04  0.25500000920E-02 0. -1.
</event>
<event>
 5   0  0.1471485E-05  0.1899835E+04  0.7818609E-02  0.8654938E-01
        1   -1    0    0  501    0  0.00000000000E+00  0.00000000000E+00  0.54802227329E+03  0.54802227332E+03  0.50400001928E-02 0.  1.
       -1   -1    0    0    0  501  0.00000000000E+00  0.00000000000E+00 -0.16465454841E+04  0.16465454841E+04  0.50400001928E-02 0. -1.
    10030    2    1    2    0    0  0.00000000000E+00  0.00000000000E+00 -0.10985232108E+04  0.21945677574E+04  0.18998353606E+04 0.  0.
        4    1    3    3  502    0 -0.58228458337E+03  0.75022733210E+03 -0.52487755278E+03  0.10850780821E+04  0.12699999809E+01 0. -1.
       -4    1    3    3    0  502  0.58228458337E+03 -0.75022733210E+03 -0.57364565802E+03  0.11094896754E+04  0.12699999809E+01 0.  1.
</event>
<event>
 5   0  0.2789718E-05  0.1861438E+04  0.7818609E-02  0.8674293E-01
       -2   -1    0    0    0  501  0.00000000000E+00  0.00000000000E+00  0.10423208159E+04  0.10423208160E+04  0.25500000920E-02 0.  1.
        2   -1    0    0  501    0  0.00000000000E+00  0.00000000000E+00 -0.83106628744E+03  0.83106628744E+03  0.25500000920E-02 0. -1.
    10030    2    1    2    0    0  0.00000000000E+00  0.00000000000E+00  0.21125452851E+03  0.18733871034E+04  0.18614378215E+04 0.  0.
        5    1    3    3  502    0  0.75266885585E+03 -0.54745266658E+03  0.10474291378E+03  0.93659382696E+03  0.46999998093E+01 0. -1.
       -5    1    3    3    0  502 -0.75266885585E+03  0.54745266658E+03  0.10651161472E+03  0.93679327644E+03  0.46999998093E+01 0.  1.
</event>
<event>
 5   0  0.1413011E-05  0.1900989E+04  0.7818609E-02  0.8654364E-01
       -1   -1    0    0    0  501  0.00000000000E+00  0.00000000000E+00  0.78626907284E+03  0.78626907285E+03  0.50400001928E-02 0. -1.
        1   -1    0    0  501    0  0.00000000000E+00  0.00000000000E+00 -0.11490214098E+04  0.11490214098E+04  0.50400001928E-02 0.  1.
    10030    2    1    2    0    0  0.00000000000E+00  0.00000000000E+00 -0.36275233694E+03  0.19352904826E+04  0.19009892147E+04 0.  0.
        1    1    3    3  502    0  0.72747704480E+02 -0.11097900573E+03 -0.11395450247E+04  0.11472451489E+04  0.50400001928E-02 0.  1.
       -1    1    3    3    0  502 -0.72747704480E+02  0.11097900573E+03  0.77679268779E+03  0.78804533376E+03  0.50400001928E-02 0. -1.
</event>
<event>
 5   0  0.2879462E-05  0.1898954E+04  0.7818609E-02  0.8655377E-01
        2   -1    0    0  501    0  0.00000000000E+00  0.00000000000E+00  0.23053288256E+04  0.23053288256E+04  0.25500000920E-02 0.  1.
       -2   -1    0    0    0  501  0.00000000000E+00  0.00000000000E+00 -0.39105338677E+03  0.39105338678E+03  0.25500000920E-02 0. -1.
    10030    2    1    2    0    0  0.00000000000E+00  0.00000000000E+00  0.19142754388E+04  0.26963822123E+04  0.18989540751E+04 0.  0.
        4    1    3    3  502    0  0.93101086445E+03  0.18171834084E+03  0.10157216169E+04  0.13897822855E+04  0.12699999809E+01 0.  1.
       -4    1    3    3    0  502 -0.93101086445E+03 -0.18171834084E+03  0.89855382183E+03  0.13065999268E+04  0.12699999809E+01 0. -1.
</event>
<event>
 5   0  0.1344119E-05  0.1899523E+04  0.7818609E-02  0.8655094E-01
       -1   -1    0    0    0  501  0.00000000000E+00  0.00000000000E+00  0.55084040629E+03  0.55084040631E+03  0.50400001928E-02 0. -1.
        1   -1    0    0  501    0  0.00000000000E+00  0.00000000000E+00 -0.16375827129E+04  0.16375827129E+04  0.50400001928E-02 0.  1.
    10030    2    1    2    0    0  0.00000000000E+00  0.00000000000E+00 -0.10867423066E+04  0.21884231192E+04  0.18995228106E+04 0.  0.
        2    1    3    3  502    0 -0.20848820425E+03  0.80549958561E+02  0.52010999424E+03  0.56610072713E+03  0.25500000920E-02 0. -1.
       -2    1    3    3    0  502  0.20848820425E+03 -0.80549958561E+02 -0.16068523009E+04  0.16223223921E+04  0.25500000920E-02 0.  1.
</event>
<event>
 5   0  0.1344119E-05  0.1900502E+04  0.7818609E-02  0.8654606E-01
       -1   -1    0    0    0  501  0.00000000000E+00  0.00000000000E+00  0.74854478442E+03  0.74854478444E+03  0.50400001928E-02 0. -1.
        1   -1    0    0  501    0  0.00000000000E+00  0.00000000000E+00 -0.12063103714E+04  0.12063103715E+04  0.50400001928E-02 0.  1.
    10030    2    1    2    0    0  0.00000000000E+00  0.00000000000E+00 -0.45776558702E+03  0.19548551559E+04  0.19005023935E+04 0.  0.
        2    1    3    3  502    0  0.81513165613E+03 -0.68620983801E+02 -0.72627071943E+03  0.10939001847E+04  0.25500000920E-02 0.  1.
       -2    1    3    3    0  502 -0.81513165613E+03  0.68620983801E+02  0.26850513241E+03  0.86095497117E+03  0.25500000920E-02 0. -1.
</event>
<event>
 5   0  0.2813537E-05  0.1897272E+04  0.7818609E-02  0.8656215E-01
        2   -1    0    0  501    0  0.00000000000E+00  0.00000000000E+00  0.99475421073E+03  0.99475421074E+03  0.25500000920E-02 0. -1.
       -2   -1    0    0    0  501  0.00000000000E+00  0.00000000000E+00 -0.90465636477E+03  0.90465636477E+03  0.25500000920E-02 0.  1.
    10030    2    1    2    0    0  0.00000000000E+00  0.00000000000E+00  0.90097845965E+02  0.18994105755E+04  0.18972724929E+04 0.  0.
        2    1    3    3  502    0  0.33531043203E+03 -0.58776898100E+03  0.71063290836E+03  0.98127702067E+03  0.25500000920E-02 0. -1.
       -2    1    3    3    0  502 -0.33531043203E+03  0.58776898100E+03 -0.62053506239E+03  0.91813355484E+03  0.25500000920E-02 0.  1.
</event>
<event>
 5   0  0.1010725E-05  0.1902623E+04  0.7818609E-02  0.8653552E-01
       -3   -1    0    0    0  501  0.00000000000E+00  0.00000000000E+00  0.96220618360E+03  0.96220618890E+03  0.10100000352E+00 0.  1.
        3   -1    0    0  501    0  0.00000000000E+00  0.00000000000E+00 -0.94054015450E+03  0.94054015993E+03  0.10100000352E+00 0. -1.
    10030    2    1    2    0    0  0.00000000000E+00  0.00000000000E+00  0.21666029096E+02  0.19027463488E+04  0.19026229924E+04 0.  0.
        2    1    3    3  502    0  0.49358313902E+03  0.22297852550E+03  0.79296416720E+03  0.96027907841E+03  0.25500000920E-02 0.  1.
       -2    1    3    3    0  502 -0.49358313902E+03 -0.22297852550E+03 -0.77129813811E+03  0.94246727042E+03  0.25500000920E-02 0. -1.
</event>
<event>
 5   0  0.1413011E-05  0.1885075E+04  0.7818609E-02  0.8662322E-01
        1   -1    0    0  501    0  0.00000000000E+00  0.00000000000E+00  0.98673721338E+03  0.98673721339E+03  0.50400001928E-02 0.  1.
       -1   -1    0    0    0  501  0.00000000000E+00  0.00000000000E+00 -0.90031727540E+03  0.90031727541E+03  0.50400001928E-02 0. -1.
    10030    2    1    2    0    0  0.00000000000E+00  0.00000000000E+00  0.86419937978E+02  0.18870544888E+04  0.18850745975E+04 0.  0.
        1    1    3    3  502    0  0.62664383347E+03  0.35236166319E+03 -0.56696720179E+03  0.91558344439E+03  0.50400001928E-02 0. -1.
       -1    1    3    3    0  502 -0.62664383347E+03 -0.35236166319E+03  0.65338713976E+03  0.97147104442E+03  0.50400001928E-02 0.  1.
</event>
<event>
 5   0  0.1327254E-05  0.1900874E+04  0.7818609E-02  0.8654421E-01
       -1   -1    0    0    0  501  0.00000000000E+00  0.00000000000E+00  0.98865549179E+03  0.98865549181E+03  0.50400001928E-02 0. -1.
        1   -1    0    0  501    0  0.00000000000E+00  0.00000000000E+00 -0.91369618551E+03  0.91369618552E+03  0.50400001928E-02 0.  1.
    10030    2    1    2    0    0  0.00000000000E+00  0.00000000000E+00  0.74959306286E+02  0.19023516773E+04  0.19008742743E+04 0.  0.
        5    1    3    3  502    0  0.62443573613E+03 -0.27855677998E+03 -0.62318098295E+03  0.92514350008E+03  0.46999998093E+01 0.  1.
       -5    1    3    3    0  502 -0.62443573613E+03  0.27855677998E+03  0.69814028924E+03  0.97720817725E+03  0.46999998093E+01 0. -1.
</event>
<event>
 5   0  0.2813537E-05  0.1899066E+04  0.7818609E-02  0.8655322E-01
        2   -1    0    0  501    0  0.00000000000E+00  0.00000000000E+00  0.18457943580E+04  0.18457943580E+04  0.25500000920E-02 0.  1.
       -2   -1    0    0    0  501  0.00000000000E+00  0.00000000000E+00 -0.48846859811E+03  0.48846859812E+03  0.25500000920E-02 0. -1.
    10030    2    1    2    0    0  0.00000000000E+00  0.00000000000E+00  0.13573257599E+04  0.23342629561E+04  0.18990656465E+04 0.  0.
        2    1    3    3  502    0 -0.20084972191E+03 -0.56996738673E+03  0.15789020158E+04  0.16906019662E+04  0.25500000920E-02 0.  1.
       -2    1    3    3    0  502  0.20084972191E+03  0.56996738673E+03 -0.22157625590E+03  0.64366098989E+03  0.25500000920E-02 0. -1.
</event>
<event>
 5   0  0.2813537E-05  0.1900892E+04  0.7818609E-02  0.8654412E-01
        2   -1    0    0  501    0  0.00000000000E+00  0.00000000000E+00  0.25814818504E+04  0.25814818504E+04  0.25500000920E-02 0.  1.
       -2   -1    0    0    0  501  0.00000000000E+00  0.00000000000E+00 -0.34993382271E+03  0.34993382272E+03  0.25500000920E-02 0. -1.
    10030    2    1    2    0    0  0.00000000000E+00  0.00000000000E+00  0.22315480277E+04  0.29314156731E+04  0.19008922244E+04 0.  0.
        2    1    3    3  502    0  0.54147264894E+02  0.10067294165E+02  0.25790189918E+04  0.25796069927E+04  0.25500000920E-02 0.  1.
       -2    1    3    3    0  502 -0.54147264894E+02 -0.10067294165E+02 -0.34747096411E+03  0.35180868042E+03  0.25500000920E-02 0. -1.
</event>
<event>
 5   0  0.1413011E-05  0.1900244E+04  0.7818609E-02  0.8654735E-01
       -1   -1    0    0    0  501  0.00000000000E+00  0.00000000000E+00  0.85039816358E+03  0.85039816359E+03  0.50400001928E-02 0.  1.
        1   -1    0    0  501    0  0.00000000000E+00  0.00000000000E+00 -0.10615401576E+04  0.10615401576E+04  0.50400001928E-02 0. -1.
    10030    2    1    2    0    0  0.00000000000E+00  0.00000000000E+00 -0.21114199405E+03  0.19119383212E+04  0.19002439850E+04 0.  0.
        1    1    3    3  502    0  0.32206415335E+03  0.31296113277E+03  0.73687615537E+03  0.86293479352E+03  0.50400001928E-02 0.  1.
       -1    1    3    3    0  502 -0.32206415335E+03 -0.31296113277E+03 -0.94801814942E+03  0.10490035277E+04  0.50400001928E-02 0. -1.
</event>
<event>
 5   0  0.2888776E-05  0.1903859E+04  0.7818609E-02  0.8652938E-01
       -2   -1    0    0    0  501  0.00000000000E+00  0.00000000000E+00  0.49411655513E+03  0.49411655514E+03  0.25500000920E-02 0. -1.
        2   -1    0    0  501    0  0.00000000000E+00  0.00000000000E+00 -0.18339200192E+04  0.18339200193E+04  0.25500000920E-02 0.  1.
    10030    2    1    2    0    0  0.00000000000E+00  0.00000000000E+00 -0.13398034641E+04  0.23280365744E+04  0.19038594930E+04 0.  0.
        3    1    3    3  502    0 -0.38392340005E+03 -0.53107071256E+03 -0.15141969190E+04  0.16499168459E+04  0.10100000352E+00 0.  1.
       -3    1    3    3    0  502  0.38392340005E+03  0.53107071256E+03  0.17439345486E+03  0.67811972847E+03  0.10100000352E+00 0. -1.
</event>
<event>
 5   0  0.2888776E-05  0.1898254E+04  0.7818609E-02  0.8655726E-01
       -2   -1    0    0    0  501  0.00000000000E+00  0.00000000000E+00  0.85113964356E+03  0.85113964357E+03  0.25500000920E-02 0.  1.
        2   -1    0    0  501    0  0.00000000000E+00  0.00000000000E+00 -0.10583951030E+04  0.10583951030E+04  0.25500000920E-02 0. -1.
    10030    2    1    2    0    0  0.00000000000E+00  0.00000000000E+00 -0.20725545939E+03  0.19095347465E+04  0.18982539669E+04 0.  0.
        3    1    3    3  502    0 -0.57512836533E+02  0.93086321850E+03 -0.28082208322E+03  0.97399954340E+03  0.10100000352E+00 0. -1.
       -3    1    3    3    0  502  0.57512836533E+02 -0.93086321850E+03  0.73566623828E+02  0.93553520312E+03  0.10100000352E+00 0.  1.
</event>
<event>
 5   0  0.2879462E-05  0.1901455E+04  0.7818609E-02  0.8654132E-01
        2   -1    0    0  501    0  0.00000000000E+00  0.00000000000E+00  0.11231978152E+04  0.11231978152E+04  0.25500000920E-02 0. -1.
       -2   -1    0    0    0  501  0.00000000000E+00  0.00000000000E+00 -0.80474058539E+03  0.80474058539E+03  0.25500000920E-02 0.  1.
    10030    2    1    2    0    0  0.00000000000E+00  0.00000000000E+00  0.31845722977E+03  0.19279384006E+04  0.19014550926E+04 0.  0.
        4    1    3    3  502    0 -0.93602892024E+03  0.21809827720E+02 -0.81630116860E+01  0.93631941973E+03  0.12699999809E+01 0.  1.
       -4    1    3    3    0  502  0.93602892024E+03 -0.21809827720E+02  0.32662024145E+03  0.99161898082E+03  0.12699999809E+01 0. -1.
</event>
<event>
 5   0  0.1471485E-05  0.1896783E+04  0.7818609E-02  0.8656459E-01
       -1   -1    0    0    0  501  0.00000000000E+00  0.00000000000E+00  0.82149680930E+03  0.82149680932E+03  0.50400001928E-02 0. -1.
        1   -1    0    0  501    0  0.00000000000E+00  0.00000000000E+00 -0.10948873899E+04  0.10948873899E+04  0.50400001928E-02 0.  1.
    10030    2    1    2    0    0  0.00000000000E+00  0.00000000000E+00 -0.27339058060E+03  0.19163841992E+04  0.18967830634E+04 0.  0.
        4    1    3    3  502    0  0.17957586550E+03  0.16048509927E+03  0.79008543298E+03  0.82597794333E+03  0.12699999809E+01 0. -1.
       -4    1    3    3    0  502 -0.17957586550E+03 -0.16048509927E+03 -0.10634760136E+04  0.10904062559E+04  0.12699999809E+01 0.  1.
</event>
<event>
 5   0  0.1471485E-05  0.1899265E+04  0.7818609E-02  0.8655222E-01
       -1   -1    0    0    0  501  0.00000000000E+00  0.00000000000E+00  0.83846594837E+03  0.83846594839E+03  0.50400001928E-02 0. -1.
        1   -1    0    0  501    0  0.00000000000E+00  0.00000000000E+00 -0.10755376497E+04  0.10755376497E+04  0.50400001928E-02 0.  1.
    10030    2    1    2    0    0  0.00000000000E+00  0.00000000000E+00 -0.23707170134E+03  0.19140035981E+04  0.18992648004E+04 0.  0.
        4    1    3    3  502    0  0.13896215012E+02 -0.63432173285E+03 -0.83059027046E+03  0.10451980558E+04  0.12699999809E+01 0.  1.
       -4    1    3    3    0  502 -0.13896215012E+02  0.63432173285E+03  0.59351856912E+03  0.86880554231E+03  0.12699999809E+01 0. -1.
</event>
<event>
 5   0  0.2789718E-05  0.1898999E+04  0.7818609E-02  0.8655355E-01
        2   -1    0    0  501    0  0.00000000000E+00  0.00000000000E+00  0.68530939577E+03  0.68530939577E+03  0.25500000920E-02 0.  1.
       -2   -1    0    0    0  501  0.00000000000E+00  0.00000000000E+00 -0.13155356760E+04  0.13155356760E+04  0.25500000920E-02 0. -1.
    10030    2    1    2    0    0  0.00000000000E+00  0.00000000000E+00 -0.63022628020E+03  0.20008450717E+04  0.18989986406E+04 0.  0.
        5    1    3    3  502    0  0.49629809512E+02 -0.89324775328E+03 -0.65024785022E+03  0.11059832835E+04  0.46999998093E+01 0. -1.
       -5    1    3    3    0  502 -0.49629809512E+02  0.89324775328E+03  0.20021570015E+02  0.89486178821E+03  0.46999998093E+01 0.  1.
</event>
<event>
 5   0  0.1471485E-05  0.1909107E+04  0.7818609E-02  0.8650336E-01
       -1   -1    0    0    0  501  0.00000000000E+00  0.00000000000E+00  0.11447242883E+04  0.11447242883E+04  0.50400001928E-02 0. -1.
        1   -1    0    0  501    0  0.00000000000E+00  0.00000000000E+00 -0.79597547229E+03  0.79597547231E+03  0.50400001928E-02 0.  1.
    10030    2    1    2    0    0  0.00000000000E+00  0.00000000000E+00  0.34874881601E+03  0.19406997606E+04  0.19091070751E+04 0.  0.
        4    1    3    3  502    0 -0.25687622116E+03  0.82238513406E+03 -0.24336161418E+03  0.89528162602E+03  0.12699999809E+01 0.  1.
       -4    1    3    3    0  502  0.25687622116E+03 -0.82238513406E+03  0.59211043019E+03  0.10454181346E+04  0.12699999809E+01 0. -1.
</event>
<event>
 5   0  0.2888776E-05  0.1882308E+04  0.7818609E-02  0.8663714E-01
        2   -1    0    0  501    0  0.00000000000E+00  0.00000000000E+00  0.12921345310E+04  0.12921345310E+04  0.25500000920E-02 0.  1.
       -2   -1    0    0    0  501  0.00000000000E+00  0.00000000000E+00 -0.68550941315E+03  0.68550941315E+03  0.25500000920E-02 0. -1.
    10030    2    1    2    0    0  0.00000000000E+00  0.00000000000E+00  0.60662511783E+03  0.19776439441E+04  0.18823075031E+04 0.  0.
        3    1    3    3  502    0  0.14528664468E+03  0.11148525008E+03 -0.66660931931E+03  0.69130685292E+03  0.10100000352E+00 0. -1.
       -3    1    3    3    0  502 -0.14528664468E+03 -0.11148525008E+03  0.12732344371E+04  0.12863370912E+04  0.10100000352E+00 0.  1.
</event>
<event>
 5   0  0.2789718E-05  0.1899471E+04  0.7818609E-02  0.8655120E-01
        2   -1    0    0  501    0  0.00000000000E+00  0.00000000000E+00  0.12049972129E+04  0.12049972129E+04  0.25500000920E-02 0.  1.
       -2   -1    0    0    0  501  0.00000000000E+00  0.00000000000E+00 -0.74854726336E+03  0.74854726337E+03  0.25500000920E-02 0. -1.
    10030    2    1    2    0    0  0.00000000000E+00  0.00000000000E+00  0.45644994958E+03  0.19535444763E+04  0.18994708380E+04 0.  0.
        5    1    3    3  502    0 -0.70205564439E+03  0.46558336688E+03  0.67925853310E+03  0.10821572178E+04  0.46999998093E+01 0. -1.
       -5    1    3    3    0  502  0.70205564439E+03 -0.46558336688E+03 -0.22280858353E+03  0.87138725847E+03  0.46999998093E+01 0.  1.
</event>
<event>
 5   0  0.1471485E-05  0.1897473E+04  0.7818609E-02  0.8656115E-01
        1   -1    0    0  501    0  0.00000000000E+00  0.00000000000E+00  0.96410447510E+03  0.96410447511E+03  0.50400001928E-02 0.  1.
       -1   -1    0    0    0  501  0.00000000000E+00  0.00000000000E+00 -0.93361389063E+03  0.93361389064E+03  0.50400001928E-02 0. -1.
    10030    2    1    2    0    0  0.00000000000E+00  0.00000000000E+00  0.30490584471E+02  0.18977183658E+04  0.18974734043E+04 0.  0.
        4    1    3    3  502    0 -0.35209840622E+03  0.74912566319E+03  0.47891831282E+03  0.95630900349E+03  0.12699999809E+01 0.  1.
       -4    1    3    3    0  502  0.35209840622E+03 -0.74912566319E+03 -0.44842772835E+03  0.94140936227E+03  0.12699999809E+01 0. -1.
</event>
<event>
 5   0  0.1429067E-05  0.1900888E+04  0.7818609E-02  0.8654414E-01
        1   -1    0    0  501    0  0.00000000000E+00  0.00000000000E+00  0.76072445961E+03  0.76072445962E+03  0.50400001928E-02 0. -1.
       -1   -1    0    0    0  501  0.00000000000E+00  0.00000000000E+00 -0.11874786462E+04  0.11874786462E+04  0.50400001928E-02 0.  1.
    10030    2    1    2    0    0  0.00000000000E+00  0.00000000000E+00 -0.42675418656E+03  0.19482031058E+04  0.19008882675E+04 0.  0.
        3    1    3    3  502    0 -0.72209623086E+03  0.56048120850E+03 -0.48020698305E+03  0.10325506808E+04  0.10100000352E+00 0. -1.
       -3    1    3    3    0  502  0.72209623086E+03 -0.56048120850E+03  0.53452796496E+02  0.91565242497E+03  0.10100000352E+00 0.  1.
</event>
<event>
 5   0  0.1471485E-05  0.1898053E+04  0.7818609E-02  0.8655826E-01
        1   -1    0    0  501    0  0.00000000000E+00  0.00000000000E+00  0.17345641080E+04  0.17345641080E+04  0.50400001928E-02 0. -1.
       -1   -1    0    0    0  501  0.00000000000E+00  0.00000000000E+00 -0.51923763934E+03  0.51923763936E+03  0.50400001928E-02 0.  1.
    10030    2    1    2    0    0  0.00000000000E+00  0.00000000000E+00  0.12153264686E+04  0.22538017473E+04  0.18980526576E+04 0.  0.
        4    1    3    3  502    0  0.62023920616E+03  0.14533762104E+02 -0.24509019718E+03  0.66706725355E+03  0.12699999809E+01 0.  1.
       -4    1    3    3    0  502 -0.62023920616E+03 -0.14533762104E+02  0.14604166658E+04  0.15867344938E+04  0.12699999809E+01 0. -1.
</event>
<event>
 5   0  0.2789718E-05  0.1899177E+04  0.7818609E-02  0.8655266E-01
       -2   -1    0    0    0  501  0.00000000000E+00  0.00000000000E+00  0.11017499553E+04  0.11017499553E+04  0.25500000920E-02 0.  1.
        2   -1    0    0  501    0  0.00000000000E+00  0.00000000000E+00 -0.81844210547E+03  0.81844210547E+03  0.25500000920E-02 0. -1.
    10030    2    1    2    0    0  0.00000000000E+00  0.00000000000E+00  0.28330784980E+03  0.19201920607E+04  0.18991772462E+04 0.  0.
        5    1    3    3  502    0  0.82845513791E+03  0.27144752559E+03  0.52221595720E+03  0.10162446903E+04  0.46999998093E+01 0.  1.
       -5    1    3    3    0  502 -0.82845513791E+03 -0.27144752559E+03 -0.23890810740E+03  0.90394737041E+03  0.46999998093E+01 0. -1.
</event>
<event>
 5   0  0.1471485E-05  0.1895231E+04  0.7818609E-02  0.8657234E-01
       -1   -1    0    0    0  501  0.00000000000E+00  0.00000000000E+00  0.45637306419E+03  0.45637306422E+03  0.50400001928E-02 0. -1.
        1   -1    0    0  501    0  0.00000000000E+00  0.00000000000E+00 -0.19676337329E+04  0.19676337329E+04  0.50400001928E-02 0.  1.
    10030    2    1    2    0    0  0.00000000000E+00  0.00000000000E+00 -0.15112606687E+04  0.24240067972E+04  0.18952308946E+04 0.  0.
        4    1    3    3  502    0 -0.37308934200E+03 -0.24842719489E+03 -0.18234731127E+04  0.18777559836E+04  0.12699999809E+01 0.  1.
       -4    1    3    3    0  502  0.37308934200E+03  0.24842719489E+03  0.31221244395E+03  0.54625081357E+03  0.12699999809E+01 0. -1.
</event>
<event>
 5   0  0.1344119E-05  0.1900812E+04  0.7818609E-02  0.8654452E-01
       -1   -1    0    0    0  501  0.00000000000E+00  0.00000000000E+00  0.59674525130E+03  0.59674525132E+03  0.50400001928E-02 0.  1.
        1   -1    0    0  501    0  0.00000000000E+00  0.00000000000E+00 -0.15136633280E+04  0.15136633280E+04  0.50400001928E-02 0. -1.
    10030    2    1    2    0    0  0.00000000000E+00  0.00000000000E+00 -0.91691807669E+03  0.21104085793E+04  0.19008118298E+04 0.  0.
        2    1    3    3  502    0 -0.12701183518E+03  0.39898130080E+03  0.48882273826E+03  0.64363479871E+03  0.25500000920E-02 0.  1.
       -2    1    3    3    0  502  0.12701183518E+03 -0.39898130080E+03 -0.14057408149E+04  0.14667737806E+04  0.25500000920E-02 0. -1.
</event>
<event>
 5   0  0.1327254E-05  0.1916111E+04  0.7818609E-02  0.8646878E-01
       -1   -1    0    0    0  501  0.00000000000E+00  0.00000000000E+00  0.65044745286E+03  0.65044745287E+03  0.50400001928E-02 0. -1.
        1   -1    0    0  501    0  0.00000000000E+00  0.00000000000E+00 -0.14111368380E+04  0.14111368381E+04  0.50400001928E-02 0.  1.
    10030    2    1    2    0    0  0.00000000000E+00  0.00000000000E+00 -0.76068938519E+03  0.20615842909E+04  0.19161110218E+04 0.  0.
        5    1    3    3  502    0 -0.80599082005E+03 -0.10988387057E+02 -0.93744571741E+03  0.12363529066E+04  0.46999998093E+01 0.  1.
       -5    1    3    3    0  502  0.80599082005E+03  0.10988387057E+02  0.17675633222E+03  0.82523138430E+03  0.46999998093E+01 0. -1.
</event>
<event>
 5   0  0.2813537E-05  0.1901367E+04  0.7818609E-02  0.8654176E-01
        2   -1    0    0  501    0  0.00000000000E+00  0.00000000000E+00  0.10490328415E+04  0.10490328415E+04  0.25500000920E-02 0.  1.
       -2   -1    0    0    0  501  0.00000000000E+00  0.00000000000E+00 -0.86155470402E+03  0.86155470402E+03  0.25500000920E-02 0. -1.
    10030    2    1    2    0    0  0.00000000000E+00  0.00000000000E+00  0.18747813743E+03  0.19105875455E+04  0.19013670653E+04 0.  0.
        2    1    3    3  502    0 -0.75556986637E+03  0.49825018584E+03  0.38611417046E+03  0.98398334503E+03  0.25500000920E-02 0.  1.
       -2    1    3    3    0  502  0.75556986637E+03 -0.49825018584E+03 -0.19863603303E+03  0.92660420045E+03  0.25500000920E-02 0. -1.
</event>
<event>
 5   0  0.2879462E-05  0.1896924E+04  0.7818609E-02  0.8656389E-01
       -2   -1    0    0    0  501  0.00000000000E+00  0.00000000000E+00  0.12191374250E+04  0.12191374250E+04  0.25500000920E-02 0.  1.
        2   -1    0    0  501    0  0.00000000000E+00  0.00000000000E+00 -0.73788264894E+03  0.73788264895E+03  0.25500000920E-02 0. -1.
    10030    2    1    2    0    0  0.00000000000E+00  0.00000000000E+00  0.48125477601E+03  0.19570200739E+04  0.18969241973E+04 0.  0.
        4    1    3    3  502    0  0.43665241287E+03 -0.76713298151E+03 -0.11738275765E+03  0.89047103584E+03  0.12699999809E+01 0.  1.
       -4    1    3    3    0  502 -0.43665241287E+03  0.76713298151E+03  0.59863753367E+03  0.10665490381E+04  0.12699999809E+01 0. -1.
</event>
<event>
 5   0  0.2888776E-05  0.1891791E+04  0.7818609E-02  0.8658953E-01
       -2   -1    0    0    0  501  0.00000000000E+00  0.00000000000E+00  0.54166974217E+03  0.54166974217E+03  0.25500000920E-02 0. -1.
        2   -1    0    0  501    0  0.00000000000E+00  0.00000000000E+00 -0.16517777835E+04  0.16517777835E+04  0.25500000920E-02 0.  1.
    10030    2    1    2    0    0  0.00000000000E+00  0.00000000000E+00 -0.11101080413E+04  0.21934475257E+04  0.18917907348E+04 0.  0.
        3    1    3    3  502    0  0.29073344893E+03  0.77036232231E+03 -0.15272928046E+02  0.82353950633E+03  0.10100000352E+00 0. -1.
       -3    1    3    3    0  502 -0.29073344893E+03 -0.77036232231E+03 -0.10948351133E+04  0.13699080193E+04  0.10100000352E+00 0.  1.
</event>
<event>
 5   0  0.1413011E-05  0.1889426E+04  0.7818609E-02  0.8660138E-01
        1   -1    0    0  501    0  0.00000000000E+00  0.00000000000E+00  0.11066970414E+04  0.11066970414E+04  0.50400001928E-02 0. -1.
       -1   -1    0    0    0  501  0.00000000000E+00  0.00000000000E+00 -0.80643834152E+03  0.80643834153E+03  0.50400001928E-02 0.  1.
    10030    2    1    2    0    0  0.00000000000E+00  0.00000000000E+00  0.30025869990E+03  0.19131353830E+04  0.18894262903E+04 0.  0.
        1    1    3    3  502    0 -0.67601817527E+03 -0.43496677536E+03 -0.35237038816E+03  0.87770243217E+03  0.50400001928E-02 0.  1.
       -1    1    3    3    0  502  0.67601817527E+03  0.43496677536E+03  0.65262908806E+03  0.10354329508E+04  0.50400001928E-02 0. -1.
</event>
<event>
 5   0  0.1429067E-05  0.1900036E+04  0.7818609E-02  0.8654838E-01
       -1   -1    0    0    0  501  0.00000000000E+00  0.00000000000E+00  0.87435309502E+03  0.87435309504E+03  0.50400001928E-02 0. -1.
        1   -1    0    0  501    0  0.00000000000E+00  0.00000000000E+00 -0.10322311708E+04  0.10322311708E+04  0.50400001928E-02 0.  1.
    10030    2    1    2    0    0  0.00000000000E+00  0.00000000000E+00 -0.15787807580E+03  0.19065842659E+04  0.19000363355E+04 0.  0.
        3    1    3    3  502    0  0.14328185500E+03  0.74208000598E+03 -0.65652853884E+03  0.10011204512E+04  0.10100000352E+00 0.  1.
       -3    1    3    3    0  502 -0.14328185500E+03 -0.74208000598E+03  0.49865046304E+03  0.90546381470E+03  0.10100000352E+00 0. -1.
</event>
<event>
 5   0  0.1327254E-05  0.1901714E+04  0.7818609E-02  0.8654003E-01
        1   -1    0    0  501    0  0.00000000000E+00  0.00000000000E+00  0.10602893816E+04  0.10602893816E+04  0.50400001928E-02 0.  1.
       -1   -1    0    0    0  501  0.00000000000E+00  0.00000000000E+00 -0.85271947880E+03  0.85271947881E+03  0.50400001928E-02 0. -1.
    10030    2    1    2    0    0  0.00000000000E+00  0.00000000000E+00  0.20756990283E+03  0.19130088605E+04  0.19017143938E+04 0.  0.
        5    1    3    3  502    0 -0.34573973524E+02  0.10092325893E+03  0.10542384866E+04  0.10596328328E+04  0.46999998093E+01 0.  1.
       -5    1    3    3    0  502  0.34573973524E+02 -0.10092325893E+03 -0.84666858374E+03  0.85337602763E+03  0.46999998093E+01 0. -1.
</event>
<event>
 5   0  0.1327254E-05  0.1893004E+04  0.7818609E-02  0.8658346E-01
       -1   -1    0    0    0  501  0.00000000000E+00  0.00000000000E+00  0.78775826209E+03  0.78775826210E+03  0.50400001928E-02 0.  1.
        1   -1    0    0  501    0  0.00000000000E+00  0.00000000000E+00 -0.11372352168E+04  0.11372352169E+04  0.50400001928E-02 0. -1.
    10030    2    1    2    0    0  0.00000000000E+00  0.00000000000E+00 -0.34947695476E+03  0.19249934790E+04  0.18930044248E+04 0.  0.
        5    1    3    3  502    0  0.47878967119E+03 -0.24633425058E+03  0.61682690963E+03  0.81879035088E+03  0.46999998093E+01 0.  1.
       -5    1    3    3    0  502 -0.47878967119E+03  0.24633425058E+03 -0.96630386439E+03  0.11062031281E+04  0.46999998093E+01 0. -1.
</event>
<event>
 5   0  0.2813537E-05  0.1914575E+04  0.7818609E-02  0.8647635E-01
        2   -1    0    0  501    0  0.00000000000E+00  0.00000000000E+00  0.11219466044E+04  0.11219466044E+04  0.25500000920E-02 0. -1.
       -2   -1    0    0    0  501  0.00000000000E+00  0.00000000000E+00 -0.81679403453E+03  0.81679403453E+03  0.25500000920E-02 0.  1.
    10030    2    1    2    0    0  0.00000000000E+00  0.00000000000E+00  0.30515256985E+03  0.19387406389E+04  0.19145749330E+04 0.  0.
        2    1    3    3  502    0  0.53313027079E+03 -0.36998216265E+03  0.86522377646E+03  0.10815391207E+04  0.25500000920E-02 0. -1.
       -2    1    3    3    0  502 -0.53313027079E+03  0.36998216265E+03 -0.56007120660E+03  0.85720151819E+03  0.25500000920E-02 0.  1.
</event>
<event>
 5   0  0.2813537E-05  0.1904322E+04  0.7818609E-02  0.8652708E-01
       -2   -1    0    0    0  501  0.00000000000E+00  0.00000000000E+00  0.35350793121E+03  0.35350793122E+03  0.25500000920E-02 0. -1.
        2   -1    0    0  501    0  0.00000000000E+00  0.00000000000E+00 -0.25646123688E+04  0.25646123688E+04  0.25500000920E-02 0.  1.
    10030    2    1    2    0    0  0.00000000000E+00  0.00000000000E+00 -0.22111044376E+04  0.29181203000E+04  0.19043222551E+04 0.  0.
        2    1    3    3  502    0  0.84503666348E+02 -0.90619242350E+03 -0.15343007825E+04  0.17839295023E+04  0.25500000920E-02 0.  1.
       -2    1    3    3    0  502 -0.84503666348E+02  0.90619242350E+03 -0.67680365507E+03  0.11341907977E+04  0.25500000920E-02 0. -1.
</event>
<event>
 5   0  0.1429067E-05  0.1901262E+04  0.7818609E-02  0.8654229E-01
       -1   -1    0    0    0  501  0.00000000000E+00  0.00000000000E+00  0.62272845440E+03  0.62272845442E+03  0.50400001928E-02 0. -1.
        1   -1    0    0  501    0  0.00000000000E+00  0.00000000000E+00 -0.14511929650E+04  0.14511929650E+04  0.50400001928E-02 0.  1.
    10030    2    1    2    0    0  0.00000000000E+00  0.00000000000E+00 -0.82846451060E+03  0.20739214194E+04  0.19012618464E+04 0.  0.
        3    1    3    3  502    0  0.30757646082E+03  0.72803314831E+03  0.16200582952E+03  0.80677223756E+03  0.10100000352E+00 0. -1.
       -3    1    3    3    0  502 -0.30757646082E+03 -0.72803314831E+03 -0.99047034012E+03  0.12671491819E+04  0.10100000352E+00 0.  1.
</event>
<event>
 5   0  0.1413011E-05  0.1901003E+04  0.7818609E-02  0.8654357E-01
        1   -1    0    0  501    0  0.00000000000E+00  0.00000000000E+00  0.20448067498E+04  0.20448067498E+04  0.50400001928E-02 0.  1.
       -1   -1    0    0    0  501  0.00000000000E+00  0.00000000000E+00 -0.44182801979E+03  0.44182801982E+03  0.50400001928E-02 0. -1.
    10030    2    1    2    0    0  0.00000000000E+00  0.00000000000E+00  0.16029787300E+04  0.24866347697E+04  0.19010028061E+04 0.  0.
        1    1    3    3  502    0  0.49926655869E+03  0.77646495881E+03  0.50525388254E+03  0.10523527996E+04  0.50400001928E-02 0. -1.
       -1    1    3    3    0  502 -0.49926655869E+03 -0.77646495881E+03  0.10977248475E+04  0.14342819701E+04  0.50400001928E-02 0.  1.
</event>
<event>
 5   0  0.2888776E-05  0.1897983E+04  0.7818609E-02  0.8655861E-01
        2   -1    0    0  501    0  0.00000000000E+00  0.00000000000E+00  0.11471823423E+04  0.11471823423E+04  0.25500000920E-02 0.  1.
       -2   -1    0    0    0  501  0.00000000000E+00  0.00000000000E+00 -0.78504106001E+03  0.78504106002E+03  0.25500000920E-02 0. -1.
    10030    2    1    2    0    0  0.00000000000E+00  0.00000000000E+00  0.36214128229E+03  0.19322234023E+04  0.18979833951E+04 0.  0.
        3    1    3    3  502    0 -0.81973466461E+03  0.38208997338E+02  0.66628229840E+03  0.10570510675E+04  0.10100000352E+00 0.  1.
       -3    1    3    3    0  502  0.81973466461E+03 -0.38208997338E+02 -0.30414101611E+03  0.87517233487E+03  0.10100000352E+00 0. -1.
</event>
<event>
 5   0  0.2789718E-05  0.1868874E+04  0.7818609E-02  0.8670507E-01
        2   -1    0    0  501    0  0.00000000000E+00  0.00000000000E+00  0.10793470955E+04  0.10793470955E+04  0.25500000920E-02 0. -1.
       -2   -1    0    0    0  501  0.00000000000E+00  0.00000000000E+00 -0.80898174000E+03  0.80898174001E+03  0.25500000920E-02 0.  1.
    10030    2    1    2    0    0  0.00000000000E+00  0.00000000000E+00  0.27036535548E+03  0.18883288355E+04  0.18688735552E+04 0.  0.
        5    1    3    3  502    0  0.65539427734E+03 -0.23064748625E+02 -0.53738655438E+03  0.84786793796E+03  0.46999998093E+01 0.  1.
       -5    1    3    3    0  502 -0.65539427734E+03  0.23064748625E+02  0.80775190986E+03  0.10404608975E+04  0.46999998093E+01 0. -1.
</event>
<event>
 5   0  0.1344119E-05  0.1933547E+04  0.7818609E-02  0.8638336E-01
       -1   -1    0    0    0  501  0.00000000000E+00  0.00000000000E+00  0.10856424985E+04  0.10856424985E+04  0.50400001928E-02 0. -1.
        1   -1    0    0  501    0  0.00000000000E+00  0.00000000000E+00 -0.86091936034E+03  0.86091936036E+03  0.50400001928E-02 0.  1.
    10030    2    1    2    0    0  0.00000000000E+00  0.00000000000E+00  0.22472313816E+03  0.19465618589E+04  0.19335466329E+04 0.  0.
        2    1    3    3  502    0 -0.70408579289E+03 -0.52183669886E+03  0.52327605351E+03  0.10207194385E+04  0.25500000920E-02 0.  1.
       -2    1    3    3    0  502  0.70408579289E+03  0.52183669886E+03 -0.29855291535E+03  0.92584242034E+03  0.25500000920E-02 0. -1.
</event>
<event>
 5   0  0.1344119E-05  0.1901048E+04  0.7818609E-02  0.8654335E-01
       -1   -1    0    0    0  501  0.00000000000E+00  0.00000000000E+00  0.13560300420E+04  0.13560300420E+04  0.50400001928E-02 0.  1.
        1   -1    0    0  501    0  0.00000000000E+00  0.00000000000E+00 -0.66628003227E+03  0.66628003228E+03  0.50400001928E-02 0. -1.
    10030    2    1    2    0    0  0.00000000000E+00  0.00000000000E+00  0.68975000975E+03  0.20223100743E+04  0.19010478586E+04 0.  0.
        2    1    3    3  502    0  0.51444871509E+02  0.75460287655E+03 -0.26754088747E+03  0.80227813292E+03  0.25500000920E-02 0. -1.
       -2    1    3    3    0  502 -0.51444871509E+02 -0.75460287655E+03  0.95729089721E+03  0.12200319414E+04  0.25500000920E-02 0.  1.
</event>
<event>
 5   0  0.1429067E-05  0.1900654E+04  0.7818609E-02  0.8654531E-01
       -1   -1    0    0    0  501  0.00000000000E+00  0.00000000000E+00  0.66613864504E+03  0.66613864506E+03  0.50400001928E-02 0.  1.
        1   -1    0    0  501    0  0.00000000000E+00  0.00000000000E+00 -0.13557563078E+04  0.13557563078E+04  0.50400001928E-02 0. -1.
    10030    2    1    2    0    0  0.00000000000E+00  0.00000000000E+00 -0.68961766272E+03  0.20218949528E+04  0.19006542767E+04 0.  0.
        3    1    3    3  502    0  0.67688707350E+03 -0.42856461162E+03 -0.88856828251E+03  0.11964101886E+04  0.10100000352E+00 0.  1.
       -3    1    3    3    0  502 -0.67688707350E+03  0.42856461162E+03  0.19895061979E+03  0.82548476419E+03  0.10100000352E+00 0. -1.
</event>
<event>
 5   0  0.2888776E-05  0.1896143E+04  0.7818609E-02  0.8656779E-01
       -2   -1    0    0    0  501  0.00000000000E+00  0.00000000000E+00  0.72918374737E+03  0.72918374738E+03  0.25500000920E-02 0. -1.
        2   -1    0    0  501    0  0.00000000000E+00  0.00000000000E+00 -0.12326656427E+04  0.12326656427E+04  0.25500000920E-02 0.  1.
    10030    2    1    2    0    0  0.00000000000E+00  0.00000000000E+00 -0.50348189532E+03  0.19618493901E+04  0.18961431935E+04 0.  0.
        3    1    3    3  502    0  0.19581798505E+03 -0.22919315010E+03 -0.11817580965E+04  0.12196009151E+04  0.10100000352E+00 0.  1.
       -3    1    3    3    0  502 -0.19581798505E+03  0.22919315010E+03  0.67827620116E+03  0.74224847496E+03  0.10100000352E+00 0. -1.
</event>
<event>
 5   0  0.1327254E-05  0.1898209E+04  0.7818609E-02  0.8655749E-01
       -1   -1    0    0    0  501  0.00000000000E+00  0.00000000000E+00  0.13545927169E+04  0.13545927169E+04  0.50400001928E-02 0. -1.
        1   -1    0    0  501    0  0.00000000000E+00  0.00000000000E+00 -0.66499616650E+03  0.66499616652E+03  0.50400001928E-02 0.  1.
    10030    2    1    2    0    0  0.00000000000E+00  0.00000000000E+00  0.68959655042E+03  0.20195888834E+04  0.18982085912E+04 0.  0.
        5    1    3    3  502    0  0.88303777922E+03  0.10230659843E+02 -0.25167712121E+02  0.88346810336E+03  0.46999998093E+01 0.  1.
       -5    1    3    3    0  502 -0.88303777922E+03 -0.10230659843E+02  0.71476426254E+03  0.11361207801E+04  0.46999998093E+01 0. -1.
</event>
<event>
 5   0  0.1471485E-05  0.1903957E+04  0.7818609E-02  0.8652889E-01
        1   -1    0    0  501    0  0.00000000000E+00  0.00000000000E+00  0.10656851906E+04  0.10656851906E+04  0.50400001928E-02 0.  1.
       -1   -1    0    0    0  501  0.00000000000E+00  0.00000000000E+00 -0.85040454055E+03  0.85040454057E+03  0.50400001928E-02 0. -1.
    10030    2    1    2    0    0  0.00000000000E+00  0.00000000000E+00  0.21528065007E+03  0.19160897312E+04  0.19039574837E+04 0.  0.
        4    1    3    3  502    0 -0.83794283342E+03  0.35507177705E+03 -0.17349212373E+03  0.92645846579E+03  0.12699999809E+01 0.  1.
       -4    1    3    3    0  502  0.83794283342E+03 -0.35507177705E+03  0.38877277380E+03  0.98963126542E+03  0.12699999809E+01 0. -1.
</event>
<event>
 5   0  0.2888776E-05  0.1888478E+04  0.7818609E-02  0.8660613E-01
       -2   -1    0    0    0  501  0.00000000000E+00  0.00000000000E+00  0.37943159267E+03  0.37943159268E+03  0.25500000920E-02 0.  1.
        2   -1    0    0  501    0  0.00000000000E+00  0.00000000000E+00 -0.23497965892E+04  0.23497965892E+04  0.25500000920E-02 0. -1.
    10030    2    1    2    0    0  0.00000000000E+00  0.00000000000E+00 -0.19703649966E+04  0.27292281819E+04  0.18884777598E+04 0.  0.
        3    1    3    3  502    0  0.16382984064E+03  0.87471283324E+02 -0.23231408902E+04  0.23305525199E+04  0.10100000352E+00 0. -1.
       -3    1    3    3    0  502 -0.16382984064E+03 -0.87471283324E+02  0.35277589368E+03  0.39867566197E+03  0.10100000352E+00 0.  1.
</event>
<event>
 5   0  0.2789718E-05  0.1887891E+04  0.7818609E-02  0.8660907E-01
        2   -1    0    0  501    0  0.00000000000E+00  0.00000000000E+00  0.57773464619E+03  0.57773464619E+03  0.25500000920E-02 0.  1.
       -2   -1    0    0    0  501  0.00000000000E+00  0.00000000000E+00 -0.15422876955E+04  0.15422876955E+04  0.25500000920E-02 0. -1.
    10030    2    1    2    0    0  0.00000000000E+00  0.00000000000E+00 -0.96455304932E+03  0.21200223417E+04  0.18878909249E+04 0.  0.
        5    1    3    3  502    0  0.31186326926E+03  0.57321605379E+03  0.28362335904E+03  0.71154735810E+03  0.46999998093E+01 0.  1.
       -5    1    3    3    0  502 -0.31186326926E+03 -0.57321605379E+03 -0.12481764084E+04  0.14084749836E+04  0.46999998093E+01 0. -1.
</event>
<event>
 5   0  0.2789718E-05  0.1900904E+04  0.7818609E-02  0.8654406E-01
        2   -1    0    0  501    0  0.00000000000E+00  0.00000000000E+00  0.15315198614E+04  0.15315198614E+04  0.25500000920E-02 0. -1.
       -2   -1    0    0    0  501  0.00000000000E+00  0.00000000000E+00 -0.58984507384E+03  0.58984507384E+03  0.25500000920E-02 0.  1.
    10030    2    1    2    0    0  0.00000000000E+00  0.00000000000E+00  0.94167478760E+03  0.21213649353E+04  0.19009044645E+04 0.  0.
        5    1    3    3  502    0  0.61658530673E+03 -0.65112772150E+03  0.11936214703E+03  0.90466245768E+03  0.46999998093E+01 0. -1.
       -5    1    3    3    0  502 -0.61658530673E+03  0.65112772150E+03  0.82231264057E+03  0.12167024776E+04  0.46999998093E+01 0.  1.
</event>
<event>
 5   0  0.2789718E-05  0.1903991E+04  0.7818609E-02  0.8652873E-01
       -2   -1    0    0    0  501  0.00000000000E+00  0.00000000000E+00  0.51625792418E+03  0.51625792418E+03  0.25500000920E-02 0. -1.
        2   -1    0    0  501    0  0.00000000000E+00  0.00000000000E+00 -0.17555082472E+04  0.17555082472E+04  0.25500000920E-02 0.  1.
    10030    2    1    2    0    0  0.00000000000E+00  0.00000000000E+00 -0.12392503230E+04  0.22717661713E+04  0.19039905920E+04 0.  0.
        5    1    3    3  502    0  0.10860586331E+03  0.88523359221E+03 -0.22239196451E+03  0.91919204860E+03  0.46999998093E+01 0. -1.
       -5    1    3    3    0  502 -0.10860586331E+03 -0.88523359221E+03 -0.10168583585E+04  0.13525741227E+04  0.46999998093E+01 0.  1.
</event>
<event>
 5   0  0.2813537E-05  0.1895690E+04  0.7818609E-02  0.8657005E-01
        2   -1    0    0  501    0  0.00000000000E+00  0.00000000000E+00  0.10623010594E+04  0.10623010594E+04  0.25500000920E-02 0.  1.
       -2   -1    0    0    0  501  0.00000000000E+00  0.00000000000E+00 -0.84572107310E+03  0.84572107310E+03  0.25500000920E-02 0. -1.
    10030    2    1    2    0    0  0.00000000000E+00  0.00000000000E+00  0.21657998626E+03  0.19080221325E+04  0.18956902615E+04 0.  0.
        2    1    3    3  502    0  0.39199530689E+03 -0.54075628687E+03  0.78522196416E+03  0.10308497541E+04  0.25500000920E-02 0.  1.
       -2    1    3    3    0  502 -0.39199530689E+03  0.54075628687E+03 -0.56864197790E+03  0.87717237841E+03  0.25500000920E-02 0. -1.
</event>
<event>
 5   0  0.2879462E-05  0.1861182E+04  0.7818609E-02  0.8674423E-01
        2   -1    0    0  501    0  0.00000000000E+00  0.00000000000E+00  0.10527055865E+04  0.10527055865E+04  0.25500000920E-02 0.  1.
       -2   -1    0    0    0  501  0.00000000000E+00  0.00000000000E+00 -0.82264193559E+03  0.82264193560E+03  0.25500000920E-02 0. -1.
    10030    2    1    2    0    0  0.00000000000E+00  0.00000000000E+00  0.23006365092E+03  0.18753475221E+04  0.18611821634E+04 0.  0.
        4    1    3    3  502    0  0.71065330031E+03 -0.13458661214E+03 -0.47496416134E+03  0.86529430650E+03  0.12699999809E+01 0. -1.
       -4    1    3    3    0  502 -0.71065330031E+03  0.13458661214E+03  0.70502781226E+03  0.10100532156E+04  0.12699999809E+01 0.  1.
</event>
<event>
 5   0  0.2789718E-05  0.1901063E+04  0.7818609E-02  0.8654327E-01
        2   -1    0    0  501    0  0.00000000000E+00  0.00000000000E+00  0.14941678587E+04  0.14941678587E+04  0.25500000920E-02 0.  1.
       -2   -1    0    0    0  501  0.00000000000E+00  0.00000000000E+00 -0.60469131623E+03  0.60469131624E+03  0.25500000920E-02 0. -1.
    10030    2    1    2    0    0  0.00000000000E+00  0.00000000000E+00  0.88947654250E+03  0.20988591750E+04  0.19010632069E+04 0.  0.
        5    1    3    3  502    0 -0.10796286574E+03  0.83673371454E+03 -0.38663166226E+02  0.84456865905E+03  0.46999998093E+01 0. -1.
       -5    1    3    3    0  502  0.10796286574E+03 -0.83673371454E+03  0.92813970872E+03  0.12542905159E+04  0.46999998093E+01 0.  1.
</event>
<event>
 5   0  0.2789718E-05  0.1902042E+04  0.7818609E-02  0.8653840E-01
       -2   -1    0    0    0  501  0.00000000000E+00  0.00000000000E+00  0.11657571858E+04  0.11657571858E+04  0.25500000920E-02 0. -1.
        2   -1    0    0  501    0  0.00000000000E+00  0.00000000000E+00 -0.77584015662E+03  0.77584015662E+03  0.25500000920E-02 0.  1.
    10030    2    1    2    0    0  0.00000000000E+00  0.00000000000E+00  0.38991702914E+03  0.19415973424E+04  0.19020423103E+04 0.  0.
        5    1    3    3  502    0  0.16892232282E+03 -0.42212414288E+03 -0.65769382660E+03  0.79956663430E+03  0.46999998093E+01 0.  1.
       -5    1    3    3    0  502 -0.16892232282E+03  0.42212414288E+03  0.10476108557E+04  0.11420307081E+04  0.46999998093E+01 0. -1.
</event>
<event>
 5   0  0.2855141E-05  0.1901442E+04  0.7818609E-02  0.8654139E-01
       -2   -1    0    0    0  501  0.00000000000E+00  0.00000000000E+00  0.15117300368E+04  0.15117300368E+04  0.25500000920E-02 0.  1.
        2   -1    0    0  501    0  0.00000000000E+00  0.00000000000E+00 -0.59790447214E+03  0.59790447215E+03  0.25500000920E-02 0. -1.
    10030    2    1    2    0    0  0.00000000000E+00  0.00000000000E+00  0.91382556469E+03  0.21096345090E+04  0.19014417159E+04 0.  0.
        1    1    3    3  502    0 -0.14864838226E+03  0.88020485574E+03  0.81985953864E+03  0.12120340724E+04  0.50400001928E-02 0. -1.
       -1    1    3    3    0  502  0.14864838226E+03 -0.88020485574E+03  0.93966026046E+02  0.89760043655E+03  0.50400001928E-02 0.  1.
</event>
<event>
 5   0  0.2855141E-05  0.1900158E+04  0.7818609E-02  0.8654778E-01
       -2   -1    0    0    0  501  0.00000000000E+00  0.00000000000E+00  0.10741198078E+04  0.10741198078E+04  0.25500000920E-02 0.  1.
        2   -1    0    0  501    0  0.00000000000E+00  0.00000000000E+00 -0.84036291479E+03  0.84036291480E+03  0.25500000920E-02 0. -1.
    10030    2    1    2    0    0  0.00000000000E+00  0.00000000000E+00  0.23375689300E+03  0.19144827226E+04  0.19001583645E+04 0.  0.
        1    1    3    3  502    0 -0.17145450641E+03  0.81555043026E+03 -0.34277482183E+03  0.90111804475E+03  0.50400001928E-02 0. -1.
       -1    1    3    3    0  502  0.17145450641E+03 -0.81555043026E+03  0.57653171483E+03  0.10133646778E+04  0.50400001928E-02 0.  1.
</event>
<event>
 5   0  0.1344119E-05  0.1889887E+04  0.7818609E-02  0.8659907E-01
       -1   -1    0    0    0  501  0.00000000000E+00  0.00000000000E+00  0.77846809356E+03  0.77846809357E+03  0.50400001928E-02 0.  1.
        1   -1    0    0  501    0  0.00000000000E+00  0.00000000000E+00 -0.11470190938E+04  0.11470190938E+04  0.50400001928E-02 0. -1.
    10030    2    1    2    0    0  0.00000000000E+00  0.00000000000E+00 -0.36855100020E+03  0.19254871873E+04  0.18898865227E+04 0.  0.
        2    1    3    3  502    0 -0.56551799021E+03 -0.18919614711E+03  0.56254833507E+03  0.81979656539E+03  0.25500000920E-02 0.  1.
       -2    1    3    3    0  502  0.56551799021E+03  0.18919614711E+03 -0.93109933526E+03  0.11056906219E+04  0.25500000920E-02 0. -1.
</event>
<event>
 5   0  0.2888776E-05  0.1901470E+04  0.7818609E-02  0.8654125E-01
       -2   -1    0    0    0  501  0.00000000000E+00  0.00000000000E+00  0.51123034073E+03  0.51123034074E+03  0.25500000920E-02 0. -1.
        2   -1    0    0  501    0  0.00000000000E+00  0.00000000000E+00 -0.17680824352E+04  0.17680824352E+04  0.25500000920E-02 0.  1.
    10030    2    1    2    0    0  0.00000000000E+00  0.00000000000E+00 -0.12568520944E+04  0.22793127759E+04  0.19014703635E+04 0.  0.
        3    1    3    3  502    0 -0.81469776112E+03  0.29795702583E+03 -0.16202662712E+03  0.88247576132E+03  0.10100000352E+00 0. -1.
       -3    1    3    3    0  502  0.81469776112E+03 -0.29795702583E+03 -0.10948254673E+04  0.13968370146E+04  0.10100000352E+00 0.  1.
</event>
<event>
 5   0  0.1471485E-05  0.1900967E+04  0.7818609E-02  0.8654375E-01
       -1   -1    0    0    0  501  0.00000000000E+00  0.00000000000E+00  0.30321647252E+03  0.30321647256E+03  0.50400001928E-02 0.  1.
        1   -1    0    0  501    0  0.00000000000E+00  0.00000000000E+00 -0.29794507853E+04  0.29794507853E+04  0.50400001928E-02 0. -1.
    10030    2    1    2    0    0  0.00000000000E+00  0.00000000000E+00 -0.26762343128E+04  0.32826672579E+04  0.19009666565E+04 0.  0.
        4    1    3    3  502    0 -0.54514865846E+03  0.77842819319E+03 -0.13669834408E+04  0.16648672175E+04  0.12699999809E+01 0.  1.
       -4    1    3    3    0  502  0.54514865846E+03 -0.77842819319E+03 -0.13092508720E+04  0.16178000404E+04  0.12699999809E+01 0. -1.
</event>
<event>
 5   0  0.1413011E-05  0.1900643E+04  0.7818609E-02  0.8654536E-01
        1   -1    0    0  501    0  0.00000000000E+00  0.00000000000E+00  0.47826650083E+03  0.47826650086E+03  0.50400001928E-02 0.  1.
       -1   -1    0    0    0  501  0.00000000000E+00  0.00000000000E+00 -0.18883006090E+04  0.18883006090E+04  0.50400001928E-02 0. -1.
    10030    2    1    2    0    0  0.00000000000E+00  0.00000000000E+00 -0.14100341082E+04  0.23665671099E+04  0.19006429700E+04 0.  0.
        1    1    3    3  502    0 -0.73429625860E+02  0.34262997560E+03 -0.18049233392E+04  0.18386232541E+04  0.50400001928E-02 0. -1.
       -1    1    3    3    0  502  0.73429625860E+02 -0.34262997560E+03  0.39488923097E+03  0.52794385582E+03  0.50400001928E-02 0.  1.
</event>
<event>
 5   0  0.1327254E-05  0.1900756E+04  0.7818609E-02  0.8654480E-01
       -1   -1    0    0    0  501  0.00000000000E+00  0.00000000000E+00  0.67499867452E+03  0.67499867454E+03  0.50400001928E-02 0.  1.
        1   -1    0    0  501    0  0.00000000000E+00  0.00000000000E+00 -0.13381039929E+04  0.13381039930E+04  0.50400001928E-02 0. -1.
    10030    2    1    2    0    0  0.00000000000E+00  0.00000000000E+00 -0.66310531842E+03  0.20131026675E+04  0.19007560829E+04 0.  0.
        5    1    3    3  502    0 -0.10331686094E+02 -0.52450671709E+03  0.50773963155E+03  0.73009291426E+03  0.46999998093E+01 0.  1.
       -5    1    3    3    0  502  0.10331686094E+02  0.52450671709E+03 -0.11708449500E+04  0.12830097532E+04  0.46999998093E+01 0. -1.
</event>
<event>
 5   0  0.2879462E-05  0.1896656E+04  0.7818609E-02  0.8656523E-01
        2   -1    0    0  501    0  0.00000000000E+00  0.00000000000E+00  0.13942321944E+04  0.13942321944E+04  0.25500000920E-02 0. -1.
       -2   -1    0    0    0  501  0.00000000000E+00  0.00000000000E+00 -0.64503312670E+03  0.64503312670E+03  0.25500000920E-02 0.  1.
    10030    2    1    2    0    0  0.00000000000E+00  0.00000000000E+00  0.74919906772E+03  0.20392653211E+04  0.18966559537E+04 0.  0.
        4    1    3    3  502    0  0.34405731811E+03  0.83186764824E+03  0.53938469825E+02  0.90182603298E+03  0.12699999809E+01 0.  1.
       -4    1    3    3    0  502 -0.34405731811E+03 -0.83186764824E+03  0.69526059790E+03  0.11374392881E+04  0.12699999809E+01 0. -1.
</event>
<event>
 5   0  0.1344119E-05  0.1898753E+04  0.7818609E-02  0.8655477E-01
        1   -1    0    0  501    0  0.00000000000E+00  0.00000000000E+00  0.12225143276E+04  0.12225143276E+04  0.50400001928E-02 0.  1.
       -1   -1    0    0    0  501  0.00000000000E+00  0.00000000000E+00 -0.73726376786E+03  0.73726376787E+03  0.50400001928E-02 0. -1.
    10030    2    1    2    0    0  0.00000000000E+00  0.00000000000E+00  0.48525055970E+03  0.19597780954E+04  0.18987527690E+04 0.  0.
        2    1    3    3  502    0 -0.22463352971E+02 -0.47912729444E+03  0.10882544705E+04  0.11892709359E+04  0.25500000920E-02 0.  1.
       -2    1    3    3    0  502  0.22463352971E+02  0.47912729444E+03 -0.60300391076E+03  0.77050715954E+03  0.25500000920E-02 0. -1.
</event>
<event>
 5   0  0.2813537E-05  0.1903061E+04  0.7818609E-02  0.8653334E-01
        2   -1    0    0  501    0  0.00000000000E+00  0.00000000000E+00  0.83689515096E+03  0.83689515097E+03  0.25500000920E-02 0.  1.
       -2   -1    0    0    0  501  0.00000000000E+00  0.00000000000E+00 -0.10818677970E+04  0.10818677970E+04  0.25500000920E-02 0. -1.
    10030    2    1    2    0    0  0.00000000000E+00  0.00000000000E+00 -0.24497264600E+03  0.19187629479E+04  0.19030606015E+04 0.  0.
        2    1    3    3  502    0 -0.19627003435E+03  0.23338904473E+03 -0.10312654656E+04  0.10754072871E+04  0.25500000920E-02 0. -1.
       -2    1    3    3    0  502  0.19627003435E+03 -0.23338904473E+03  0.78629281958E+03  0.84335566086E+03  0.25500000920E-02 0.  1.
</event>
<event>
 5   0  0.2855141E-05  0.1894760E+04  0.7818609E-02  0.8657469E-01
        2   -1    0    0  501    0  0.00000000000E+00  0.00000000000E+00  0.18437008463E+04  0.18437008463E+04  0.25500000920E-02 0.  1.
       -2   -1    0    0    0  501  0.00000000000E+00  0.00000000000E+00 -0.48680847680E+03  0.48680847681E+03  0.25500000920E-02 0. -1.
    10030    2    1    2    0    0  0.00000000000E+00  0.00000000000E+00  0.13568923695E+04  0.23305093232E+04  0.18947603550E+04 0.  0.
        1    1    3    3  502    0  0.71343838783E+03 -0.62146451825E+03  0.73764776917E+03  0.11997235982E+04  0.50400001928E-02 0.  1.
       -1    1    3    3    0  502 -0.71343838783E+03  0.62146451825E+03  0.61924460038E+03  0.11307857250E+04  0.50400001928E-02 0. -1.
</event>
<event>
 5   0  0.2789718E-05  0.1899082E+04  0.7818609E-02  0.8655313E-01
       -2   -1    0    0    0  501  0.00000000000E+00  0.00000000000E+00  0.14524863012E+04  0.14524863012E+04  0.25500000920E-02 0.  1.
        2   -1    0    0  501    0  0.00000000000E+00  0.00000000000E+00 -0.62074830320E+03  0.62074830321E+03  0.25500000920E-02 0. -1.
    10030    2    1    2    0    0  0.00000000000E+00  0.00000000000E+00  0.83173799803E+03  0.20732346044E+04  0.18990823120E+04 0.  0.
        5    1    3    3  502    0  0.61606679849E+03  0.13507491582E+03 -0.35902725579E+03  0.72574526763E+03  0.46999998093E+01 0. -1.
       -5    1    3    3    0  502 -0.61606679849E+03 -0.13507491582E+03  0.11907652538E+04  0.13474893368E+04  0.46999998093E+01 0.  1.
</event>
<event>
 5   0  0.1344119E-05  0.1899266E+04  0.7818609E-02  0.8655222E-01
       -1   -1    0    0    0  501  0.00000000000E+00  0.00000000000E+00  0.20064895171E+04  0.20064895171E+04  0.50400001928E-02 0.  1.
        1   -1    0    0  501    0  0.00000000000E+00  0.00000000000E+00 -0.44944295057E+03  0.44944295060E+03  0.50400001928E-02 0. -1.
    10030    2    1    2    0    0  0.00000000000E+00  0.00000000000E+00  0.15570465665E+04  0.24559324677E+04  0.18992657201E+04 0.  0.
        2    1    3    3  502    0 -0.13348780560E+03  0.77560778015E+03  0.14657111011E+04  0.16636392201E+04  0.25500000920E-02 0.  1.
       -2    1    3    3    0  502  0.13348780560E+03 -0.77560778015E+03  0.91335465414E+02  0.79229324756E+03  0.25500000920E-02 0. -1.
</event>
<event>
 5   0  0.1471485E-05  0.1899059E+04  0.7818609E-02  0.8655325E-01
        1   -1    0    0  501    0  0.00000000000E+00  0.00000000000E+00  0.17692995659E+04  0.17692995659E+04  0.50400001928E-02 0.  1.
       -1   -1    0    0    0  501  0.00000000000E+00  0.00000000000E+00 -0.50958380302E+03  0.50958380304E+03  0.50400001928E-02 0. -1.
    10030    2    1    2    0    0  0.00000000000E+00  0.00000000000E+00  0.12597157629E+04  0.22788833689E+04  0.18990591371E+04 0.  0.
        4    1    3    3  502    0 -0.42935160150E+03  0.19838611513E+03 -0.35816729090E+03  0.59328346476E+03  0.12699999809E+01 0. -1.
       -4    1    3    3    0  502  0.42935160150E+03 -0.19838611513E+03  0.16178830538E+04  0.16855999042E+04  0.12699999809E+01 0.  1.
</event>
<event>
 5   0  0.2879462E-05  0.1901365E+04  0.7818609E-02  0.8654177E-01
       -2   -1    0    0    0  501  0.00000000000E+00  0.00000000000E+00  0.54610591159E+03  0.54610591159E+03  0.25500000920E-02 0. -1.
        2   -1    0    0  501    0  0.00000000000E+00  0.00000000000E+00 -0.16549859682E+04  0.16549859682E+04  0.25500000920E-02 0.  1.
    10030    2    1    2    0    0  0.00000000000E+00  0.00000000000E+00 -0.11088800566E+04  0.22010918798E+04  0.19013654261E+04 0.  0.
        4    1    3    3  502    0 -0.41346380005E+03  0.21900527828E+03 -0.15124718666E+04  0.15831893084E+04  0.12699999809E+01 0.  1.
       -4    1    3    3    0  502  0.41346380005E+03 -0.21900527828E+03  0.40359180997E+03  0.61790257148E+03  0.12699999809E+01 0. -1.
</event>
<event>
 5   0  0.2888776E-05  0.1902372E+04  0.7818609E-02  0.8653676E-01
       -2   -1    0    0    0  501  0.00000000000E+00  0.00000000000E+00  0.10429320557E+04  0.10429320557E+04  0.25500000920E-02 0.  1.
        2   -1    0    0  501    0  0.00000000000E+00  0.00000000000E+00 -0.86751108352E+03  0.86751108352E+03  0.25500000920E-02 0. -1.
    10030    2    1    2    0    0  0.00000000000E+00  0.00000000000E+00  0.17542097215E+03  0.19104431392E+04  0.19023723270E+04 0.  0.
        3    1    3    3  502    0  0.52197425645E+03  0.26667300387E+03 -0.66458947616E+03  0.88614377920E+03  0.10100000352E+00 0. -1.
       -3    1    3    3    0  502 -0.52197425645E+03 -0.26667300387E+03  0.84001044831E+03  0.10242993600E+04  0.10100000352E+00 0.  1.
</event>
<event>
 5   0  0.1413011E-05  0.1908506E+04  0.7818609E-02  0.8650634E-01
       -1   -1    0    0    0  501  0.00000000000E+00  0.00000000000E+00  0.63121942795E+03  0.63121942797E+03  0.50400001928E-02 0.  1.
        1   -1    0    0  501    0  0.00000000000E+00  0.00000000000E+00 -0.14426025055E+04  0.14426025055E+04  0.50400001928E-02 0. -1.
    10030    2    1    2    0    0  0.00000000000E+00  0.00000000000E+00 -0.81138307753E+03  0.20738219335E+04  0.19085059374E+04 0.  0.
        1    1    3    3  502    0 -0.20936739338E+03 -0.48982045244E+03  0.45462105561E+03  0.70031356211E+03  0.50400001928E-02 0.  1.
       -1    1    3    3    0  502  0.20936739338E+03  0.48982045244E+03 -0.12660041331E+04  0.13735083714E+04  0.50400001928E-02 0. -1.
</event>
<event>
 5   0  0.1429067E-05  0.1895897E+04  0.7818609E-02  0.8656901E-01
        1   -1    0    0  501    0  0.00000000000E+00  0.00000000000E+00  0.12691488800E+04  0.12691488800E+04  0.50400001928E-02 0.  1.
       -1   -1    0    0    0  501  0.00000000000E+00  0.00000000000E+00 -0.70803846049E+03  0.70803846051E+03  0.50400001928E-02 0. -1.
    10030    2    1    2    0    0  0.00000000000E+00  0.00000000000E+00  0.56111041953E+03  0.19771873405E+04  0.18958968529E+04 0.  0.
        3    1    3    3  502    0 -0.79667987142E+03  0.47073120840E+03  0.49509284370E+03  0.10494777855E+04  0.10100000352E+00 0. -1.
       -3    1    3    3    0  502  0.79667987142E+03 -0.47073120840E+03  0.66017575828E+02  0.92770955509E+03  0.10100000352E+00 0.  1.
</event>
<event>
 5   0  0.1344119E-05  0.1902445E+04  0.7818609E-02  0.8653640E-01
        1   -1    0    0  501    0  0.00000000000E+00  0.00000000000E+00  0.14022412928E+04  0.14022412928E+04  0.50400001928E-02 0.  1.
       -1   -1    0    0    0  501  0.00000000000E+00  0.00000000000E+00 -0.64527008823E+03  0.64527008825E+03  0.50400001928E-02 0. -1.
    10030    2    1    2    0    0  0.00000000000E+00  0.00000000000E+00  0.75697120454E+03  0.20475113810E+04  0.19024451243E+04 0.  0.
        2    1    3    3  502    0  0.17692132835E+03  0.89984090736E+03  0.10661827398E+03  0.92324550978E+03  0.25500000920E-02 0.  1.
       -2    1    3    3    0  502 -0.17692132835E+03 -0.89984090736E+03  0.65035293056E+03  0.11242658713E+04  0.25500000920E-02 0. -1.
</event>
<event>
 5   0  0.1344119E-05  0.1890204E+04  0.7818609E-02  0.8659748E-01
       -1   -1    0    0    0  501  0.00000000000E+00  0.00000000000E+00  0.14420509349E+04  0.14420509349E+04  0.50400001928E-02 0.  1.
        1   -1    0    0  501    0  0.00000000000E+00  0.00000000000E+00 -0.61940820763E+03  0.61940820765E+03  0.50400001928E-02 0. -1.
    10030    2    1    2    0    0  0.00000000000E+00  0.00000000000E+00  0.82264272727E+03  0.20614591426E+04  0.18902044174E+04 0.  0.
        2    1    3    3  502    0 -0.59482031902E+03  0.72961507335E+03  0.50301503249E+03  0.10673207063E+04  0.25500000920E-02 0.  1.
       -2    1    3    3    0  502  0.59482031902E+03 -0.72961507335E+03  0.31962769478E+03  0.99413843627E+03  0.25500000920E-02 0. -1.
</event>
<event>
 5   0  0.2789718E-05  0.1899952E+04  0.7818609E-02  0.8654880E-01
       -2   -1    0    0    0  501  0.00000000000E+00  0.00000000000E+00  0.58185270998E+03  0.58185270999E+03  0.25500000920E-02 0. -1.
        2   -1    0    0  501    0  0.00000000000E+00  0.00000000000E+00 -0.15510020109E+04  0.15510020109E+04  0.25500000920E-02 0.  1.
    10030    2    1    2    0    0  0.00000000000E+00  0.00000000000E+00 -0.96914930090E+03  0.21328547209E+04  0.18999523396E+04 0.  0.
        5    1    3    3  502    0 -0.31126136232E+03 -0.59435223204E+03 -0.12395437621E+04  0.14094782863E+04  0.46999998093E+01 0.  1.
       -5    1    3    3    0  502  0.31126136232E+03  0.59435223204E+03  0.27039446122E+03  0.72337643455E+03  0.46999998093E+01 0. -1.
</event>
<event>
 5   0  0.1327254E-05  0.1903743E+04  0.7818609E-02  0.8652996E-01
       -1   -1    0    0    0  501  0.00000000000E+00  0.00000000000E+00  0.27942936166E+03  0.27942936171E+03  0.50400001928E-02 0.  1.
        1   -1    0    0  501    0  0.00000000000E+00  0.00000000000E+00 -0.32425339940E+04  0.32425339940E+04  0.50400001928E-02 0. -1.
    10030    2    1    2    0    0  0.00000000000E+00  0.00000000000E+00 -0.29631046324E+04  0.35219633557E+04  0.19037428442E+04 0.  0.
        5    1    3    3  502    0 -0.64613418190E+03 -0.64267939692E+02 -0.27691684231E+04  0.28442812087E+04  0.46999998093E+01 0. -1.
       -5    1    3    3    0  502  0.64613418190E+03  0.64267939692E+02 -0.19393620930E+03  0.67768214700E+03  0.46999998093E+01 0.  1.
</event>
<event>
 5   0  0.1429067E-05  0.1889664E+04  0.7818609E-02  0.8660018E-01
       -1   -1    0    0    0  501  0.00000000000E+00  0.00000000000E+00  0.65485761442E+03  0.65485761444E+03  0.50400001928E-02 0.  1.
        1   -1    0    0  501    0  0.00000000000E+00  0.00000000000E+00 -0.13632085093E+04  0.13632085093E+04  0.50400001928E-02 0. -1.
    10030    2    1    2    0    0  0.00000000000E+00  0.00000000000E+00 -0.70835089485E+03  0.20180661237E+04  0.18896639620E+04 0.  0.
        3    1    3    3  502    0 -0.64919537997E+03 -0.53130428707E+03  0.11006781115E+03  0.84608145003E+03  0.10100000352E+00 0.  1.
       -3    1    3    3    0  502  0.64919537997E+03  0.53130428707E+03 -0.81841870600E+03  0.11719846737E+04  0.10100000352E+00 0. -1.
</event>
<event>
 5   0  0.1327254E-05  0.1898157E+04  0.7818609E-02  0.8655774E-01
        1   -1    0    0  501    0  0.00000000000E+00  0.00000000000E+00  0.16513836448E+04  0.16513836448E+04  0.50400001928E-02 0. -1.
       -1   -1    0    0    0  501  0.00000000000E+00  0.00000000000E+00 -0.54545147955E+03  0.54545147957E+03  0.50400001928E-02 0.  1.
    10030    2    1    2    0    0  0.00000000000E+00  0.00000000000E+00  0.11059321652E+04  0.21968351244E+04  0.18981566346E+04 0.  0.
        5    1    3    3  502    0  0.88408449422E+03  0.33472311483E+03  0.45556541048E+03  0.10493840525E+04  0.46999998093E+01 0.  1.
       -5    1    3    3    0  502 -0.88408449422E+03 -0.33472311483E+03  0.65036675474E+03  0.11474510718E+04  0.46999998093E+01 0. -1.
</event>
<event>
 5   0  0.1413011E-05  0.1899254E+04  0.7818609E-02  0.8655228E-01
       -1   -1    0    0    0  501  0.00000000000E+00  0.00000000000E+00  0.10680789397E+04  0.10680789397E+04  0.50400001928E-02 0.  1.
        1   -1    0    0  501    0  0.00000000000E+00  0.00000000000E+00 -0.84431184040E+03  0.84431184042E+03  0.50400001928E-02 0. -1.
    10030    2    1    2    0    0  0.00000000000E+00  0.00000000000E+00  0.22376709931E+03  0.19123907801E+04  0.18992542698E+04 0.  0.
        1    1    3    3  502    0  0.36757587537E+03 -0.65155445497E+03 -0.47710371439E+03  0.88727852801E+03  0.50400001928E-02 0. -1.
       -1    1    3    3    0  502 -0.36757587537E+03  0.65155445497E+03  0.70087081371E+03  0.10251122521E+04  0.50400001928E-02 0.  1.
</event>
<event>
 5   0  0.2813537E-05  0.1900830E+04  0.7818609E-02  0.8654444E-01
        2   -1    0    0  501    0  0.00000000000E+00  0.00000000000E+00  0.52499490671E+03  0.52499490672E+03  0.25500000920E-02 0.  1.
       -2   -1    0    0    0  501  0.00000000000E+00  0.00000000000E+00 -0.17205656916E+04  0.17205656916E+04  0.25500000920E-02 0. -1.
    10030    2    1    2    0    0  0.00000000000E+00  0.00000000000E+00 -0.11955707849E+04  0.22455605984E+04  0.19008295292E+04 0.  0.
        2    1    3    3  502    0 -0.46686791522E+03 -0.82407725127E+03 -0.69094998989E+03  0.11723825548E+04  0.25500000920E-02 0. -1.
       -2    1    3    3    0  502  0.46686791522E+03  0.82407725127E+03 -0.50462079502E+03  0.10731780435E+04  0.25500000920E-02 0.  1.
</event>
<event>
 5   0  0.2855141E-05  0.1897513E+04  0.7818609E-02  0.8656095E-01
        2   -1    0    0  501    0  0.00000000000E+00  0.00000000000E+00  0.90004917219E+03  0.90004917220E+03  0.25500000920E-02 0. -1.
       -2   -1    0    0    0  501  0.00000000000E+00  0.00000000000E+00 -0.10000996240E+04  0.10000996240E+04  0.25500000920E-02 0.  1.
    10030    2    1    2    0    0  0.00000000000E+00  0.00000000000E+00 -0.10005045179E+03  0.19001487962E+04  0.18975129393E+04 0.  0.
        1    1    3    3  502    0  0.60937085236E+03  0.58634601445E+03 -0.48074403742E+03  0.97275347026E+03  0.50400001928E-02 0.  1.
       -1    1    3    3    0  502 -0.60937085236E+03 -0.58634601445E+03  0.38069358563E+03  0.92739532592E+03  0.50400001928E-02 0. -1.
</event>
<event>
 5   0  0.1010725E-05  0.1899250E+04  0.7818609E-02  0.8655230E-01
        3   -1    0    0  501    0  0.00000000000E+00  0.00000000000E+00  0.83100566414E+03  0.83100567028E+03  0.10100000352E+00 0.  1.
       -3   -1    0    0    0  501  0.00000000000E+00  0.00000000000E+00 -0.10851760600E+04  0.10851760647E+04  0.10100000352E+00 0. -1.
    10030    2    1    2    0    0  0.00000000000E+00  0.00000000000E+00 -0.25417039587E+03  0.19161817350E+04  0.18992498128E+04 0.  0.
        4    1    3    3  502    0  0.79319603980E+02  0.64058176603E+03  0.57565093862E+03  0.86487699390E+03  0.12699999809E+01 0.  1.
       -4    1    3    3    0  502 -0.79319603980E+02 -0.64058176603E+03 -0.82982133449E+03  0.10513047411E+04  0.12699999809E+01 0. -1.
</event>
<event>
 5   0  0.1344119E-05  0.1901474E+04  0.7818609E-02  0.8654123E-01
       -1   -1    0    0    0  501  0.00000000000E+00  0.00000000000E+00  0.55024727120E+03  0.55024727122E+03  0.50400001928E-02 0. -1.
        1   -1    0    0  501    0  0.00000000000E+00  0.00000000000E+00 -0.16427172240E+04  0.16427172240E+04  0.50400001928E-02 0.  1.
    10030    2    1    2    0    0  0.00000000000E+00  0.00000000000E+00 -0.10924699528E+04  0.21929644953E+04  0.19014738178E+04 0.  0.
        2    1    3    3  502    0 -0.72778196137E+03  0.27158876576E+03 -0.11784203325E+04  0.14114182658E+04  0.25500000920E-02 0.  1.
       -2    1    3    3    0  502  0.72778196137E+03 -0.27158876576E+03  0.85950379691E+02  0.78154622944E+03  0.25500000920E-02 0. -1.
</event>
<event>
 5   0  0.1429067E-05  0.1904186E+04  0.7818609E-02  0.8652776E-01
       -1   -1    0    0    0  501  0.00000000000E+00  0.00000000000E+00  0.12825753574E+04  0.12825753574E+04  0.50400001928E-02 0.  1.
        1   -1    0    0  501    0  0.00000000000E+00  0.00000000000E+00 -0.70676613826E+03  0.70676613828E+03  0.50400001928E-02 0. -1.
    10030    2    1    2    0    0  0.00000000000E+00  0.00000000000E+00  0.57580921914E+03  0.19893414957E+04  0.19041857393E+04 0.  0.
        3    1    3    3  502    0  0.11914431544E+03  0.93955101625E+03  0.38988848093E+03  0.10241896884E+04  0.10100000352E+00 0. -1.
       -3    1    3    3    0  502 -0.11914431544E+03 -0.93955101625E+03  0.18592073820E+03  0.96515180730E+03  0.10100000352E+00 0.  1.
</event>
<event>
 5   0  0.2813537E-05  0.1900052E+04  0.7818609E-02  0.8654831E-01
        2   -1    0    0  501    0  0.00000000000E+00  0.00000000000E+00  0.11297384803E+04  0.11297384803E+04  0.25500000920E-02 0.  1.
       -2   -1    0    0    0  501  0.00000000000E+00  0.00000000000E+00 -0.79890102713E+03  0.79890102714E+03  0.25500000920E-02 0. -1.
    10030    2    1    2    0    0  0.00000000000E+00  0.00000000000E+00  0.33083745317E+03  0.19286395074E+04  0.19000518228E+04 0.  0.
        2    1    3    3  502    0 -0.40388075912E+03 -0.81726619220E+03 -0.10600977253E+03  0.91775910150E+03  0.25500000920E-02 0. -1.
       -2    1    3    3    0  502  0.40388075912E+03  0.81726619220E+03  0.43684722569E+03  0.10108804059E+04  0.25500000920E-02 0.  1.
</event>
<event>
 5   0  0.2888776E-05  0.1897984E+04  0.7818609E-02  0.8655861E-01
        2   -1    0    0  501    0  0.00000000000E+00  0.00000000000E+00  0.14890653167E+04  0.14890653168E+04  0.25500000920E-02 0. -1.
       -2   -1    0    0    0  501  0.00000000000E+00  0.00000000000E+00 -0.60479909970E+03  0.60479909971E+03  0.25500000920E-02 0.  1.
    10030    2    1    2    0    0  0.00000000000E+00  0.00000000000E+00  0.88426621704E+03  0.20938644165E+04  0.18979835226E+04 0.  0.
        3    1    3    3  502    0  0.93433447313E+02  0.11968032057E+03  0.14755787563E+04  0.14833697666E+04  0.10100000352E+00 0. -1.
       -3    1    3    3    0  502 -0.93433447313E+02 -0.11968032057E+03 -0.59131253926E+03  0.61049464985E+03  0.10100000352E+00 0.  1.
</event>
<event>
 5   0  0.1413011E-05  0.1899910E+04  0.7818609E-02  0.8654901E-01
        1   -1    0    0  501    0  0.00000000000E+00  0.00000000000E+00  0.78843781544E+03  0.78843781546E+03  0.50400001928E-02 0. -1.
       -1   -1    0    0    0  501  0.00000000000E+00  0.00000000000E+00 -0.11445605597E+04  0.11445605597E+04  0.50400001928E-02 0.  1.
    10030    2    1    2    0    0  0.00000000000E+00  0.00000000000E+00 -0.35612274424E+03  0.19329983751E+04  0.18999103425E+04 0.  0.
        1    1    3    3  502    0  0.40241121746E+03 -0.64852966819E+03 -0.75349898391E+03  0.10725139800E+04  0.50400001928E-02 0.  1.
       -1    1    3    3    0  502 -0.40241121746E+03  0.64852966819E+03  0.39737623967E+03  0.86048439518E+03  0.50400001928E-02 0. -1.
</event>
<event>
 5   0  0.2813537E-05  0.1894015E+04  0.7818609E-02  0.8657841E-01
       -2   -1    0    0    0  501  0.00000000000E+00  0.00000000000E+00  0.10453621236E+04  0.10453621236E+04  0.25500000920E-02 0.  1.
        2   -1    0    0  501    0  0.00000000000E+00  0.00000000000E+00 -0.85790655294E+03  0.85790655294E+03  0.25500000920E-02 0. -1.
    10030    2    1    2    0    0  0.00000000000E+00  0.00000000000E+00  0.18745557067E+03  0.19032686765E+04  0.18940148004E+04 0.  0.
        2    1    3    3  502    0 -0.89472509573E+03  0.14411157385E+03  0.36988291133E+03  0.97883323950E+03  0.25500000920E-02 0.  1.
       -2    1    3    3    0  502  0.89472509573E+03 -0.14411157385E+03 -0.18242734066E+03  0.92443543705E+03  0.25500000920E-02 0. -1.
</event>
<event>
 5   0  0.1471485E-05  0.1894499E+04  0.7818609E-02  0.8657600E-01
       -1   -1    0    0    0  501  0.00000000000E+00  0.00000000000E+00  0.10882029321E+04  0.10882029321E+04  0.50400001928E-02 0.  1.
        1   -1    0    0  501    0  0.00000000000E+00  0.00000000000E+00 -0.82455321184E+03  0.82455321186E+03  0.50400001928E-02 0. -1.
    10030    2    1    2    0    0  0.00000000000E+00  0.00000000000E+00  0.26364972029E+03  0.19127561440E+04  0.18944985858E+04 0.  0.
        4    1    3    3  502    0  0.25476105636E+02 -0.83892570261E+03  0.57518576975E+03  0.10174898766E+04  0.12699999809E+01 0.  1.
       -4    1    3    3    0  502 -0.25476105636E+02  0.83892570261E+03 -0.31153604946E+03  0.89526626736E+03  0.12699999809E+01 0. -1.
</event>
<event>
 5   0  0.1429067E-05  0.1904054E+04  0.7818609E-02  0.8652841E-01
       -1   -1    0    0    0  501  0.00000000000E+00  0.00000000000E+00  0.38358315893E+03  0.38358315896E+03  0.50400001928E-02 0.  1.
        1   -1    0    0  501    0  0.00000000000E+00  0.00000000000E+00 -0.23628654952E+04  0.23628654952E+04  0.50400001928E-02 0. -1.
    10030    2    1    2    0    0  0.00000000000E+00  0.00000000000E+00 -0.19792823363E+04  0.27464486542E+04  0.19040540022E+04 0.  0.
        3    1    3    3  502    0 -0.84935570081E+03  0.35653646685E+03 -0.13365189520E+04  0.16232086366E+04  0.10100000352E+00 0. -1.
       -3    1    3    3    0  502  0.84935570081E+03 -0.35653646685E+03 -0.64276338430E+03  0.11232400176E+04  0.10100000352E+00 0.  1.
</event>
<event>
 5   0  0.2789718E-05  0.1908679E+04  0.7818609E-02  0.8650549E-01
       -2   -1    0    0    0  501  0.00000000000E+00  0.00000000000E+00  0.71975556089E+03  0.71975556089E+03  0.25500000920E-02 0. -1.
        2   -1    0    0  501    0  0.00000000000E+00  0.00000000000E+00 -0.12653788171E+04  0.12653788171E+04  0.25500000920E-02 0.  1.
    10030    2    1    2    0    0  0.00000000000E+00  0.00000000000E+00 -0.54562325618E+03  0.19851343780E+04  0.19086785379E+04 0.  0.
        5    1    3    3  502    0 -0.24491885637E+03 -0.52747441018E+03 -0.10597759617E+04  0.12088679326E+04  0.46999998093E+01 0.  1.
       -5    1    3    3    0  502  0.24491885637E+03  0.52747441018E+03  0.51415270549E+03  0.77626644534E+03  0.46999998093E+01 0. -1.
</event>
<event>
 5   0  0.2813537E-05  0.1875556E+04  0.7818609E-02  0.8667120E-01
       -2   -1    0    0    0  501  0.00000000000E+00  0.00000000000E+00  0.57540310408E+03  0.57540310408E+03  0.25500000920E-02 0. -1.
        2   -1    0    0  501    0  0.00000000000E+00  0.00000000000E+00 -0.15283680070E+04  0.15283680070E+04  0.25500000920E-02 0.  1.
    10030    2    1    2    0    0  0.00000000000E+00  0.00000000000E+00 -0.95296490295E+03  0.21037711111E+04  0.18755561260E+04 0.  0.
        2    1    3    3  502    0  0.46816881460E+02  0.82170300600E+03  0.27699332263E+02  0.82350161109E+03  0.25500000920E-02 0. -1.
       -2    1    3    3    0  502 -0.46816881460E+02 -0.82170300600E+03 -0.98066423522E+03  0.12802695000E+04  0.25500000920E-02 0.  1.
</event>
<event>
 5   0  0.1010725E-05  0.1903093E+04  0.7818609E-02  0.8653318E-01
       -3   -1    0    0    0  501  0.00000000000E+00  0.00000000000E+00  0.50098625736E+03  0.50098626754E+03  0.10100000352E+00 0. -1.
        3   -1    0    0  501    0  0.00000000000E+00  0.00000000000E+00 -0.18073161334E+04  0.18073161363E+04  0.10100000352E+00 0.  1.
    10030    2    1    2    0    0  0.00000000000E+00  0.00000000000E+00 -0.13063298761E+04  0.23083024038E+04  0.19030928097E+04 0.  0.
        5    1    3    3  502    0 -0.62225675327E+03 -0.72832603292E+02  0.21550240444E+03  0.66254919169E+03  0.46999998093E+01 0. -1.
       -5    1    3    3    0  502  0.62225675327E+03  0.72832603292E+02 -0.15218322805E+04  0.16457532121E+04  0.46999998093E+01 0.  1.
</event>
<event>
 5   0  0.1010725E-05  0.1898522E+04  0.7818609E-02  0.8655592E-01
        3   -1    0    0  501    0  0.00000000000E+00  0.00000000000E+00  0.56534320602E+03  0.56534321504E+03  0.10100000352E+00 0.  1.
       -3   -1    0    0    0  501  0.00000000000E+00  0.00000000000E+00 -0.15938934582E+04  0.15938934614E+04  0.10100000352E+00 0. -1.
    10030    2    1    2    0    0  0.00000000000E+00  0.00000000000E+00 -0.10285502522E+04  0.21592366765E+04  0.18985224264E+04 0.  0.
        2    1    3    3  502    0  0.53785491645E+03 -0.68065492786E+03 -0.75972791829E+02  0.87083345542E+03  0.25500000920E-02 0.  1.
       -2    1    3    3    0  502 -0.53785491645E+03  0.68065492786E+03 -0.95257746037E+03  0.12884032210E+04  0.25500000920E-02 0. -1.
</event>
<event>
 5   0  0.1344119E-05  0.1901342E+04  0.7818609E-02  0.8654189E-01
        1   -1    0    0  501    0  0.00000000000E+00  0.00000000000E+00  0.23514246685E+04  0.23514246685E+04  0.50400001928E-02 0. -1.
       -1   -1    0    0    0  501  0.00000000000E+00  0.00000000000E+00 -0.38435233500E+03  0.38435233503E+03  0.50400001928E-02 0.  1.
    10030    2    1    2    0    0  0.00000000000E+00  0.00000000000E+00  0.19670723335E+04  0.27357770035E+04  0.19013422227E+04 0.  0.
        2    1    3    3  502    0  0.74350625140E+03 -0.15775751495E+03  0.16188615329E+03  0.77710752539E+03  0.25500000920E-02 0.  1.
       -2    1    3    3    0  502 -0.74350625140E+03  0.15775751495E+03  0.18051861802E+04  0.19586694781E+04  0.25500000920E-02 0. -1.
</event>
<event>
 5   0  0.1413011E-05  0.1899558E+04  0.7818609E-02  0.8655076E-01
        1   -1    0    0  501    0  0.00000000000E+00  0.00000000000E+00  0.10509694362E+04  0.10509694362E+04  0.50400001928E-02 0.  1.
       -1   -1    0    0    0  501  0.00000000000E+00  0.00000000000E+00 -0.85833133997E+03  0.85833133999E+03  0.50400001928E-02 0. -1.
    10030    2    1    2    0    0  0.00000000000E+00  0.00000000000E+00  0.19263809619E+03  0.19093007762E+04  0.18995578480E+04 0.  0.
        1    1    3    3  502    0 -0.54336711952E+03 -0.29357981372E+03 -0.62893785583E+03  0.88147589878E+03  0.50400001928E-02 0. -1.
       -1    1    3    3    0  502  0.54336711952E+03  0.29357981372E+03  0.82157595202E+03  0.10278248774E+04  0.50400001928E-02 0.  1.
</event>
<event>
 5   0  0.2813537E-05  0.1901345E+04  0.7818609E-02  0.8654187E-01
       -2   -1    0    0    0  501  0.00000000000E+00  0.00000000000E+00  0.48823276648E+03  0.48823276648E+03  0.25500000920E-02 0.  1.
        2   -1    0    0  501    0  0.00000000000E+00  0.00000000000E+00 -0.18511225157E+04  0.18511225157E+04  0.25500000920E-02 0. -1.
    10030    2    1    2    0    0  0.00000000000E+00  0.00000000000E+00 -0.13628897492E+04  0.23393552822E+04  0.19013454888E+04 0.  0.
        2    1    3    3  502    0  0.70788728126E+03  0.27672755005E+03  0.21154834573E+02  0.76034864829E+03  0.25500000920E-02 0.  1.
       -2    1    3    3    0  502 -0.70788728126E+03 -0.27672755005E+03 -0.13840445838E+04  0.15790066339E+04  0.25500000920E-02 0. -1.
</event>
<event>
 5   0  0.1413011E-05  0.1899999E+04  0.7818609E-02  0.8654857E-01
       -1   -1    0    0    0  501  0.00000000000E+00  0.00000000000E+00  0.12261351694E+04  0.12261351694E+04  0.50400001928E-02 0.  1.
        1   -1    0    0  501    0  0.00000000000E+00  0.00000000000E+00 -0.73605186082E+03  0.73605186083E+03  0.50400001928E-02 0. -1.
    10030    2    1    2    0    0  0.00000000000E+00  0.00000000000E+00  0.49008330862E+03  0.19621870303E+04  0.18999990243E+04 0.  0.
        1    1    3    3  502    0 -0.28206597330E+03  0.42012714595E+03 -0.58528336485E+03  0.77370837481E+03  0.50400001928E-02 0. -1.
       -1    1    3    3    0  502  0.28206597330E+03 -0.42012714595E+03  0.10753666735E+04  0.11884786555E+04  0.50400001928E-02 0.  1.
</event>
<event>
 5   0  0.1010725E-05  0.1908223E+04  0.7818609E-02  0.8650774E-01
        4   -1    0    0  501    0  0.00000000000E+00  0.00000000000E+00  0.64531923814E+03  0.64532048784E+03  0.12699999809E+01 0.  1.
       -4   -1    0    0    0  501  0.00000000000E+00  0.00000000000E+00 -0.14106610224E+04  0.14106615941E+04  0.12699999809E+01 0. -1.
    10030    2    1    2    0    0  0.00000000000E+00  0.00000000000E+00 -0.76534178428E+03  0.20559820819E+04  0.19082228053E+04 0.  0.
        4    1    3    3  502    0 -0.18384188992E+03 -0.14720420796E+03  0.61350895360E+03  0.65716190423E+03  0.12699999809E+01 0.  1.
       -4    1    3    3    0  502  0.18384188992E+03  0.14720420796E+03 -0.13788507379E+04  0.13988201777E+04  0.12699999809E+01 0. -1.
</event>
<event>
 5   0  0.1429067E-05  0.1899470E+04  0.7818609E-02  0.8655120E-01
       -1   -1    0    0    0  501  0.00000000000E+00  0.00000000000E+00  0.13472647286E+04  0.13472647286E+04  0.50400001928E-02 0. -1.
        1   -1    0    0  501    0  0.00000000000E+00  0.00000000000E+00 -0.66950207278E+03  0.66950207280E+03  0.50400001928E-02 0.  1.
    10030    2    1    2    0    0  0.00000000000E+00  0.00000000000E+00  0.67776265577E+03  0.20167668014E+04  0.18994699559E+04 0.  0.
        3    1    3    3  502    0  0.53372785037E+03  0.72156991878E+03  0.91085635070E+01  0.89755865662E+03  0.10100000352E+00 0. -1.
       -3    1    3    3    0  502 -0.53372785037E+03 -0.72156991878E+03  0.66865409226E+03  0.11192081447E+04  0.10100000352E+00 0.  1.
</event>
<event>
 5   0  0.1010725E-05  0.1900957E+04  0.7818609E-02  0.8654380E-01
        3   -1    0    0  501    0  0.00000000000E+00  0.00000000000E+00  0.13449511411E+04  0.13449511449E+04  0.10100000352E+00 0. -1.
       -3   -1    0    0    0  501  0.00000000000E+00  0.00000000000E+00 -0.67170405882E+03  0.67170406642E+03  0.10100000352E+00 0.  1.
    10030    2    1    2    0    0  0.00000000000E+00  0.00000000000E+00  0.67324708229E+03  0.20166552113E+04  0.19009567611E+04 0.  0.
        3    1    3    3  502    0  0.19079171365E+03  0.92697497662E+03  0.42986525426E+03  0.10394557385E+04  0.10100000352E+00 0.  1.
       -3    1    3    3    0  502 -0.19079171365E+03 -0.92697497662E+03  0.24338182803E+03  0.97719947283E+03  0.10100000352E+00 0. -1.
</event>
<event>
 5   0  0.1327254E-05  0.1899647E+04  0.7818609E-02  0.8655032E-01
       -1   -1    0    0    0  501  0.00000000000E+00  0.00000000000E+00  0.52235990321E+03  0.52235990324E+03  0.50400001928E-02 0.  1.
        1   -1    0    0  501    0  0.00000000000E+00  0.00000000000E+00 -0.17270944146E+04  0.17270944146E+04  0.50400001928E-02 0. -1.
    10030    2    1    2    0    0  0.00000000000E+00  0.00000000000E+00 -0.12047345114E+04  0.22494543179E+04  0.18996472002E+04 0.  0.
        5    1    3    3  502    0 -0.56034230054E+03  0.75323178845E+03 -0.77315158059E+03  0.12161936842E+04  0.46999998093E+01 0. -1.
       -5    1    3    3    0  502  0.56034230054E+03 -0.75323178845E+03 -0.43158293081E+03  0.10332606337E+04  0.46999998093E+01 0.  1.
</event>
<event>
 5   0  0.2813537E-05  0.1910217E+04  0.7818609E-02  0.8649787E-01
       -2   -1    0    0    0  501  0.00000000000E+00  0.00000000000E+00  0.14800861871E+04  0.14800861871E+04  0.25500000920E-02 0.  1.
        2   -1    0    0  501    0  0.00000000000E+00  0.00000000000E+00 -0.61633713498E+03  0.61633713498E+03  0.25500000920E-02 0. -1.
    10030    2    1    2    0    0  0.00000000000E+00  0.00000000000E+00  0.86374905211E+03  0.20964233221E+04  0.19102168255E+04 0.  0.
        2    1    3    3  502    0 -0.47592724964E+03 -0.70624237115E+03  0.90639572639E+03  0.12437195209E+04  0.25500000920E-02 0.  1.
       -2    1    3    3    0  502  0.47592724964E+03  0.70624237115E+03 -0.42646674282E+02  0.85270380121E+03  0.25500000920E-02 0. -1.
</event>
<event>
 5   0  0.1010725E-05  0.1899887E+04  0.7818609E-02  0.8654913E-01
       -3   -1    0    0    0  501  0.00000000000E+00  0.00000000000E+00  0.52574303106E+03  0.52574304076E+03  0.10100000352E+00 0.  1.
        3   -1    0    0  501    0  0.00000000000E+00  0.00000000000E+00 -0.17164132639E+04  0.17164132669E+04  0.10100000352E+00 0. -1.
    10030    2    1    2    0    0  0.00000000000E+00  0.00000000000E+00 -0.11906702328E+04  0.22421563076E+04  0.18998866557E+04 0.  0.
        5    1    3    3  502    0  0.56640695761E+02 -0.15823391940E+03  0.50804394606E+03  0.53514192771E+03  0.46999998093E+01 0.  1.
       -5    1    3    3    0  502 -0.56640695761E+02  0.15823391940E+03 -0.16987141789E+04  0.17070143799E+04  0.46999998093E+01 0. -1.
</event>
<event>
 5   0  0.1413011E-05  0.1898656E+04  0.7818609E-02  0.8655525E-01
        1   -1    0    0  501    0  0.00000000000E+00  0.00000000000E+00  0.13881716719E+04  0.13881716719E+04  0.50400001928E-02 0. -1.
       -1   -1    0    0    0  501  0.00000000000E+00  0.00000000000E+00 -0.64921653650E+03  0.64921653652E+03  0.50400001928E-02 0.  1.
    10030    2    1    2    0    0  0.00000000000E+00  0.00000000000E+00  0.73895513541E+03  0.20373882084E+04  0.18986563722E+04 0.  0.
        1    1    3    3  502    0  0.47024806559E+03  0.33911867126E+03  0.11761290844E+04  0.13112644049E+04  0.50400001928E-02 0. -1.
       -1    1    3    3    0  502 -0.47024806559E+03 -0.33911867126E+03 -0.43717394897E+03  0.72612380355E+03  0.50400001928E-02 0.  1.
</event>
<event>
 5   0  0.2813537E-05  0.1900962E+04  0.7818609E-02  0.8654378E-01
       -2   -1    0    0    0  501  0.00000000000E+00  0.00000000000E+00  0.11786533334E+04  0.11786533334E+04  0.25500000920E-02 0.  1.
        2   -1    0    0  501    0  0.00000000000E+00  0.00000000000E+00 -0.76648013695E+03  0.76648013695E+03  0.25500000920E-02 0. -1.
    10030    2    1    2    0    0  0.00000000000E+00  0.00000000000E+00  0.41217319646E+03  0.19451334704E+04  0.19009622494E+04 0.  0.
        2    1    3    3  502    0 -0.20675377245E+03 -0.19762516971E+03 -0.72140328103E+03  0.77603190914E+03  0.25500000920E-02 0. -1.
       -2    1    3    3    0  502  0.20675377245E+03  0.19762516971E+03  0.11335764775E+04  0.11691015612E+04  0.25500000920E-02 0.  1.
</event>
<event>
 5   0  0.1344119E-05  0.1900102E+04  0.7818609E-02  0.8654806E-01
        1   -1    0    0  501    0  0.00000000000E+00  0.00000000000E+00  0.76870736102E+03  0.76870736104E+03  0.50400001928E-02 0. -1.
       -1   -1    0    0    0  501  0.00000000000E+00  0.00000000000E+00 -0.11741747254E+04  0.11741747254E+04  0.50400001928E-02 0.  1.
    10030    2    1    2    0    0  0.00000000000E+00  0.00000000000E+00 -0.40546736441E+03  0.19428820865E+04  0.19001018442E+04 0.  0.
        2    1    3    3  502    0 -0.10307798944E+03 -0.47081979038E+03  0.63441829318E+03  0.79673265130E+03  0.25500000920E-02 0. -1.
       -2    1    3    3    0  502  0.10307798944E+03  0.47081979038E+03 -0.10398856576E+04  0.11461494352E+04  0.25500000920E-02 0.  1.
</event>
<event>
 5   0  0.1344119E-05  0.1920766E+04  0.7818609E-02  0.8644588E-01
       -1   -1    0    0    0  501  0.00000000000E+00  0.00000000000E+00  0.94623398078E+03  0.94623398079E+03  0.50400001928E-02 0.  1.
        1   -1    0    0  501    0  0.00000000000E+00  0.00000000000E+00 -0.97474328356E+03  0.97474328357E+03  0.50400001928E-02 0. -1.
    10030    2    1    2    0    0  0.00000000000E+00  0.00000000000E+00 -0.28509302784E+02  0.19209772644E+04  0.19207656988E+04 0.  0.
        2    1    3    3  502    0  0.34266842177E+03  0.34677430906E+03 -0.84178832627E+03  0.97277009357E+03  0.25500000920E-02 0. -1.
       -2    1    3    3    0  502 -0.34266842177E+03 -0.34677430906E+03  0.81327902348E+03  0.94820717079E+03  0.25500000920E-02 0.  1.
</event>
<event>
 5   0  0.1471485E-05  0.1902387E+04  0.7818609E-02  0.8653669E-01
       -1   -1    0    0    0  501  0.00000000000E+00  0.00000000000E+00  0.50236449260E+03  0.50236449262E+03  0.50400001928E-02 0. -1.
        1   -1    0    0  501    0  0.00000000000E+00  0.00000000000E+00 -0.18010204860E+04  0.18010204860E+04  0.50400001928E-02 0.  1.
    10030    2    1    2    0    0  0.00000000000E+00  0.00000000000E+00 -0.12986559934E+04  0.23033849786E+04  0.19023866512E+04 0.  0.
        4    1    3    3  502    0 -0.31812161448E+03  0.88383111206E+03 -0.46808029004E+03  0.10495044388E+04  0.12699999809E+01 0. -1.
       -4    1    3    3    0  502  0.31812161448E+03 -0.88383111206E+03 -0.83057570335E+03  0.12538805398E+04  0.12699999809E+01 0.  1.
</event>
<event>
 5   0  0.1471485E-05  0.1898889E+04  0.7818609E-02  0.8655410E-01
       -1   -1    0    0    0  501  0.00000000000E+00  0.00000000000E+00  0.48491976605E+03  0.48491976608E+03  0.50400001928E-02 0.  1.
        1   -1    0    0  501    0  0.00000000000E+00  0.00000000000E+00 -0.18589569385E+04  0.18589569385E+04  0.50400001928E-02 0. -1.
    10030    2    1    2    0    0  0.00000000000E+00  0.00000000000E+00 -0.13740371725E+04  0.23438767046E+04  0.18988891108E+04 0.  0.
        4    1    3    3  502    0  0.36107254750E+03  0.10333813651E+03  0.38933186823E+03  0.54095570201E+03  0.12699999809E+01 0.  1.
       -4    1    3    3    0  502 -0.36107254750E+03 -0.10333813651E+03 -0.17633690407E+04  0.18029210026E+04  0.12699999809E+01 0. -1.
</event>
<event>
 5   0  0.1327254E-05  0.1899037E+04  0.7818609E-02  0.8655336E-01
        1   -1    0    0  501    0  0.00000000000E+00  0.00000000000E+00  0.15552842664E+04  0.15552842664E+04  0.50400001928E-02 0. -1.
       -1   -1    0    0    0  501  0.00000000000E+00  0.00000000000E+00 -0.57969147850E+03  0.57969147852E+03  0.50400001928E-02 0.  1.
    10030    2    1    2    0    0  0.00000000000E+00  0.00000000000E+00  0.97559278787E+03  0.21349757449E+04  0.18990366357E+04 0.  0.
        5    1    3    3  502    0 -0.39890430664E+03 -0.69868803745E+03 -0.79108236876E+02  0.80843665346E+03  0.46999998093E+01 0.  1.
       -5    1    3    3    0  502  0.39890430664E+03  0.69868803745E+03  0.10547010247E+04  0.13265390914E+04  0.46999998093E+01 0. -1.
</event>
<event>
 5   0  0.1429067E-05  0.1899708E+04  0.7818609E-02  0.8655002E-01
       -1   -1    0    0    0  501  0.00000000000E+00  0.00000000000E+00  0.91265268226E+03  0.91265268227E+03  0.50400001928E-02 0. -1.
        1   -1    0    0  501    0  0.00000000000E+00  0.00000000000E+00 -0.98857153430E+03  0.98857153431E+03  0.50400001928E-02 0.  1.
    10030    2    1    2    0    0  0.00000000000E+00  0.00000000000E+00 -0.75918852040E+02  0.19012242166E+04  0.18997078327E+04 0.  0.
        3    1    3    3  502    0  0.18776761108E+03 -0.22330389180E+03  0.86669858734E+03  0.91448770105E+03  0.10100000352E+00 0. -1.
       -3    1    3    3    0  502 -0.18776761108E+03  0.22330389180E+03 -0.94261743938E+03  0.98673651554E+03  0.10100000352E+00 0.  1.
</event>
<event>
 5   0  0.2789718E-05  0.1897130E+04  0.7818609E-02  0.8656286E-01
       -2   -1    0    0    0  501  0.00000000000E+00  0.00000000000E+00  0.43430227675E+03  0.43430227676E+03  0.25500000920E-02 0. -1.
        2   -1    0    0  501    0  0.00000000000E+00  0.00000000000E+00 -0.20717722409E+04  0.20717722409E+04  0.25500000920E-02 0.  1.
    10030    2    1    2    0    0  0.00000000000E+00  0.00000000000E+00 -0.16374699641E+04  0.25060745176E+04  0.18971298333E+04 0.  0.
        5    1    3    3  502    0 -0.24231659926E+03 -0.89997939636E+03 -0.10515918006E+04  0.14051859853E+04  0.46999998093E+01 0.  1.
       -5    1    3    3    0  502  0.24231659926E+03  0.89997939636E+03 -0.58587816349E+03  0.11008885323E+04  0.46999998093E+01 0. -1.
</event>
<event>
 5   0  0.1327254E-05  0.1910791E+04  0.7818609E-02  0.8649504E-01
       -1   -1    0    0    0  501  0.00000000000E+00  0.00000000000E+00  0.85840455494E+03  0.85840455496E+03  0.50400001928E-02 0.  1.
        1   -1    0    0  501    0  0.00000000000E+00  0.00000000000E+00 -0.10633452827E+04  0.10633452828E+04  0.50400001928E-02 0. -1.
    10030    2    1    2    0    0  0.00000000000E+00  0.00000000000E+00 -0.20494072780E+03  0.19217498377E+04  0.19107908668E+04 0.  0.
        5    1    3    3  502    0 -0.66199167919E+03 -0.56325191806E+03 -0.50132099317E+03  0.10034094552E+04  0.46999998093E+01 0. -1.
       -5    1    3    3    0  502  0.66199167919E+03  0.56325191806E+03  0.29638026537E+03  0.91834038255E+03  0.46999998093E+01 0.  1.
</event>
<event>
 5   0  0.2855141E-05  0.1899963E+04  0.7818609E-02  0.8654875E-01
        2   -1    0    0  501    0  0.00000000000E+00  0.00000000000E+00  0.12889469903E+04  0.12889469903E+04  0.25500000920E-02 0.  1.
       -2   -1    0    0    0  501  0.00000000000E+00  0.00000000000E+00 -0.70015695366E+03  0.70015695367E+03  0.25500000920E-02 0. -1.
    10030    2    1    2    0    0  0.00000000000E+00  0.00000000000E+00  0.58879003664E+03  0.19891039440E+04  0.18999633661E+04 0.  0.
        1    1    3    3  502    0  0.61222501651E+03 -0.40587111324E+03 -0.33629263887E+03  0.80786358402E+03  0.50400001928E-02 0. -1.
       -1    1    3    3    0  502 -0.61222501651E+03  0.40587111324E+03  0.92508267552E+03  0.11812403599E+04  0.50400001928E-02 0.  1.
</event>
<event>
 5   0  0.1429067E-05  0.1898542E+04  0.7818609E-02  0.8655582E-01
       -1   -1    0    0    0  501  0.00000000000E+00  0.00000000000E+00  0.53815334152E+03  0.53815334155E+03  0.50400001928E-02 0.  1.
        1   -1    0    0  501    0  0.00000000000E+00  0.00000000000E+00 -0.16744589838E+04  0.16744589839E+04  0.50400001928E-02 0. -1.
    10030    2    1    2    0    0  0.00000000000E+00  0.00000000000E+00 -0.11363056423E+04  0.22126123254E+04  0.18985422802E+04 0.  0.
        3    1    3    3  502    0 -0.33791083535E+03 -0.11750704078E+03  0.45657763874E+03  0.58004722883E+03  0.10100000352E+00 0.  1.
       -3    1    3    3    0  502  0.33791083535E+03  0.11750704078E+03 -0.15928832811E+04  0.16325650966E+04  0.10100000352E+00 0. -1.
</event>
<event>
 5   0  0.1471485E-05  0.1899742E+04  0.7818609E-02  0.8654985E-01
       -1   -1    0    0    0  501  0.00000000000E+00  0.00000000000E+00  0.98196113038E+03  0.98196113039E+03  0.50400001928E-02 0. -1.
        1   -1    0    0  501    0  0.00000000000E+00  0.00000000000E+00 -0.91882917266E+03  0.91882917267E+03  0.50400001928E-02 0.  1.
    10030    2    1    2    0    0  0.00000000000E+00  0.00000000000E+00  0.63131957724E+02  0.19007903031E+04  0.18997415961E+04 0.  0.
        4    1    3    3  502    0 -0.56481218312E+03  0.40379299340E+03  0.68014548641E+03  0.97193676713E+03  0.12699999809E+01 0. -1.
       -4    1    3    3    0  502  0.56481218312E+03 -0.40379299340E+03 -0.61701352869E+03  0.92885353593E+03  0.12699999809E+01 0.  1.
</event>
<event>
 5   0  0.2855141E-05  0.1898769E+04  0.7818609E-02  0.8655469E-01
       -2   -1    0    0    0  501  0.00000000000E+00  0.00000000000E+00  0.11086471967E+04  0.11086471967E+04  0.25500000920E-02 0.  1.
        2   -1    0    0  501    0  0.00000000000E+00  0.00000000000E+00 -0.81300045847E+03  0.81300045847E+03  0.25500000920E-02 0. -1.
    10030    2    1    2    0    0  0.00000000000E+00  0.00000000000E+00  0.29564673821E+03  0.19216476552E+04  0.18987687370E+04 0.  0.
        1    1    3    3  502    0  0.14004449949E+03 -0.14688002801E+03  0.10864381516E+04  0.11052303207E+04  0.50400001928E-02 0.  1.
       -1    1    3    3    0  502 -0.14004449949E+03  0.14688002801E+03 -0.79079141340E+03  0.81641733446E+03  0.50400001928E-02 0. -1.
</event>
<event>
 5   0  0.2789718E-05  0.1892445E+04  0.7818609E-02  0.8658626E-01
       -2   -1    0    0    0  501  0.00000000000E+00  0.00000000000E+00  0.36309731875E+03  0.36309731876E+03  0.25500000920E-02 0.  1.
        2   -1    0    0  501    0  0.00000000000E+00  0.00000000000E+00 -0.24658333519E+04  0.24658333519E+04  0.25500000920E-02 0. -1.
    10030    2    1    2    0    0  0.00000000000E+00  0.00000000000E+00 -0.21027360331E+04  0.28289306706E+04  0.18924454852E+04 0.  0.
        5    1    3    3  502    0 -0.12363203119E+03  0.56544702813E+03  0.67578433166E+02  0.58275565668E+03  0.46999998093E+01 0.  1.
       -5    1    3    3    0  502  0.12363203119E+03 -0.56544702813E+03 -0.21703144663E+04  0.22461750140E+04  0.46999998093E+01 0. -1.
</event>
<event>
 5   0  0.2855141E-05  0.1900279E+04  0.7818609E-02  0.8654718E-01
        2   -1    0    0  501    0  0.00000000000E+00  0.00000000000E+00  0.11200033078E+04  0.11200033078E+04  0.25500000920E-02 0. -1.
       -2   -1    0    0    0  501  0.00000000000E+00  0.00000000000E+00 -0.80603753150E+03  0.80603753150E+03  0.25500000920E-02 0.  1.
    10030    2    1    2    0    0  0.00000000000E+00  0.00000000000E+00  0.31396577631E+03  0.19260408393E+04  0.19002786127E+04 0.  0.
        1    1    3    3  502    0  0.86422305556E+03  0.18154664767E+03 -0.19837552326E+03  0.90509310201E+03  0.50400001928E-02 0.  1.
       -1    1    3    3    0  502 -0.86422305556E+03 -0.18154664767E+03  0.51234129957E+03  0.10209477373E+04  0.50400001928E-02 0. -1.
</event>
<event>
 5   0  0.2888776E-05  0.1901935E+04  0.7818609E-02  0.8653894E-01
       -2   -1    0    0    0  501  0.00000000000E+00  0.00000000000E+00  0.15462987630E+04  0.15462987630E+04  0.25500000920E-02 0. -1.
        2   -1    0    0  501    0  0.00000000000E+00  0.00000000000E+00 -0.58484110782E+03  0.58484110783E+03  0.25500000920E-02 0.  1.
    10030    2    1    2    0    0  0.00000000000E+00  0.00000000000E+00  0.96145765514E+03  0.21311398708E+04  0.19019348901E+04 0.  0.
        3    1    3    3  502    0 -0.11737835773E+03 -0.94362436944E+03  0.49372105515E+03  0.10714313417E+04  0.10100000352E+00 0.  1.
       -3    1    3    3    0  502  0.11737835773E+03  0.94362436944E+03  0.46773659999E+03  0.10597085291E+04  0.10100000352E+00 0. -1.
</event>
<event>
 5   0  0.2813537E-05  0.1898880E+04  0.7818609E-02  0.8655414E-01
        2   -1    0    0  501    0  0.00000000000E+00  0.00000000000E+00  0.10932787307E+04  0.10932787307E+04  0.25500000920E-02 0.  1.
       -2   -1    0    0    0  501  0.00000000000E+00  0.00000000000E+00 -0.82452551254E+03  0.82452551254E+03  0.25500000920E-02 0. -1.
    10030    2    1    2    0    0  0.00000000000E+00  0.00000000000E+00  0.26875321816E+03  0.19178042432E+04  0.18988798864E+04 0.  0.
        2    1    3    3  502    0  0.28811458832E+03 -0.70396897434E+03  0.70824166614E+03  0.10393212162E+04  0.25500000920E-02 0.  1.
       -2    1    3    3    0  502 -0.28811458832E+03  0.70396897434E+03 -0.43948844798E+03  0.87848302702E+03  0.25500000920E-02 0. -1.
</event>
<event>
 5   0  0.2855141E-05  0.1904307E+04  0.7818609E-02  0.8652716E-01
        2   -1    0    0  501    0  0.00000000000E+00  0.00000000000E+00  0.13094613458E+04  0.13094613458E+04  0.25500000920E-02 0.  1.
       -2   -1    0    0    0  501  0.00000000000E+00  0.00000000000E+00 -0.69234275967E+03  0.69234275967E+03  0.25500000920E-02 0. -1.
    10030    2    1    2    0    0  0.00000000000E+00  0.00000000000E+00  0.61711858610E+03  0.20018041054E+04  0.19043067839E+04 0.  0.
        1    1    3    3  502    0 -0.94606842825E+03  0.84805419984E+02  0.23915909037E+03  0.97950727446E+03  0.50400001928E-02 0. -1.
       -1    1    3    3    0  502  0.94606842825E+03 -0.84805419984E+02  0.37795949573E+03  0.10222968310E+04  0.50400001928E-02 0.  1.
</event>
<event>
 5   0  0.1327254E-05  0.1904106E+04  0.7818609E-02  0.8652815E-01
        1   -1    0    0  501    0  0.00000000000E+00  0.00000000000E+00  0.13636399426E+04  0.13636399426E+04  0.50400001928E-02 0. -1.
       -1   -1    0    0    0  501  0.00000000000E+00  0.00000000000E+00 -0.66469538854E+03  0.66469538856E+03  0.50400001928E-02 0.  1.
    10030    2    1    2    0    0  0.00000000000E+00  0.00000000000E+00  0.69894455404E+03  0.20283353311E+04  0.19041062801E+04 0.  0.
        5    1    3    3  502    0 -0.15090930695E+03 -0.24797325081E+03 -0.61639142233E+03  0.68134046376E+03  0.46999998093E+01 0.  1.
       -5    1    3    3    0  502  0.15090930695E+03  0.24797325081E+03  0.13153359764E+04  0.13469948674E+04  0.46999998093E+01 0. -1.
</event>
<event>
 5   0  0.1327254E-05  0.1900540E+04  0.7818609E-02  0.8654588E-01
       -1   -1    0    0    0  501  0.00000000000E+00  0.00000000000E+00  0.59452958518E+03  0.59452958520E+03  0.50400001928E-02 0. -1.
        1   -1    0    0  501    0  0.00000000000E+00  0.00000000000E+00 -0.15188701537E+04  0.15188701537E+04  0.50400001928E-02 0.  1.
    10030    2    1    2    0    0  0.00000000000E+00  0.00000000000E+00 -0.92434056851E+03  0.21133997389E+04  0.19005401784E+04 0.  0.
        5    1    3    3  502    0  0.47314144670E+03 -0.10529984132E+03 -0.13710489614E+04  0.14542173943E+04  0.46999998093E+01 0.  1.
       -5    1    3    3    0  502 -0.47314144670E+03  0.10529984132E+03  0.44670839292E+03  0.65918234463E+03  0.46999998093E+01 0. -1.
</event>
<event>
 5   0  0.2813537E-05  0.1900455E+04  0.7818609E-02  0.8654630E-01
        2   -1    0    0  501    0  0.00000000000E+00  0.00000000000E+00  0.16558952050E+04  0.16558952050E+04  0.25500000920E-02 0. -1.
       -2   -1    0    0    0  501  0.00000000000E+00  0.00000000000E+00 -0.54528359171E+03  0.54528359172E+03  0.25500000920E-02 0.  1.
    10030    2    1    2    0    0  0.00000000000E+00  0.00000000000E+00  0.11106116133E+04  0.22011787968E+04  0.19004551927E+04 0.  0.
        2    1    3    3  502    0  0.44848429947E+03  0.53655321396E+03  0.13004631831E+04  0.14765608720E+04  0.25500000920E-02 0. -1.
       -2    1    3    3    0  502 -0.44848429947E+03 -0.53655321396E+03 -0.18985156975E+03  0.72461792472E+03  0.25500000920E-02 0.  1.
</event>
<event>
 5   0  0.1429067E-05  0.1898617E+04  0.7818609E-02  0.8655545E-01
       -1   -1    0    0    0  501  0.00000000000E+00  0.00000000000E+00  0.66779133981E+03  0.66779133983E+03  0.50400001928E-02 0. -1.
        1   -1    0    0  501    0  0.00000000000E+00  0.00000000000E+00 -0.13495035465E+04  0.13495035465E+04  0.50400001928E-02 0.  1.
    10030    2    1    2    0    0  0.00000000000E+00  0.00000000000E+00 -0.68171220666E+03  0.20172948863E+04  0.18986171614E+04 0.  0.
        3    1    3    3  502    0  0.72348538108E+03 -0.31373674580E+03  0.22069183094E+03  0.81888139358E+03  0.10100000352E+00 0. -1.
       -3    1    3    3    0  502 -0.72348538108E+03  0.31373674580E+03 -0.90240403760E+03  0.11984134927E+04  0.10100000352E+00 0.  1.
</event>
<event>
 5   0  0.1327254E-05  0.1898479E+04  0.7818609E-02  0.8655614E-01
       -1   -1    0    0    0  501  0.00000000000E+00  0.00000000000E+00  0.17876907489E+04  0.17876907489E+04  0.50400001928E-02 0. -1.
        1   -1    0    0  501    0  0.00000000000E+00  0.00000000000E+00 -0.50403348586E+03  0.50403348588E+03  0.50400001928E-02 0.  1.
    10030    2    1    2    0    0  0.00000000000E+00  0.00000000000E+00  0.12836572631E+04  0.22917242348E+04  0.18984793914E+04 0.  0.
        5    1    3    3  502    0 -0.24639151421E+03 -0.12441704215E+03  0.17381623801E+04  0.17599485584E+04  0.46999998093E+01 0. -1.
       -5    1    3    3    0  502  0.24639151421E+03  0.12441704215E+03 -0.45450511701E+03  0.53177567643E+03  0.46999998093E+01 0.  1.
</event>
<event>
 5   0  0.1010725E-05  0.1898908E+04  0.7818609E-02  0.8655400E-01
       -4   -1    0    0    0  501  0.00000000000E+00  0.00000000000E+00  0.86332896965E+03  0.86332990377E+03  0.12699999809E+01 0. -1.
        4   -1    0    0  501    0  0.00000000000E+00  0.00000000000E+00 -0.10441690880E+04  0.10441698604E+04  0.12699999809E+01 0.  1.
    10030    2    1    2    0    0  0.00000000000E+00  0.00000000000E+00 -0.18084011838E+03  0.19074997641E+04  0.18989081604E+04 0.  0.
        3    1    3    3  502    0  0.36691055787E+03  0.61055650541E+03  0.54016249179E+03  0.89396763449E+03  0.10100000352E+00 0. -1.
       -3    1    3    3    0  502 -0.36691055787E+03 -0.61055650541E+03 -0.72100261016E+03  0.10135321297E+04  0.10100000352E+00 0.  1.
</event>
<event>
 5   0  0.2888776E-05  0.1903499E+04  0.7818609E-02  0.8653117E-01
        2   -1    0    0  501    0  0.00000000000E+00  0.00000000000E+00  0.20078332928E+04  0.20078332928E+04  0.25500000920E-02 0. -1.
       -2   -1    0    0    0  501  0.00000000000E+00  0.00000000000E+00 -0.45114670875E+03  0.45114670876E+03  0.25500000920E-02 0.  1.
    10030    2    1    2    0    0  0.00000000000E+00  0.00000000000E+00  0.15566865841E+04  0.24589800016E+04  0.19034992848E+04 0.  0.
        3    1    3    3  502    0 -0.50123937465E+03  0.18994345740E+03 -0.23761275521E+03  0.58632692190E+03  0.10100000352E+00 0.  1.
       -3    1    3    3    0  502  0.50123937465E+03 -0.18994345740E+03  0.17942993393E+04  0.18726530797E+04  0.10100000352E+00 0. -1.
</event>
<event>
 5   0  0.1010725E-05  0.1896885E+04  0.7818609E-02  0.8656409E-01
        3   -1    0    0  501    0  0.00000000000E+00  0.00000000000E+00  0.11269066798E+04  0.11269066843E+04  0.10100000352E+00 0. -1.
       -3   -1    0    0    0  501  0.00000000000E+00  0.00000000000E+00 -0.79824095758E+03  0.79824096397E+03  0.10100000352E+00 0.  1.
    10030    2    1    2    0    0  0.00000000000E+00  0.00000000000E+00  0.32866572222E+03  0.19251476483E+04  0.18968848965E+04 0.  0.
        4    1    3    3  502    0  0.75630491170E+02  0.19648360006E+03 -0.77422465974E+03  0.80234108267E+03  0.12699999809E+01 0.  1.
       -4    1    3    3    0  502 -0.75630491170E+02 -0.19648360006E+03  0.11028903820E+04  0.11228065656E+04  0.12699999809E+01 0. -1.
</event>
<event>
 5   0  0.2813537E-05  0.1897774E+04  0.7818609E-02  0.8655965E-01
       -2   -1    0    0    0  501  0.00000000000E+00  0.00000000000E+00  0.86284067765E+03  0.86284067765E+03  0.25500000920E-02 0. -1.
        2   -1    0    0  501    0  0.00000000000E+00  0.00000000000E+00 -0.10435144404E+04  0.10435144404E+04  0.25500000920E-02 0.  1.
    10030    2    1    2    0    0  0.00000000000E+00  0.00000000000E+00 -0.18067376273E+03  0.19063551180E+04  0.18977741772E+04 0.  0.
        2    1    3    3  502    0  0.49168242322E+03 -0.38598037665E+03 -0.80746557048E+03  0.10211430380E+04  0.25500000920E-02 0.  1.
       -2    1    3    3    0  502 -0.49168242322E+03  0.38598037665E+03  0.62679180774E+03  0.88521208008E+03  0.25500000920E-02 0. -1.
</event>
<event>
 5   0  0.1413011E-05  0.1897667E+04  0.7818609E-02  0.8656018E-01
        1   -1    0    0  501    0  0.00000000000E+00  0.00000000000E+00  0.10349168805E+04  0.10349168805E+04  0.50400001928E-02 0.  1.
       -1   -1    0    0    0  501  0.00000000000E+00  0.00000000000E+00 -0.86991058816E+03  0.86991058817E+03  0.50400001928E-02 0. -1.
    10030    2    1    2    0    0  0.00000000000E+00  0.00000000000E+00  0.16500629234E+03  0.19048274687E+04  0.18976671491E+04 0.  0.
        1    1    3    3  502    0  0.42190193795E+03 -0.68348809286E+02 -0.76781325700E+03  0.87875480233E+03  0.50400001928E-02 0. -1.
       -1    1    3    3    0  502 -0.42190193795E+03  0.68348809286E+02  0.93281954934E+03  0.10260726663E+04  0.50400001928E-02 0.  1.
</event>
<event>
 5   0  0.2888776E-05  0.1899593E+04  0.7818609E-02  0.8655059E-01
        2   -1    0    0  501    0  0.00000000000E+00  0.00000000000E+00  0.27021933204E+04  0.27021933204E+04  0.25500000920E-02 0. -1.
       -2   -1    0    0    0  501  0.00000000000E+00  0.00000000000E+00 -0.33384492279E+03  0.33384492280E+03  0.25500000920E-02 0.  1.
    10030    2    1    2    0    0  0.00000000000E+00  0.00000000000E+00  0.23683483976E+04  0.30360382432E+04  0.18995931358E+04 0.  0.
        3    1    3    3  502    0 -0.22027101834E+03  0.35421066857E+03 -0.17962618330E+03  0.45414765791E+03  0.10100000352E+00 0.  1.
       -3    1    3    3    0  502  0.22027101834E+03 -0.35421066857E+03  0.25479745809E+04  0.25818905853E+04  0.10100000352E+00 0. -1.
</event>
<event>
 5   0  0.1344119E-05  0.1901284E+04  0.7818609E-02  0.8654218E-01
        1   -1    0    0  501    0  0.00000000000E+00  0.00000000000E+00  0.12534749575E+04  0.12534749575E+04  0.50400001928E-02 0.  1.
       -1   -1    0    0    0  501  0.00000000000E+00  0.00000000000E+00 -0.72097187966E+03  0.72097187968E+03  0.50400001928E-02 0. -1.
    10030    2    1    2    0    0  0.00000000000E+00  0.00000000000E+00  0.53250307785E+03  0.19744468372E+04  0.19012839833E+04 0.  0.
        2    1    3    3  502    0  0.87329058960E+03  0.30903016021E+03  0.44531391366E+02  0.92742608257E+03  0.25500000920E-02 0. -1.
       -2    1    3    3    0  502 -0.87329058960E+03 -0.30903016021E+03  0.48797168649E+03  0.10470207546E+04  0.25500000920E-02 0.  1.
</event>
<event>
 5   0  0.1327254E-05  0.1900612E+04  0.7818609E-02  0.8654552E-01
       -1   -1    0    0    0  501  0.00000000000E+00  0.00000000000E+00  0.89265591909E+03  0.89265591910E+03  0.50400001928E-02 0.  1.
        1   -1    0    0  501    0  0.00000000000E+00  0.00000000000E+00 -0.10116793248E+04  0.10116793248E+04  0.50400001928E-02 0. -1.
    10030    2    1    2    0    0  0.00000000000E+00  0.00000000000E+00 -0.11902340573E+03  0.19043352439E+04  0.19006120462E+04 0.  0.
        5    1    3    3  502    0  0.88076343096E+03 -0.35677518518E+03 -0.54335010028E+02  0.95184407199E+03  0.46999998093E+01 0.  1.
       -5    1    3    3    0  502 -0.88076343096E+03  0.35677518518E+03 -0.64688395702E+02  0.95249117193E+03  0.46999998093E+01 0. -1.
</event>
<event>
 5   0  0.1327254E-05  0.1907479E+04  0.7818609E-02  0.8651143E-01
       -1   -1    0    0    0  501  0.00000000000E+00  0.00000000000E+00  0.73318617894E+03  0.73318617896E+03  0.50400001928E-02 0. -1.
        1   -1    0    0  501    0  0.00000000000E+00  0.00000000000E+00 -0.12406386261E+04  0.12406386261E+04  0.50400001928E-02 0.  1.
    10030    2    1    2    0    0  0.00000000000E+00  0.00000000000E+00 -0.50745244718E+03  0.19738248051E+04  0.19074790628E+04 0.  0.
        5    1    3    3  502    0 -0.44889352515E+03 -0.52782061881E+03 -0.93188110272E+03  0.11612598685E+04  0.46999998093E+01 0.  1.
       -5    1    3    3    0  502  0.44889352515E+03  0.52782061881E+03  0.42442865554E+03  0.81256493660E+03  0.46999998093E+01 0. -1.
</event>
<event>
 5   0  0.1344119E-05  0.1883151E+04  0.7818609E-02  0.8663289E-01
        1   -1    0    0  501    0  0.00000000000E+00  0.00000000000E+00  0.15646587445E+04  0.15646587445E+04  0.50400001928E-02 0.  1.
       -1   -1    0    0    0  501  0.00000000000E+00  0.00000000000E+00 -0.56661821571E+03  0.56661821574E+03  0.50400001928E-02 0. -1.
    10030    2    1    2    0    0  0.00000000000E+00  0.00000000000E+00  0.99804052876E+03  0.21312769602E+04  0.18831507067E+04 0.  0.
        2    1    3    3  502    0  0.87534334535E+02  0.20625429021E+03 -0.53600681694E+03  0.58095300994E+03  0.25500000920E-02 0. -1.
       -2    1    3    3    0  502 -0.87534334535E+02 -0.20625429021E+03  0.15340473457E+04  0.15503239503E+04  0.25500000920E-02 0.  1.
</event>
<event>
 5   0  0.2879462E-05  0.1901117E+04  0.7818609E-02  0.8654301E-01
        2   -1    0    0  501    0  0.00000000000E+00  0.00000000000E+00  0.11445239739E+04  0.11445239739E+04  0.25500000920E-02 0.  1.
       -2   -1    0    0    0  501  0.00000000000E+00  0.00000000000E+00 -0.78946447867E+03  0.78946447867E+03  0.25500000920E-02 0. -1.
    10030    2    1    2    0    0  0.00000000000E+00  0.00000000000E+00  0.35505949528E+03  0.19339884526E+04  0.19011165376E+04 0.  0.
        4    1    3    3  502    0 -0.66570833017E+03 -0.52225008815E+03 -0.26314237000E+03  0.88609156142E+03  0.12699999809E+01 0. -1.
       -4    1    3    3    0  502  0.66570833017E+03  0.52225008815E+03  0.61820186528E+03  0.10478968912E+04  0.12699999809E+01 0.  1.
</event>
<event>
 5   0  0.1471485E-05  0.1898461E+04  0.7818609E-02  0.8655623E-01
       -1   -1    0    0    0  501  0.00000000000E+00  0.00000000000E+00  0.68550184741E+03  0.68550184743E+03  0.50400001928E-02 0.  1.
        1   -1    0    0  501    0  0.00000000000E+00  0.00000000000E+00 -0.13144214808E+04  0.13144214808E+04  0.50400001928E-02 0. -1.
    10030    2    1    2    0    0  0.00000000000E+00  0.00000000000E+00 -0.62891963338E+03  0.19999233282E+04  0.18984608012E+04 0.  0.
        4    1    3    3  502    0 -0.56113647489E+03 -0.36758445109E+03 -0.10219514301E+04  0.12224478764E+04  0.12699999809E+01 0. -1.
       -4    1    3    3    0  502  0.56113647489E+03  0.36758445109E+03  0.39303179669E+03  0.77747545186E+03  0.12699999809E+01 0.  1.
</event>
<event>
 5   0  0.1327254E-05  0.1900223E+04  0.7818609E-02  0.8654745E-01
       -1   -1    0    0    0  501  0.00000000000E+00  0.00000000000E+00  0.11741180696E+04  0.11741180696E+04  0.50400001928E-02 0.  1.
        1   -1    0    0  501    0  0.00000000000E+00  0.00000000000E+00 -0.76884283922E+03  0.76884283923E+03  0.50400001928E-02 0. -1.
    10030    2    1    2    0    0  0.00000000000E+00  0.00000000000E+00  0.40527523040E+03  0.19429609089E+04  0.19002234292E+04 0.  0.
        5    1    3    3  502    0  0.25979314328E+03  0.89376356244E+03  0.39767460607E+03  0.10121625191E+04  0.46999998093E+01 0.  1.
       -5    1    3    3    0  502 -0.25979314328E+03 -0.89376356244E+03  0.76006243368E+01  0.93079838973E+03  0.46999998093E+01 0. -1.
</event>
<event>
 5   0  0.1344119E-05  0.1899084E+04  0.7818609E-02  0.8655313E-01
       -1   -1    0    0    0  501  0.00000000000E+00  0.00000000000E+00  0.62349611651E+03  0.62349611653E+03  0.50400001928E-02 0. -1.
        1   -1    0    0  501    0  0.00000000000E+00  0.00000000000E+00 -0.14460874597E+04  0.14460874597E+04  0.50400001928E-02 0.  1.
    10030    2    1    2    0    0  0.00000000000E+00  0.00000000000E+00 -0.82259134315E+03  0.20695835762E+04  0.18990839005E+04 0.  0.
        2    1    3    3  502    0 -0.77562227304E+03  0.49615180468E+03 -0.15835074344E+03  0.93425450583E+03  0.25500000920E-02 0. -1.
       -2    1    3    3    0  502  0.77562227304E+03 -0.49615180468E+03 -0.66424059971E+03  0.11353290704E+04  0.25500000920E-02 0.  1.
</event>
<event>
 5   0  0.2855141E-05  0.1896368E+04  0.7818609E-02  0.8656667E-01
        2   -1    0    0  501    0  0.00000000000E+00  0.00000000000E+00  0.13493168254E+04  0.13493168254E+04  0.25500000920E-02 0.  1.
       -2   -1    0    0    0  501  0.00000000000E+00  0.00000000000E+00 -0.66630196130E+03  0.66630196130E+03  0.25500000920E-02 0. -1.
    10030    2    1    2    0    0  0.00000000000E+00  0.00000000000E+00  0.68301486413E+03  0.20156187867E+04  0.18963675247E+04 0.  0.
        1    1    3    3  502    0  0.61562905557E+02 -0.93069605451E+03  0.52271999759E+03  0.10692152885E+04  0.50400001928E-02 0. -1.
       -1    1    3    3    0  502 -0.61562905557E+02  0.93069605451E+03  0.16029486654E+03  0.94640349825E+03  0.50400001928E-02 0.  1.
</event>
<event>
 5   0  0.2888776E-05  0.1900401E+04  0.7818609E-02  0.8654657E-01
        2   -1    0    0  501    0  0.00000000000E+00  0.00000000000E+00  0.83431438160E+03  0.83431438160E+03  0.25500000920E-02 0. -1.
       -2   -1    0    0    0  501  0.00000000000E+00  0.00000000000E+00 -0.10821827995E+04  0.10821827995E+04  0.25500000920E-02 0.  1.
    10030    2    1    2    0    0  0.00000000000E+00  0.00000000000E+00 -0.24786841790E+03  0.19164971811E+04  0.19004006663E+04 0.  0.
        3    1    3    3  502    0  0.41893564650E+03  0.12207483947E+03 -0.97516378416E+03  0.10683415926E+04  0.10100000352E+00 0.  1.
       -3    1    3    3    0  502 -0.41893564650E+03 -0.12207483947E+03  0.72729536626E+03  0.84815558851E+03  0.10100000352E+00 0. -1.
</event>
<event>
 5   0  0.2888776E-05  0.1901037E+04  0.7818609E-02  0.8654341E-01
        2   -1    0    0  501    0  0.00000000000E+00  0.00000000000E+00  0.50447312519E+03  0.50447312520E+03  0.25500000920E-02 0. -1.
       -2   -1    0    0    0  501  0.00000000000E+00  0.00000000000E+00 -0.17909476331E+04  0.17909476331E+04  0.25500000920E-02 0.  1.
    10030    2    1    2    0    0  0.00000000000E+00  0.00000000000E+00 -0.12864745079E+04  0.22954207583E+04  0.19010365062E+04 0.  0.
        3    1    3    3  502    0  0.39226926782E+03  0.83733022351E+03 -0.37735561579E+03  0.99869632654E+03  0.10100000352E+00 0. -1.
       -3    1    3    3    0  502 -0.39226926782E+03 -0.83733022351E+03 -0.90911889209E+03  0.12967244317E+04  0.10100000352E+00 0.  1.
</event>
<event>
 5   0  0.1471485E-05  0.1899345E+04  0.7818609E-02  0.8655183E-01
        1   -1    0    0  501    0  0.00000000000E+00  0.00000000000E+00  0.12730366445E+04  0.12730366445E+04  0.50400001928E-02 0. -1.
       -1   -1    0    0    0  501  0.00000000000E+00  0.00000000000E+00 -0.70844599289E+03  0.70844599291E+03  0.50400001928E-02 0.  1.
    10030    2    1    2    0    0  0.00000000000E+00  0.00000000000E+00  0.56459065165E+03  0.19814826375E+04  0.18993448446E+04 0.  0.
        4    1    3    3  502    0  0.80882755871E+03  0.12611768869E+03 -0.21994729605E+03  0.84763560394E+03  0.12699999809E+01 0.  1.
       -4    1    3    3    0  502 -0.80882755871E+03 -0.12611768869E+03  0.78453794770E+03  0.11338470335E+04  0.12699999809E+01 0. -1.
</event>
<event>
 5   0  0.2855141E-05  0.1903817E+04  0.7818609E-02  0.8652959E-01
       -2   -1    0    0    0  501  0.00000000000E+00  0.00000000000E+00  0.12185572837E+04  0.12185572837E+04  0.25500000920E-02 0. -1.
        2   -1    0    0  501    0  0.00000000000E+00  0.00000000000E+00 -0.74360859574E+03  0.74360859574E+03  0.25500000920E-02 0.  1.
    10030    2    1    2    0    0  0.00000000000E+00  0.00000000000E+00  0.47494868792E+03  0.19621658794E+04  0.19038168720E+04 0.  0.
        1    1    3    3  502    0 -0.72555215056E+03  0.30865013749E+03 -0.31219940603E+03  0.84803260533E+03  0.50400001928E-02 0.  1.
       -1    1    3    3    0  502  0.72555215056E+03 -0.30865013749E+03  0.78714809396E+03  0.11141332741E+04  0.50400001928E-02 0. -1.
</event>
<event>
 5   0  0.1344119E-05  0.1898525E+04  0.7818609E-02  0.8655591E-01
        1   -1    0    0  501    0  0.00000000000E+00  0.00000000000E+00  0.46914234097E+03  0.46914234100E+03  0.50400001928E-02 0.  1.
       -1   -1    0    0    0  501  0.00000000000E+00  0.00000000000E+00 -0.19207380260E+04  0.19207380260E+04  0.50400001928E-02 0. -1.
    10030    2    1    2    0    0  0.00000000000E+00  0.00000000000E+00 -0.14515956850E+04  0.23898803670E+04  0.18985252529E+04 0.  0.
        2    1    3    3  502    0  0.13348774713E+03  0.79564527796E+03 -0.13554906475E+04  0.15774109428E+04  0.25500000920E-02 0. -1.
       -2    1    3    3    0  502 -0.13348774713E+03 -0.79564527796E+03 -0.96105037470E+02  0.81246942416E+03  0.25500000920E-02 0.  1.
</event>
<event>
 5   0  0.1429067E-05  0.1894361E+04  0.7818609E-02  0.8657668E-01
       -1   -1    0    0    0  501  0.00000000000E+00  0.00000000000E+00  0.77667822084E+03  0.77667822086E+03  0.50400001928E-02 0. -1.
        1   -1    0    0  501    0  0.00000000000E+00  0.00000000000E+00 -0.11551127694E+04  0.11551127695E+04  0.50400001928E-02 0.  1.
    10030    2    1    2    0    0  0.00000000000E+00  0.00000000000E+00 -0.37843454861E+03  0.19317909903E+04  0.18943610328E+04 0.  0.
        3    1    3    3  502    0  0.53723681911E+03  0.24729140000E+03 -0.94368324990E+03  0.11136940885E+04  0.10100000352E+00 0.  1.
       -3    1    3    3    0  502 -0.53723681911E+03 -0.24729140000E+03  0.56524870129E+03  0.81809690186E+03  0.10100000352E+00 0. -1.
</event>
<event>
 5   0  0.1327254E-05  0.1882990E+04  0.7818609E-02  0.8663370E-01
        1   -1    0    0  501    0  0.00000000000E+00  0.00000000000E+00  0.10771010473E+04  0.10771010473E+04  0.50400001928E-02 0.  1.
       -1   -1    0    0    0  501  0.00000000000E+00  0.00000000000E+00 -0.82296158986E+03  0.82296158988E+03  0.50400001928E-02 0. -1.
    10030    2    1    2    0    0  0.00000000000E+00  0.00000000000E+00  0.25413945746E+03  0.19000626372E+04  0.18829899526E+04 0.  0.
        5    1    3    3  502    0  0.71985724698E+03 -0.33561640811E+03 -0.38304110373E+03  0.88180236254E+03  0.46999998093E+01 0. -1.
       -5    1    3    3    0  502 -0.71985724698E+03  0.33561640811E+03  0.63718056119E+03  0.10182602747E+04  0.46999998093E+01 0.  1.
</event>
<event>
 5   0  0.2813537E-05  0.1897537E+04  0.7818609E-02  0.8656083E-01
        2   -1    0    0  501    0  0.00000000000E+00  0.00000000000E+00  0.81311288731E+03  0.81311288732E+03  0.25500000920E-02 0. -1.
       -2   -1    0    0    0  501  0.00000000000E+00  0.00000000000E+00 -0.11070565755E+04  0.11070565755E+04  0.25500000920E-02 0.  1.
    10030    2    1    2    0    0  0.00000000000E+00  0.00000000000E+00 -0.29394368823E+03  0.19201694629E+04  0.18975373183E+04 0.  0.
        2    1    3    3  502    0  0.30213309369E+03  0.19110339715E+02 -0.10568695371E+04  0.10993738353E+04  0.25500000920E-02 0.  1.
       -2    1    3    3    0  502 -0.30213309369E+03 -0.19110339715E+02  0.76292584883E+03  0.82079562755E+03  0.25500000920E-02 0. -1.
</event>
<event>
 5   0  0.2855141E-05  0.1898654E+04  0.7818609E-02  0.8655527E-01
       -2   -1    0    0    0  501  0.00000000000E+00  0.00000000000E+00  0.11777567569E+04  0.11777567569E+04  0.25500000920E-02 0.  1.
        2   -1    0    0  501    0  0.00000000000E+00  0.00000000000E+00 -0.76520159633E+03  0.76520159633E+03  0.25500000920E-02 0. -1.
    10030    2    1    2    0    0  0.00000000000E+00  0.00000000000E+00  0.41255516056E+03  0.19429583532E+04  0.18986535760E+04 0.  0.
        1    1    3    3  502    0  0.65355917767E+03 -0.29535461076E+03  0.84276174683E+03  0.11066260917E+04  0.50400001928E-02 0.  1.
       -1    1    3    3    0  502 -0.65355917767E+03  0.29535461076E+03 -0.43020658627E+03  0.83633226155E+03  0.50400001928E-02 0. -1.
</event>
<event>
 5   0  0.2789718E-05  0.1898957E+04  0.7818609E-02  0.8655376E-01
       -2   -1    0    0    0  501  0.00000000000E+00  0.00000000000E+00  0.11712575226E+04  0.11712575226E+04  0.25500000920E-02 0. -1.
        2   -1    0    0  501    0  0.00000000000E+00  0.00000000000E+00 -0.76969382172E+03  0.76969382172E+03  0.25500000920E-02 0.  1.
    10030    2    1    2    0    0  0.00000000000E+00  0.00000000000E+00  0.40156370090E+03  0.19409513443E+04  0.18989572705E+04 0.  0.
        5    1    3    3  502    0  0.53854760309E+03  0.70959855535E+03 -0.13500090510E+03  0.90100552991E+03  0.46999998093E+01 0.  1.
       -5    1    3    3    0  502 -0.53854760309E+03 -0.70959855535E+03  0.53656460600E+03  0.10399458144E+04  0.46999998093E+01 0. -1.
</event>
<event>
 5   0  0.1344119E-05  0.1899542E+04  0.7818609E-02  0.8655084E-01
       -1   -1    0    0    0  501  0.00000000000E+00  0.00000000000E+00  0.96936112892E+03  0.96936112893E+03  0.50400001928E-02 0. -1.
        1   -1    0    0  501    0  0.00000000000E+00  0.00000000000E+00 -0.93057713073E+03  0.93057713074E+03  0.50400001928E-02 0.  1.
    10030    2    1    2    0    0  0.00000000000E+00  0.00000000000E+00  0.38783998190E+02  0.18999382597E+04  0.18995423638E+04 0.  0.
        2    1    3    3  502    0  0.24590204644E+03  0.39717766564E+03 -0.80773100460E+03  0.93308482483E+03  0.25500000920E-02 0.  1.
       -2    1    3    3    0  502 -0.24590204644E+03 -0.39717766564E+03  0.84651500279E+03  0.96685343485E+03  0.25500000920E-02 0. -1.
</event>
<event>
 5   0  0.2879462E-05  0.1898311E+04  0.7818609E-02  0.8655697E-01
       -2   -1    0    0    0  501  0.00000000000E+00  0.00000000000E+00  0.47709657628E+03  0.47709657629E+03  0.25500000920E-02 0.  1.
        2   -1    0    0  501    0  0.00000000000E+00  0.00000000000E+00 -0.18882896625E+04  0.18882896625E+04  0.25500000920E-02 0. -1.
    10030    2    1    2    0    0  0.00000000000E+00  0.00000000000E+00 -0.14111930862E+04  0.23653862388E+04  0.18983113896E+04 0.  0.
        4    1    3    3  502    0  0.82114604880E+03  0.25661387721E+03 -0.20598989358E+03  0.88462702004E+03  0.12699999809E+01 0.  1.
       -4    1    3    3    0  502 -0.82114604880E+03 -0.25661387721E+03 -0.12052031926E+04  0.14807592187E+04  0.12699999809E+01 0. -1.
</event>
<event>
 5   0  0.2855141E-05  0.1897436E+04  0.7818609E-02  0.8656134E-01
        2   -1    0    0  501    0  0.00000000000E+00  0.00000000000E+00  0.14815800826E+04  0.14815800826E+04  0.25500000920E-02 0.  1.
       -2   -1    0    0    0  501  0.00000000000E+00  0.00000000000E+00 -0.60750396925E+03  0.60750396926E+03  0.25500000920E-02 0. -1.
    10030    2    1    2    0    0  0.00000000000E+00  0.00000000000E+00  0.87407611333E+03  0.20890840518E+04  0.18974359340E+04 0.  0.
        1    1    3    3  502    0  0.23065752401E+03 -0.87518359061E+03  0.75022779633E+03  0.11755811146E+04  0.50400001928E-02 0.  1.
       -1    1    3    3    0  502 -0.23065752401E+03  0.87518359061E+03  0.12384831700E+03  0.91350293721E+03  0.50400001928E-02 0. -1.
</event>
<event>
 5   0  0.1413011E-05  0.1908398E+04  0.7818609E-02  0.8650688E-01
       -1   -1    0    0    0  501  0.00000000000E+00  0.00000000000E+00  0.58522255990E+03  0.58522255992E+03  0.50400001928E-02 0. -1.
        1   -1    0    0  501    0  0.00000000000E+00  0.00000000000E+00 -0.15558103540E+04  0.15558103540E+04  0.50400001928E-02 0.  1.
    10030    2    1    2    0    0  0.00000000000E+00  0.00000000000E+00 -0.97058779408E+03  0.21410329139E+04  0.19083975667E+04 0.  0.
        1    1    3    3  502    0  0.24171578145E+03 -0.92304307131E+03 -0.47658288888E+03  0.10665675227E+04  0.50400001928E-02 0. -1.
       -1    1    3    3    0  502 -0.24171578145E+03  0.92304307131E+03 -0.49400490520E+03  0.10744653912E+04  0.50400001928E-02 0.  1.
</event>
<event>
 5   0  0.1327254E-05  0.1899638E+04  0.7818609E-02  0.8655036E-01
       -1   -1    0    0    0  501  0.00000000000E+00  0.00000000000E+00  0.14273308254E+04  0.14273308255E+04  0.50400001928E-02 0. -1.
        1   -1    0    0  501    0  0.00000000000E+00  0.00000000000E+00 -0.63205851396E+03  0.63205851398E+03  0.50400001928E-02 0.  1.
    10030    2    1    2    0    0  0.00000000000E+00  0.00000000000E+00  0.79527231148E+03  0.20593893394E+04  0.18996384924E+04 0.  0.
        5    1    3    3  502    0  0.12785305799E+03 -0.52785589268E+03  0.12423658066E+04  0.13559030700E+04  0.46999998093E+01 0. -1.
       -5    1    3    3    0  502 -0.12785305799E+03  0.52785589268E+03 -0.44709349512E+03  0.70348626941E+03  0.46999998093E+01 0.  1.
</event>
<event>
 5   0  0.2789718E-05  0.1899777E+04  0.7818609E-02  0.8654967E-01
       -2   -1    0    0    0  501  0.00000000000E+00  0.00000000000E+00  0.83099267923E+03  0.83099267924E+03  0.25500000920E-02 0.  1.
        2   -1    0    0  501    0  0.00000000000E+00  0.00000000000E+00 -0.10857955719E+04  0.10857955719E+04  0.25500000920E-02 0. -1.
    10030    2    1    2    0    0  0.00000000000E+00  0.00000000000E+00 -0.25480289262E+03  0.19167882511E+04  0.18997770094E+04 0.  0.
        5    1    3    3  502    0 -0.12348239586E+03 -0.56051013140E+03 -0.89104496535E+03  0.10599069439E+04  0.46999998093E+01 0. -1.
       -5    1    3    3    0  502  0.12348239586E+03  0.56051013140E+03  0.63624207273E+03  0.85688130718E+03  0.46999998093E+01 0.  1.
</event>
<event>
 5   0  0.2789718E-05  0.1890548E+04  0.7818609E-02  0.8659576E-01
        2   -1    0    0  501    0  0.00000000000E+00  0.00000000000E+00  0.14148330897E+04  0.14148330897E+04  0.25500000920E-02 0. -1.
       -2   -1    0    0    0  501  0.00000000000E+00  0.00000000000E+00 -0.63155333066E+03  0.63155333066E+03  0.25500000920E-02 0.  1.
    10030    2    1    2    0    0  0.00000000000E+00  0.00000000000E+00  0.78327975903E+03  0.20463864203E+04  0.18905475928E+04 0.  0.
        5    1    3    3  502    0 -0.26584422005E+03  0.98857250351E+02  0.13676744839E+04  0.13967825490E+04  0.46999998093E+01 0. -1.
       -5    1    3    3    0  502  0.26584422005E+03 -0.98857250351E+02 -0.58439472484E+03  0.64960387137E+03  0.46999998093E+01 0.  1.
</event>
<event>
 5   0  0.2789718E-05  0.1900274E+04  0.7818609E-02  0.8654720E-01
       -2   -1    0    0    0  501  0.00000000000E+00  0.00000000000E+00  0.91331651936E+03  0.91331651936E+03  0.25500000920E-02 0.  1.
        2   -1    0    0  501    0  0.00000000000E+00  0.00000000000E+00 -0.98844159291E+03  0.98844159291E+03  0.25500000920E-02 0. -1.
    10030    2    1    2    0    0  0.00000000000E+00  0.00000000000E+00 -0.75125073546E+02  0.19017581123E+04  0.19002737016E+04 0.  0.
        5    1    3    3  502    0  0.21516520450E+03  0.14718201933E+03 -0.95193884266E+03  0.98699962625E+03  0.46999998093E+01 0. -1.
       -5    1    3    3    0  502 -0.21516520450E+03 -0.14718201933E+03  0.87681376912E+03  0.91475848602E+03  0.46999998093E+01 0.  1.
</event>
<event>
 5   0  0.2879462E-05  0.1912263E+04  0.7818609E-02  0.8648776E-01
       -2   -1    0    0    0  501  0.00000000000E+00  0.00000000000E+00  0.52095163586E+03  0.52095163587E+03  0.25500000920E-02 0. -1.
        2   -1    0    0  501    0  0.00000000000E+00  0.00000000000E+00 -0.17548415840E+04  0.17548415840E+04  0.25500000920E-02 0.  1.
    10030    2    1    2    0    0  0.00000000000E+00  0.00000000000E+00 -0.12338899482E+04  0.22757932199E+04  0.19122631554E+04 0.  0.
        4    1    3    3  502    0  0.25271659459E+03 -0.29015940629E+03 -0.16586284118E+04  0.17026767103E+04  0.12699999809E+01 0.  1.
       -4    1    3    3    0  502 -0.25271659459E+03  0.29015940629E+03  0.42473846364E+03  0.57311650965E+03  0.12699999809E+01 0. -1.
</event>
<event>
 5   0  0.2879462E-05  0.1901446E+04  0.7818609E-02  0.8654137E-01
       -2   -1    0    0    0  501  0.00000000000E+00  0.00000000000E+00  0.72836317663E+03  0.72836317663E+03  0.25500000920E-02 0.  1.
        2   -1    0    0  501    0  0.00000000000E+00  0.00000000000E+00 -0.12409659860E+04  0.12409659860E+04  0.25500000920E-02 0. -1.
    10030    2    1    2    0    0  0.00000000000E+00  0.00000000000E+00 -0.51260280938E+03  0.19693291626E+04  0.19014456896E+04 0.  0.
        4    1    3    3  502    0 -0.54983596733E+03 -0.35711327343E+03 -0.96937444645E+03  0.11702725799E+04  0.12699999809E+01 0. -1.
       -4    1    3    3    0  502  0.54983596733E+03  0.35711327343E+03  0.45677163707E+03  0.79905658270E+03  0.12699999809E+01 0.  1.
</event>
<event>
 5   0  0.1327254E-05  0.1902538E+04  0.7818609E-02  0.8653594E-01
       -1   -1    0    0    0  501  0.00000000000E+00  0.00000000000E+00  0.63665188315E+03  0.63665188317E+03  0.50400001928E-02 0. -1.
        1   -1    0    0  501    0  0.00000000000E+00  0.00000000000E+00 -0.14213619173E+04  0.14213619173E+04  0.50400001928E-02 0.  1.
    10030    2    1    2    0    0  0.00000000000E+00  0.00000000000E+00 -0.78471003413E+03  0.20580138005E+04  0.19025380325E+04 0.  0.
        5    1    3    3  502    0 -0.42645832198E+03  0.58970612548E+03 -0.10550096327E+04  0.12816736831E+04  0.46999998093E+01 0.  1.
       -5    1    3    3    0  502  0.42645832198E+03 -0.58970612548E+03  0.27029959861E+03  0.77634011736E+03  0.46999998093E+01 0. -1.
</event>
<event>
 5   0  0.2888776E-05  0.1901681E+04  0.7818609E-02  0.8654020E-01
        2   -1    0    0  501    0  0.00000000000E+00  0.00000000000E+00  0.51864079021E+03  0.51864079022E+03  0.25500000920E-02 0.  1.
       -2   -1    0    0    0  501  0.00000000000E+00  0.00000000000E+00 -0.17432050325E+04  0.17432050325E+04  0.25500000920E-02 0. -1.
    10030    2    1    2    0    0  0.00000000000E+00  0.00000000000E+00 -0.12245642423E+04  0.22618458227E+04  0.19016805574E+04 0.  0.
        3    1    3    3  502    0 -0.85614399187E+03  0.35200215408E+03 -0.35385467657E+03  0.99101018845E+03  0.10100000352E+00 0.  1.
       -3    1    3    3    0  502  0.85614399187E+03 -0.35200215408E+03 -0.87070956576E+03  0.12708356343E+04  0.10100000352E+00 0. -1.
</event>
<event>
 5   0  0.2813537E-05  0.1899821E+04  0.7818609E-02  0.8654946E-01
        2   -1    0    0  501    0  0.00000000000E+00  0.00000000000E+00  0.77668840042E+03  0.77668840043E+03  0.25500000920E-02 0. -1.
       -2   -1    0    0    0  501  0.00000000000E+00  0.00000000000E+00 -0.11617652347E+04  0.11617652347E+04  0.25500000920E-02 0.  1.
    10030    2    1    2    0    0  0.00000000000E+00  0.00000000000E+00 -0.38507683425E+03  0.19384536351E+04  0.18998206039E+04 0.  0.
        2    1    3    3  502    0 -0.63062593951E+02 -0.94758208562E+03 -0.21396258836E+03  0.97348276254E+03  0.25500000920E-02 0.  1.
       -2    1    3    3    0  502  0.63062593951E+02  0.94758208562E+03 -0.17111424589E+03  0.96497087256E+03  0.25500000920E-02 0. -1.
</event>
<event>
 5   0  0.1429067E-05  0.1898511E+04  0.7818609E-02  0.8655598E-01
        1   -1    0    0  501    0  0.00000000000E+00  0.00000000000E+00  0.13210853593E+04  0.13210853593E+04  0.50400001928E-02 0.  1.
       -1   -1    0    0    0  501  0.00000000000E+00  0.00000000000E+00 -0.68208025795E+03  0.68208025797E+03  0.50400001928E-02 0. -1.
    10030    2    1    2    0    0  0.00000000000E+00  0.00000000000E+00  0.63900510137E+03  0.20031656173E+04  0.18985112512E+04 0.  0.
        3    1    3    3  502    0  0.80213828737E+02  0.73988574231E+03 -0.30223444872E+03  0.80325017410E+03  0.10100000352E+00 0. -1.
       -3    1    3    3    0  502 -0.80213828737E+02 -0.73988574231E+03  0.94123955009E+03  0.11999154432E+04  0.10100000352E+00 0.  1.
</event>
<event>
 5   0  0.2789718E-05  0.1959041E+04  0.7818609E-02  0.8626013E-01
       -2   -1    0    0    0  501  0.00000000000E+00  0.00000000000E+00  0.27986551821E+04  0.27986551821E+04  0.25500000920E-02 0.  1.
        2   -1    0    0  501    0  0.00000000000E+00  0.00000000000E+00 -0.34282915071E+03  0.34282915072E+03  0.25500000920E-02 0. -1.
    10030    2    1    2    0    0  0.00000000000E+00  0.00000000000E+00  0.24558260314E+04  0.31414843328E+04  0.19590411728E+04 0.  0.
        5    1    3    3  502    0 -0.58087594096E+02  0.97534738961E+03  0.11172566343E+04  0.14842375739E+04  0.46999998093E+01 0. -1.
       -5    1    3    3    0  502  0.58087594096E+02 -0.97534738961E+03  0.13385693971E+04  0.16572467589E+04  0.46999998093E+01 0.  1.
</event>
<event>
 5   0  0.2813537E-05  0.1906651E+04  0.7818609E-02  0.8651553E-01
        2   -1    0    0  501    0  0.00000000000E+00  0.00000000000E+00  0.11773587804E+04  0.11773587804E+04  0.25500000920E-02 0. -1.
       -2   -1    0    0    0  501  0.00000000000E+00  0.00000000000E+00 -0.77192196683E+03  0.77192196683E+03  0.25500000920E-02 0.  1.
    10030    2    1    2    0    0  0.00000000000E+00  0.00000000000E+00  0.40543681353E+03  0.19492807472E+04  0.19066505767E+04 0.  0.
        2    1    3    3  502    0 -0.15411474557E+03  0.58377681481E+03 -0.55153177277E+03  0.81776159160E+03  0.25500000920E-02 0.  1.
       -2    1    3    3    0  502  0.15411474557E+03 -0.58377681481E+03  0.95696858629E+03  0.11315191556E+04  0.25500000920E-02 0. -1.
</event>
<event>
 5   0  0.1413011E-05  0.1898690E+04  0.7818609E-02  0.8655509E-01
       -1   -1    0    0    0  501  0.00000000000E+00  0.00000000000E+00  0.16617394431E+04  0.16617394431E+04  0.50400001928E-02 0. -1.
        1   -1    0    0  501    0  0.00000000000E+00  0.00000000000E+00 -0.54235719293E+03  0.54235719295E+03  0.50400001928E-02 0.  1.
    10030    2    1    2    0    0  0.00000000000E+00  0.00000000000E+00  0.11193822502E+04  0.22040966361E+04  0.18986904327E+04 0.  0.
        1    1    3    3  502    0  0.58386512048E+03 -0.74552547792E+03  0.48139069347E+03  0.10622823151E+04  0.50400001928E-02 0.  1.
       -1    1    3    3    0  502 -0.58386512048E+03  0.74552547792E+03  0.63799155670E+03  0.11418143210E+04  0.50400001928E-02 0. -1.
</event>
<event>
 5   0  0.2789718E-05  0.1899333E+04  0.7818609E-02  0.8655188E-01
       -2   -1    0    0    0  501  0.00000000000E+00  0.00000000000E+00  0.12065586519E+04  0.12065586519E+04  0.25500000920E-02 0. -1.
        2   -1    0    0  501    0  0.00000000000E+00  0.00000000000E+00 -0.74747013822E+03  0.74747013822E+03  0.25500000920E-02 0.  1.
    10030    2    1    2    0    0  0.00000000000E+00  0.00000000000E+00  0.45908851364E+03  0.19540287901E+04  0.18993331064E+04 0.  0.
        5    1    3    3  502    0 -0.51952720221E+03 -0.86722773868E+02  0.10424992913E+04  0.11680137909E+04  0.46999998093E+01 0. -1.
       -5    1    3    3    0  502  0.51952720221E+03  0.86722773868E+02 -0.58341077771E+03  0.78601499915E+03  0.46999998093E+01 0.  1.
</event>
<event>
 5   0  0.1010725E-05  0.1900703E+04  0.7818609E-02  0.8654507E-01
        4   -1    0    0  501    0  0.00000000000E+00  0.00000000000E+00  0.14365331113E+04  0.14365336727E+04  0.12699999809E+01 0. -1.
       -4   -1    0    0    0  501  0.00000000000E+00  0.00000000000E+00 -0.62871224411E+03  0.62871352681E+03  0.12699999809E+01 0.  1.
    10030    2    1    2    0    0  0.00000000000E+00  0.00000000000E+00  0.80782086717E+03  0.20652471995E+04  0.19007028809E+04 0.  0.
        3    1    3    3  502    0 -0.46660581035E+03  0.53366722166E+03 -0.28385176754E+03  0.76360560623E+03  0.10100000352E+00 0.  1.
       -3    1    3    3    0  502  0.46660581035E+03 -0.53366722166E+03  0.10916726347E+04  0.13016415933E+04  0.10100000352E+00 0. -1.
</event>
<event>
 5   0  0.2888776E-05  0.1900635E+04  0.7818609E-02  0.8654540E-01
        2   -1    0    0  501    0  0.00000000000E+00  0.00000000000E+00  0.98921569073E+03  0.98921569073E+03  0.25500000920E-02 0. -1.
       -2   -1    0    0    0  501  0.00000000000E+00  0.00000000000E+00 -0.91294906054E+03  0.91294906054E+03  0.25500000920E-02 0.  1.
    10030    2    1    2    0    0  0.00000000000E+00  0.00000000000E+00  0.76266630192E+02  0.19021647513E+04  0.19006351944E+04 0.  0.
        3    1    3    3  502    0  0.22932259945E+03  0.91090944221E+03 -0.10606128867E+03  0.94530094345E+03  0.10100000352E+00 0.  1.
       -3    1    3    3    0  502 -0.22932259945E+03 -0.91090944221E+03  0.18232791886E+03  0.95686380783E+03  0.10100000352E+00 0. -1.
</event>
<event>
 5   0  0.1344119E-05  0.1869302E+04  0.7818609E-02  0.8670289E-01
       -1   -1    0    0    0  501  0.00000000000E+00  0.00000000000E+00  0.93141377153E+03  0.93141377154E+03  0.50400001928E-02 0.  1.
        1   -1    0    0  501    0  0.00000000000E+00  0.00000000000E+00 -0.93789990125E+03  0.93789990126E+03  0.50400001928E-02 0. -1.
    10030    2    1    2    0    0  0.00000000000E+00  0.00000000000E+00 -0.64861297188E+01  0.18693136728E+04  0.18693024200E+04 0.  0.
        2    1    3    3  502    0  0.57406883962E+03  0.45301274592E+03 -0.58530954109E+03  0.93667648603E+03  0.25500000920E-02 0. -1.
       -2    1    3    3    0  502 -0.57406883962E+03 -0.45301274592E+03  0.57882341137E+03  0.93263718677E+03  0.25500000920E-02 0.  1.
</event>
<event>
 5   0  0.1327254E-05  0.1898543E+04  0.7818609E-02  0.8655582E-01
        1   -1    0    0  501    0  0.00000000000E+00  0.00000000000E+00  0.18050555584E+04  0.18050555584E+04  0.50400001928E-02 0.  1.
       -1   -1    0    0    0  501  0.00000000000E+00  0.00000000000E+00 -0.49921818347E+03  0.49921818349E+03  0.50400001928E-02 0. -1.
    10030    2    1    2    0    0  0.00000000000E+00  0.00000000000E+00  0.13058373749E+04  0.23042737419E+04  0.18985431857E+04 0.  0.
        5    1    3    3  502    0 -0.37570005713E+03  0.32334199504E+03 -0.32965421767E+03  0.59531048362E+03  0.46999998093E+01 0. -1.
       -5    1    3    3    0  502  0.37570005713E+03 -0.32334199504E+03  0.16354915926E+04  0.17089632583E+04  0.46999998093E+01 0.  1.
</event>
<event>
 5   0  0.2813537E-05  0.1887173E+04  0.7818609E-02  0.8661268E-01
       -2   -1    0    0    0  501  0.00000000000E+00  0.00000000000E+00  0.42317919405E+03  0.42317919406E+03  0.25500000920E-02 0. -1.
        2   -1    0    0  501    0  0.00000000000E+00  0.00000000000E+00 -0.21039680107E+04  0.21039680107E+04  0.25500000920E-02 0.  1.
    10030    2    1    2    0    0  0.00000000000E+00  0.00000000000E+00 -0.16807888166E+04  0.25271472047E+04  0.18871730043E+04 0.  0.
        2    1    3    3  502    0  0.34315852460E+03 -0.52919200921E+03 -0.17802162701E+04  0.18886428789E+04  0.25500000920E-02 0.  1.
       -2    1    3    3    0  502 -0.34315852460E+03  0.52919200921E+03  0.99427453478E+02  0.63850432585E+03  0.25500000920E-02 0. -1.
</event>
<event>
 5   0  0.2855141E-05  0.1902502E+04  0.7818609E-02  0.8653612E-01
       -2   -1    0    0    0  501  0.00000000000E+00  0.00000000000E+00  0.62433904232E+03  0.62433904232E+03  0.25500000920E-02 0.  1.
        2   -1    0    0  501    0  0.00000000000E+00  0.00000000000E+00 -0.14493381462E+04  0.14493381462E+04  0.25500000920E-02 0. -1.
    10030    2    1    2    0    0  0.00000000000E+00  0.00000000000E+00 -0.82499910393E+03  0.20736771886E+04  0.19025019214E+04 0.  0.
        1    1    3    3  502    0  0.27565010683E+03  0.11430208389E+03 -0.13970001848E+04  0.14285158256E+04  0.50400001928E-02 0. -1.
       -1    1    3    3    0  502 -0.27565010683E+03 -0.11430208389E+03  0.57200108082E+03  0.64516136297E+03  0.50400001928E-02 0.  1.
</event>
<event>
 5   0  0.1471485E-05  0.1899438E+04  0.7818609E-02  0.8655136E-01
       -1   -1    0    0    0  501  0.00000000000E+00  0.00000000000E+00  0.48663253485E+03  0.48663253488E+03  0.50400001928E-02 0. -1.
        1   -1    0    0  501    0  0.00000000000E+00  0.00000000000E+00 -0.18534854799E+04  0.18534854800E+04  0.50400001928E-02 0.  1.
    10030    2    1    2    0    0  0.00000000000E+00  0.00000000000E+00 -0.13668529451E+04  0.23401180148E+04  0.18994381669E+04 0.  0.
        4    1    3    3  502    0  0.26424010192E+02 -0.39339826289E+03  0.38103208379E+03  0.54831330765E+03  0.12699999809E+01 0. -1.
       -4    1    3    3    0  502 -0.26424010192E+02  0.39339826289E+03 -0.17478850289E+04  0.17918047072E+04  0.12699999809E+01 0.  1.
</event>
<event>
 5   0  0.1429067E-05  0.1901358E+04  0.7818609E-02  0.8654181E-01
       -1   -1    0    0    0  501  0.00000000000E+00  0.00000000000E+00  0.92066789641E+03  0.92066789642E+03  0.50400001928E-02 0.  1.
        1   -1    0    0  501    0  0.00000000000E+00  0.00000000000E+00 -0.98166861629E+03  0.98166861630E+03  0.50400001928E-02 0. -1.
    10030    2    1    2    0    0  0.00000000000E+00  0.00000000000E+00 -0.61000719884E+02  0.19023365127E+04  0.19013582303E+04 0.  0.
        3    1    3    3  502    0  0.55754060110E+03 -0.53112537902E+03 -0.58832204517E+03  0.96905548301E+03  0.10100000352E+00 0. -1.
       -3    1    3    3    0  502 -0.55754060110E+03  0.53112537902E+03  0.52732132529E+03  0.93328102971E+03  0.10100000352E+00 0.  1.
</event>
<event>
 5   0  0.2813537E-05  0.1901479E+04  0.7818609E-02  0.8654120E-01
        2   -1    0    0  501    0  0.00000000000E+00  0.00000000000E+00  0.26205501619E+04  0.26205501619E+04  0.25500000920E-02 0.  1.
       -2   -1    0    0    0  501  0.00000000000E+00  0.00000000000E+00 -0.34492977110E+03  0.34492977111E+03  0.25500000920E-02 0. -1.
    10030    2    1    2    0    0  0.00000000000E+00  0.00000000000E+00  0.22756203908E+04  0.29654799330E+04  0.19014791795E+04 0.  0.
        2    1    3    3  502    0  0.80016500583E+02 -0.61439162334E+03  0.22624565225E+04  0.23457598393E+04  0.25500000920E-02 0.  1.
       -2    1    3    3    0  502 -0.80016500583E+02  0.61439162334E+03  0.13163868299E+02  0.61972009377E+03  0.25500000920E-02 0. -1.
</event>
<event>
 5   0  0.1429067E-05  0.1899485E+04  0.7818609E-02  0.8655113E-01
       -1   -1    0    0    0  501  0.00000000000E+00  0.00000000000E+00  0.48162184242E+03  0.48162184244E+03  0.50400001928E-02 0.  1.
        1   -1    0    0  501    0  0.00000000000E+00  0.00000000000E+00 -0.18728603101E+04  0.18728603101E+04  0.50400001928E-02 0. -1.
    10030    2    1    2    0    0  0.00000000000E+00  0.00000000000E+00 -0.13912384677E+04  0.23544821526E+04  0.18994845966E+04 0.  0.
        3    1    3    3  502    0 -0.40506690295E+03 -0.85758806952E+03 -0.75727211032E+03  0.12136711054E+04  0.10100000352E+00 0.  1.
       -3    1    3    3    0  502  0.40506690295E+03  0.85758806952E+03 -0.63396635740E+03  0.11408110472E+04  0.10100000352E+00 0. -1.
</event>
<event>
 5   0  0.1413011E-05  0.1901745E+04  0.7818609E-02  0.8653988E-01
       -1   -1    0    0    0  501  0.00000000000E+00  0.00000000000E+00  0.13256409608E+04  0.13256409608E+04  0.50400001928E-02 0.  1.
        1   -1    0    0  501    0  0.00000000000E+00  0.00000000000E+00 -0.68205395249E+03  0.68205395251E+03  0.50400001928E-02 0. -1.
    10030    2    1    2    0    0  0.00000000000E+00  0.00000000000E+00  0.64358700832E+03  0.20076949133E+04  0.19017451532E+04 0.  0.
        1    1    3    3  502    0 -0.42051480804E+03  0.69373572614E+03 -0.20188288580E+03  0.83597766783E+03  0.50400001928E-02 0. -1.
       -1    1    3    3    0  502  0.42051480804E+03 -0.69373572614E+03  0.84546989412E+03  0.11717172455E+04  0.50400001928E-02 0.  1.
</event>
<event>
 5   0  0.1344119E-05  0.1897843E+04  0.7818609E-02  0.8655931E-01
        1   -1    0    0  501    0  0.00000000000E+00  0.00000000000E+00  0.49838336106E+03  0.49838336108E+03  0.50400001928E-02 0.  1.
       -1   -1    0    0    0  501  0.00000000000E+00  0.00000000000E+00 -0.18067456902E+04  0.18067456902E+04  0.50400001928E-02 0. -1.
    10030    2    1    2    0    0  0.00000000000E+00  0.00000000000E+00 -0.13083623291E+04  0.23051290513E+04  0.18978429753E+04 0.  0.
        2    1    3    3  502    0  0.76614397350E+03 -0.52195495420E+03 -0.90023510368E+03  0.12922216545E+04  0.25500000920E-02 0. -1.
       -2    1    3    3    0  502 -0.76614397350E+03  0.52195495420E+03 -0.40812722542E+03  0.10129073968E+04  0.25500000920E-02 0.  1.
</event>
<event>
 5   0  0.2879462E-05  0.1893163E+04  0.7818609E-02  0.8658267E-01
        2   -1    0    0  501    0  0.00000000000E+00  0.00000000000E+00  0.57647505828E+03  0.57647505829E+03  0.25500000920E-02 0. -1.
       -2   -1    0    0    0  501  0.00000000000E+00  0.00000000000E+00 -0.15543029002E+04  0.15543029002E+04  0.25500000920E-02 0.  1.
    10030    2    1    2    0    0  0.00000000000E+00  0.00000000000E+00 -0.97782784191E+03  0.21307779585E+04  0.18931633368E+04 0.  0.
        4    1    3    3  502    0  0.31426806387E+03  0.60236504462E+03  0.25290619735E+03  0.72496290975E+03  0.12699999809E+01 0. -1.
       -4    1    3    3    0  502 -0.31426806387E+03 -0.60236504462E+03 -0.12307340393E+04  0.14058150487E+04  0.12699999809E+01 0.  1.
</event>
<event>
 5   0  0.1010725E-05  0.1899720E+04  0.7818609E-02  0.8654996E-01
        4   -1    0    0  501    0  0.00000000000E+00  0.00000000000E+00  0.88330113755E+03  0.88330205054E+03  0.12699999809E+01 0. -1.
       -4   -1    0    0    0  501  0.00000000000E+00  0.00000000000E+00 -0.10214323355E+04  0.10214331250E+04  0.12699999809E+01 0.  1.
    10030    2    1    2    0    0  0.00000000000E+00  0.00000000000E+00 -0.13813119796E+03  0.19047351756E+04  0.18997199429E+04 0.  0.
        5    1    3    3  502    0 -0.41440218753E+03 -0.78454687290E+03  0.27090019377E+03  0.92771330366E+03  0.46999998093E+01 0. -1.
       -5    1    3    3    0  502  0.41440218753E+03  0.78454687290E+03 -0.40903139173E+03  0.97702187193E+03  0.46999998093E+01 0.  1.
</event>
<event>
 5   0  0.2879462E-05  0.1899291E+04  0.7818609E-02  0.8655209E-01
        2   -1    0    0  501    0  0.00000000000E+00  0.00000000000E+00  0.79851295230E+03  0.79851295231E+03  0.25500000920E-02 0. -1.
       -2   -1    0    0    0  501  0.00000000000E+00  0.00000000000E+00 -0.11293827097E+04  0.11293827097E+04  0.25500000920E-02 0.  1.
    10030    2    1    2    0    0  0.00000000000E+00  0.00000000000E+00 -0.33086975740E+03  0.19278956620E+04  0.18992911539E+04 0.  0.
        4    1    3    3  502    0  0.18878683620E+03 -0.26385309352E+03  0.74051237668E+03  0.80846714058E+03  0.12699999809E+01 0. -1.
       -4    1    3    3    0  502 -0.18878683620E+03  0.26385309352E+03 -0.10713821341E+04  0.11194285214E+04  0.12699999809E+01 0.  1.
</event>
<event>
 5   0  0.2855141E-05  0.1855071E+04  0.7818609E-02  0.8677549E-01
        2   -1    0    0  501    0  0.00000000000E+00  0.00000000000E+00  0.13241742243E+04  0.13241742243E+04  0.25500000920E-02 0.  1.
       -2   -1    0    0    0  501  0.00000000000E+00  0.00000000000E+00 -0.64970486850E+03  0.64970486850E+03  0.25500000920E-02 0. -1.
    10030    2    1    2    0    0  0.00000000000E+00  0.00000000000E+00  0.67446935581E+03  0.19738790928E+04  0.18550713628E+04 0.  0.
        1    1    3    3  502    0  0.30722551365E+03  0.59215269318E+03 -0.34846780375E+03  0.75263679059E+03  0.50400001928E-02 0. -1.
       -1    1    3    3    0  502 -0.30722551365E+03 -0.59215269318E+03  0.10229371596E+04  0.12212423022E+04  0.50400001928E-02 0.  1.
</event>
<event>
 5   0  0.1010725E-05  0.1903170E+04  0.7818609E-02  0.8653280E-01
       -4   -1    0    0    0  501  0.00000000000E+00  0.00000000000E+00  0.80619678597E+03  0.80619778628E+03  0.12699999809E+01 0.  1.
        4   -1    0    0  501    0  0.00000000000E+00  0.00000000000E+00 -0.11231903572E+04  0.11231910752E+04  0.12699999809E+01 0. -1.
    10030    2    1    2    0    0  0.00000000000E+00  0.00000000000E+00 -0.31699357118E+03  0.19293888614E+04  0.19031701066E+04 0.  0.
        4    1    3    3  502    0  0.31148298077E+03  0.18219856028E+03 -0.10511350951E+04  0.11113525830E+04  0.12699999809E+01 0. -1.
       -4    1    3    3    0  502 -0.31148298077E+03 -0.18219856028E+03  0.73414152396E+03  0.81803627840E+03  0.12699999809E+01 0.  1.
</event>
<event>
 5   0  0.2888776E-05  0.1895293E+04  0.7818609E-02  0.8657203E-01
       -2   -1    0    0    0  501  0.00000000000E+00  0.00000000000E+00  0.43924341328E+03  0.43924341329E+03  0.25500000920E-02 0.  1.
        2   -1    0    0  501    0  0.00000000000E+00  0.00000000000E+00 -0.20445027305E+04  0.20445027305E+04  0.25500000920E-02 0. -1.
    10030    2    1    2    0    0  0.00000000000E+00  0.00000000000E+00 -0.16052593172E+04  0.24837461438E+04  0.18952934948E+04 0.  0.
        3    1    3    3  502    0 -0.70532608990E+03  0.40130711778E+03 -0.16129405111E+03  0.82737420615E+03  0.10100000352E+00 0.  1.
       -3    1    3    3    0  502  0.70532608990E+03 -0.40130711778E+03 -0.14439652661E+04  0.16563719376E+04  0.10100000352E+00 0. -1.
</event>
<event>
 5   0  0.2879462E-05  0.1900467E+04  0.7818609E-02  0.8654624E-01
        2   -1    0    0  501    0  0.00000000000E+00  0.00000000000E+00  0.35668621518E+03  0.35668621519E+03  0.25500000920E-02 0. -1.
       -2   -1    0    0    0  501  0.00000000000E+00  0.00000000000E+00 -0.25314804307E+04  0.25314804307E+04  0.25500000920E-02 0.  1.
    10030    2    1    2    0    0  0.00000000000E+00  0.00000000000E+00 -0.21747942155E+04  0.28881666458E+04  0.19004674937E+04 0.  0.
        4    1    3    3  502    0 -0.10002645510E+03  0.93725914653E+03 -0.90450941136E+03  0.13063685880E+04  0.12699999809E+01 0. -1.
       -4    1    3    3    0  502  0.10002645510E+03 -0.93725914653E+03 -0.12702848041E+04  0.15817980579E+04  0.12699999809E+01 0.  1.
</event>
<event>
 5   0  0.1429067E-05  0.1910769E+04  0.7818609E-02  0.8649514E-01
       -1   -1    0    0    0  501  0.00000000000E+00  0.00000000000E+00  0.40336159226E+03  0.40336159229E+03  0.50400001928E-02 0.  1.
        1   -1    0    0  501    0  0.00000000000E+00  0.00000000000E+00 -0.22628821700E+04  0.22628821700E+04  0.50400001928E-02 0. -1.
    10030    2    1    2    0    0  0.00000000000E+00  0.00000000000E+00 -0.18595205777E+04  0.26662437623E+04  0.19107692223E+04 0.  0.
        3    1    3    3  502    0  0.47824391498E+03  0.77209520238E+03 -0.51603271785E+03  0.10445755214E+04  0.10100000352E+00 0.  1.
       -3    1    3    3    0  502 -0.47824391498E+03 -0.77209520238E+03 -0.13434878599E+04  0.16216682409E+04  0.10100000352E+00 0. -1.
</event>
<event>
 5   0  0.1344119E-05  0.1887328E+04  0.7818609E-02  0.8661190E-01
        1   -1    0    0  501    0  0.00000000000E+00  0.00000000000E+00  0.12232098867E+04  0.12232098867E+04  0.50400001928E-02 0. -1.
       -1   -1    0    0    0  501  0.00000000000E+00  0.00000000000E+00 -0.72800371705E+03  0.72800371707E+03  0.50400001928E-02 0.  1.
    10030    2    1    2    0    0  0.00000000000E+00  0.00000000000E+00  0.49520616966E+03  0.19512136038E+04  0.18873275755E+04 0.  0.
        2    1    3    3  502    0 -0.54587455296E+03  0.58266034428E+03 -0.27244426229E+03  0.84362194165E+03  0.25500000920E-02 0.  1.
       -2    1    3    3    0  502  0.54587455296E+03 -0.58266034428E+03  0.76765043195E+03  0.11075916621E+04  0.25500000920E-02 0. -1.
</event>
<event>
 5   0  0.1327254E-05  0.1899975E+04  0.7818609E-02  0.8654869E-01
       -1   -1    0    0    0  501  0.00000000000E+00  0.00000000000E+00  0.73137812898E+03  0.73137812900E+03  0.50400001928E-02 0. -1.
        1   -1    0    0  501    0  0.00000000000E+00  0.00000000000E+00 -0.12339395521E+04  0.12339395521E+04  0.50400001928E-02 0.  1.
    10030    2    1    2    0    0  0.00000000000E+00  0.00000000000E+00 -0.50256142312E+03  0.19653176811E+04  0.18999751587E+04 0.  0.
        5    1    3    3  502    0 -0.81926160553E+03 -0.50307815728E+02  0.24342857683E+03  0.85615420143E+03  0.46999998093E+01 0. -1.
       -5    1    3    3    0  502  0.81926160553E+03  0.50307815728E+02 -0.74598999995E+03  0.11091634797E+04  0.46999998093E+01 0.  1.
</event>
<event>
 5   0  0.2879462E-05  0.1899983E+04  0.7818609E-02  0.8654865E-01
       -2   -1    0    0    0  501  0.00000000000E+00  0.00000000000E+00  0.94264956233E+03  0.94264956233E+03  0.25500000920E-02 0. -1.
        2   -1    0    0  501    0  0.00000000000E+00  0.00000000000E+00 -0.95739109334E+03  0.95739109334E+03  0.25500000920E-02 0.  1.
    10030    2    1    2    0    0  0.00000000000E+00  0.00000000000E+00 -0.14741531009E+02  0.19000406557E+04  0.18999834685E+04 0.  0.
        4    1    3    3  502    0  0.70130713143E+03  0.26153880542E+03 -0.59240841021E+03  0.95455936260E+03  0.12699999809E+01 0.  1.
       -4    1    3    3    0  502 -0.70130713143E+03 -0.26153880542E+03  0.57766687920E+03  0.94548129308E+03  0.12699999809E+01 0. -1.
</event>
<event>
 5   0  0.1413011E-05  0.1892934E+04  0.7818609E-02  0.8658382E-01
       -1   -1    0    0    0  501  0.00000000000E+00  0.00000000000E+00  0.14968851712E+04  0.14968851712E+04  0.50400001928E-02 0. -1.
        1   -1    0    0  501    0  0.00000000000E+00  0.00000000000E+00 -0.59844237776E+03  0.59844237778E+03  0.50400001928E-02 0.  1.
    10030    2    1    2    0    0  0.00000000000E+00  0.00000000000E+00  0.89844279343E+03  0.20953275490E+04  0.18929337243E+04 0.  0.
        1    1    3    3  502    0 -0.78988507099E+03  0.22896944229E+03  0.96776866922E+03  0.12700085149E+04  0.50400001928E-02 0. -1.
       -1    1    3    3    0  502  0.78988507099E+03 -0.22896944229E+03 -0.69325875789E+02  0.82531903404E+03  0.50400001928E-02 0.  1.
</event>
<event>
 5   0  0.1327254E-05  0.1902755E+04  0.7818609E-02  0.8653486E-01
        1   -1    0    0  501    0  0.00000000000E+00  0.00000000000E+00  0.52664758384E+03  0.52664758386E+03  0.50400001928E-02 0.  1.
       -1   -1    0    0    0  501  0.00000000000E+00  0.00000000000E+00 -0.17186436206E+04  0.17186436206E+04  0.50400001928E-02 0. -1.
    10030    2    1    2    0    0  0.00000000000E+00  0.00000000000E+00 -0.11919960367E+04  0.22452912044E+04  0.19027553813E+04 0.  0.
        5    1    3    3  502    0  0.12177289512E+03 -0.29186180350E+03 -0.16547901630E+04  0.16847446465E+04  0.46999998093E+01 0. -1.
       -5    1    3    3    0  502 -0.12177289512E+03  0.29186180350E+03  0.46279412626E+03  0.56054655795E+03  0.46999998093E+01 0.  1.
</event>
<event>
 5   0  0.1413011E-05  0.1900324E+04  0.7818609E-02  0.8654695E-01
       -1   -1    0    0    0  501  0.00000000000E+00  0.00000000000E+00  0.33489533857E+03  0.33489533861E+03  0.50400001928E-02 0. -1.
        1   -1    0    0  501    0  0.00000000000E+00  0.00000000000E+00 -0.26957911524E+04  0.26957911524E+04  0.50400001928E-02 0.  1.
    10030    2    1    2    0    0  0.00000000000E+00  0.00000000000E+00 -0.23608958138E+04  0.30306864910E+04  0.19003240679E+04 0.  0.
        1    1    3    3  502    0  0.35618740741E+03 -0.87629543971E+03 -0.13234916663E+04  0.16267739111E+04  0.50400001928E-02 0. -1.
       -1    1    3    3    0  502 -0.35618740741E+03  0.87629543971E+03 -0.10374041475E+04  0.14039125799E+04  0.50400001928E-02 0.  1.
</event>
<event>
 5   0  0.1344119E-05  0.1905422E+04  0.7818609E-02  0.8652162E-01
       -1   -1    0    0    0  501  0.00000000000E+00  0.00000000000E+00  0.88335997982E+03  0.88335997983E+03  0.50400001928E-02 0.  1.
        1   -1    0    0  501    0  0.00000000000E+00  0.00000000000E+00 -0.10275071274E+04  0.10275071274E+04  0.50400001928E-02 0. -1.
    10030    2    1    2    0    0  0.00000000000E+00  0.00000000000E+00 -0.14414714760E+03  0.19108671073E+04  0.19054224470E+04 0.  0.
        2    1    3    3  502    0  0.55523629345E+02  0.82356270949E+03  0.40501710279E+03  0.91944399690E+03  0.25500000920E-02 0.  1.
       -2    1    3    3    0  502 -0.55523629345E+02 -0.82356270949E+03 -0.54916425039E+03  0.99142311037E+03  0.25500000920E-02 0. -1.
</event>
<event>
 5   0  0.2789718E-05  0.1901527E+04  0.7818609E-02  0.8654097E-01
       -2   -1    0    0    0  501  0.00000000000E+00  0.00000000000E+00  0.15953921554E+04  0.15953921554E+04  0.25500000920E-02 0.  1.
        2   -1    0    0  501    0  0.00000000000E+00  0.00000000000E+00 -0.56660116736E+03  0.56660116736E+03  0.25500000920E-02 0. -1.
    10030    2    1    2    0    0  0.00000000000E+00  0.00000000000E+00  0.10287909880E+04  0.21619933227E+04  0.19015268156E+04 0.  0.
        5    1    3    3  502    0  0.48064615849E+03 -0.76106192880E+03  0.86241646686E+03  0.12466034820E+04  0.46999998093E+01 0.  1.
       -5    1    3    3    0  502 -0.48064615849E+03  0.76106192880E+03  0.16637452114E+03  0.91538984068E+03  0.46999998093E+01 0. -1.
</event>
<event>
 5   0  0.2879462E-05  0.1893709E+04  0.7818609E-02  0.8657994E-01
        2   -1    0    0  501    0  0.00000000000E+00  0.00000000000E+00  0.83955645363E+03  0.83955645363E+03  0.25500000920E-02 0.  1.
       -2   -1    0    0    0  501  0.00000000000E+00  0.00000000000E+00 -0.10678650472E+04  0.10678650472E+04  0.25500000920E-02 0. -1.
    10030    2    1    2    0    0  0.00000000000E+00  0.00000000000E+00 -0.22830859353E+03  0.19074215008E+04  0.18937085224E+04 0.  0.
        4    1    3    3  502    0  0.93408788872E+03  0.10440664821E+02  0.41568561525E+02  0.93507152108E+03  0.12699999809E+01 0.  1.
       -4    1    3    3    0  502 -0.93408788872E+03 -0.10440664821E+02 -0.26987715506E+03  0.97234997971E+03  0.12699999809E+01 0. -1.
</event>
<event>
 5   0  0.1327254E-05  0.1903677E+04  0.7818609E-02  0.8653028E-01
        1   -1    0    0  501    0  0.00000000000E+00  0.00000000000E+00  0.13585167238E+04  0.13585167239E+04  0.50400001928E-02 0.  1.
       -1   -1    0    0    0  501  0.00000000000E+00  0.00000000000E+00 -0.66690161626E+03  0.66690161628E+03  0.50400001928E-02 0. -1.
    10030    2    1    2    0    0  0.00000000000E+00  0.00000000000E+00  0.69161510758E+03  0.20254183401E+04  0.19036774925E+04 0.  0.
        5    1    3    3  502    0 -0.86253366624E+03 -0.39837112224E+03  0.40702892910E+03  0.10336142973E+04  0.46999998093E+01 0.  1.
       -5    1    3    3    0  502  0.86253366624E+03  0.39837112224E+03  0.28458617848E+03  0.99180404285E+03  0.46999998093E+01 0. -1.
</event>
<event>
 5   0  0.1344119E-05  0.1899047E+04  0.7818609E-02  0.8655331E-01
       -1   -1    0    0    0  501  0.00000000000E+00  0.00000000000E+00  0.56842850976E+03  0.56842850979E+03  0.50400001928E-02 0. -1.
        1   -1    0    0  501    0  0.00000000000E+00  0.00000000000E+00 -0.15861185466E+04  0.15861185466E+04  0.50400001928E-02 0.  1.
    10030    2    1    2    0    0  0.00000000000E+00  0.00000000000E+00 -0.10176900368E+04  0.21545470564E+04  0.18990471314E+04 0.  0.
        2    1    3    3  502    0 -0.26400333390E+03  0.51024173406E+03  0.34887903301E+03  0.67213165910E+03  0.25500000920E-02 0. -1.
       -2    1    3    3    0  502  0.26400333390E+03 -0.51024173406E+03 -0.13665690699E+04  0.14824153973E+04  0.25500000920E-02 0.  1.
</event>
<event>
 5   0  0.2879462E-05  0.1901459E+04  0.7818609E-02  0.8654130E-01
       -2   -1    0    0    0  501  0.00000000000E+00  0.00000000000E+00  0.13242152381E+04  0.13242152381E+04  0.25500000920E-02 0. -1.
        2   -1    0    0  501    0  0.00000000000E+00  0.00000000000E+00 -0.68258309331E+03  0.68258309332E+03  0.25500000920E-02 0.  1.
    10030    2    1    2    0    0  0.00000000000E+00  0.00000000000E+00  0.64163214482E+03  0.20067983315E+04  0.19014593695E+04 0.  0.
        4    1    3    3  502    0  0.63013662921E+02  0.75256377985E+03  0.93036026492E+03  0.11982882791E+04  0.12699999809E+01 0. -1.
       -4    1    3    3    0  502 -0.63013662921E+02 -0.75256377985E+03 -0.28872812010E+03  0.80851005232E+03  0.12699999809E+01 0.  1.
</event>
<event>
 5   0  0.1413011E-05  0.1896831E+04  0.7818609E-02  0.8656436E-01
        1   -1    0    0  501    0  0.00000000000E+00  0.00000000000E+00  0.14914047199E+04  0.14914047199E+04  0.50400001928E-02 0.  1.
       -1   -1    0    0    0  501  0.00000000000E+00  0.00000000000E+00 -0.60311705312E+03  0.60311705314E+03  0.50400001928E-02 0. -1.
    10030    2    1    2    0    0  0.00000000000E+00  0.00000000000E+00  0.88828766675E+03  0.20945217730E+04  0.18968306405E+04 0.  0.
        1    1    3    3  502    0 -0.71913859733E+03 -0.25884687384E+03 -0.17592326586E+03  0.78429013877E+03  0.50400001928E-02 0. -1.
       -1    1    3    3    0  502  0.71913859733E+03  0.25884687384E+03  0.10642109326E+04  0.13102316342E+04  0.50400001928E-02 0.  1.
</event>
<event>
 5   0  0.2855141E-05  0.1901335E+04  0.7818609E-02  0.8654192E-01
       -2   -1    0    0    0  501  0.00000000000E+00  0.00000000000E+00  0.42658038136E+03  0.42658038136E+03  0.25500000920E-02 0. -1.
        2   -1    0    0  501    0  0.00000000000E+00  0.00000000000E+00 -0.21186354157E+04  0.21186354158E+04  0.25500000920E-02 0.  1.
    10030    2    1    2    0    0  0.00000000000E+00  0.00000000000E+00 -0.16920550344E+04  0.25452157971E+04  0.19013345877E+04 0.  0.
        1    1    3    3  502    0  0.37997790828E+03 -0.14106905206E+03 -0.19971741115E+04  0.20378881520E+04  0.50400001928E-02 0.  1.
       -1    1    3    3    0  502 -0.37997790828E+03  0.14106905206E+03  0.30511907715E+03  0.50732764511E+03  0.50400001928E-02 0. -1.
</event>
<event>
 5   0  0.1413011E-05  0.1897368E+04  0.7818609E-02  0.8656168E-01
       -1   -1    0    0    0  501  0.00000000000E+00  0.00000000000E+00  0.46786474430E+03  0.46786474433E+03  0.50400001928E-02 0. -1.
        1   -1    0    0  501    0  0.00000000000E+00  0.00000000000E+00 -0.19236351869E+04  0.19236351869E+04  0.50400001928E-02 0.  1.
    10030    2    1    2    0    0  0.00000000000E+00  0.00000000000E+00 -0.14557704426E+04  0.23914999312E+04  0.18973677397E+04 0.  0.
        1    1    3    3  502    0  0.11522892952E+03  0.72312195523E+03 -0.14881431560E+04  0.16585394542E+04  0.50400001928E-02 0.  1.
       -1    1    3    3    0  502 -0.11522892952E+03 -0.72312195523E+03  0.32372713383E+02  0.73296047706E+03  0.50400001928E-02 0. -1.
</event>
<event>
 5   0  0.1413011E-05  0.1899103E+04  0.7818609E-02  0.8655303E-01
        1   -1    0    0  501    0  0.00000000000E+00  0.00000000000E+00  0.16683218468E+04  0.16683218468E+04  0.50400001928E-02 0.  1.
       -1   -1    0    0    0  501  0.00000000000E+00  0.00000000000E+00 -0.54045221576E+03  0.54045221578E+03  0.50400001928E-02 0. -1.
    10030    2    1    2    0    0  0.00000000000E+00  0.00000000000E+00  0.11278696310E+04  0.22087740626E+04  0.18991031975E+04 0.  0.
        1    1    3    3  502    0  0.92178798261E+03  0.22747944760E+03  0.54715063399E+03  0.10958164994E+04  0.50400001928E-02 0. -1.
       -1    1    3    3    0  502 -0.92178798261E+03 -0.22747944760E+03  0.58071899703E+03  0.11129575632E+04  0.50400001928E-02 0.  1.
</event>
<event>
 5   0  0.2789718E-05  0.1948511E+04  0.7818609E-02  0.8631079E-01
        2   -1    0    0  501    0  0.00000000000E+00  0.00000000000E+00  0.11034806355E+04  0.11034806355E+04  0.25500000920E-02 0.  1.
       -2   -1    0    0    0  501  0.00000000000E+00  0.00000000000E+00 -0.86016349534E+03  0.86016349534E+03  0.25500000920E-02 0. -1.
    10030    2    1    2    0    0  0.00000000000E+00  0.00000000000E+00  0.24331714015E+03  0.19636441308E+04  0.19485109807E+04 0.  0.
        5    1    3    3  502    0  0.27348891413E+03  0.71985540974E+03 -0.47977094499E+03  0.90729832290E+03  0.46999998093E+01 0. -1.
       -5    1    3    3    0  502 -0.27348891413E+03 -0.71985540974E+03  0.72308808513E+03  0.10563458079E+04  0.46999998093E+01 0.  1.
</event>
<event>
 5   0  0.1010725E-05  0.1901682E+04  0.7818609E-02  0.8654020E-01
       -3   -1    0    0    0  501  0.00000000000E+00  0.00000000000E+00  0.15865794979E+04  0.15865795011E+04  0.10100000352E+00 0.  1.
        3   -1    0    0  501    0  0.00000000000E+00  0.00000000000E+00 -0.56984114425E+03  0.56984115320E+03  0.10100000352E+00 0. -1.
    10030    2    1    2    0    0  0.00000000000E+00  0.00000000000E+00  0.10167383536E+04  0.21564206543E+04  0.19016816659E+04 0.  0.
        4    1    3    3  502    0 -0.30373402844E+03  0.10335784138E+03 -0.50660536597E+03  0.59965641257E+03  0.12699999809E+01 0. -1.
       -4    1    3    3    0  502  0.30373402844E+03 -0.10335784138E+03  0.15233437196E+04  0.15567642417E+04  0.12699999809E+01 0.  1.
</event>
<event>
 5   0  0.2888776E-05  0.1900315E+04  0.7818609E-02  0.8654700E-01
       -2   -1    0    0    0  501  0.00000000000E+00  0.00000000000E+00  0.58682753625E+03  0.58682753626E+03  0.25500000920E-02 0. -1.
        2   -1    0    0  501    0  0.00000000000E+00  0.00000000000E+00 -0.15384406525E+04  0.15384406525E+04  0.25500000920E-02 0.  1.
    10030    2    1    2    0    0  0.00000000000E+00  0.00000000000E+00 -0.95161311627E+03  0.21252681888E+04  0.19003150663E+04 0.  0.
        3    1    3    3  502    0  0.20697913116E+03  0.15091986246E+03  0.54748198843E+03  0.60444495488E+03  0.10100000352E+00 0. -1.
       -3    1    3    3    0  502 -0.20697913116E+03 -0.15091986246E+03 -0.14990951047E+04  0.15208232339E+04  0.10100000352E+00 0.  1.
</event>
<event>
 5   0  0.2879462E-05  0.1896649E+04  0.7818609E-02  0.8656526E-01
        2   -1    0    0  501    0  0.00000000000E+00  0.00000000000E+00  0.10400234702E+04  0.10400234702E+04  0.25500000920E-02 0.  1.
       -2   -1    0    0    0  501  0.00000000000E+00  0.00000000000E+00 -0.86471067054E+03  0.86471067054E+03  0.25500000920E-02 0. -1.
    10030    2    1    2    0    0  0.00000000000E+00  0.00000000000E+00  0.17531279962E+03  0.19047341407E+04  0.18966490369E+04 0.  0.
        4    1    3    3  502    0 -0.76343285455E+03 -0.16648313202E+03  0.62732170408E+03  0.10020381679E+04  0.12699999809E+01 0.  1.
       -4    1    3    3    0  502  0.76343285455E+03  0.16648313202E+03 -0.45200890446E+03  0.90269597278E+03  0.12699999809E+01 0. -1.
</event>
<event>
 5   0  0.2888776E-05  0.1904935E+04  0.7818609E-02  0.8652404E-01
       -2   -1    0    0    0  501  0.00000000000E+00  0.00000000000E+00  0.14875031477E+04  0.14875031477E+04  0.25500000920E-02 0. -1.
        2   -1    0    0  501    0  0.00000000000E+00  0.00000000000E+00 -0.60987728719E+03  0.60987728720E+03  0.25500000920E-02 0.  1.
    10030    2    1    2    0    0  0.00000000000E+00  0.00000000000E+00  0.87762586049E+03  0.20973804349E+04  0.19049350481E+04 0.  0.
        3    1    3    3  502    0 -0.37577034903E+03  0.37685833053E+03 -0.43090511988E+03  0.68476622948E+03  0.10100000352E+00 0.  1.
       -3    1    3    3    0  502  0.37577034903E+03 -0.37685833053E+03  0.13085309804E+04  0.14126142054E+04  0.10100000352E+00 0. -1.
</event>
<event>
 5   0  0.2855141E-05  0.1891637E+04  0.7818609E-02  0.8659030E-01
       -2   -1    0    0    0  501  0.00000000000E+00  0.00000000000E+00  0.10217417803E+04  0.10217417803E+04  0.25500000920E-02 0.  1.
        2   -1    0    0  501    0  0.00000000000E+00  0.00000000000E+00 -0.87553735454E+03  0.87553735454E+03  0.25500000920E-02 0. -1.
    10030    2    1    2    0    0  0.00000000000E+00  0.00000000000E+00  0.14620442576E+03  0.18972791348E+04  0.18916374868E+04 0.  0.
        1    1    3    3  502    0  0.41401220494E+03  0.21395587834E+03 -0.75238940568E+03  0.88502714169E+03  0.50400001928E-02 0. -1.
       -1    1    3    3    0  502 -0.41401220494E+03 -0.21395587834E+03  0.89859383144E+03  0.10122519932E+04  0.50400001928E-02 0.  1.
</event>
<event>
 5   0  0.1344119E-05  0.1900933E+04  0.7818609E-02  0.8654392E-01
       -1   -1    0    0    0  501  0.00000000000E+00  0.00000000000E+00  0.61713745112E+03  0.61713745114E+03  0.50400001928E-02 0.  1.
        1   -1    0    0  501    0  0.00000000000E+00  0.00000000000E+00 -0.14638328836E+04  0.14638328836E+04  0.50400001928E-02 0. -1.
    10030    2    1    2    0    0  0.00000000000E+00  0.00000000000E+00 -0.84669543246E+03  0.20809703347E+04  0.19009325024E+04 0.  0.
        2    1    3    3  502    0  0.78077713241E+02 -0.93705361515E+02  0.60853461122E+03  0.62063773422E+03  0.25500000920E-02 0.  1.
       -2    1    3    3    0  502 -0.78077713241E+02  0.93705361515E+02 -0.14552300437E+04  0.14603326005E+04  0.25500000920E-02 0. -1.
</event>
<event>
 5   0  0.1471485E-05  0.1889449E+04  0.7818609E-02  0.8660126E-01
        1   -1    0    0  501    0  0.00000000000E+00  0.00000000000E+00  0.85650162850E+03  0.85650162852E+03  0.50400001928E-02 0.  1.
       -1   -1    0    0    0  501  0.00000000000E+00  0.00000000000E+00 -0.10420350993E+04  0.10420350993E+04  0.50400001928E-02 0. -1.
    10030    2    1    2    0    0  0.00000000000E+00  0.00000000000E+00 -0.18553347082E+03  0.18985367278E+04  0.18894494008E+04 0.  0.
        4    1    3    3  502    0  0.86125148710E+03 -0.20359727688E+03 -0.42495799281E+03  0.98173157417E+03  0.12699999809E+01 0. -1.
       -4    1    3    3    0  502 -0.86125148710E+03  0.20359727688E+03  0.23942452199E+03  0.91680515368E+03  0.12699999809E+01 0.  1.
</event>
<event>
 5   0  0.2789718E-05  0.1900186E+04  0.7818609E-02  0.8654764E-01
       -2   -1    0    0    0  501  0.00000000000E+00  0.00000000000E+00  0.13285719786E+04  0.13285719786E+04  0.25500000920E-02 0.  1.
        2   -1    0    0  501    0  0.00000000000E+00  0.00000000000E+00 -0.67943374739E+03  0.67943374739E+03  0.25500000920E-02 0. -1.
    10030    2    1    2    0    0  0.00000000000E+00  0.00000000000E+00  0.64913823118E+03  0.20080057260E+04  0.19001859257E+04 0.  0.
        5    1    3    3  502    0  0.52320032958E+03 -0.10812780554E+01  0.11626091292E+04  0.12749203236E+04  0.46999998093E+01 0.  1.
       -5    1    3    3    0  502 -0.52320032958E+03  0.10812780554E+01 -0.51347089807E+03  0.73308540239E+03  0.46999998093E+01 0. -1.
</event>
<event>
 5   0  0.1413011E-05  0.1899862E+04  0.7818609E-02  0.8654925E-01
        1   -1    0    0  501    0  0.00000000000E+00  0.00000000000E+00  0.81921673146E+03  0.81921673148E+03  0.50400001928E-02 0.  1.
       -1   -1    0    0    0  501  0.00000000000E+00  0.00000000000E+00 -0.11015019733E+04  0.11015019733E+04  0.50400001928E-02 0. -1.
    10030    2    1    2    0    0  0.00000000000E+00  0.00000000000E+00 -0.28228524187E+03  0.19207187048E+04  0.18998619385E+04 0.  0.
        1    1    3    3  502    0  0.30489505136E+03  0.82993701026E+03  0.20996295493E+03  0.90875787524E+03  0.50400001928E-02 0.  1.
       -1    1    3    3    0  502 -0.30489505136E+03 -0.82993701026E+03 -0.49224819680E+03  0.10119608296E+04  0.50400001928E-02 0. -1.
</event>
<event>
 5   0  0.1471485E-05  0.1882731E+04  0.7818609E-02  0.8663500E-01
       -1   -1    0    0    0  501  0.00000000000E+00  0.00000000000E+00  0.75351326153E+03  0.75351326155E+03  0.50400001928E-02 0.  1.
        1   -1    0    0  501    0  0.00000000000E+00  0.00000000000E+00 -0.11760493341E+04  0.11760493341E+04  0.50400001928E-02 0. -1.
    10030    2    1    2    0    0  0.00000000000E+00  0.00000000000E+00 -0.42253607259E+03  0.19295625957E+04  0.18827307503E+04 0.  0.
        4    1    3    3  502    0 -0.16244580990E+03  0.62405209230E+03  0.49160269639E+03  0.81086649891E+03  0.12699999809E+01 0.  1.
       -4    1    3    3    0  502  0.16244580990E+03 -0.62405209230E+03 -0.91413876899E+03  0.11186960968E+04  0.12699999809E+01 0. -1.
</event>
<event>
 5   0  0.1327254E-05  0.1903420E+04  0.7818609E-02  0.8653156E-01
        1   -1    0    0  501    0  0.00000000000E+00  0.00000000000E+00  0.15834542859E+04  0.15834542859E+04  0.50400001928E-02 0. -1.
       -1   -1    0    0    0  501  0.00000000000E+00  0.00000000000E+00 -0.57201044176E+03  0.57201044178E+03  0.50400001928E-02 0.  1.
    10030    2    1    2    0    0  0.00000000000E+00  0.00000000000E+00  0.10114438442E+04  0.21554647277E+04  0.19034204850E+04 0.  0.
        5    1    3    3  502    0  0.92959150671E+03  0.11996220904E+03  0.31896246294E+03  0.99009617902E+03  0.46999998093E+01 0. -1.
       -5    1    3    3    0  502 -0.92959150671E+03 -0.11996220904E+03  0.69248138123E+03  0.11653685487E+04  0.46999998093E+01 0.  1.
</event>
<event>
 5   0  0.2879462E-05  0.1894173E+04  0.7818609E-02  0.8657762E-01
        2   -1    0    0  501    0  0.00000000000E+00  0.00000000000E+00  0.17801314461E+04  0.17801314461E+04  0.25500000920E-02 0.  1.
       -2   -1    0    0    0  501  0.00000000000E+00  0.00000000000E+00 -0.50388004606E+03  0.50388004607E+03  0.25500000920E-02 0. -1.
    10030    2    1    2    0    0  0.00000000000E+00  0.00000000000E+00  0.12762514001E+04  0.22840114922E+04  0.18941728697E+04 0.  0.
        4    1    3    3  502    0 -0.38277981491E+03 -0.45501523844E+03  0.15270058841E+04  0.16386908912E+04  0.12699999809E+01 0.  1.
       -4    1    3    3    0  502  0.38277981491E+03  0.45501523844E+03 -0.25075448403E+03  0.64532060100E+03  0.12699999809E+01 0. -1.
</event>
<event>
 5   0  0.1413011E-05  0.1900730E+04  0.7818609E-02  0.8654493E-01
        1   -1    0    0  501    0  0.00000000000E+00  0.00000000000E+00  0.17139743639E+04  0.17139743639E+04  0.50400001928E-02 0. -1.
       -1   -1    0    0    0  501  0.00000000000E+00  0.00000000000E+00 -0.52695845938E+03  0.52695845940E+03  0.50400001928E-02 0.  1.
    10030    2    1    2    0    0  0.00000000000E+00  0.00000000000E+00  0.11870159045E+04  0.22409328233E+04  0.19007296391E+04 0.  0.
        1    1    3    3  502    0 -0.46739145491E+03 -0.82744189510E+03  0.58306688256E+03  0.11149358060E+04  0.50400001928E-02 0.  1.
       -1    1    3    3    0  502  0.46739145491E+03  0.82744189510E+03  0.60394902197E+03  0.11259970173E+04  0.50400001928E-02 0. -1.
</event>
<event>
 5   0  0.2813537E-05  0.1904118E+04  0.7818609E-02  0.8652809E-01
        2   -1    0    0  501    0  0.00000000000E+00  0.00000000000E+00  0.11204086551E+04  0.11204086551E+04  0.25500000920E-02 0.  1.
       -2   -1    0    0    0  501  0.00000000000E+00  0.00000000000E+00 -0.80900552997E+03  0.80900552998E+03  0.25500000920E-02 0. -1.
    10030    2    1    2    0    0  0.00000000000E+00  0.00000000000E+00  0.31140312513E+03  0.19294141851E+04  0.19041184814E+04 0.  0.
        2    1    3    3  502    0 -0.19887479513E+03 -0.37513795889E+02  0.10983604788E+04  0.11168501289E+04  0.25500000920E-02 0.  1.
       -2    1    3    3    0  502  0.19887479513E+03  0.37513795889E+02 -0.78695735363E+03  0.81256405622E+03  0.25500000920E-02 0. -1.
</event>
<event>
 5   0  0.2789718E-05  0.1899351E+04  0.7818609E-02  0.8655180E-01
        2   -1    0    0  501    0  0.00000000000E+00  0.00000000000E+00  0.13618495242E+04  0.13618495242E+04  0.25500000920E-02 0.  1.
       -2   -1    0    0    0  501  0.00000000000E+00  0.00000000000E+00 -0.66224891609E+03  0.66224891609E+03  0.25500000920E-02 0. -1.
    10030    2    1    2    0    0  0.00000000000E+00  0.00000000000E+00  0.69960060808E+03  0.20240984403E+04  0.18993508062E+04 0.  0.
        5    1    3    3  502    0 -0.54963177247E+03  0.76576419079E+03  0.47302986074E+03  0.10546417498E+04  0.46999998093E+01 0.  1.
       -5    1    3    3    0  502  0.54963177247E+03 -0.76576419079E+03  0.22657074734E+03  0.96945669050E+03  0.46999998093E+01 0. -1.
</event>
<event>
 5   0  0.1429067E-05  0.1917544E+04  0.7818609E-02  0.8646173E-01
        1   -1    0    0  501    0  0.00000000000E+00  0.00000000000E+00  0.18868435329E+04  0.18868435329E+04  0.50400001928E-02 0.  1.
       -1   -1    0    0    0  501  0.00000000000E+00  0.00000000000E+00 -0.48718587188E+03  0.48718587191E+03  0.50400001928E-02 0. -1.
    10030    2    1    2    0    0  0.00000000000E+00  0.00000000000E+00  0.13996576610E+04  0.23740294048E+04  0.19175437536E+04 0.  0.
        3    1    3    3  502    0 -0.57292330850E+03 -0.27140570361E+03 -0.19066189049E+03  0.66200765861E+03  0.10100000352E+00 0. -1.
       -3    1    3    3    0  502  0.57292330850E+03  0.27140570361E+03  0.15903195515E+04  0.17120217462E+04  0.10100000352E+00 0.  1.
</event>
<event>
 5   0  0.1327254E-05  0.1897068E+04  0.7818609E-02  0.8656317E-01
       -1   -1    0    0    0  501  0.00000000000E+00  0.00000000000E+00  0.48221208541E+03  0.48221208543E+03  0.50400001928E-02 0.  1.
        1   -1    0    0  501    0  0.00000000000E+00  0.00000000000E+00 -0.18658117265E+04  0.18658117265E+04  0.50400001928E-02 0. -1.
    10030    2    1    2    0    0  0.00000000000E+00  0.00000000000E+00 -0.13835996410E+04  0.23480238119E+04  0.18970682261E+04 0.  0.
        5    1    3    3  502    0 -0.57307238846E+03 -0.31773275512E+03  0.15702942980E+03  0.67382965051E+03  0.46999998093E+01 0.  1.
       -5    1    3    3    0  502  0.57307238846E+03  0.31773275512E+03 -0.15406290708E+04  0.16741941614E+04  0.46999998093E+01 0. -1.
</event>
<event>
 5   0  0.2813537E-05  0.1901527E+04  0.7818609E-02  0.8654096E-01
       -2   -1    0    0    0  501  0.00000000000E+00  0.00000000000E+00  0.10546480627E+04  0.10546480627E+04  0.25500000920E-02 0.  1.
        2   -1    0    0  501    0  0.00000000000E+00  0.00000000000E+00 -0.85711218602E+03  0.85711218602E+03  0.25500000920E-02 0. -1.
    10030    2    1    2    0    0  0.00000000000E+00  0.00000000000E+00  0.19753587672E+03  0.19117602488E+04  0.19015274981E+04 0.  0.
        2    1    3    3  502    0 -0.36167939780E+03  0.23720215449E+03  0.95000885640E+03  0.10438360389E+04  0.25500000920E-02 0.  1.
       -2    1    3    3    0  502  0.36167939780E+03 -0.23720215449E+03 -0.75247297968E+03  0.86792420985E+03  0.25500000920E-02 0. -1.
</event>
<event>
 5   0  0.1471485E-05  0.1902912E+04  0.7818609E-02  0.8653408E-01
        1   -1    0    0  501    0  0.00000000000E+00  0.00000000000E+00  0.78372333151E+03  0.78372333152E+03  0.50400001928E-02 0.  1.
       -1   -1    0    0    0  501  0.00000000000E+00  0.00000000000E+00 -0.11550870445E+04  0.11550870445E+04  0.50400001928E-02 0. -1.
    10030    2    1    2    0    0  0.00000000000E+00  0.00000000000E+00 -0.37136371300E+03  0.19388103760E+04  0.19029121543E+04 0.  0.
        4    1    3    3  502    0  0.61023629688E+03  0.35233385289E+03  0.46570642018E+03  0.84463694249E+03  0.12699999809E+01 0.  1.
       -4    1    3    3    0  502 -0.61023629688E+03 -0.35233385289E+03 -0.83707013318E+03  0.10941734336E+04  0.12699999809E+01 0. -1.
</event>
<event>
 5   0  0.2888776E-05  0.1902375E+04  0.7818609E-02  0.8653675E-01
        2   -1    0    0  501    0  0.00000000000E+00  0.00000000000E+00  0.10227862152E+04  0.10227862152E+04  0.25500000920E-02 0. -1.
       -2   -1    0    0    0  501  0.00000000000E+00  0.00000000000E+00 -0.88460137693E+03  0.88460137694E+03  0.25500000920E-02 0.  1.
    10030    2    1    2    0    0  0.00000000000E+00  0.00000000000E+00  0.13818483827E+03  0.19073875921E+04  0.19023754564E+04 0.  0.
        3    1    3    3  502    0 -0.42451173608E+03 -0.33451289904E+03 -0.71568876159E+03  0.89683861835E+03  0.10100000352E+00 0.  1.
       -3    1    3    3    0  502  0.42451173608E+03  0.33451289904E+03  0.85387359986E+03  0.10105489738E+04  0.10100000352E+00 0. -1.
</event>
<event>
 5   0  0.2789718E-05  0.1900155E+04  0.7818609E-02  0.8654779E-01
        2   -1    0    0  501    0  0.00000000000E+00  0.00000000000E+00  0.12480584347E+04  0.12480584347E+04  0.25500000920E-02 0. -1.
       -2   -1    0    0    0  501  0.00000000000E+00  0.00000000000E+00 -0.72324114048E+03  0.72324114048E+03  0.25500000920E-02 0.  1.
    10030    2    1    2    0    0  0.00000000000E+00  0.00000000000E+00  0.52481729426E+03  0.19712995752E+04  0.19001549471E+04 0.  0.
        5    1    3    3  502    0  0.29085944839E+03 -0.27672039642E+03 -0.63090722384E+03  0.74782311519E+03  0.46999998093E+01 0.  1.
       -5    1    3    3    0  502 -0.29085944839E+03  0.27672039642E+03  0.11557245181E+04  0.12234764600E+04  0.46999998093E+01 0. -1.
</event>
<event>
 5   0  0.2855141E-05  0.1900172E+04  0.7818609E-02  0.8654771E-01
       -2   -1    0    0    0  501  0.00000000000E+00  0.00000000000E+00  0.68009060920E+03  0.68009060921E+03  0.25500000920E-02 0.  1.
        2   -1    0    0  501    0  0.00000000000E+00  0.00000000000E+00 -0.13272688024E+04  0.13272688025E+04  0.25500000920E-02 0. -1.
    10030    2    1    2    0    0  0.00000000000E+00  0.00000000000E+00 -0.64717819325E+03  0.20073594117E+04  0.19001716222E+04 0.  0.
        1    1    3    3  502    0 -0.72104291350E+03 -0.28406549446E+03 -0.90419831011E+03  0.11908697126E+04  0.50400001928E-02 0. -1.
       -1    1    3    3    0  502  0.72104291350E+03  0.28406549446E+03  0.25702011686E+03  0.81648969911E+03  0.50400001928E-02 0.  1.
</event>
<event>
 5   0  0.1413011E-05  0.1902860E+04  0.7818609E-02  0.8653434E-01
        1   -1    0    0  501    0  0.00000000000E+00  0.00000000000E+00  0.11542398309E+04  0.11542398309E+04  0.50400001928E-02 0.  1.
       -1   -1    0    0    0  501  0.00000000000E+00  0.00000000000E+00 -0.78425551526E+03  0.78425551528E+03  0.50400001928E-02 0. -1.
    10030    2    1    2    0    0  0.00000000000E+00  0.00000000000E+00  0.36998431564E+03  0.19384953462E+04  0.19028599038E+04 0.  0.
        1    1    3    3  502    0  0.37865220112E+03  0.18465796123E+02  0.10739743021E+04  0.11389202240E+04  0.50400001928E-02 0.  1.
       -1    1    3    3    0  502 -0.37865220112E+03 -0.18465796123E+02 -0.70398998644E+03  0.79957512222E+03  0.50400001928E-02 0. -1.
</event>
<event>
 5   0  0.2855141E-05  0.1896663E+04  0.7818609E-02  0.8656519E-01
        2   -1    0    0  501    0  0.00000000000E+00  0.00000000000E+00  0.13983459317E+04  0.13983459317E+04  0.25500000920E-02 0.  1.
       -2   -1    0    0    0  501  0.00000000000E+00  0.00000000000E+00 -0.64314026862E+03  0.64314026862E+03  0.25500000920E-02 0. -1.
    10030    2    1    2    0    0  0.00000000000E+00  0.00000000000E+00  0.75520566310E+03  0.20414862003E+04  0.18966629412E+04 0.  0.
        1    1    3    3  502    0 -0.50964920792E+02  0.89740488065E+03  0.70301105287E+03  0.11411211520E+04  0.50400001928E-02 0.  1.
       -1    1    3    3    0  502  0.50964920792E+02 -0.89740488065E+03  0.52194610224E+02  0.90036504837E+03  0.50400001928E-02 0. -1.
</event>
<event>
 5   0  0.1413011E-05  0.1900818E+04  0.7818609E-02  0.8654449E-01
       -1   -1    0    0    0  501  0.00000000000E+00  0.00000000000E+00  0.12320549772E+04  0.12320549772E+04  0.50400001928E-02 0.  1.
        1   -1    0    0  501    0  0.00000000000E+00  0.00000000000E+00 -0.73314691197E+03  0.73314691199E+03  0.50400001928E-02 0. -1.
    10030    2    1    2    0    0  0.00000000000E+00  0.00000000000E+00  0.49890806524E+03  0.19652018892E+04  0.19008180365E+04 0.  0.
        1    1    3    3  502    0 -0.75627177456E+03 -0.43573176017E+03  0.63831642844E+03  0.10813218885E+04  0.50400001928E-02 0.  1.
       -1    1    3    3    0  502  0.75627177456E+03  0.43573176017E+03 -0.13940836320E+03  0.88388000066E+03  0.50400001928E-02 0. -1.
</event>
<event>
 5   0  0.2879462E-05  0.1901132E+04  0.7818609E-02  0.8654293E-01
       -2   -1    0    0    0  501  0.00000000000E+00  0.00000000000E+00  0.10867302050E+04  0.10867302050E+04  0.25500000920E-02 0. -1.
        2   -1    0    0  501    0  0.00000000000E+00  0.00000000000E+00 -0.83146297223E+03  0.83146297223E+03  0.25500000920E-02 0.  1.
    10030    2    1    2    0    0  0.00000000000E+00  0.00000000000E+00  0.25526723276E+03  0.19181931772E+04  0.19011322166E+04 0.  0.
        4    1    3    3  502    0 -0.35606142237E+03  0.86562990609E+03 -0.39623259137E+02  0.93683855940E+03  0.12699999809E+01 0. -1.
       -4    1    3    3    0  502  0.35606142237E+03 -0.86562990609E+03  0.29489049189E+03  0.98135461783E+03  0.12699999809E+01 0.  1.
</event>
<event>
 5   0  0.1413011E-05  0.1902799E+04  0.7818609E-02  0.8653464E-01
       -1   -1    0    0    0  501  0.00000000000E+00  0.00000000000E+00  0.62041968315E+03  0.62041968317E+03  0.50400001928E-02 0.  1.
        1   -1    0    0  501    0  0.00000000000E+00  0.00000000000E+00 -0.14589500535E+04  0.14589500535E+04  0.50400001928E-02 0. -1.
    10030    2    1    2    0    0  0.00000000000E+00  0.00000000000E+00 -0.83853037036E+03  0.20793697367E+04  0.19027993378E+04 0.  0.
        1    1    3    3  502    0 -0.18416064644E+03  0.21313497791E+03 -0.14123385598E+04  0.14401534190E+04  0.50400001928E-02 0. -1.
       -1    1    3    3    0  502  0.18416064644E+03 -0.21313497791E+03  0.57380818948E+03  0.63921631772E+03  0.50400001928E-02 0.  1.
</event>
<event>
 5   0  0.2789718E-05  0.1899355E+04  0.7818609E-02  0.8655178E-01
       -2   -1    0    0    0  501  0.00000000000E+00  0.00000000000E+00  0.62937507215E+03  0.62937507215E+03  0.25500000920E-02 0.  1.
        2   -1    0    0  501    0  0.00000000000E+00  0.00000000000E+00 -0.14329881920E+04  0.14329881920E+04  0.25500000920E-02 0. -1.
    10030    2    1    2    0    0  0.00000000000E+00  0.00000000000E+00 -0.80361311985E+03  0.20623632642E+04  0.18993546765E+04 0.  0.
        5    1    3    3  502    0  0.81380540302E+03  0.45710571306E+03 -0.21174070168E+03  0.95712124710E+03  0.46999998093E+01 0. -1.
       -5    1    3    3    0  502 -0.81380540302E+03 -0.45710571306E+03 -0.59187241817E+03  0.11052420171E+04  0.46999998093E+01 0.  1.
</event>
<event>
 5   0  0.2789718E-05  0.1895741E+04  0.7818609E-02  0.8656979E-01
        2   -1    0    0  501    0  0.00000000000E+00  0.00000000000E+00  0.11222511210E+04  0.11222511210E+04  0.25500000920E-02 0. -1.
       -2   -1    0    0    0  501  0.00000000000E+00  0.00000000000E+00 -0.80058618804E+03  0.80058618804E+03  0.25500000920E-02 0.  1.
    10030    2    1    2    0    0  0.00000000000E+00  0.00000000000E+00  0.32166493296E+03  0.19228373090E+04  0.18957412766E+04 0.  0.
        5    1    3    3  502    0 -0.36056343363E+01 -0.19644191108E+02 -0.80036091888E+03  0.80062387256E+03  0.46999998093E+01 0.  1.
       -5    1    3    3    0  502  0.36056343363E+01  0.19644191108E+02  0.11220258518E+04  0.11222134365E+04  0.46999998093E+01 0. -1.
</event>
<event>
 5   0  0.2813537E-05  0.1901295E+04  0.7818609E-02  0.8654212E-01
       -2   -1    0    0    0  501  0.00000000000E+00  0.00000000000E+00  0.73966817673E+03  0.73966817674E+03  0.25500000920E-02 0.  1.
        2   -1    0    0  501    0  0.00000000000E+00  0.00000000000E+00 -0.12218060063E+04  0.12218060063E+04  0.25500000920E-02 0. -1.
    10030    2    1    2    0    0  0.00000000000E+00  0.00000000000E+00 -0.48213782961E+03  0.19614741831E+04  0.19012953700E+04 0.  0.
        2    1    3    3  502    0  0.30260688458E+03  0.32409904314E+03  0.62645116703E+03  0.76749734920E+03  0.25500000920E-02 0.  1.
       -2    1    3    3    0  502 -0.30260688458E+03 -0.32409904314E+03 -0.11085889966E+04  0.11939768339E+04  0.25500000920E-02 0. -1.
</event>
<event>
 5   0  0.2813537E-05  0.1900081E+04  0.7818609E-02  0.8654816E-01
        2   -1    0    0  501    0  0.00000000000E+00  0.00000000000E+00  0.52698285446E+03  0.52698285447E+03  0.25500000920E-02 0. -1.
       -2   -1    0    0    0  501  0.00000000000E+00  0.00000000000E+00 -0.17127259348E+04  0.17127259349E+04  0.25500000920E-02 0.  1.
    10030    2    1    2    0    0  0.00000000000E+00  0.00000000000E+00 -0.11857430804E+04  0.22397087893E+04  0.19000812636E+04 0.  0.
        2    1    3    3  502    0 -0.43946979177E+03  0.60654502907E+03 -0.12817528188E+04  0.14845608303E+04  0.25500000920E-02 0.  1.
       -2    1    3    3    0  502  0.43946979177E+03 -0.60654502907E+03  0.96009738457E+02  0.75514795905E+03  0.25500000920E-02 0. -1.
</event>
<event>
 5   0  0.2855141E-05  0.1905472E+04  0.7818609E-02  0.8652137E-01
        2   -1    0    0  501    0  0.00000000000E+00  0.00000000000E+00  0.13216941862E+04  0.13216941862E+04  0.25500000920E-02 0.  1.
       -2   -1    0    0    0  501  0.00000000000E+00  0.00000000000E+00 -0.68677458296E+03  0.68677458296E+03  0.25500000920E-02 0. -1.
    10030    2    1    2    0    0  0.00000000000E+00  0.00000000000E+00  0.63491960320E+03  0.20084687691E+04  0.19054720922E+04 0.  0.
        1    1    3    3  502    0  0.88543186274E+03 -0.24915375653E+03  0.55768334197E+02  0.92150815789E+03  0.50400001928E-02 0.  1.
       -1    1    3    3    0  502 -0.88543186274E+03  0.24915375653E+03  0.57915126900E+03  0.10869606112E+04  0.50400001928E-02 0. -1.
</event>
<event>
 5   0  0.1327254E-05  0.1896637E+04  0.7818609E-02  0.8656532E-01
        1   -1    0    0  501    0  0.00000000000E+00  0.00000000000E+00  0.18432661549E+04  0.18432661549E+04  0.50400001928E-02 0.  1.
       -1   -1    0    0    0  501  0.00000000000E+00  0.00000000000E+00 -0.48788812739E+03  0.48788812742E+03  0.50400001928E-02 0. -1.
    10030    2    1    2    0    0  0.00000000000E+00  0.00000000000E+00  0.13553780275E+04  0.23311542823E+04  0.18966366786E+04 0.  0.
        5    1    3    3  502    0  0.91626604927E+03 -0.82071958078E+02  0.96066568333E+03  0.13301052306E+04  0.46999998093E+01 0. -1.
       -5    1    3    3    0  502 -0.91626604927E+03  0.82071958078E+02  0.39471234419E+03  0.10010490517E+04  0.46999998093E+01 0.  1.
</event>
<event>
 5   0  0.1429067E-05  0.1901189E+04  0.7818609E-02  0.8654265E-01
        1   -1    0    0  501    0  0.00000000000E+00  0.00000000000E+00  0.13016411855E+04  0.13016411856E+04  0.50400001928E-02 0. -1.
       -1   -1    0    0    0  501  0.00000000000E+00  0.00000000000E+00 -0.69422339648E+03  0.69422339650E+03  0.50400001928E-02 0.  1.
    10030    2    1    2    0    0  0.00000000000E+00  0.00000000000E+00  0.60741778907E+03  0.19958645821E+04  0.19011888542E+04 0.  0.
        3    1    3    3  502    0 -0.36666218282E+03 -0.10488480705E+03  0.12178099298E+04  0.12761281340E+04  0.10100000352E+00 0. -1.
       -3    1    3    3    0  502  0.36666218282E+03  0.10488480705E+03 -0.61039214071E+03  0.71973644808E+03  0.10100000352E+00 0.  1.
</event>
<event>
 5   0  0.2888776E-05  0.1894178E+04  0.7818609E-02  0.8657760E-01
       -2   -1    0    0    0  501  0.00000000000E+00  0.00000000000E+00  0.82217217838E+03  0.82217217838E+03  0.25500000920E-02 0. -1.
        2   -1    0    0  501    0  0.00000000000E+00  0.00000000000E+00 -0.10909849907E+04  0.10909849907E+04  0.25500000920E-02 0.  1.
    10030    2    1    2    0    0  0.00000000000E+00  0.00000000000E+00 -0.26881281233E+03  0.19131571691E+04  0.18941779287E+04 0.  0.
        3    1    3    3  502    0  0.74007258061E+02  0.49376747239E+03  0.67845190373E+03  0.84236594596E+03  0.10100000352E+00 0. -1.
       -3    1    3    3    0  502 -0.74007258061E+02 -0.49376747239E+03 -0.94726471606E+03  0.10707912231E+04  0.10100000352E+00 0.  1.
</event>
<event>
 5   0  0.1413011E-05  0.1906102E+04  0.7818609E-02  0.8651825E-01
       -1   -1    0    0    0  501  0.00000000000E+00  0.00000000000E+00  0.53532036588E+03  0.53532036590E+03  0.50400001928E-02 0. -1.
        1   -1    0    0  501    0  0.00000000000E+00  0.00000000000E+00 -0.16967524830E+04  0.16967524830E+04  0.50400001928E-02 0.  1.
    10030    2    1    2    0    0  0.00000000000E+00  0.00000000000E+00 -0.11614321172E+04  0.22320728490E+04  0.19061019491E+04 0.  0.
        1    1    3    3  502    0 -0.47359809338E+03  0.81610001089E+03 -0.73778824302E+03  0.11977670364E+04  0.50400001928E-02 0.  1.
       -1    1    3    3    0  502  0.47359809338E+03 -0.81610001089E+03 -0.42364387414E+03  0.10343058126E+04  0.50400001928E-02 0. -1.
</event>
<event>
 5   0  0.2813537E-05  0.1896356E+04  0.7818609E-02  0.8656673E-01
        2   -1    0    0  501    0  0.00000000000E+00  0.00000000000E+00  0.76503767789E+03  0.76503767789E+03  0.25500000920E-02 0.  1.
       -2   -1    0    0    0  501  0.00000000000E+00  0.00000000000E+00 -0.11751593296E+04  0.11751593296E+04  0.25500000920E-02 0. -1.
    10030    2    1    2    0    0  0.00000000000E+00  0.00000000000E+00 -0.41012165173E+03  0.19401970075E+04  0.18963556256E+04 0.  0.
        2    1    3    3  502    0  0.70652806327E+03  0.37495253427E+03  0.31589639322E+03  0.85997781274E+03  0.25500000920E-02 0.  1.
       -2    1    3    3    0  502 -0.70652806327E+03 -0.37495253427E+03 -0.72601804495E+03  0.10802191948E+04  0.25500000920E-02 0. -1.
</event>
<event>
 5   0  0.1471485E-05  0.1887501E+04  0.7818609E-02  0.8661103E-01
        1   -1    0    0  501    0  0.00000000000E+00  0.00000000000E+00  0.11455193831E+04  0.11455193831E+04  0.50400001928E-02 0.  1.
       -1   -1    0    0    0  501  0.00000000000E+00  0.00000000000E+00 -0.77752066692E+03  0.77752066694E+03  0.50400001928E-02 0. -1.
    10030    2    1    2    0    0  0.00000000000E+00  0.00000000000E+00  0.36799871619E+03  0.19230400501E+04  0.18875009878E+04 0.  0.
        4    1    3    3  502    0 -0.32618237521E+03  0.40848455733E+03 -0.61654896365E+03  0.80832469525E+03  0.12699999809E+01 0. -1.
       -4    1    3    3    0  502  0.32618237521E+03 -0.40848455733E+03  0.98454767984E+03  0.11147153548E+04  0.12699999809E+01 0.  1.
</event>
<event>
 5   0  0.1413011E-05  0.1901012E+04  0.7818609E-02  0.8654353E-01
        1   -1    0    0  501    0  0.00000000000E+00  0.00000000000E+00  0.21042522317E+04  0.21042522317E+04  0.50400001928E-02 0.  1.
       -1   -1    0    0    0  501  0.00000000000E+00  0.00000000000E+00 -0.42935034117E+03  0.42935034120E+03  0.50400001928E-02 0. -1.
    10030    2    1    2    0    0  0.00000000000E+00  0.00000000000E+00  0.16749018906E+04  0.25336025729E+04  0.19010117450E+04 0.  0.
        1    1    3    3  502    0  0.28391059496E+03  0.83677690794E+03  0.13042244787E+04  0.15753737050E+04  0.50400001928E-02 0.  1.
       -1    1    3    3    0  502 -0.28391059496E+03 -0.83677690794E+03  0.37067741183E+03  0.95822886789E+03  0.50400001928E-02 0. -1.
</event>
<event>
 5   0  0.1344119E-05  0.1902326E+04  0.7818609E-02  0.8653699E-01
       -1   -1    0    0    0  501  0.00000000000E+00  0.00000000000E+00  0.79338987491E+03  0.79338987492E+03  0.50400001928E-02 0. -1.
        1   -1    0    0  501    0  0.00000000000E+00  0.00000000000E+00 -0.11403111481E+04  0.11403111481E+04  0.50400001928E-02 0.  1.
    10030    2    1    2    0    0  0.00000000000E+00  0.00000000000E+00 -0.34692127316E+03  0.19337010230E+04  0.19023262803E+04 0.  0.
        2    1    3    3  502    0  0.72921588348E+03  0.38889616536E+03 -0.65209308566E+03  0.10527209623E+04  0.25500000920E-02 0.  1.
       -2    1    3    3    0  502 -0.72921588348E+03 -0.38889616536E+03  0.30517181250E+03  0.88098006067E+03  0.25500000920E-02 0. -1.
</event>
<event>
 5   0  0.1327254E-05  0.1898838E+04  0.7818609E-02  0.8655435E-01
        1   -1    0    0  501    0  0.00000000000E+00  0.00000000000E+00  0.44458236953E+03  0.44458236956E+03  0.50400001928E-02 0.  1.
       -1   -1    0    0    0  501  0.00000000000E+00  0.00000000000E+00 -0.20275133125E+04  0.20275133125E+04  0.50400001928E-02 0. -1.
    10030    2    1    2    0    0  0.00000000000E+00  0.00000000000E+00 -0.15829309430E+04  0.24720956821E+04  0.18988382477E+04 0.  0.
        5    1    3    3  502    0 -0.72669905750E+03 -0.20563516181E+03 -0.42452234045E+02  0.75644009816E+03  0.46999998093E+01 0.  1.
       -5    1    3    3    0  502  0.72669905750E+03  0.20563516181E+03 -0.15404787089E+04  0.17156555839E+04  0.46999998093E+01 0. -1.
</event>
<event>
 5   0  0.2879462E-05  0.1897133E+04  0.7818609E-02  0.8656285E-01
       -2   -1    0    0    0  501  0.00000000000E+00  0.00000000000E+00  0.60977055341E+03  0.60977055341E+03  0.25500000920E-02 0.  1.
        2   -1    0    0  501    0  0.00000000000E+00  0.00000000000E+00 -0.14756012230E+04  0.14756012230E+04  0.25500000920E-02 0. -1.
    10030    2    1    2    0    0  0.00000000000E+00  0.00000000000E+00 -0.86583066962E+03  0.20853717764E+04  0.18971327570E+04 0.  0.
        4    1    3    3  502    0  0.39231363702E+03  0.85472689352E+03 -0.29691116675E+03  0.98621798105E+03  0.12699999809E+01 0. -1.
       -4    1    3    3    0  502 -0.39231363702E+03 -0.85472689352E+03 -0.56891950286E+03  0.10991537954E+04  0.12699999809E+01 0.  1.
</event>
<event>
 5   0  0.2879462E-05  0.1899349E+04  0.7818609E-02  0.8655181E-01
       -2   -1    0    0    0  501  0.00000000000E+00  0.00000000000E+00  0.81155362722E+03  0.81155362722E+03  0.25500000920E-02 0.  1.
        2   -1    0    0  501    0  0.00000000000E+00  0.00000000000E+00 -0.11113020411E+04  0.11113020411E+04  0.25500000920E-02 0. -1.
    10030    2    1    2    0    0  0.00000000000E+00  0.00000000000E+00 -0.29974841387E+03  0.19228556683E+04  0.18993485224E+04 0.  0.
        4    1    3    3  502    0 -0.42332463781E+03  0.71864932908E+01  0.71071971171E+03  0.82727233495E+03  0.12699999809E+01 0.  1.
       -4    1    3    3    0  502  0.42332463781E+03 -0.71864932908E+01 -0.10104681256E+04  0.10955833334E+04  0.12699999809E+01 0. -1.
</event>
<event>
 5   0  0.1344119E-05  0.1902773E+04  0.7818609E-02  0.8653477E-01
        1   -1    0    0  501    0  0.00000000000E+00  0.00000000000E+00  0.12338943459E+04  0.12338943459E+04  0.50400001928E-02 0.  1.
       -1   -1    0    0    0  501  0.00000000000E+00  0.00000000000E+00 -0.73356045183E+03  0.73356045185E+03  0.50400001928E-02 0. -1.
    10030    2    1    2    0    0  0.00000000000E+00  0.00000000000E+00  0.50033389409E+03  0.19674547978E+04  0.19027728124E+04 0.  0.
        2    1    3    3  502    0  0.15861468307E+03  0.74991109185E+02 -0.71668823483E+03  0.73785114359E+03  0.25500000920E-02 0. -1.
       -2    1    3    3    0  502 -0.15861468307E+03 -0.74991109185E+02  0.12170221289E+04  0.12296036542E+04  0.25500000920E-02 0.  1.
</event>
<event>
 5   0  0.2879462E-05  0.1904265E+04  0.7818609E-02  0.8652736E-01
       -2   -1    0    0    0  501  0.00000000000E+00  0.00000000000E+00  0.54413793589E+03  0.54413793590E+03  0.25500000920E-02 0.  1.
        2   -1    0    0  501    0  0.00000000000E+00  0.00000000000E+00 -0.16660408268E+04  0.16660408268E+04  0.25500000920E-02 0. -1.
    10030    2    1    2    0    0  0.00000000000E+00  0.00000000000E+00 -0.11219028909E+04  0.22101787627E+04  0.19042647049E+04 0.  0.
        4    1    3    3  502    0  0.12491283329E+03  0.70267820382E+03  0.17052730251E+03  0.73378542357E+03  0.12699999809E+01 0.  1.
       -4    1    3    3    0  502 -0.12491283329E+03 -0.70267820382E+03 -0.12924301934E+04  0.14763933391E+04  0.12699999809E+01 0. -1.
</event>
<event>
 5   0  0.2855141E-05  0.1909046E+04  0.7818609E-02  0.8650367E-01
        2   -1    0    0  501    0  0.00000000000E+00  0.00000000000E+00  0.13274915083E+04  0.13274915083E+04  0.25500000920E-02 0. -1.
       -2   -1    0    0    0  501  0.00000000000E+00  0.00000000000E+00 -0.68634272334E+03  0.68634272335E+03  0.25500000920E-02 0.  1.
    10030    2    1    2    0    0  0.00000000000E+00  0.00000000000E+00  0.64114878497E+03  0.20138342317E+04  0.19090459785E+04 0.  0.
        1    1    3    3  502    0 -0.43299265342E+02 -0.94007119453E+03  0.48904490982E+03  0.10605534409E+04  0.50400001928E-02 0. -1.
       -1    1    3    3    0  502  0.43299265342E+02  0.94007119453E+03  0.15210387515E+03  0.95328079076E+03  0.50400001928E-02 0.  1.
</event>
<event>
 5   0  0.2879462E-05  0.1900710E+04  0.7818609E-02  0.8654503E-01
       -2   -1    0    0    0  501  0.00000000000E+00  0.00000000000E+00  0.56818994234E+03  0.56818994234E+03  0.25500000920E-02 0.  1.
        2   -1    0    0  501    0  0.00000000000E+00  0.00000000000E+00 -0.15895643237E+04  0.15895643237E+04  0.25500000920E-02 0. -1.
    10030    2    1    2    0    0  0.00000000000E+00  0.00000000000E+00 -0.10213743813E+04  0.21577542660E+04  0.19007098268E+04 0.  0.
        4    1    3    3  502    0 -0.48607996415E+03  0.77504823275E+03 -0.21859964521E+03  0.94061730391E+03  0.12699999809E+01 0.  1.
       -4    1    3    3    0  502  0.48607996415E+03 -0.77504823275E+03 -0.80277473611E+03  0.12171369621E+04  0.12699999809E+01 0. -1.
</event>
<event>
 5   0  0.1327254E-05  0.1897356E+04  0.7818609E-02  0.8656174E-01
       -1   -1    0    0    0  501  0.00000000000E+00  0.00000000000E+00  0.75408370535E+03  0.75408370536E+03  0.50400001928E-02 0. -1.
        1   -1    0    0  501    0  0.00000000000E+00  0.00000000000E+00 -0.11934875254E+04  0.11934875254E+04  0.50400001928E-02 0.  1.
    10030    2    1    2    0    0  0.00000000000E+00  0.00000000000E+00 -0.43940382003E+03  0.19475712308E+04  0.18973555233E+04 0.  0.
        5    1    3    3  502    0  0.85407429671E+03 -0.14748806495E+03 -0.61561959591E+03  0.10631110998E+04  0.46999998093E+01 0.  1.
       -5    1    3    3    0  502 -0.85407429671E+03  0.14748806495E+03  0.17621577588E+03  0.88446013097E+03  0.46999998093E+01 0. -1.
</event>
<event>
 5   0  0.2789718E-05  0.1892373E+04  0.7818609E-02  0.8658662E-01
       -2   -1    0    0    0  501  0.00000000000E+00  0.00000000000E+00  0.46072933781E+03  0.46072933781E+03  0.25500000920E-02 0. -1.
        2   -1    0    0  501    0  0.00000000000E+00  0.00000000000E+00 -0.19431556063E+04  0.19431556063E+04  0.25500000920E-02 0.  1.
    10030    2    1    2    0    0  0.00000000000E+00  0.00000000000E+00 -0.14824262685E+04  0.24038849441E+04  0.18923728975E+04 0.  0.
        5    1    3    3  502    0 -0.19381726216E+03  0.55780599928E+03  0.19789492353E+03  0.62281390053E+03  0.46999998093E+01 0. -1.
       -5    1    3    3    0  502  0.19381726216E+03 -0.55780599928E+03 -0.16803211920E+04  0.17810710436E+04  0.46999998093E+01 0.  1.
</event>
<event>
 5   0  0.1327254E-05  0.1928691E+04  0.7818609E-02  0.8640705E-01
       -1   -1    0    0    0  501  0.00000000000E+00  0.00000000000E+00  0.51852158423E+03  0.51852158426E+03  0.50400001928E-02 0.  1.
        1   -1    0    0  501    0  0.00000000000E+00  0.00000000000E+00 -0.17934875823E+04  0.17934875823E+04  0.50400001928E-02 0. -1.
    10030    2    1    2    0    0  0.00000000000E+00  0.00000000000E+00 -0.12749659981E+04  0.23120091666E+04  0.19286907710E+04 0.  0.
        5    1    3    3  502    0 -0.55063797513E+03  0.67784920678E+03 -0.11277364575E+04  0.14263566645E+04  0.46999998093E+01 0.  1.
       -5    1    3    3    0  502  0.55063797513E+03 -0.67784920678E+03 -0.14722954055E+03  0.88565250205E+03  0.46999998093E+01 0. -1.
</event>
<event>
 5   0  0.1429067E-05  0.1903563E+04  0.7818609E-02  0.8653085E-01
       -1   -1    0    0    0  501  0.00000000000E+00  0.00000000000E+00  0.59767921423E+03  0.59767921425E+03  0.50400001928E-02 0. -1.
        1   -1    0    0  501    0  0.00000000000E+00  0.00000000000E+00 -0.15156756746E+04  0.15156756746E+04  0.50400001928E-02 0.  1.
    10030    2    1    2    0    0  0.00000000000E+00  0.00000000000E+00 -0.91799646039E+03  0.21133548889E+04  0.19035628135E+04 0.  0.
        3    1    3    3  502    0  0.93342351908E+03  0.37574450842E+02 -0.25671887041E+03  0.96881158847E+03  0.10100000352E+00 0. -1.
       -3    1    3    3    0  502 -0.93342351908E+03 -0.37574450842E+02 -0.66127758998E+03  0.11445433004E+04  0.10100000352E+00 0.  1.
</event>
<event>
 5   0  0.2789718E-05  0.1902323E+04  0.7818609E-02  0.8653701E-01
       -2   -1    0    0    0  501  0.00000000000E+00  0.00000000000E+00  0.52546736820E+03  0.52546736821E+03  0.25500000920E-02 0. -1.
        2   -1    0    0  501    0  0.00000000000E+00  0.00000000000E+00 -0.17217208454E+04  0.17217208454E+04  0.25500000920E-02 0.  1.
    10030    2    1    2    0    0  0.00000000000E+00  0.00000000000E+00 -0.11962534772E+04  0.22471882136E+04  0.19023229183E+04 0.  0.
        5    1    3    3  502    0  0.55668683943E+02  0.82772368096E+03 -0.48529459479E+02  0.83102508556E+03  0.46999998093E+01 0. -1.
       -5    1    3    3    0  502 -0.55668683943E+02 -0.82772368096E+03 -0.11477240177E+04  0.14161631280E+04  0.46999998093E+01 0.  1.
</event>
<event>
 5   0  0.1413011E-05  0.1899572E+04  0.7818609E-02  0.8655070E-01
        1   -1    0    0  501    0  0.00000000000E+00  0.00000000000E+00  0.90319135043E+03  0.90319135045E+03  0.50400001928E-02 0. -1.
       -1   -1    0    0    0  501  0.00000000000E+00  0.00000000000E+00 -0.99878397244E+03  0.99878397245E+03  0.50400001928E-02 0.  1.
    10030    2    1    2    0    0  0.00000000000E+00  0.00000000000E+00 -0.95592622010E+02  0.19019753229E+04  0.18995715779E+04 0.  0.
        1    1    3    3  502    0  0.58249113652E+03  0.73074170579E+03  0.12216441617E+03  0.94244549408E+03  0.50400001928E-02 0.  1.
       -1    1    3    3    0  502 -0.58249113652E+03 -0.73074170579E+03 -0.21775703818E+03  0.95952982882E+03  0.50400001928E-02 0. -1.
</event>
<event>
 5   0  0.1471485E-05  0.1899846E+04  0.7818609E-02  0.8654933E-01
       -1   -1    0    0    0  501  0.00000000000E+00  0.00000000000E+00  0.89536571746E+03  0.89536571748E+03  0.50400001928E-02 0. -1.
        1   -1    0    0  501    0  0.00000000000E+00  0.00000000000E+00 -0.10078048475E+04  0.10078048475E+04  0.50400001928E-02 0.  1.
    10030    2    1    2    0    0  0.00000000000E+00  0.00000000000E+00 -0.11243913007E+03  0.19031705650E+04  0.18998462152E+04 0.  0.
        4    1    3    3  502    0 -0.23203175753E+03 -0.73863238217E+03 -0.60757865507E+03  0.98415952340E+03  0.12699999809E+01 0.  1.
       -4    1    3    3    0  502  0.23203175753E+03  0.73863238217E+03  0.49513952501E+03  0.91901104162E+03  0.12699999809E+01 0. -1.
</event>
<event>
 5   0  0.1327254E-05  0.1901123E+04  0.7818609E-02  0.8654297E-01
        1   -1    0    0  501    0  0.00000000000E+00  0.00000000000E+00  0.61237654399E+03  0.61237654401E+03  0.50400001928E-02 0.  1.
       -1   -1    0    0    0  501  0.00000000000E+00  0.00000000000E+00 -0.14755096277E+04  0.14755096277E+04  0.50400001928E-02 0. -1.
    10030    2    1    2    0    0  0.00000000000E+00  0.00000000000E+00 -0.86313308368E+03  0.20878861717E+04  0.19011233379E+04 0.  0.
        5    1    3    3  502    0 -0.39344908265E+03  0.41229039210E+03 -0.12670651328E+04  0.13893385796E+04  0.46999998093E+01 0. -1.
       -5    1    3    3    0  502  0.39344908265E+03 -0.41229039210E+03  0.40393204913E+03  0.69854759206E+03  0.46999998093E+01 0.  1.
</event>
<event>
 5   0  0.1413011E-05  0.1898702E+04  0.7818609E-02  0.8655503E-01
       -1   -1    0    0    0  501  0.00000000000E+00  0.00000000000E+00  0.73930033516E+03  0.73930033517E+03  0.50400001928E-02 0.  1.
        1   -1    0    0  501    0  0.00000000000E+00  0.00000000000E+00 -0.12190811507E+04  0.12190811507E+04  0.50400001928E-02 0. -1.
    10030    2    1    2    0    0  0.00000000000E+00  0.00000000000E+00 -0.47978081555E+03  0.19583814859E+04  0.18987017705E+04 0.  0.
        1    1    3    3  502    0 -0.57757979853E+03  0.25225904730E+03 -0.97215912048E+03  0.11585881089E+04  0.50400001928E-02 0. -1.
       -1    1    3    3    0  502  0.57757979853E+03 -0.25225904730E+03  0.49237830493E+03  0.79979337695E+03  0.50400001928E-02 0.  1.
</event>
<event>
 5   0  0.1413011E-05  0.1900391E+04  0.7818609E-02  0.8654662E-01
        1   -1    0    0  501    0  0.00000000000E+00  0.00000000000E+00  0.17742206243E+04  0.17742206243E+04  0.50400001928E-02 0.  1.
       -1   -1    0    0    0  501  0.00000000000E+00  0.00000000000E+00 -0.50888322629E+03  0.50888322631E+03  0.50400001928E-02 0. -1.
    10030    2    1    2    0    0  0.00000000000E+00  0.00000000000E+00  0.12653373980E+04  0.22831038506E+04  0.19003906077E+04 0.  0.
        1    1    3    3  502    0  0.34965470310E+03  0.80300689497E+03  0.10753802893E+04  0.13869106862E+04  0.50400001928E-02 0. -1.
       -1    1    3    3    0  502 -0.34965470310E+03 -0.80300689497E+03  0.18995710867E+03  0.89619316441E+03  0.50400001928E-02 0.  1.
</event>
<event>
 5   0  0.2879462E-05  0.1901468E+04  0.7818609E-02  0.8654126E-01
        2   -1    0    0  501    0  0.00000000000E+00  0.00000000000E+00  0.81319500559E+03  0.81319500560E+03  0.25500000920E-02 0. -1.
       -2   -1    0    0    0  501  0.00000000000E+00  0.00000000000E+00 -0.11115353289E+04  0.11115353289E+04  0.25500000920E-02 0.  1.
    10030    2    1    2    0    0  0.00000000000E+00  0.00000000000E+00 -0.29834032326E+03  0.19247303345E+04  0.19014678309E+04 0.  0.
        4    1    3    3  502    0  0.12326556125E+03  0.80339786889E+03 -0.64840866741E+03  0.10397489828E+04  0.12699999809E+01 0.  1.
       -4    1    3    3    0  502 -0.12326556125E+03 -0.80339786889E+03  0.35006834416E+03  0.88498135167E+03  0.12699999809E+01 0. -1.
</event>
<event>
 5   0  0.1471485E-05  0.1887582E+04  0.7818609E-02  0.8661062E-01
       -1   -1    0    0    0  501  0.00000000000E+00  0.00000000000E+00  0.72230383777E+03  0.72230383779E+03  0.50400001928E-02 0. -1.
        1   -1    0    0  501    0  0.00000000000E+00  0.00000000000E+00 -0.12331955640E+04  0.12331955640E+04  0.50400001928E-02 0.  1.
    10030    2    1    2    0    0  0.00000000000E+00  0.00000000000E+00 -0.51089172623E+03  0.19554994018E+04  0.18875824630E+04 0.  0.
        4    1    3    3  502    0 -0.34302179712E+03 -0.16749445505E+03 -0.11496491912E+04  0.12113683261E+04  0.12699999809E+01 0.  1.
       -4    1    3    3    0  502  0.34302179712E+03  0.16749445505E+03  0.63875746500E+03  0.74413107566E+03  0.12699999809E+01 0. -1.
</event>
<event>
 5   0  0.1413011E-05  0.1898552E+04  0.7818609E-02  0.8655577E-01
        1   -1    0    0  501    0  0.00000000000E+00  0.00000000000E+00  0.16804868559E+04  0.16804868559E+04  0.50400001928E-02 0.  1.
       -1   -1    0    0    0  501  0.00000000000E+00  0.00000000000E+00 -0.53622856116E+03  0.53622856119E+03  0.50400001928E-02 0. -1.
    10030    2    1    2    0    0  0.00000000000E+00  0.00000000000E+00  0.11442582947E+04  0.22167154171E+04  0.18985521313E+04 0.  0.
        1    1    3    3  502    0 -0.39700466322E+03 -0.85717746831E+03  0.46285485569E+03  0.10519508222E+04  0.50400001928E-02 0.  1.
       -1    1    3    3    0  502  0.39700466322E+03  0.85717746831E+03  0.68140343903E+03  0.11647645949E+04  0.50400001928E-02 0. -1.
</event>
<event>
 5   0  0.1429067E-05  0.1887702E+04  0.7818609E-02  0.8661002E-01
       -1   -1    0    0    0  501  0.00000000000E+00  0.00000000000E+00  0.60116502244E+03  0.60116502246E+03  0.50400001928E-02 0. -1.
        1   -1    0    0  501    0  0.00000000000E+00  0.00000000000E+00 -0.14818804085E+04  0.14818804085E+04  0.50400001928E-02 0.  1.
    10030    2    1    2    0    0  0.00000000000E+00  0.00000000000E+00 -0.88071538610E+03  0.20830454310E+04  0.18877019564E+04 0.  0.
        3    1    3    3  502    0 -0.94121524792E+03  0.69971542243E+02 -0.44975345586E+03  0.10454952611E+04  0.10100000352E+00 0.  1.
       -3    1    3    3    0  502  0.94121524792E+03 -0.69971542243E+02 -0.43096193024E+03  0.10375501699E+04  0.10100000352E+00 0. -1.
</event>
<event>
 5   0  0.1327254E-05  0.1898069E+04  0.7818609E-02  0.8655818E-01
       -1   -1    0    0    0  501  0.00000000000E+00  0.00000000000E+00  0.70268076646E+03  0.70268076648E+03  0.50400001928E-02 0. -1.
        1   -1    0    0  501    0  0.00000000000E+00  0.00000000000E+00 -0.12817577786E+04  0.12817577786E+04  0.50400001928E-02 0.  1.
    10030    2    1    2    0    0  0.00000000000E+00  0.00000000000E+00 -0.57907701214E+03  0.19844385451E+04  0.18980690591E+04 0.  0.
        5    1    3    3  502    0 -0.40109352608E+02 -0.59787228797E+03  0.47987308334E+03  0.76769805197E+03  0.46999998093E+01 0. -1.
       -5    1    3    3    0  502  0.40109352608E+02  0.59787228797E+03 -0.10589500955E+04  0.12167404931E+04  0.46999998093E+01 0.  1.
</event>
<event>
 5   0  0.2879462E-05  0.1898790E+04  0.7818609E-02  0.8655459E-01
        2   -1    0    0  501    0  0.00000000000E+00  0.00000000000E+00  0.90405550021E+03  0.90405550022E+03  0.25500000920E-02 0. -1.
       -2   -1    0    0    0  501  0.00000000000E+00  0.00000000000E+00 -0.99700799527E+03  0.99700799528E+03  0.25500000920E-02 0.  1.
    10030    2    1    2    0    0  0.00000000000E+00  0.00000000000E+00 -0.92952495061E+02  0.19010634955E+04  0.18987896797E+04 0.  0.
        4    1    3    3  502    0  0.51038893159E+03  0.21771642104E+03 -0.81775688694E+03  0.98824351276E+03  0.12699999809E+01 0.  1.
       -4    1    3    3    0  502 -0.51038893159E+03 -0.21771642104E+03  0.72480439188E+03  0.91281998273E+03  0.12699999809E+01 0. -1.
</event>
<event>
 5   0  0.1344119E-05  0.1904767E+04  0.7818609E-02  0.8652487E-01
       -1   -1    0    0    0  501  0.00000000000E+00  0.00000000000E+00  0.55382503142E+03  0.55382503144E+03  0.50400001928E-02 0.  1.
        1   -1    0    0  501    0  0.00000000000E+00  0.00000000000E+00 -0.16377628869E+04  0.16377628869E+04  0.50400001928E-02 0. -1.
    10030    2    1    2    0    0  0.00000000000E+00  0.00000000000E+00 -0.10839378555E+04  0.21915879183E+04  0.19047667388E+04 0.  0.
        2    1    3    3  502    0  0.56592453516E+03 -0.68552739785E+03 -0.93521798252E+03  0.12902910786E+04  0.25500000920E-02 0. -1.
       -2    1    3    3    0  502 -0.56592453516E+03  0.68552739785E+03 -0.14871987295E+03  0.90129683974E+03  0.25500000920E-02 0.  1.
</event>
<event>
 5   0  0.1471485E-05  0.1899481E+04  0.7818609E-02  0.8655115E-01
       -1   -1    0    0    0  501  0.00000000000E+00  0.00000000000E+00  0.10098232837E+04  0.10098232838E+04  0.50400001928E-02 0.  1.
        1   -1    0    0  501    0  0.00000000000E+00  0.00000000000E+00 -0.89323259122E+03  0.89323259123E+03  0.50400001928E-02 0. -1.
    10030    2    1    2    0    0  0.00000000000E+00  0.00000000000E+00  0.11659069253E+03  0.19030558750E+04  0.18994810538E+04 0.  0.
        4    1    3    3  502    0 -0.37965829876E+03 -0.61005134317E+03 -0.56392289476E+03  0.91340774535E+03  0.12699999809E+01 0.  1.
       -4    1    3    3    0  502  0.37965829876E+03  0.61005134317E+03  0.68051358729E+03  0.98964812965E+03  0.12699999809E+01 0. -1.
</event>
<event>
 5   0  0.2879462E-05  0.1898250E+04  0.7818609E-02  0.8655728E-01
        2   -1    0    0  501    0  0.00000000000E+00  0.00000000000E+00  0.17858594142E+04  0.17858594142E+04  0.25500000920E-02 0. -1.
       -2   -1    0    0    0  501  0.00000000000E+00  0.00000000000E+00 -0.50442825177E+03  0.50442825177E+03  0.25500000920E-02 0.  1.
    10030    2    1    2    0    0  0.00000000000E+00  0.00000000000E+00  0.12814311624E+04  0.22902876660E+04  0.18982496593E+04 0.  0.
        4    1    3    3  502    0  0.75579238289E+03  0.15126305343E+03  0.13089324649E+04  0.15190156181E+04  0.12699999809E+01 0. -1.
       -4    1    3    3    0  502 -0.75579238289E+03 -0.15126305343E+03 -0.27501302448E+02  0.77127204792E+03  0.12699999809E+01 0.  1.
</event>
<event>
 5   0  0.2789718E-05  0.1899806E+04  0.7818609E-02  0.8654953E-01
        2   -1    0    0  501    0  0.00000000000E+00  0.00000000000E+00  0.16832083738E+04  0.16832083738E+04  0.25500000920E-02 0. -1.
       -2   -1    0    0    0  501  0.00000000000E+00  0.00000000000E+00 -0.53606915518E+03  0.53606915519E+03  0.25500000920E-02 0.  1.
    10030    2    1    2    0    0  0.00000000000E+00  0.00000000000E+00  0.11471392186E+04  0.22192775290E+04  0.18998064016E+04 0.  0.
        5    1    3    3  502    0  0.63362814927E+03 -0.64451633546E+02 -0.24967677285E+03  0.68410468900E+03  0.46999998093E+01 0.  1.
       -5    1    3    3    0  502 -0.63362814927E+03  0.64451633546E+02  0.13968159914E+04  0.15351728400E+04  0.46999998093E+01 0. -1.
</event>
<event>
 5   0  0.1471485E-05  0.1901185E+04  0.7818609E-02  0.8654267E-01
       -1   -1    0    0    0  501  0.00000000000E+00  0.00000000000E+00  0.70068784882E+03  0.70068784884E+03  0.50400001928E-02 0. -1.
        1   -1    0    0  501    0  0.00000000000E+00  0.00000000000E+00 -0.12896265838E+04  0.12896265838E+04  0.50400001928E-02 0.  1.
    10030    2    1    2    0    0  0.00000000000E+00  0.00000000000E+00 -0.58893873500E+03  0.19903144327E+04  0.19011845537E+04 0.  0.
        4    1    3    3  502    0 -0.64382253531E+03  0.68070146934E+03 -0.12643884190E+03  0.94543658749E+03  0.12699999809E+01 0. -1.
       -4    1    3    3    0  502  0.64382253531E+03 -0.68070146934E+03 -0.46249989311E+03  0.10448778452E+04  0.12699999809E+01 0.  1.
</event>
<event>
 5   0  0.2879462E-05  0.1895199E+04  0.7818609E-02  0.8657250E-01
       -2   -1    0    0    0  501  0.00000000000E+00  0.00000000000E+00  0.51844563904E+03  0.51844563905E+03  0.25500000920E-02 0. -1.
        2   -1    0    0  501    0  0.00000000000E+00  0.00000000000E+00 -0.17319941966E+04  0.17319941966E+04  0.25500000920E-02 0.  1.
    10030    2    1    2    0    0  0.00000000000E+00  0.00000000000E+00 -0.12135485575E+04  0.22504398356E+04  0.18951990271E+04 0.  0.
        4    1    3    3  502    0  0.39955941694E+03 -0.51096296135E+03 -0.14270661711E+04  0.15675619111E+04  0.12699999809E+01 0.  1.
       -4    1    3    3    0  502 -0.39955941694E+03  0.51096296135E+03  0.21351761361E+03  0.68287792449E+03  0.12699999809E+01 0. -1.
</event>
<event>
 5   0  0.2888776E-05  0.1900836E+04  0.7818609E-02  0.8654440E-01
        2   -1    0    0  501    0  0.00000000000E+00  0.00000000000E+00  0.12450027727E+04  0.12450027727E+04  0.25500000920E-02 0. -1.
       -2   -1    0    0    0  501  0.00000000000E+00  0.00000000000E+00 -0.72553616389E+03  0.72553616390E+03  0.25500000920E-02 0.  1.
    10030    2    1    2    0    0  0.00000000000E+00  0.00000000000E+00  0.51946660879E+03  0.19705389366E+04  0.19008361694E+04 0.  0.
        3    1    3    3  502    0 -0.21480962920E+03 -0.65874220846E+03  0.93413448273E+03  0.11630527572E+04  0.10100000352E+00 0. -1.
       -3    1    3    3    0  502  0.21480962920E+03  0.65874220846E+03 -0.41466787394E+03  0.80748617938E+03  0.10100000352E+00 0.  1.
</event>
<event>
 5   0  0.1327254E-05  0.1909312E+04  0.7818609E-02  0.8650235E-01
       -1   -1    0    0    0  501  0.00000000000E+00  0.00000000000E+00  0.90072226789E+03  0.90072226790E+03  0.50400001928E-02 0.  1.
        1   -1    0    0  501    0  0.00000000000E+00  0.00000000000E+00 -0.10118192543E+04  0.10118192543E+04  0.50400001928E-02 0. -1.
    10030    2    1    2    0    0  0.00000000000E+00  0.00000000000E+00 -0.11109698641E+03  0.19125415222E+04  0.19093120577E+04 0.  0.
        5    1    3    3  502    0  0.17269658185E+03  0.46738107071E+03 -0.87122113576E+03  0.10036520971E+04  0.46999998093E+01 0. -1.
       -5    1    3    3    0  502 -0.17269658185E+03 -0.46738107071E+03  0.76012414935E+03  0.90888942510E+03  0.46999998093E+01 0.  1.
</event>
<event>
 5   0  0.2813537E-05  0.1900643E+04  0.7818609E-02  0.8654536E-01
        2   -1    0    0  501    0  0.00000000000E+00  0.00000000000E+00  0.14134590310E+04  0.14134590310E+04  0.25500000920E-02 0. -1.
       -2   -1    0    0    0  501  0.00000000000E+00  0.00000000000E+00 -0.63893662388E+03  0.63893662389E+03  0.25500000920E-02 0.  1.
    10030    2    1    2    0    0  0.00000000000E+00  0.00000000000E+00  0.77452240708E+03  0.20523956549E+04  0.19006427768E+04 0.  0.
        2    1    3    3  502    0 -0.65251804844E+03 -0.53712228193E+03  0.85650308164E+03  0.12032778890E+04  0.25500000920E-02 0.  1.
       -2    1    3    3    0  502  0.65251804844E+03  0.53712228193E+03 -0.81980674563E+02  0.84911776586E+03  0.25500000920E-02 0. -1.
</event>
<event>
 5   0  0.1010725E-05  0.1900802E+04  0.7818609E-02  0.8654457E-01
       -3   -1    0    0    0  501  0.00000000000E+00  0.00000000000E+00  0.66060213170E+03  0.66060213942E+03  0.10100000352E+00 0.  1.
        3   -1    0    0  501    0  0.00000000000E+00  0.00000000000E+00 -0.13673320649E+04  0.13673320686E+04  0.10100000352E+00 0. -1.
    10030    2    1    2    0    0  0.00000000000E+00  0.00000000000E+00 -0.70672993319E+03  0.20279342080E+04  0.19008024499E+04 0.  0.
        1    1    3    3  502    0 -0.88049428742E+03 -0.32893114854E+03 -0.50347584181E+03  0.10662803637E+04  0.50400001928E-02 0. -1.
       -1    1    3    3    0  502  0.88049428742E+03  0.32893114854E+03 -0.20325409138E+03  0.96165384435E+03  0.50400001928E-02 0.  1.
</event>
<event>
 5   0  0.2813537E-05  0.1899728E+04  0.7818609E-02  0.8654992E-01
       -2   -1    0    0    0  501  0.00000000000E+00  0.00000000000E+00  0.97800164929E+03  0.97800164929E+03  0.25500000920E-02 0.  1.
        2   -1    0    0  501    0  0.00000000000E+00  0.00000000000E+00 -0.92253557702E+03  0.92253557702E+03  0.25500000920E-02 0. -1.
    10030    2    1    2    0    0  0.00000000000E+00  0.00000000000E+00  0.55466072267E+02  0.19005372263E+04  0.18997276814E+04 0.  0.
        2    1    3    3  502    0  0.35082625281E+03 -0.74402325640E+03 -0.44743425772E+03  0.93640113237E+03  0.25500000920E-02 0. -1.
       -2    1    3    3    0  502 -0.35082625281E+03  0.74402325640E+03  0.50290032998E+03  0.96413609394E+03  0.25500000920E-02 0.  1.
</event>
<event>
 5   0  0.1429067E-05  0.1898660E+04  0.7818609E-02  0.8655524E-01
        1   -1    0    0  501    0  0.00000000000E+00  0.00000000000E+00  0.21764099107E+04  0.21764099107E+04  0.50400001928E-02 0.  1.
       -1   -1    0    0    0  501  0.00000000000E+00  0.00000000000E+00 -0.41408914107E+03  0.41408914110E+03  0.50400001928E-02 0. -1.
    10030    2    1    2    0    0  0.00000000000E+00  0.00000000000E+00  0.17623207696E+04  0.25904990518E+04  0.18986602756E+04 0.  0.
        3    1    3    3  502    0 -0.79407612893E+03 -0.44332267021E+03  0.50966775874E+03  0.10425224808E+04  0.10100000352E+00 0.  1.
       -3    1    3    3    0  502  0.79407612893E+03  0.44332267021E+03  0.12526530109E+04  0.15479765710E+04  0.10100000352E+00 0. -1.
</event>
<event>
 5   0  0.2888776E-05  0.1903468E+04  0.7818609E-02  0.8653132E-01
        2   -1    0    0  501    0  0.00000000000E+00  0.00000000000E+00  0.16447891175E+04  0.16447891175E+04  0.25500000920E-02 0.  1.
       -2   -1    0    0    0  501  0.00000000000E+00  0.00000000000E+00 -0.55070732517E+03  0.55070732517E+03  0.25500000920E-02 0. -1.
    10030    2    1    2    0    0  0.00000000000E+00  0.00000000000E+00  0.10940817923E+04  0.21954964427E+04  0.19034677989E+04 0.  0.
        3    1    3    3  502    0  0.55904303034E+03 -0.38021037083E+03 -0.22558505023E+03  0.71272551585E+03  0.10100000352E+00 0. -1.
       -3    1    3    3    0  502 -0.55904303034E+03  0.38021037083E+03  0.13196668425E+04  0.14827709268E+04  0.10100000352E+00 0.  1.
</event>
<event>
 5   0  0.1471485E-05  0.1901415E+04  0.7818609E-02  0.8654152E-01
       -1   -1    0    0    0  501  0.00000000000E+00  0.00000000000E+00  0.13270645528E+04  0.13270645528E+04  0.50400001928E-02 0. -1.
        1   -1    0    0  501    0  0.00000000000E+00  0.00000000000E+00 -0.68108600121E+03  0.68108600123E+03  0.50400001928E-02 0.  1.
    10030    2    1    2    0    0  0.00000000000E+00  0.00000000000E+00  0.64597855154E+03  0.20081505540E+04  0.19014153566E+04 0.  0.
        4    1    3    3  502    0 -0.51007714378E+03  0.20481163453E+03 -0.49625875335E+03  0.74054092488E+03  0.12699999809E+01 0.  1.
       -4    1    3    3    0  502  0.51007714378E+03 -0.20481163453E+03  0.11422373049E+04  0.12676096291E+04  0.12699999809E+01 0. -1.
</event>
<event>
 5   0  0.1429067E-05  0.1897787E+04  0.7818609E-02  0.8655959E-01
        1   -1    0    0  501    0  0.00000000000E+00  0.00000000000E+00  0.12375190206E+04  0.12375190206E+04  0.50400001928E-02 0.  1.
       -1   -1    0    0    0  501  0.00000000000E+00  0.00000000000E+00 -0.72758370271E+03  0.72758370273E+03  0.50400001928E-02 0. -1.
    10030    2    1    2    0    0  0.00000000000E+00  0.00000000000E+00  0.50993531789E+03  0.19651027233E+04  0.18977867859E+04 0.  0.
        3    1    3    3  502    0 -0.91963143044E+03 -0.15557822125E+03  0.43572215326E+03  0.10294563399E+04  0.10100000352E+00 0.  1.
       -3    1    3    3    0  502  0.91963143044E+03  0.15557822125E+03  0.74213164624E+02  0.93564638341E+03  0.10100000352E+00 0. -1.
</event>
<event>
 5   0  0.2813537E-05  0.1900400E+04  0.7818609E-02  0.8654657E-01
       -2   -1    0    0    0  501  0.00000000000E+00  0.00000000000E+00  0.67757088409E+03  0.67757088409E+03  0.25500000920E-02 0. -1.
        2   -1    0    0  501    0  0.00000000000E+00  0.00000000000E+00 -0.13325249205E+04  0.13325249206E+04  0.25500000920E-02 0.  1.
    10030    2    1    2    0    0  0.00000000000E+00  0.00000000000E+00 -0.65495403646E+03  0.20100958046E+04  0.19004000510E+04 0.  0.
        2    1    3    3  502    0  0.65381920582E+02  0.69186637628E+03  0.35794525823E+03  0.78171522056E+03  0.25500000920E-02 0. -1.
       -2    1    3    3    0  502 -0.65381920582E+02 -0.69186637628E+03 -0.10128992947E+04  0.12283805841E+04  0.25500000920E-02 0.  1.
</event>
<event>
 5   0  0.1327254E-05  0.1899009E+04  0.7818609E-02  0.8655350E-01
        1   -1    0    0  501    0  0.00000000000E+00  0.00000000000E+00  0.26054454218E+04  0.26054454218E+04  0.50400001928E-02 0.  1.
       -1   -1    0    0    0  501  0.00000000000E+00  0.00000000000E+00 -0.34602862048E+03  0.34602862051E+03  0.50400001928E-02 0. -1.
    10030    2    1    2    0    0  0.00000000000E+00  0.00000000000E+00  0.22594168013E+04  0.29514740423E+04  0.18990088837E+04 0.  0.
        5    1    3    3  502    0 -0.91016618195E+03  0.15132144949E+03  0.78135567123E+03  0.12090655213E+04  0.46999998093E+01 0. -1.
       -5    1    3    3    0  502  0.91016618195E+03 -0.15132144949E+03  0.14780611301E+04  0.17424085210E+04  0.46999998093E+01 0.  1.
</event>
<event>
 5   0  0.2879462E-05  0.1897735E+04  0.7818609E-02  0.8655985E-01
       -2   -1    0    0    0  501  0.00000000000E+00  0.00000000000E+00  0.13565552085E+04  0.13565552085E+04  0.25500000920E-02 0. -1.
        2   -1    0    0  501    0  0.00000000000E+00  0.00000000000E+00 -0.66370259195E+03  0.66370259196E+03  0.25500000920E-02 0.  1.
    10030    2    1    2    0    0  0.00000000000E+00  0.00000000000E+00  0.69285261655E+03  0.20202578005E+04  0.18977346580E+04 0.  0.
        4    1    3    3  502    0  0.31026406180E+03 -0.59954808627E+02 -0.60603874330E+03  0.68347855739E+03  0.12699999809E+01 0.  1.
       -4    1    3    3    0  502 -0.31026406180E+03  0.59954808627E+02  0.12988913598E+04  0.13367792431E+04  0.12699999809E+01 0. -1.
</event>
<event>
 5   0  0.2888776E-05  0.1882498E+04  0.7818609E-02  0.8663618E-01
       -2   -1    0    0    0  501  0.00000000000E+00  0.00000000000E+00  0.56743370620E+03  0.56743370621E+03  0.25500000920E-02 0.  1.
        2   -1    0    0  501    0  0.00000000000E+00  0.00000000000E+00 -0.15613270803E+04  0.15613270803E+04  0.25500000920E-02 0. -1.
    10030    2    1    2    0    0  0.00000000000E+00  0.00000000000E+00 -0.99389337410E+03  0.21287607865E+04  0.18824979275E+04 0.  0.
        3    1    3    3  502    0  0.43698030648E+03  0.27771865989E+03 -0.13858222471E+04  0.14793859379E+04  0.10100000352E+00 0. -1.
       -3    1    3    3    0  502 -0.43698030648E+03 -0.27771865989E+03  0.39192887305E+03  0.64937484863E+03  0.10100000352E+00 0.  1.
</event>
<event>
 5   0  0.1010725E-05  0.1900599E+04  0.7818609E-02  0.8654558E-01
        4   -1    0    0  501    0  0.00000000000E+00  0.00000000000E+00  0.49122565305E+03  0.49122729476E+03  0.12699999809E+01 0.  1.
       -4   -1    0    0    0  501  0.00000000000E+00  0.00000000000E+00 -0.18383950682E+04  0.18383955069E+04  0.12699999809E+01 0. -1.
    10030    2    1    2    0    0  0.00000000000E+00  0.00000000000E+00 -0.13471694151E+04  0.23296228016E+04  0.19005991068E+04 0.  0.
        4    1    3    3  502    0  0.37488534733E+03  0.32590868752E+03  0.31941770520E+03  0.59058003652E+03  0.12699999809E+01 0.  1.
       -4    1    3    3    0  502 -0.37488534733E+03 -0.32590868752E+03 -0.16665871203E+04  0.17390427651E+04  0.12699999809E+01 0. -1.
</event>
<event>
 5   0  0.1471485E-05  0.1902778E+04  0.7818609E-02  0.8653475E-01
       -1   -1    0    0    0  501  0.00000000000E+00  0.00000000000E+00  0.92894075581E+03  0.92894075582E+03  0.50400001928E-02 0. -1.
        1   -1    0    0  501    0  0.00000000000E+00  0.00000000000E+00 -0.97437961697E+03  0.97437961698E+03  0.50400001928E-02 0.  1.
    10030    2    1    2    0    0  0.00000000000E+00  0.00000000000E+00 -0.45438861159E+02  0.19033203728E+04  0.19027779039E+04 0.  0.
        4    1    3    3  502    0  0.51693510486E+03 -0.55253974684E+03 -0.59961364212E+03  0.96543265285E+03  0.12699999809E+01 0.  1.
       -4    1    3    3    0  502 -0.51693510486E+03  0.55253974684E+03  0.55417478096E+03  0.93788771995E+03  0.12699999809E+01 0. -1.
</event>
<event>
 5   0  0.1429067E-05  0.1899918E+04  0.7818609E-02  0.8654897E-01
       -1   -1    0    0    0  501  0.00000000000E+00  0.00000000000E+00  0.79392913015E+03  0.79392913016E+03  0.50400001928E-02 0. -1.
        1   -1    0    0  501    0  0.00000000000E+00  0.00000000000E+00 -0.11366536136E+04  0.11366536136E+04  0.50400001928E-02 0.  1.
    10030    2    1    2    0    0  0.00000000000E+00  0.00000000000E+00 -0.34272448344E+03  0.19305827438E+04  0.18999183296E+04 0.  0.
        3    1    3    3  502    0  0.60535809688E+03 -0.34304944750E+03 -0.82854715514E+03  0.10819573686E+04  0.10100000352E+00 0.  1.
       -3    1    3    3    0  502 -0.60535809688E+03  0.34304944750E+03  0.48582267170E+03  0.84862537520E+03  0.10100000352E+00 0. -1.
</event>
<event>
 5   0  0.1327254E-05  0.1901464E+04  0.7818609E-02  0.8654128E-01
        1   -1    0    0  501    0  0.00000000000E+00  0.00000000000E+00  0.89373456275E+03  0.89373456276E+03  0.50400001928E-02 0. -1.
       -1   -1    0    0    0  501  0.00000000000E+00  0.00000000000E+00 -0.10113644217E+04  0.10113644218E+04  0.50400001928E-02 0.  1.
    10030    2    1    2    0    0  0.00000000000E+00  0.00000000000E+00 -0.11762985900E+03  0.19050989845E+04  0.19014640036E+04 0.  0.
        5    1    3    3  502    0 -0.53917559306E+03 -0.16567442356E+03 -0.82559549304E+03  0.99989416585E+03  0.46999998093E+01 0.  1.
       -5    1    3    3    0  502  0.53917559306E+03  0.16567442356E+03  0.70796563403E+03  0.90520481867E+03  0.46999998093E+01 0. -1.
</event>
<event>
 5   0  0.2879462E-05  0.1913910E+04  0.7818609E-02  0.8647963E-01
       -2   -1    0    0    0  501  0.00000000000E+00  0.00000000000E+00  0.80719813494E+03  0.80719813494E+03  0.25500000920E-02 0.  1.
        2   -1    0    0  501    0  0.00000000000E+00  0.00000000000E+00 -0.11344959477E+04  0.11344959477E+04  0.25500000920E-02 0. -1.
    10030    2    1    2    0    0  0.00000000000E+00  0.00000000000E+00 -0.32729781278E+03  0.19416940827E+04  0.19139101474E+04 0.  0.
        4    1    3    3  502    0 -0.60858498714E+03  0.12059689125E+03 -0.90281483944E+03  0.10954430811E+04  0.12699999809E+01 0. -1.
       -4    1    3    3    0  502  0.60858498714E+03 -0.12059689125E+03  0.57551702666E+03  0.84625100155E+03  0.12699999809E+01 0.  1.
</event>
<event>
 5   0  0.2855141E-05  0.1895215E+04  0.7818609E-02  0.8657242E-01
       -2   -1    0    0    0  501  0.00000000000E+00  0.00000000000E+00  0.66740671275E+03  0.66740671275E+03  0.25500000920E-02 0. -1.
        2   -1    0    0  501    0  0.00000000000E+00  0.00000000000E+00 -0.13454466542E+04  0.13454466542E+04  0.25500000920E-02 0.  1.
    10030    2    1    2    0    0  0.00000000000E+00  0.00000000000E+00 -0.67803994141E+03  0.20128533669E+04  0.18952151631E+04 0.  0.
        1    1    3    3  502    0 -0.37468240338E+03  0.76288122652E+03 -0.78405878529E+03  0.11563402821E+04  0.50400001928E-02 0.  1.
       -1    1    3    3    0  502  0.37468240338E+03 -0.76288122652E+03  0.10601884388E+03  0.85651308482E+03  0.50400001928E-02 0. -1.
</event>
<event>
 5   0  0.2789718E-05  0.1905106E+04  0.7818609E-02  0.8652319E-01
        2   -1    0    0  501    0  0.00000000000E+00  0.00000000000E+00  0.22759232862E+04  0.22759232862E+04  0.25500000920E-02 0. -1.
       -2   -1    0    0    0  501  0.00000000000E+00  0.00000000000E+00 -0.39867664706E+03  0.39867664707E+03  0.25500000920E-02 0.  1.
    10030    2    1    2    0    0  0.00000000000E+00  0.00000000000E+00  0.18772466391E+04  0.26745999333E+04  0.19051062592E+04 0.  0.
        5    1    3    3  502    0  0.22299087720E+03  0.99764283546E+01 -0.36142487870E+03  0.42482289649E+03  0.46999998093E+01 0.  1.
       -5    1    3    3    0  502 -0.22299087720E+03 -0.99764283546E+01  0.22386715178E+04  0.22497770368E+04  0.46999998093E+01 0. -1.
</event>
<event>
 5   0  0.2879462E-05  0.1899994E+04  0.7818609E-02  0.8654859E-01
        2   -1    0    0  501    0  0.00000000000E+00  0.00000000000E+00  0.11919525672E+04  0.11919525672E+04  0.25500000920E-02 0. -1.
       -2   -1    0    0    0  501  0.00000000000E+00  0.00000000000E+00 -0.75715654388E+03  0.75715654389E+03  0.25500000920E-02 0.  1.
    10030    2    1    2    0    0  0.00000000000E+00  0.00000000000E+00  0.43479602331E+03  0.19491091111E+04  0.18999944066E+04 0.  0.
        4    1    3    3  502    0  0.56010023608E+03 -0.74898955837E+03  0.38842734721E+03  0.10127067937E+04  0.12699999809E+01 0.  1.
       -4    1    3    3    0  502 -0.56010023608E+03  0.74898955837E+03  0.46368676101E+02  0.93640231740E+03  0.12699999809E+01 0. -1.
</event>
<event>
 5   0  0.2813537E-05  0.1904009E+04  0.7818609E-02  0.8652863E-01
       -2   -1    0    0    0  501  0.00000000000E+00  0.00000000000E+00  0.38208809113E+03  0.38208809114E+03  0.25500000920E-02 0. -1.
        2   -1    0    0  501    0  0.00000000000E+00  0.00000000000E+00 -0.23720002276E+04  0.23720002276E+04  0.25500000920E-02 0.  1.
    10030    2    1    2    0    0  0.00000000000E+00  0.00000000000E+00 -0.19899121365E+04  0.27540883188E+04  0.19040094949E+04 0.  0.
        2    1    3    3  502    0  0.19705259851E+03 -0.25021342009E+02  0.35178016596E+03  0.40398648406E+03  0.25500000920E-02 0. -1.
       -2    1    3    3    0  502 -0.19705259851E+03  0.25021342009E+02 -0.23416923024E+04  0.23501018347E+04  0.25500000920E-02 0.  1.
</event>
<event>
 5   0  0.2789718E-05  0.1894875E+04  0.7818609E-02  0.8657412E-01
        2   -1    0    0  501    0  0.00000000000E+00  0.00000000000E+00  0.15803265098E+04  0.15803265098E+04  0.25500000920E-02 0. -1.
       -2   -1    0    0    0  501  0.00000000000E+00  0.00000000000E+00 -0.56800752327E+03  0.56800752328E+03  0.25500000920E-02 0.  1.
    10030    2    1    2    0    0  0.00000000000E+00  0.00000000000E+00  0.10123189865E+04  0.21483340330E+04  0.18948745043E+04 0.  0.
        5    1    3    3  502    0 -0.70298293322E+03 -0.56637251528E+03  0.83210812295E+03  0.12277576507E+04  0.46999998093E+01 0.  1.
       -5    1    3    3    0  502  0.70298293322E+03  0.56637251528E+03  0.18021086354E+03  0.92057638238E+03  0.46999998093E+01 0. -1.
</event>
<event>
 5   0  0.2789718E-05  0.1907300E+04  0.7818609E-02  0.8651231E-01
       -2   -1    0    0    0  501  0.00000000000E+00  0.00000000000E+00  0.12470702683E+04  0.12470702683E+04  0.25500000920E-02 0.  1.
        2   -1    0    0  501    0  0.00000000000E+00  0.00000000000E+00 -0.72926786895E+03  0.72926786895E+03  0.25500000920E-02 0. -1.
    10030    2    1    2    0    0  0.00000000000E+00  0.00000000000E+00  0.51780239938E+03  0.19763381373E+04  0.19072999523E+04 0.  0.
        5    1    3    3  502    0 -0.12378260289E+03  0.94553748646E+03  0.25068213110E+03  0.98601566516E+03  0.46999998093E+01 0.  1.
       -5    1    3    3    0  502  0.12378260289E+03 -0.94553748646E+03  0.26712026828E+03  0.99032247213E+03  0.46999998093E+01 0. -1.
</event>
<event>
 5   0  0.1344119E-05  0.1902020E+04  0.7818609E-02  0.8653852E-01
        1   -1    0    0  501    0  0.00000000000E+00  0.00000000000E+00  0.59638396284E+03  0.59638396286E+03  0.50400001928E-02 0.  1.
       -1   -1    0    0    0  501  0.00000000000E+00  0.00000000000E+00 -0.15165055947E+04  0.15165055948E+04  0.50400001928E-02 0. -1.
    10030    2    1    2    0    0  0.00000000000E+00  0.00000000000E+00 -0.92012163190E+03  0.21128895576E+04  0.19020195754E+04 0.  0.
        2    1    3    3  502    0  0.46765560195E+03 -0.71430004343E+03 -0.92542406980E+03  0.12591012759E+04  0.25500000920E-02 0. -1.
       -2    1    3    3    0  502 -0.46765560195E+03  0.71430004343E+03  0.53024378998E+01  0.85378828168E+03  0.25500000920E-02 0.  1.
</event>
<event>
 5   0  0.1344119E-05  0.1929240E+04  0.7818609E-02  0.8640437E-01
       -1   -1    0    0    0  501  0.00000000000E+00  0.00000000000E+00  0.51839497675E+03  0.51839497678E+03  0.50400001928E-02 0. -1.
        1   -1    0    0  501    0  0.00000000000E+00  0.00000000000E+00 -0.17949473288E+04  0.17949473288E+04  0.50400001928E-02 0.  1.
    10030    2    1    2    0    0  0.00000000000E+00  0.00000000000E+00 -0.12765523520E+04  0.23133423056E+04  0.19292399320E+04 0.  0.
        2    1    3    3  502    0 -0.79469395328E+03  0.16875340835E+03 -0.12618926984E+04  0.15007962468E+04  0.25500000920E-02 0.  1.
       -2    1    3    3    0  502  0.79469395328E+03 -0.16875340835E+03 -0.14659653685E+02  0.81254605879E+03  0.25500000920E-02 0. -1.
</event>
<event>
 5   0  0.1344119E-05  0.1906476E+04  0.7818609E-02  0.8651640E-01
       -1   -1    0    0    0  501  0.00000000000E+00  0.00000000000E+00  0.66882476100E+03  0.66882476102E+03  0.50400001928E-02 0. -1.
        1   -1    0    0  501    0  0.00000000000E+00  0.00000000000E+00 -0.13585957456E+04  0.13585957456E+04  0.50400001928E-02 0.  1.
    10030    2    1    2    0    0  0.00000000000E+00  0.00000000000E+00 -0.68977098457E+03  0.20274205066E+04  0.19064757799E+04 0.  0.
        2    1    3    3  502    0  0.63594341265E+03  0.58932662160E+03  0.76392823241E+02  0.87038253341E+03  0.25500000920E-02 0. -1.
       -2    1    3    3    0  502 -0.63594341265E+03 -0.58932662160E+03 -0.76616380782E+03  0.11570379732E+04  0.25500000920E-02 0.  1.
</event>
<event>
 5   0  0.1327254E-05  0.1900682E+04  0.7818609E-02  0.8654517E-01
        1   -1    0    0  501    0  0.00000000000E+00  0.00000000000E+00  0.15504575310E+04  0.15504575310E+04  0.50400001928E-02 0.  1.
       -1   -1    0    0    0  501  0.00000000000E+00  0.00000000000E+00 -0.58250406741E+03  0.58250406743E+03  0.50400001928E-02 0. -1.
    10030    2    1    2    0    0  0.00000000000E+00  0.00000000000E+00  0.96795346361E+03  0.21329615985E+04  0.19006817916E+04 0.  0.
        5    1    3    3  502    0  0.31270731875E+03 -0.89802067958E+02 -0.51804656268E+03  0.61175535119E+03  0.46999998093E+01 0. -1.
       -5    1    3    3    0  502 -0.31270731875E+03  0.89802067958E+02  0.14860000263E+04  0.15212062473E+04  0.46999998093E+01 0.  1.
</event>
<event>
 5   0  0.2789718E-05  0.1896647E+04  0.7818609E-02  0.8656527E-01
        2   -1    0    0  501    0  0.00000000000E+00  0.00000000000E+00  0.83375817147E+03  0.83375817147E+03  0.25500000920E-02 0. -1.
       -2   -1    0    0    0  501  0.00000000000E+00  0.00000000000E+00 -0.10786307489E+04  0.10786307489E+04  0.25500000920E-02 0.  1.
    10030    2    1    2    0    0  0.00000000000E+00  0.00000000000E+00 -0.24487257740E+03  0.19123889203E+04  0.18966467261E+04 0.  0.
        5    1    3    3  502    0  0.93756584283E+02 -0.42285091406E+03  0.72819008008E+03  0.84727567848E+03  0.46999998093E+01 0. -1.
       -5    1    3    3    0  502 -0.93756584283E+02  0.42285091406E+03 -0.97306265748E+03  0.10651132419E+04  0.46999998093E+01 0.  1.
</event>
<event>
 5   0  0.1429067E-05  0.1902447E+04  0.7818609E-02  0.8653639E-01
        1   -1    0    0  501    0  0.00000000000E+00  0.00000000000E+00  0.12822313899E+04  0.12822313899E+04  0.50400001928E-02 0.  1.
       -1   -1    0    0    0  501  0.00000000000E+00  0.00000000000E+00 -0.70566515230E+03  0.70566515232E+03  0.50400001928E-02 0. -1.
    10030    2    1    2    0    0  0.00000000000E+00  0.00000000000E+00  0.57656623763E+03  0.19878965423E+04  0.19024468551E+04 0.  0.
        3    1    3    3  502    0 -0.83053867695E+03 -0.43497852862E+03  0.45620332631E+03  0.10426515714E+04  0.10100000352E+00 0. -1.
       -3    1    3    3    0  502  0.83053867695E+03  0.43497852862E+03  0.12036291132E+03  0.94524497084E+03  0.10100000352E+00 0.  1.
</event>
<event>
 5   0  0.1344119E-05  0.1902585E+04  0.7818609E-02  0.8653571E-01
       -1   -1    0    0    0  501  0.00000000000E+00  0.00000000000E+00  0.92903880812E+03  0.92903880813E+03  0.50400001928E-02 0.  1.
        1   -1    0    0  501    0  0.00000000000E+00  0.00000000000E+00 -0.97407949871E+03  0.97407949873E+03  0.50400001928E-02 0. -1.
    10030    2    1    2    0    0  0.00000000000E+00  0.00000000000E+00 -0.45040690593E+02  0.19031183069E+04  0.19025852480E+04 0.  0.
        2    1    3    3  502    0  0.90649269013E+02  0.89214039724E+03 -0.34014021884E+03  0.95907619449E+03  0.25500000920E-02 0. -1.
       -2    1    3    3    0  502 -0.90649269013E+02 -0.89214039724E+03  0.29509952825E+03  0.94404211237E+03  0.25500000920E-02 0.  1.
</event>
<event>
 5   0  0.1327254E-05  0.1904208E+04  0.7818609E-02  0.8652765E-01
        1   -1    0    0  501    0  0.00000000000E+00  0.00000000000E+00  0.73547268602E+03  0.73547268603E+03  0.50400001928E-02 0. -1.
       -1   -1    0    0    0  501  0.00000000000E+00  0.00000000000E+00 -0.12325432172E+04  0.12325432172E+04  0.50400001928E-02 0.  1.
    10030    2    1    2    0    0  0.00000000000E+00  0.00000000000E+00 -0.49707053122E+03  0.19680159033E+04  0.19042078360E+04 0.  0.
        5    1    3    3  502    0 -0.54628506628E+03  0.20060037597E+03  0.53024779968E+03  0.78730724850E+03  0.46999998093E+01 0. -1.
       -5    1    3    3    0  502  0.54628506628E+03 -0.20060037597E+03 -0.10273183309E+04  0.11807086548E+04  0.46999998093E+01 0.  1.
</event>
<event>
 5   0  0.2813537E-05  0.1902204E+04  0.7818609E-02  0.8653760E-01
        2   -1    0    0  501    0  0.00000000000E+00  0.00000000000E+00  0.12406982914E+04  0.12406982914E+04  0.25500000920E-02 0.  1.
       -2   -1    0    0    0  501  0.00000000000E+00  0.00000000000E+00 -0.72910127399E+03  0.72910127399E+03  0.25500000920E-02 0. -1.
    10030    2    1    2    0    0  0.00000000000E+00  0.00000000000E+00  0.51159701741E+03  0.19697995654E+04  0.19022036746E+04 0.  0.
        2    1    3    3  502    0  0.10376748507E+03 -0.30811405051E+03 -0.66977147043E+03  0.74451043088E+03  0.25500000920E-02 0. -1.
       -2    1    3    3    0  502 -0.10376748507E+03  0.30811405051E+03  0.11813684878E+04  0.12252891345E+04  0.25500000920E-02 0.  1.
</event>
<event>
 5   0  0.2879462E-05  0.1895604E+04  0.7818609E-02  0.8657048E-01
        2   -1    0    0  501    0  0.00000000000E+00  0.00000000000E+00  0.92030810782E+03  0.92030810783E+03  0.25500000920E-02 0. -1.
       -2   -1    0    0    0  501  0.00000000000E+00  0.00000000000E+00 -0.97611707603E+03  0.97611707603E+03  0.25500000920E-02 0.  1.
    10030    2    1    2    0    0  0.00000000000E+00  0.00000000000E+00 -0.55808968207E+02  0.18964251839E+04  0.18956038186E+04 0.  0.
        4    1    3    3  502    0 -0.83083214065E+03  0.40774546464E+01 -0.48420317038E+03  0.96164078256E+03  0.12699999809E+01 0. -1.
       -4    1    3    3    0  502  0.83083214065E+03 -0.40774546464E+01  0.42839420217E+03  0.93478440131E+03  0.12699999809E+01 0.  1.
</event>
<event>
 5   0  0.1429067E-05  0.1898864E+04  0.7818609E-02  0.8655422E-01
       -1   -1    0    0    0  501  0.00000000000E+00  0.00000000000E+00  0.67613590060E+03  0.67613590062E+03  0.50400001928E-02 0.  1.
        1   -1    0    0  501    0  0.00000000000E+00  0.00000000000E+00 -0.13331948594E+04  0.13331948594E+04  0.50400001928E-02 0. -1.
    10030    2    1    2    0    0  0.00000000000E+00  0.00000000000E+00 -0.65705895878E+03  0.20093307600E+04  0.18988637728E+04 0.  0.
        3    1    3    3  502    0 -0.61124546975E+03  0.69561264911E+03 -0.10675927310E+03  0.93214566163E+03  0.10100000352E+00 0.  1.
       -3    1    3    3    0  502  0.61124546975E+03 -0.69561264911E+03 -0.55029968568E+03  0.10771850984E+04  0.10100000352E+00 0. -1.
</event>
<event>
 5   0  0.2813537E-05  0.1899094E+04  0.7818609E-02  0.8655308E-01
        2   -1    0    0  501    0  0.00000000000E+00  0.00000000000E+00  0.15919486930E+04  0.15919486930E+04  0.25500000920E-02 0. -1.
       -2   -1    0    0    0  501  0.00000000000E+00  0.00000000000E+00 -0.56637444691E+03  0.56637444692E+03  0.25500000920E-02 0.  1.
    10030    2    1    2    0    0  0.00000000000E+00  0.00000000000E+00  0.10255742461E+04  0.21583231399E+04  0.18990935317E+04 0.  0.
        2    1    3    3  502    0  0.43664434458E+03  0.84288730640E+03  0.53874731059E+03  0.10914971185E+04  0.25500000920E-02 0.  1.
       -2    1    3    3    0  502 -0.43664434458E+03 -0.84288730640E+03  0.48682693551E+03  0.10668260215E+04  0.25500000920E-02 0. -1.
</event>
<event>
 5   0  0.1327254E-05  0.1900795E+04  0.7818609E-02  0.8654461E-01
        1   -1    0    0  501    0  0.00000000000E+00  0.00000000000E+00  0.20248782412E+04  0.20248782413E+04  0.50400001928E-02 0. -1.
       -1   -1    0    0    0  501  0.00000000000E+00  0.00000000000E+00 -0.44607894428E+03  0.44607894431E+03  0.50400001928E-02 0.  1.
    10030    2    1    2    0    0  0.00000000000E+00  0.00000000000E+00  0.15787992970E+04  0.24709571856E+04  0.19007951475E+04 0.  0.
        5    1    3    3  502    0  0.54527551692E+02  0.37733260171E+03  0.19210967887E+04  0.19585678716E+04  0.46999998093E+01 0. -1.
       -5    1    3    3    0  502 -0.54527551692E+02 -0.37733260171E+03 -0.34229749172E+03  0.51238931395E+03  0.46999998093E+01 0.  1.
</event>
<event>
 5   0  0.1413011E-05  0.1907459E+04  0.7818609E-02  0.8651153E-01
        1   -1    0    0  501    0  0.00000000000E+00  0.00000000000E+00  0.78691089669E+03  0.78691089671E+03  0.50400001928E-02 0. -1.
       -1   -1    0    0    0  501  0.00000000000E+00  0.00000000000E+00 -0.11559118640E+04  0.11559118640E+04  0.50400001928E-02 0.  1.
    10030    2    1    2    0    0  0.00000000000E+00  0.00000000000E+00 -0.36900096729E+03  0.19428227607E+04  0.19074586668E+04 0.  0.
        1    1    3    3  502    0 -0.21576632272E+03  0.14740709671E+03  0.74973754008E+03  0.79397124458E+03  0.50400001928E-02 0. -1.
       -1    1    3    3    0  502  0.21576632272E+03 -0.14740709671E+03 -0.11187385074E+04  0.11488515161E+04  0.50400001928E-02 0.  1.
</event>
<event>
 5   0  0.1344119E-05  0.1894912E+04  0.7818609E-02  0.8657393E-01
       -1   -1    0    0    0  501  0.00000000000E+00  0.00000000000E+00  0.72260889293E+03  0.72260889295E+03  0.50400001928E-02 0. -1.
        1   -1    0    0  501    0  0.00000000000E+00  0.00000000000E+00 -0.12422662907E+04  0.12422662907E+04  0.50400001928E-02 0.  1.
    10030    2    1    2    0    0  0.00000000000E+00  0.00000000000E+00 -0.51965739781E+03  0.19648751837E+04  0.18949117859E+04 0.  0.
        2    1    3    3  502    0  0.20531820476E+03  0.81860377793E+03  0.18665606475E+03  0.86435420805E+03  0.25500000920E-02 0. -1.
       -2    1    3    3    0  502 -0.20531820476E+03 -0.81860377793E+03 -0.70631346255E+03  0.11005209757E+04  0.25500000920E-02 0.  1.
</event>
<event>
 5   0  0.1327254E-05  0.1896648E+04  0.7818609E-02  0.8656527E-01
        1   -1    0    0  501    0  0.00000000000E+00  0.00000000000E+00  0.29739690738E+04  0.29739690738E+04  0.50400001928E-02 0.  1.
       -1   -1    0    0    0  501  0.00000000000E+00  0.00000000000E+00 -0.30239654547E+03  0.30239654551E+03  0.50400001928E-02 0. -1.
    10030    2    1    2    0    0  0.00000000000E+00  0.00000000000E+00  0.26715725284E+04  0.32763656193E+04  0.18966475417E+04 0.  0.
        5    1    3    3  502    0  0.27686206758E+03 -0.73301336320E+02  0.28974537120E+04  0.29115778872E+04  0.46999998093E+01 0.  1.
       -5    1    3    3    0  502 -0.27686206758E+03  0.73301336320E+02 -0.22588118363E+03  0.36478773209E+03  0.46999998093E+01 0. -1.
</event>
<event>
 5   0  0.1413011E-05  0.1901205E+04  0.7818609E-02  0.8654257E-01
        1   -1    0    0  501    0  0.00000000000E+00  0.00000000000E+00  0.16972165599E+04  0.16972165599E+04  0.50400001928E-02 0. -1.
       -1   -1    0    0    0  501  0.00000000000E+00  0.00000000000E+00 -0.53242764718E+03  0.53242764720E+03  0.50400001928E-02 0.  1.
    10030    2    1    2    0    0  0.00000000000E+00  0.00000000000E+00  0.11647889127E+04  0.22296442071E+04  0.19012049019E+04 0.  0.
        1    1    3    3  502    0  0.31907707666E+03  0.34893320875E+03 -0.38473984779E+03  0.60958126244E+03  0.50400001928E-02 0.  1.
       -1    1    3    3    0  502 -0.31907707666E+03 -0.34893320875E+03  0.15495287605E+04  0.16200629447E+04  0.50400001928E-02 0. -1.
</event>
<event>
 5   0  0.2888776E-05  0.1897981E+04  0.7818609E-02  0.8655862E-01
        2   -1    0    0  501    0  0.00000000000E+00  0.00000000000E+00  0.14375705962E+04  0.14375705962E+04  0.25500000920E-02 0. -1.
       -2   -1    0    0    0  501  0.00000000000E+00  0.00000000000E+00 -0.62646193866E+03  0.62646193867E+03  0.25500000920E-02 0.  1.
    10030    2    1    2    0    0  0.00000000000E+00  0.00000000000E+00  0.81110865757E+03  0.20640325349E+04  0.18979813094E+04 0.  0.
        3    1    3    3  502    0 -0.94204130367E+03 -0.11298369438E+03  0.42664485968E+03  0.10403042726E+04  0.10100000352E+00 0.  1.
       -3    1    3    3    0  502  0.94204130367E+03  0.11298369438E+03  0.38446379788E+03  0.10237282623E+04  0.10100000352E+00 0. -1.
</event>
<event>
 5   0  0.2888776E-05  0.1905785E+04  0.7818609E-02  0.8651982E-01
       -2   -1    0    0    0  501  0.00000000000E+00  0.00000000000E+00  0.60318730448E+03  0.60318730449E+03  0.25500000920E-02 0.  1.
        2   -1    0    0  501    0  0.00000000000E+00  0.00000000000E+00 -0.15053435753E+04  0.15053435753E+04  0.25500000920E-02 0. -1.
    10030    2    1    2    0    0  0.00000000000E+00  0.00000000000E+00 -0.90215627078E+03  0.21085308798E+04  0.19057850178E+04 0.  0.
        3    1    3    3  502    0 -0.27415636470E+03  0.88514126739E+03 -0.69690308282E+03  0.11594441309E+04  0.10100000352E+00 0. -1.
       -3    1    3    3    0  502  0.27415636470E+03 -0.88514126739E+03 -0.20525318796E+03  0.94908674889E+03  0.10100000352E+00 0.  1.
</event>
<event>
 5   0  0.1327254E-05  0.1901773E+04  0.7818609E-02  0.8653974E-01
        1   -1    0    0  501    0  0.00000000000E+00  0.00000000000E+00  0.14692849610E+04  0.14692849610E+04  0.50400001928E-02 0. -1.
       -1   -1    0    0    0  501  0.00000000000E+00  0.00000000000E+00 -0.61539141518E+03  0.61539141520E+03  0.50400001928E-02 0.  1.
    10030    2    1    2    0    0  0.00000000000E+00  0.00000000000E+00  0.85389354580E+03  0.20846763762E+04  0.19017732267E+04 0.  0.
        5    1    3    3  502    0  0.50377697767E+03  0.69556860756E+03  0.87431021140E+03  0.12255804204E+04  0.46999998093E+01 0. -1.
       -5    1    3    3    0  502 -0.50377697767E+03 -0.69556860756E+03 -0.20416665605E+02  0.85909595580E+03  0.46999998093E+01 0.  1.
</event>
<event>
 5   0  0.1429067E-05  0.1890636E+04  0.7818609E-02  0.8659531E-01
       -1   -1    0    0    0  501  0.00000000000E+00  0.00000000000E+00  0.64540420189E+03  0.64540420191E+03  0.50400001928E-02 0. -1.
        1   -1    0    0  501    0  0.00000000000E+00  0.00000000000E+00 -0.13845994997E+04  0.13845994997E+04  0.50400001928E-02 0.  1.
    10030    2    1    2    0    0  0.00000000000E+00  0.00000000000E+00 -0.73919529779E+03  0.20300037016E+04  0.18906362263E+04 0.  0.
        3    1    3    3  502    0  0.46909400305E+03  0.31072609957E+03 -0.11852154738E+04  0.13119968073E+04  0.10100000352E+00 0.  1.
       -3    1    3    3    0  502 -0.46909400305E+03 -0.31072609957E+03  0.44602017605E+03  0.71800689432E+03  0.10100000352E+00 0. -1.
</event>
<event>
 5   0  0.1429067E-05  0.1901793E+04  0.7818609E-02  0.8653964E-01
        1   -1    0    0  501    0  0.00000000000E+00  0.00000000000E+00  0.10350638189E+04  0.10350638189E+04  0.50400001928E-02 0.  1.
       -1   -1    0    0    0  501  0.00000000000E+00  0.00000000000E+00 -0.87357319511E+03  0.87357319512E+03  0.50400001928E-02 0. -1.
    10030    2    1    2    0    0  0.00000000000E+00  0.00000000000E+00  0.16149062377E+03  0.19086370140E+04  0.19017928462E+04 0.  0.
        3    1    3    3  502    0  0.50898541680E+02 -0.57616951955E+03  0.83820781981E+03  0.10184077455E+04  0.10100000352E+00 0.  1.
       -3    1    3    3    0  502 -0.50898541680E+02  0.57616951955E+03 -0.67671719604E+03  0.89022926846E+03  0.10100000352E+00 0. -1.
</event>
<event>
 5   0  0.2813537E-05  0.1904506E+04  0.7818609E-02  0.8652617E-01
       -2   -1    0    0    0  501  0.00000000000E+00  0.00000000000E+00  0.10293582123E+04  0.10293582123E+04  0.25500000920E-02 0.  1.
        2   -1    0    0  501    0  0.00000000000E+00  0.00000000000E+00 -0.88092305002E+03  0.88092305002E+03  0.25500000920E-02 0. -1.
    10030    2    1    2    0    0  0.00000000000E+00  0.00000000000E+00  0.14843516231E+03  0.19102812624E+04  0.19045055799E+04 0.  0.
        2    1    3    3  502    0  0.11911108992E+03  0.45634091415E+03 -0.75554622253E+03  0.89066524355E+03  0.25500000920E-02 0. -1.
       -2    1    3    3    0  502 -0.11911108992E+03 -0.45634091415E+03  0.90398138485E+03  0.10196160188E+04  0.25500000920E-02 0.  1.
</event>
<event>
 5   0  0.2813537E-05  0.1898187E+04  0.7818609E-02  0.8655760E-01
        2   -1    0    0  501    0  0.00000000000E+00  0.00000000000E+00  0.15088064280E+04  0.15088064280E+04  0.25500000920E-02 0.  1.
       -2   -1    0    0    0  501  0.00000000000E+00  0.00000000000E+00 -0.59701367921E+03  0.59701367921E+03  0.25500000920E-02 0. -1.
    10030    2    1    2    0    0  0.00000000000E+00  0.00000000000E+00  0.91179274883E+03  0.21058201073E+04  0.18981865839E+04 0.  0.
        2    1    3    3  502    0  0.27930554266E+03 -0.48283108674E+03 -0.39597901221E+03  0.68405907830E+03  0.25500000920E-02 0. -1.
       -2    1    3    3    0  502 -0.27930554266E+03  0.48283108674E+03  0.13077717610E+04  0.14217610290E+04  0.25500000920E-02 0.  1.
</event>
<event>
 5   0  0.1471485E-05  0.1899159E+04  0.7818609E-02  0.8655275E-01
        1   -1    0    0  501    0  0.00000000000E+00  0.00000000000E+00  0.15328921949E+04  0.15328921950E+04  0.50400001928E-02 0.  1.
       -1   -1    0    0    0  501  0.00000000000E+00  0.00000000000E+00 -0.58823535535E+03  0.58823535537E+03  0.50400001928E-02 0. -1.
    10030    2    1    2    0    0  0.00000000000E+00  0.00000000000E+00  0.94465683959E+03  0.21211275503E+04  0.18991591666E+04 0.  0.
        4    1    3    3  502    0  0.25641650602E+03  0.56528558908E+02 -0.54688236679E+03  0.60665215613E+03  0.12699999809E+01 0. -1.
       -4    1    3    3    0  502 -0.25641650602E+03 -0.56528558908E+02  0.14915392064E+04  0.15144753942E+04  0.12699999809E+01 0.  1.
</event>
<event>
 5   0  0.2855141E-05  0.1900265E+04  0.7818609E-02  0.8654724E-01
        2   -1    0    0  501    0  0.00000000000E+00  0.00000000000E+00  0.82348976122E+03  0.82348976123E+03  0.25500000920E-02 0. -1.
       -2   -1    0    0    0  501  0.00000000000E+00  0.00000000000E+00 -0.10962517351E+04  0.10962517351E+04  0.25500000920E-02 0.  1.
    10030    2    1    2    0    0  0.00000000000E+00  0.00000000000E+00 -0.27276197383E+03  0.19197414963E+04  0.19002653284E+04 0.  0.
        1    1    3    3  502    0  0.39402023659E+03  0.56132498376E+03 -0.80070290248E+03  0.10542593715E+04  0.50400001928E-02 0.  1.
       -1    1    3    3    0  502 -0.39402023659E+03 -0.56132498376E+03  0.52794092865E+03  0.86548212483E+03  0.50400001928E-02 0. -1.
</event>
<event>
 5   0  0.1010725E-05  0.1903198E+04  0.7818609E-02  0.8653266E-01
        4   -1    0    0  501    0  0.00000000000E+00  0.00000000000E+00  0.98633452620E+03  0.98633534382E+03  0.12699999809E+01 0.  1.
       -4   -1    0    0    0  501  0.00000000000E+00  0.00000000000E+00 -0.91808494484E+03  0.91808582325E+03  0.12699999809E+01 0. -1.
    10030    2    1    2    0    0  0.00000000000E+00  0.00000000000E+00  0.68249581355E+02  0.19044211671E+04  0.19031978290E+04 0.  0.
        2    1    3    3  502    0 -0.32869844328E+03 -0.58839470488E+02  0.92578439686E+03  0.98416538213E+03  0.25500000920E-02 0.  1.
       -2    1    3    3    0  502  0.32869844328E+03  0.58839470488E+02 -0.85753481551E+03  0.92025578494E+03  0.25500000920E-02 0. -1.
</event>
<event>
 5   0  0.1010725E-05  0.1901842E+04  0.7818609E-02  0.8653940E-01
       -4   -1    0    0    0  501  0.00000000000E+00  0.00000000000E+00  0.92477287729E+03  0.92477374934E+03  0.12699999809E+01 0.  1.
        4   -1    0    0  501    0  0.00000000000E+00  0.00000000000E+00 -0.97780720136E+03  0.97780802611E+03  0.12699999809E+01 0. -1.
    10030    2    1    2    0    0  0.00000000000E+00  0.00000000000E+00 -0.53034324066E+02  0.19025817754E+04  0.19018424679E+04 0.  0.
        2    1    3    3  502    0 -0.21302874795E+03 -0.90051558426E+03  0.19252372090E+03  0.94518513957E+03  0.25500000920E-02 0.  1.
       -2    1    3    3    0  502  0.21302874795E+03  0.90051558426E+03 -0.24555804497E+03  0.95739663588E+03  0.25500000920E-02 0. -1.
</event>
<event>
 5   0  0.2813537E-05  0.1902277E+04  0.7818609E-02  0.8653724E-01
        2   -1    0    0  501    0  0.00000000000E+00  0.00000000000E+00  0.12347153799E+04  0.12347153799E+04  0.25500000920E-02 0.  1.
       -2   -1    0    0    0  501  0.00000000000E+00  0.00000000000E+00 -0.73269031971E+03  0.73269031971E+03  0.25500000920E-02 0. -1.
    10030    2    1    2    0    0  0.00000000000E+00  0.00000000000E+00  0.50202506017E+03  0.19674056996E+04  0.19022765377E+04 0.  0.
        2    1    3    3  502    0  0.71198969526E+03  0.30747368472E+03 -0.31847079809E+03  0.83838716724E+03  0.25500000920E-02 0. -1.
       -2    1    3    3    0  502 -0.71198969526E+03 -0.30747368472E+03  0.82049585827E+03  0.11290185324E+04  0.25500000920E-02 0.  1.
</event>
<event>
 5   0  0.1010725E-05  0.1891910E+04  0.7818609E-02  0.8658894E-01
       -3   -1    0    0    0  501  0.00000000000E+00  0.00000000000E+00  0.92032465086E+03  0.92032465640E+03  0.10100000352E+00 0. -1.
        3   -1    0    0  501    0  0.00000000000E+00  0.00000000000E+00 -0.97229888703E+03  0.97229889227E+03  0.10100000352E+00 0.  1.
    10030    2    1    2    0    0  0.00000000000E+00  0.00000000000E+00 -0.51974236166E+02  0.18926235487E+04  0.18919097695E+04 0.  0.
        4    1    3    3  502    0  0.59036039529E+02 -0.67262409192E+03 -0.68874790617E+03  0.96451216381E+03  0.12699999809E+01 0.  1.
       -4    1    3    3    0  502 -0.59036039529E+02  0.67262409192E+03  0.63677367000E+03  0.92811138486E+03  0.12699999809E+01 0. -1.
</event>
<event>
 5   0  0.2789718E-05  0.1899666E+04  0.7818609E-02  0.8655022E-01
        2   -1    0    0  501    0  0.00000000000E+00  0.00000000000E+00  0.17229686869E+04  0.17229686869E+04  0.25500000920E-02 0.  1.
       -2   -1    0    0    0  501  0.00000000000E+00  0.00000000000E+00 -0.52362125388E+03  0.52362125389E+03  0.25500000920E-02 0. -1.
    10030    2    1    2    0    0  0.00000000000E+00  0.00000000000E+00  0.11993474330E+04  0.22465899408E+04  0.18996663120E+04 0.  0.
        5    1    3    3  502    0 -0.32145246874E+03 -0.76200436731E+03  0.47275137174E+02  0.82839566274E+03  0.46999998093E+01 0. -1.
       -5    1    3    3    0  502  0.32145246874E+03  0.76200436731E+03  0.11520722958E+04  0.14181942780E+04  0.46999998093E+01 0.  1.
</event>
<event>
 5   0  0.1429067E-05  0.1900393E+04  0.7818609E-02  0.8654661E-01
       -1   -1    0    0    0  501  0.00000000000E+00  0.00000000000E+00  0.85419228985E+03  0.85419228986E+03  0.50400001928E-02 0. -1.
        1   -1    0    0  501    0  0.00000000000E+00  0.00000000000E+00 -0.10569909707E+04  0.10569909708E+04  0.50400001928E-02 0.  1.
    10030    2    1    2    0    0  0.00000000000E+00  0.00000000000E+00 -0.20279868090E+03  0.19111832606E+04  0.19003931569E+04 0.  0.
        3    1    3    3  502    0  0.22588831490E+03  0.43427833560E+02  0.82576908844E+03  0.85720832075E+03  0.10100000352E+00 0. -1.
       -3    1    3    3    0  502 -0.22588831490E+03 -0.43427833560E+02 -0.10285677693E+04  0.10539749399E+04  0.10100000352E+00 0.  1.
</event>
<event>
 5   0  0.2879462E-05  0.1898642E+04  0.7818609E-02  0.8655533E-01
       -2   -1    0    0    0  501  0.00000000000E+00  0.00000000000E+00  0.13893222795E+04  0.13893222795E+04  0.25500000920E-02 0. -1.
        2   -1    0    0  501    0  0.00000000000E+00  0.00000000000E+00 -0.64866870825E+03  0.64866870826E+03  0.25500000920E-02 0.  1.
    10030    2    1    2    0    0  0.00000000000E+00  0.00000000000E+00  0.74065357123E+03  0.20379909877E+04  0.18986415021E+04 0.  0.
        4    1    3    3  502    0 -0.70292517177E+03 -0.61015393146E+03  0.57061381813E+03  0.10917844840E+04  0.12699999809E+01 0. -1.
       -4    1    3    3    0  502  0.70292517177E+03  0.61015393146E+03  0.17003975310E+03  0.94620650374E+03  0.12699999809E+01 0.  1.
</event>
<event>
 5   0  0.1344119E-05  0.1899656E+04  0.7818609E-02  0.8655028E-01
        1   -1    0    0  501    0  0.00000000000E+00  0.00000000000E+00  0.12352637561E+04  0.12352637561E+04  0.50400001928E-02 0.  1.
       -1   -1    0    0    0  501  0.00000000000E+00  0.00000000000E+00 -0.73034837902E+03  0.73034837904E+03  0.50400001928E-02 0. -1.
    10030    2    1    2    0    0  0.00000000000E+00  0.00000000000E+00  0.50491537711E+03  0.19656121352E+04  0.18996556340E+04 0.  0.
        2    1    3    3  502    0 -0.15562970624E+03  0.76756002433E+03  0.80852128038E+03  0.11256445519E+04  0.25500000920E-02 0.  1.
       -2    1    3    3    0  502  0.15562970624E+03 -0.76756002433E+03 -0.30360590327E+03  0.83996758326E+03  0.25500000920E-02 0. -1.
</event>
<event>
 5   0  0.1413011E-05  0.1898556E+04  0.7818609E-02  0.8655575E-01
        1   -1    0    0  501    0  0.00000000000E+00  0.00000000000E+00  0.49565825470E+03  0.49565825473E+03  0.50400001928E-02 0.  1.
       -1   -1    0    0    0  501  0.00000000000E+00  0.00000000000E+00 -0.18180443915E+04  0.18180443915E+04  0.50400001928E-02 0. -1.
    10030    2    1    2    0    0  0.00000000000E+00  0.00000000000E+00 -0.13223861368E+04  0.23137026462E+04  0.18985559882E+04 0.  0.
        1    1    3    3  502    0  0.77166899061E+03  0.30705182566E+03 -0.10090574571E+03  0.83662167331E+03  0.50400001928E-02 0.  1.
       -1    1    3    3    0  502 -0.77166899061E+03 -0.30705182566E+03 -0.12214803910E+04  0.14770809729E+04  0.50400001928E-02 0. -1.
</event>
<event>
 5   0  0.2789718E-05  0.1897230E+04  0.7818609E-02  0.8656237E-01
       -2   -1    0    0    0  501  0.00000000000E+00  0.00000000000E+00  0.88287881156E+03  0.88287881157E+03  0.25500000920E-02 0. -1.
        2   -1    0    0  501    0  0.00000000000E+00  0.00000000000E+00 -0.10192452349E+04  0.10192452349E+04  0.25500000920E-02 0.  1.
    10030    2    1    2    0    0  0.00000000000E+00  0.00000000000E+00 -0.13636642335E+03  0.19021240465E+04  0.18972295820E+04 0.  0.
        5    1    3    3  502    0 -0.76177830952E+03 -0.37442083057E+03  0.35640759229E+03  0.92062240526E+03  0.46999998093E+01 0. -1.
       -5    1    3    3    0  502  0.76177830952E+03  0.37442083057E+03 -0.49277401564E+03  0.98150164122E+03  0.46999998093E+01 0.  1.
</event>
<event>
 5   0  0.1327254E-05  0.1890856E+04  0.7818609E-02  0.8659421E-01
        1   -1    0    0  501    0  0.00000000000E+00  0.00000000000E+00  0.60678071035E+03  0.60678071037E+03  0.50400001928E-02 0.  1.
       -1   -1    0    0    0  501  0.00000000000E+00  0.00000000000E+00 -0.14730758363E+04  0.14730758363E+04  0.50400001928E-02 0. -1.
    10030    2    1    2    0    0  0.00000000000E+00  0.00000000000E+00 -0.86629512592E+03  0.20798565466E+04  0.18908558934E+04 0.  0.
        5    1    3    3  502    0 -0.49765496892E+03 -0.66053365278E+03 -0.93702633368E+03  0.12498022302E+04  0.46999998093E+01 0. -1.
       -5    1    3    3    0  502  0.49765496892E+03  0.66053365278E+03  0.70731207759E+02  0.83005431647E+03  0.46999998093E+01 0.  1.
</event>
<event>
 5   0  0.2888776E-05  0.1899420E+04  0.7818609E-02  0.8655145E-01
       -2   -1    0    0    0  501  0.00000000000E+00  0.00000000000E+00  0.43381388517E+03  0.43381388518E+03  0.25500000920E-02 0.  1.
        2   -1    0    0  501    0  0.00000000000E+00  0.00000000000E+00 -0.20791150950E+04  0.20791150950E+04  0.25500000920E-02 0. -1.
    10030    2    1    2    0    0  0.00000000000E+00  0.00000000000E+00 -0.16453012099E+04  0.25129289802E+04  0.18994199084E+04 0.  0.
        3    1    3    3  502    0 -0.83936216189E+02 -0.93643673773E+03 -0.64520141413E+03  0.11402823892E+04  0.10100000352E+00 0.  1.
       -3    1    3    3    0  502  0.83936216189E+02  0.93643673773E+03 -0.10000997957E+04  0.13726465910E+04  0.10100000352E+00 0. -1.
</event>
<event>
 5   0  0.2855141E-05  0.1897601E+04  0.7818609E-02  0.8656051E-01
       -2   -1    0    0    0  501  0.00000000000E+00  0.00000000000E+00  0.57039756475E+03  0.57039756476E+03  0.25500000920E-02 0.  1.
        2   -1    0    0  501    0  0.00000000000E+00  0.00000000000E+00 -0.15782368782E+04  0.15782368782E+04  0.25500000920E-02 0. -1.
    10030    2    1    2    0    0  0.00000000000E+00  0.00000000000E+00 -0.10078393134E+04  0.21486344429E+04  0.18976010876E+04 0.  0.
        1    1    3    3  502    0  0.13508470642E+03  0.84718813227E+03 -0.96280707857E+03  0.12895631353E+04  0.50400001928E-02 0. -1.
       -1    1    3    3    0  502 -0.13508470642E+03 -0.84718813227E+03 -0.45032234837E+02  0.85907130762E+03  0.50400001928E-02 0.  1.
</event>
<event>
 5   0  0.1344119E-05  0.1901324E+04  0.7818609E-02  0.8654198E-01
        1   -1    0    0  501    0  0.00000000000E+00  0.00000000000E+00  0.15156755028E+04  0.15156755028E+04  0.50400001928E-02 0. -1.
       -1   -1    0    0    0  501  0.00000000000E+00  0.00000000000E+00 -0.59627429144E+03  0.59627429146E+03  0.50400001928E-02 0.  1.
    10030    2    1    2    0    0  0.00000000000E+00  0.00000000000E+00  0.91940121135E+03  0.21119497943E+04  0.19013241034E+04 0.  0.
        2    1    3    3  502    0  0.49080322363E+02 -0.20365626314E+03  0.14897184293E+04  0.15043755349E+04  0.25500000920E-02 0. -1.
       -2    1    3    3    0  502 -0.49080322363E+02  0.20365626314E+03 -0.57031721791E+03  0.60757425934E+03  0.25500000920E-02 0.  1.
</event>
<event>
 5   0  0.1344119E-05  0.1893270E+04  0.7818609E-02  0.8658214E-01
        1   -1    0    0  501    0  0.00000000000E+00  0.00000000000E+00  0.16427909968E+04  0.16427909968E+04  0.50400001928E-02 0.  1.
       -1   -1    0    0    0  501  0.00000000000E+00  0.00000000000E+00 -0.54548500253E+03  0.54548500256E+03  0.50400001928E-02 0. -1.
    10030    2    1    2    0    0  0.00000000000E+00  0.00000000000E+00  0.10973059943E+04  0.21882759994E+04  0.18932700295E+04 0.  0.
        2    1    3    3  502    0 -0.31411755850E+02  0.15566271665E+03 -0.52998011938E+03  0.55325989075E+03  0.25500000920E-02 0. -1.
       -2    1    3    3    0  502  0.31411755850E+02 -0.15566271665E+03  0.16272861137E+04  0.16350161087E+04  0.25500000920E-02 0.  1.
</event>
<event>
 5   0  0.2888776E-05  0.1900285E+04  0.7818609E-02  0.8654715E-01
       -2   -1    0    0    0  501  0.00000000000E+00  0.00000000000E+00  0.79310202875E+03  0.79310202876E+03  0.25500000920E-02 0.  1.
        2   -1    0    0  501    0  0.00000000000E+00  0.00000000000E+00 -0.11382779786E+04  0.11382779786E+04  0.25500000920E-02 0. -1.
    10030    2    1    2    0    0  0.00000000000E+00  0.00000000000E+00 -0.34517594982E+03  0.19313800073E+04  0.19002847935E+04 0.  0.
        3    1    3    3  502    0 -0.20451478143E+03 -0.88145425198E+03 -0.46712769968E+03  0.10183300998E+04  0.10100000352E+00 0.  1.
       -3    1    3    3    0  502  0.20451478143E+03  0.88145425198E+03  0.12195174986E+03  0.91304990753E+03  0.10100000352E+00 0. -1.
</event>
<event>
 5   0  0.2789718E-05  0.1911265E+04  0.7818609E-02  0.8649269E-01
       -2   -1    0    0    0  501  0.00000000000E+00  0.00000000000E+00  0.95897157086E+03  0.95897157086E+03  0.25500000920E-02 0.  1.
        2   -1    0    0  501    0  0.00000000000E+00  0.00000000000E+00 -0.95230513505E+03  0.95230513505E+03  0.25500000920E-02 0. -1.
    10030    2    1    2    0    0  0.00000000000E+00  0.00000000000E+00  0.66664358137E+01  0.19112767059E+04  0.19112650798E+04 0.  0.
        5    1    3    3  502    0  0.35565401792E+03 -0.35173733740E+03  0.81758784170E+03  0.95847843162E+03  0.46999998093E+01 0.  1.
       -5    1    3    3    0  502 -0.35565401792E+03  0.35173733740E+03 -0.81092140588E+03  0.95279827430E+03  0.46999998093E+01 0. -1.
</event>
<event>
 5   0  0.1471485E-05  0.1900086E+04  0.7818609E-02  0.8654813E-01
        1   -1    0    0  501    0  0.00000000000E+00  0.00000000000E+00  0.93279681203E+03  0.93279681205E+03  0.50400001928E-02 0.  1.
       -1   -1    0    0    0  501  0.00000000000E+00  0.00000000000E+00 -0.96760820490E+03  0.96760820491E+03  0.50400001928E-02 0. -1.
    10030    2    1    2    0    0  0.00000000000E+00  0.00000000000E+00 -0.34811392867E+02  0.19004050170E+04  0.19000861547E+04 0.  0.
        4    1    3    3  502    0  0.30386296844E+03 -0.15274452120E+03  0.86982639158E+03  0.93395029671E+03  0.12699999809E+01 0.  1.
       -4    1    3    3    0  502 -0.30386296844E+03  0.15274452120E+03 -0.90463778444E+03  0.96645472025E+03  0.12699999809E+01 0. -1.
</event>
<event>
 5   0  0.1471485E-05  0.1895724E+04  0.7818609E-02  0.8656988E-01
       -1   -1    0    0    0  501  0.00000000000E+00  0.00000000000E+00  0.69016466695E+03  0.69016466697E+03  0.50400001928E-02 0.  1.
        1   -1    0    0  501    0  0.00000000000E+00  0.00000000000E+00 -0.13017799176E+04  0.13017799176E+04  0.50400001928E-02 0. -1.
    10030    2    1    2    0    0  0.00000000000E+00  0.00000000000E+00 -0.61161525062E+03  0.19919445846E+04  0.18957241395E+04 0.  0.
        4    1    3    3  502    0  0.70491580165E+03 -0.40713912528E+03 -0.81601711835E+03  0.11526292140E+04  0.12699999809E+01 0. -1.
       -4    1    3    3    0  502 -0.70491580165E+03  0.40713912528E+03  0.20440186772E+03  0.83931537051E+03  0.12699999809E+01 0.  1.
</event>
<event>
 5   0  0.1413011E-05  0.1899932E+04  0.7818609E-02  0.8654890E-01
       -1   -1    0    0    0  501  0.00000000000E+00  0.00000000000E+00  0.14047079449E+04  0.14047079449E+04  0.50400001928E-02 0.  1.
        1   -1    0    0  501    0  0.00000000000E+00  0.00000000000E+00 -0.64243615399E+03  0.64243615401E+03  0.50400001928E-02 0. -1.
    10030    2    1    2    0    0  0.00000000000E+00  0.00000000000E+00  0.76227179093E+03  0.20471440989E+04  0.18999317563E+04 0.  0.
        1    1    3    3  502    0 -0.64341576026E+02  0.23301572066E+03  0.13710132281E+04  0.13921614260E+04  0.50400001928E-02 0.  1.
       -1    1    3    3    0  502  0.64341576026E+02 -0.23301572066E+03 -0.60874143716E+03  0.65498267292E+03  0.50400001928E-02 0. -1.
</event>
<event>
 5   0  0.1413011E-05  0.1897721E+04  0.7818609E-02  0.8655991E-01
       -1   -1    0    0    0  501  0.00000000000E+00  0.00000000000E+00  0.13005636691E+04  0.13005636691E+04  0.50400001928E-02 0.  1.
        1   -1    0    0  501    0  0.00000000000E+00  0.00000000000E+00 -0.69226643225E+03  0.69226643227E+03  0.50400001928E-02 0. -1.
    10030    2    1    2    0    0  0.00000000000E+00  0.00000000000E+00  0.60829723684E+03  0.19928301014E+04  0.18977213401E+04 0.  0.
        1    1    3    3  502    0 -0.87481237398E+03 -0.13968680305E+03 -0.52779268177E+02  0.88746534794E+03  0.50400001928E-02 0. -1.
       -1    1    3    3    0  502  0.87481237398E+03  0.13968680305E+03  0.66107650502E+03  0.11053647534E+04  0.50400001928E-02 0.  1.
</event>
<event>
 5   0  0.1344119E-05  0.1896099E+04  0.7818609E-02  0.8656801E-01
        1   -1    0    0  501    0  0.00000000000E+00  0.00000000000E+00  0.18868988096E+04  0.18868988096E+04  0.50400001928E-02 0.  1.
       -1   -1    0    0    0  501  0.00000000000E+00  0.00000000000E+00 -0.47633582769E+03  0.47633582772E+03  0.50400001928E-02 0. -1.
    10030    2    1    2    0    0  0.00000000000E+00  0.00000000000E+00  0.14105629819E+04  0.23632346373E+04  0.18960986327E+04 0.  0.
        2    1    3    3  502    0  0.29721704290E+03 -0.89350108240E+03  0.56809418544E+03  0.10997332215E+04  0.25500000920E-02 0.  1.
       -2    1    3    3    0  502 -0.29721704290E+03  0.89350108240E+03  0.84246879642E+03  0.12635014158E+04  0.25500000920E-02 0. -1.
</event>
<event>
 5   0  0.1327254E-05  0.1904795E+04  0.7818609E-02  0.8652474E-01
       -1   -1    0    0    0  501  0.00000000000E+00  0.00000000000E+00  0.14902138641E+04  0.14902138641E+04  0.50400001928E-02 0.  1.
        1   -1    0    0  501    0  0.00000000000E+00  0.00000000000E+00 -0.60867811781E+03  0.60867811783E+03  0.50400001928E-02 0. -1.
    10030    2    1    2    0    0  0.00000000000E+00  0.00000000000E+00  0.88153574626E+03  0.20988919819E+04  0.19047945505E+04 0.  0.
        5    1    3    3  502    0 -0.85749615378E+03  0.32670842057E+03  0.72169913970E+03  0.11674372720E+04  0.46999998093E+01 0.  1.
       -5    1    3    3    0  502  0.85749615378E+03 -0.32670842057E+03  0.15983660656E+03  0.93145470991E+03  0.46999998093E+01 0. -1.
</event>
<event>
 5   0  0.1344119E-05  0.1898321E+04  0.7818609E-02  0.8655693E-01
        1   -1    0    0  501    0  0.00000000000E+00  0.00000000000E+00  0.12892899283E+04  0.12892899283E+04  0.50400001928E-02 0. -1.
       -1   -1    0    0    0  501  0.00000000000E+00  0.00000000000E+00 -0.69876082224E+03  0.69876082226E+03  0.50400001928E-02 0.  1.
    10030    2    1    2    0    0  0.00000000000E+00  0.00000000000E+00  0.59052910604E+03  0.19880507505E+04  0.18983206161E+04 0.  0.
        2    1    3    3  502    0  0.87784689301E+03 -0.36045412036E+03  0.27531279004E+03  0.98809891854E+03  0.25500000920E-02 0. -1.
       -2    1    3    3    0  502 -0.87784689301E+03  0.36045412036E+03  0.31521631600E+03  0.99995183201E+03  0.25500000920E-02 0.  1.
</event>
<event>
 5   0  0.2855141E-05  0.1907794E+04  0.7818609E-02  0.8650986E-01
       -2   -1    0    0    0  501  0.00000000000E+00  0.00000000000E+00  0.10078821801E+04  0.10078821801E+04  0.25500000920E-02 0. -1.
        2   -1    0    0  501    0  0.00000000000E+00  0.00000000000E+00 -0.90280367595E+03  0.90280367595E+03  0.25500000920E-02 0.  1.
    10030    2    1    2    0    0  0.00000000000E+00  0.00000000000E+00  0.10507850417E+03  0.19106858561E+04  0.19077942626E+04 0.  0.
        1    1    3    3  502    0 -0.40094986551E+03  0.53940844834E+03  0.73046806585E+03  0.99262574219E+03  0.50400001928E-02 0. -1.
       -1    1    3    3    0  502  0.40094986551E+03 -0.53940844834E+03 -0.62538956169E+03  0.91806011388E+03  0.50400001928E-02 0.  1.
</event>
<event>
 5   0  0.2855141E-05  0.1900082E+04  0.7818609E-02  0.8654815E-01
        2   -1    0    0  501    0  0.00000000000E+00  0.00000000000E+00  0.15955653332E+04  0.15955653332E+04  0.25500000920E-02 0.  1.
       -2   -1    0    0    0  501  0.00000000000E+00  0.00000000000E+00 -0.56567931754E+03  0.56567931754E+03  0.25500000920E-02 0. -1.
    10030    2    1    2    0    0  0.00000000000E+00  0.00000000000E+00  0.10298860156E+04  0.21612446507E+04  0.19000824285E+04 0.  0.
        1    1    3    3  502    0  0.45612204988E+03 -0.38817367816E+03 -0.32388307565E+03  0.68090114959E+03  0.50400001928E-02 0. -1.
       -1    1    3    3    0  502 -0.45612204988E+03  0.38817367816E+03  0.13537690913E+04  0.14803435011E+04  0.50400001928E-02 0.  1.
</event>
<event>
 5   0  0.2813537E-05  0.1902232E+04  0.7818609E-02  0.8653746E-01
       -2   -1    0    0    0  501  0.00000000000E+00  0.00000000000E+00  0.56617357419E+03  0.56617357419E+03  0.25500000920E-02 0. -1.
        2   -1    0    0  501    0  0.00000000000E+00  0.00000000000E+00 -0.15977807268E+04  0.15977807268E+04  0.25500000920E-02 0.  1.
    10030    2    1    2    0    0  0.00000000000E+00  0.00000000000E+00 -0.10316071526E+04  0.21639543010E+04  0.19022315578E+04 0.  0.
        2    1    3    3  502    0  0.30489122676E+03 -0.70412772476E+03 -0.11551505774E+04  0.13867686791E+04  0.25500000920E-02 0.  1.
       -2    1    3    3    0  502 -0.30489122676E+03  0.70412772476E+03  0.12354342484E+03  0.77718562182E+03  0.25500000920E-02 0. -1.
</event>
<event>
 5   0  0.1471485E-05  0.1901618E+04  0.7818609E-02  0.8654051E-01
        1   -1    0    0  501    0  0.00000000000E+00  0.00000000000E+00  0.10523912496E+04  0.10523912496E+04  0.50400001928E-02 0. -1.
       -1   -1    0    0    0  501  0.00000000000E+00  0.00000000000E+00 -0.85903214136E+03  0.85903214137E+03  0.50400001928E-02 0.  1.
    10030    2    1    2    0    0  0.00000000000E+00  0.00000000000E+00  0.19335910820E+03  0.19114233909E+04  0.19016181622E+04 0.  0.
        4    1    3    3  502    0 -0.51501575090E+03  0.68220076110E+03  0.51523655640E+03  0.99805281627E+03  0.12699999809E+01 0. -1.
       -4    1    3    3    0  502  0.51501575090E+03 -0.68220076110E+03 -0.32187744820E+03  0.91337057467E+03  0.12699999809E+01 0.  1.
</event>
<event>
 5   0  0.1471485E-05  0.1899338E+04  0.7818609E-02  0.8655186E-01
        1   -1    0    0  501    0  0.00000000000E+00  0.00000000000E+00  0.12000963782E+04  0.12000963782E+04  0.50400001928E-02 0. -1.
       -1   -1    0    0    0  501  0.00000000000E+00  0.00000000000E+00 -0.75149873363E+03  0.75149873365E+03  0.50400001928E-02 0.  1.
    10030    2    1    2    0    0  0.00000000000E+00  0.00000000000E+00  0.44859764452E+03  0.19515951118E+04  0.18993376829E+04 0.  0.
        4    1    3    3  502    0 -0.60847345545E+03 -0.42594532678E+03 -0.38375995695E+03  0.83602792109E+03  0.12699999809E+01 0.  1.
       -4    1    3    3    0  502  0.60847345545E+03  0.42594532678E+03  0.83235760147E+03  0.11155671907E+04  0.12699999809E+01 0. -1.
</event>
<event>
 5   0  0.1413011E-05  0.1907440E+04  0.7818609E-02  0.8651162E-01
       -1   -1    0    0    0  501  0.00000000000E+00  0.00000000000E+00  0.53544976960E+03  0.53544976963E+03  0.50400001928E-02 0.  1.
        1   -1    0    0  501    0  0.00000000000E+00  0.00000000000E+00 -0.16987255367E+04  0.16987255368E+04  0.50400001928E-02 0. -1.
    10030    2    1    2    0    0  0.00000000000E+00  0.00000000000E+00 -0.11632757671E+04  0.22341753064E+04  0.19074403763E+04 0.  0.
        1    1    3    3  502    0 -0.87751738748E+03  0.11411981113E+03 -0.99826686114E+03  0.13340153008E+04  0.50400001928E-02 0. -1.
       -1    1    3    3    0  502  0.87751738748E+03 -0.11411981113E+03 -0.16500890601E+03  0.90016000561E+03  0.50400001928E-02 0.  1.
</event>
<event>
 5   0  0.1344119E-05  0.1896405E+04  0.7818609E-02  0.8656648E-01
       -1   -1    0    0    0  501  0.00000000000E+00  0.00000000000E+00  0.67200749466E+03  0.67200749468E+03  0.50400001928E-02 0.  1.
        1   -1    0    0  501    0  0.00000000000E+00  0.00000000000E+00 -0.13379138212E+04  0.13379138212E+04  0.50400001928E-02 0. -1.
    10030    2    1    2    0    0  0.00000000000E+00  0.00000000000E+00 -0.66590632653E+03  0.20099213159E+04  0.18964051414E+04 0.  0.
        2    1    3    3  502    0 -0.20721934438E+03 -0.83828352357E+03 -0.74809991922E+03  0.11425027841E+04  0.25500000920E-02 0. -1.
       -2    1    3    3    0  502  0.20721934438E+03  0.83828352357E+03  0.82193592687E+02  0.86741853177E+03  0.25500000920E-02 0.  1.
</event>
<event>
 5   0  0.1344119E-05  0.1899304E+04  0.7818609E-02  0.8655203E-01
       -1   -1    0    0    0  501  0.00000000000E+00  0.00000000000E+00  0.13923021094E+04  0.13923021094E+04  0.50400001928E-02 0. -1.
        1   -1    0    0  501    0  0.00000000000E+00  0.00000000000E+00 -0.64773252637E+03  0.64773252639E+03  0.50400001928E-02 0.  1.
    10030    2    1    2    0    0  0.00000000000E+00  0.00000000000E+00  0.74456958303E+03  0.20400346358E+04  0.18993044651E+04 0.  0.
        2    1    3    3  502    0  0.20083259974E+03 -0.82373240745E+03  0.83172981229E+03  0.11877050530E+04  0.25500000920E-02 0. -1.
       -2    1    3    3    0  502 -0.20083259974E+03  0.82373240745E+03 -0.87160229253E+02  0.85232958283E+03  0.25500000920E-02 0.  1.
</event>
<event>
 5   0  0.2888776E-05  0.1900661E+04  0.7818609E-02  0.8654528E-01
        2   -1    0    0  501    0  0.00000000000E+00  0.00000000000E+00  0.22489040083E+04  0.22489040083E+04  0.25500000920E-02 0. -1.
       -2   -1    0    0    0  501  0.00000000000E+00  0.00000000000E+00 -0.40158571825E+03  0.40158571826E+03  0.25500000920E-02 0.  1.
    10030    2    1    2    0    0  0.00000000000E+00  0.00000000000E+00  0.18473182901E+04  0.26504897266E+04  0.19006606551E+04 0.  0.
        3    1    3    3  502    0 -0.60741618494E+03  0.44704577075E+03  0.11734382040E+03  0.76326530463E+03  0.10100000352E+00 0.  1.
       -3    1    3    3    0  502  0.60741618494E+03 -0.44704577075E+03  0.17299744696E+04  0.18872244219E+04  0.10100000352E+00 0. -1.
</event>
<event>
 5   0  0.2855141E-05  0.1901431E+04  0.7818609E-02  0.8654144E-01
        2   -1    0    0  501    0  0.00000000000E+00  0.00000000000E+00  0.10924262167E+04  0.10924262167E+04  0.25500000920E-02 0. -1.
       -2   -1    0    0    0  501  0.00000000000E+00  0.00000000000E+00 -0.82738768376E+03  0.82738768376E+03  0.25500000920E-02 0.  1.
    10030    2    1    2    0    0  0.00000000000E+00  0.00000000000E+00  0.26503853299E+03  0.19198139005E+04  0.19014310370E+04 0.  0.
        1    1    3    3  502    0  0.11194761251E+01  0.62474453271E+03 -0.59103514198E+03  0.86001716463E+03  0.50400001928E-02 0.  1.
       -1    1    3    3    0  502 -0.11194761251E+01 -0.62474453271E+03  0.85607367497E+03  0.10597967359E+04  0.50400001928E-02 0. -1.
</event>
<event>
 5   0  0.2888776E-05  0.1902453E+04  0.7818609E-02  0.8653636E-01
       -2   -1    0    0    0  501  0.00000000000E+00  0.00000000000E+00  0.42152436910E+03  0.42152436911E+03  0.25500000920E-02 0.  1.
        2   -1    0    0  501    0  0.00000000000E+00  0.00000000000E+00 -0.21465701423E+04  0.21465701423E+04  0.25500000920E-02 0. -1.
    10030    2    1    2    0    0  0.00000000000E+00  0.00000000000E+00 -0.17250457732E+04  0.25680945114E+04  0.19024527589E+04 0.  0.
        3    1    3    3  502    0 -0.55839515314E+03  0.52283148927E+02  0.17460166630E+03  0.58738779932E+03  0.10100000352E+00 0.  1.
       -3    1    3    3    0  502  0.55839515314E+03 -0.52283148927E+02 -0.18996474395E+04  0.19807067121E+04  0.10100000352E+00 0. -1.
</event>
<event>
 5   0  0.1413011E-05  0.1897565E+04  0.7818609E-02  0.8656069E-01
       -1   -1    0    0    0  501  0.00000000000E+00  0.00000000000E+00  0.41496048409E+03  0.41496048412E+03  0.50400001928E-02 0.  1.
        1   -1    0    0  501    0  0.00000000000E+00  0.00000000000E+00 -0.21693347304E+04  0.21693347304E+04  0.50400001928E-02 0. -1.
    10030    2    1    2    0    0  0.00000000000E+00  0.00000000000E+00 -0.17543742463E+04  0.25842952146E+04  0.18975649554E+04 0.  0.
        1    1    3    3  502    0  0.75391952059E+02  0.47153896010E+03 -0.19937425087E+04  0.20501322222E+04  0.50400001928E-02 0. -1.
       -1    1    3    3    0  502 -0.75391952059E+02 -0.47153896010E+03  0.23936826241E+03  0.53416299235E+03  0.50400001928E-02 0.  1.
</event>
<event>
 5   0  0.2813537E-05  0.1890778E+04  0.7818609E-02  0.8659461E-01
       -2   -1    0    0    0  501  0.00000000000E+00  0.00000000000E+00  0.78023065695E+03  0.78023065696E+03  0.25500000920E-02 0. -1.
        2   -1    0    0  501    0  0.00000000000E+00  0.00000000000E+00 -0.11455074059E+04  0.11455074060E+04  0.25500000920E-02 0.  1.
    10030    2    1    2    0    0  0.00000000000E+00  0.00000000000E+00 -0.36527674900E+03  0.19257380629E+04  0.18907776135E+04 0.  0.
        2    1    3    3  502    0 -0.32164266230E+02 -0.83882478765E+03  0.26025657315E+03  0.87886008458E+03  0.25500000920E-02 0. -1.
       -2    1    3    3    0  502  0.32164266230E+02  0.83882478765E+03 -0.62553332214E+03  0.10468779783E+04  0.25500000920E-02 0.  1.
</event>
<event>
 5   0  0.2813537E-05  0.1898565E+04  0.7818609E-02  0.8655571E-01
       -2   -1    0    0    0  501  0.00000000000E+00  0.00000000000E+00  0.55187819664E+03  0.55187819664E+03  0.25500000920E-02 0.  1.
        2   -1    0    0  501    0  0.00000000000E+00  0.00000000000E+00 -0.16328560889E+04  0.16328560889E+04  0.25500000920E-02 0. -1.
    10030    2    1    2    0    0  0.00000000000E+00  0.00000000000E+00 -0.10809778922E+04  0.21847342855E+04  0.18985654307E+04 0.  0.
        2    1    3    3  502    0  0.76788929240E+03  0.33082158837E+03 -0.23248379418E+02  0.83644328910E+03  0.25500000920E-02 0. -1.
       -2    1    3    3    0  502 -0.76788929240E+03 -0.33082158837E+03 -0.10577295128E+04  0.13482909964E+04  0.25500000920E-02 0.  1.
</event>
<event>
 5   0  0.1413011E-05  0.1899445E+04  0.7818609E-02  0.8655133E-01
       -1   -1    0    0    0  501  0.00000000000E+00  0.00000000000E+00  0.87545120581E+03  0.87545120583E+03  0.50400001928E-02 0. -1.
        1   -1    0    0  501    0  0.00000000000E+00  0.00000000000E+00 -0.10302945191E+04  0.10302945191E+04  0.50400001928E-02 0.  1.
    10030    2    1    2    0    0  0.00000000000E+00  0.00000000000E+00 -0.15484331331E+03  0.19057457250E+04  0.18994447390E+04 0.  0.
        1    1    3    3  502    0  0.71338793935E+03  0.52402339068E+03  0.26788527608E+03  0.92481640727E+03  0.50400001928E-02 0. -1.
       -1    1    3    3    0  502 -0.71338793935E+03 -0.52402339068E+03 -0.42272858939E+03  0.98092931769E+03  0.50400001928E-02 0.  1.
</event>
<event>
 5   0  0.1471485E-05  0.1895310E+04  0.7818609E-02  0.8657194E-01
       -1   -1    0    0    0  501  0.00000000000E+00  0.00000000000E+00  0.71361631741E+03  0.71361631743E+03  0.50400001928E-02 0. -1.
        1   -1    0    0  501    0  0.00000000000E+00  0.00000000000E+00 -0.12584492105E+04  0.12584492105E+04  0.50400001928E-02 0.  1.
    10030    2    1    2    0    0  0.00000000000E+00  0.00000000000E+00 -0.54483289305E+03  0.19720655279E+04  0.18953098863E+04 0.  0.
        4    1    3    3  502    0  0.60075792565E+03 -0.39826454530E+03  0.36774212223E+03  0.80917279653E+03  0.12699999809E+01 0. -1.
       -4    1    3    3    0  502 -0.60075792565E+03  0.39826454530E+03 -0.91257501528E+03  0.11628927314E+04  0.12699999809E+01 0.  1.
</event>
<event>
 5   0  0.1327254E-05  0.1903255E+04  0.7818609E-02  0.8653238E-01
        1   -1    0    0  501    0  0.00000000000E+00  0.00000000000E+00  0.78705480680E+03  0.78705480681E+03  0.50400001928E-02 0.  1.
       -1   -1    0    0    0  501  0.00000000000E+00  0.00000000000E+00 -0.11506124109E+04  0.11506124109E+04  0.50400001928E-02 0. -1.
    10030    2    1    2    0    0  0.00000000000E+00  0.00000000000E+00 -0.36355760411E+03  0.19376672177E+04  0.19032551366E+04 0.  0.
        5    1    3    3  502    0  0.59484540117E+02  0.80812938682E+03 -0.68976066857E+03  0.10641444386E+04  0.46999998093E+01 0. -1.
       -5    1    3    3    0  502 -0.59484540117E+02 -0.80812938682E+03  0.32620306445E+03  0.87352277911E+03  0.46999998093E+01 0.  1.
</event>
<event>
 5   0  0.2879462E-05  0.1897250E+04  0.7818609E-02  0.8656226E-01
       -2   -1    0    0    0  501  0.00000000000E+00  0.00000000000E+00  0.85712849856E+03  0.85712849856E+03  0.25500000920E-02 0.  1.
        2   -1    0    0  501    0  0.00000000000E+00  0.00000000000E+00 -0.10498886134E+04  0.10498886134E+04  0.25500000920E-02 0. -1.
    10030    2    1    2    0    0  0.00000000000E+00  0.00000000000E+00 -0.19276011480E+03  0.19070171119E+04  0.18972500635E+04 0.  0.
        4    1    3    3  502    0  0.24251014200E+03 -0.91270797646E+03 -0.62478207697E+01  0.94439804501E+03  0.12699999809E+01 0.  1.
       -4    1    3    3    0  502 -0.24251014200E+03  0.91270797646E+03 -0.18651229403E+03  0.96261906691E+03  0.12699999809E+01 0. -1.
</event>
<event>
 5   0  0.1327254E-05  0.1902617E+04  0.7818609E-02  0.8653555E-01
        1   -1    0    0  501    0  0.00000000000E+00  0.00000000000E+00  0.15346514362E+04  0.15346514362E+04  0.50400001928E-02 0. -1.
       -1   -1    0    0    0  501  0.00000000000E+00  0.00000000000E+00 -0.58970230811E+03  0.58970230813E+03  0.50400001928E-02 0.  1.
    10030    2    1    2    0    0  0.00000000000E+00  0.00000000000E+00  0.94494912806E+03  0.21243537443E+04  0.19026166131E+04 0.  0.
        5    1    3    3  502    0 -0.56383224517E+03 -0.24922789837E+03  0.12814439077E+04  0.14220203671E+04  0.46999998093E+01 0. -1.
       -5    1    3    3    0  502  0.56383224517E+03  0.24922789837E+03 -0.33649477960E+03  0.70233337719E+03  0.46999998093E+01 0.  1.
</event>
<event>
 5   0  0.2888776E-05  0.1899825E+04  0.7818609E-02  0.8654943E-01
       -2   -1    0    0    0  501  0.00000000000E+00  0.00000000000E+00  0.13328037064E+04  0.13328037064E+04  0.25500000920E-02 0. -1.
        2   -1    0    0  501    0  0.00000000000E+00  0.00000000000E+00 -0.67701947035E+03  0.67701947035E+03  0.25500000920E-02 0.  1.
    10030    2    1    2    0    0  0.00000000000E+00  0.00000000000E+00  0.65578423607E+03  0.20098231768E+04  0.18998253177E+04 0.  0.
        3    1    3    3  502    0 -0.21509495874E+03  0.29273815946E+03  0.12564192250E+04  0.13078802508E+04  0.10100000352E+00 0. -1.
       -3    1    3    3    0  502  0.21509495874E+03 -0.29273815946E+03 -0.60063498889E+03  0.70194292600E+03  0.10100000352E+00 0.  1.
</event>
<event>
 5   0  0.1327254E-05  0.1924081E+04  0.7818609E-02  0.8642962E-01
        1   -1    0    0  501    0  0.00000000000E+00  0.00000000000E+00  0.69920608905E+03  0.69920608907E+03  0.50400001928E-02 0.  1.
       -1   -1    0    0    0  501  0.00000000000E+00  0.00000000000E+00 -0.13236756511E+04  0.13236756512E+04  0.50400001928E-02 0. -1.
    10030    2    1    2    0    0  0.00000000000E+00  0.00000000000E+00 -0.62446956209E+03  0.20228817402E+04  0.19240811576E+04 0.  0.
        5    1    3    3  502    0  0.50786751703E+03  0.13270321513E+01 -0.11712386624E+04  0.12766179029E+04  0.46999998093E+01 0. -1.
       -5    1    3    3    0  502 -0.50786751703E+03 -0.13270321513E+01  0.54676910026E+03  0.74626383731E+03  0.46999998093E+01 0.  1.
</event>
<event>
 5   0  0.1429067E-05  0.1898629E+04  0.7818609E-02  0.8655539E-01
        1   -1    0    0  501    0  0.00000000000E+00  0.00000000000E+00  0.16464166719E+04  0.16464166719E+04  0.50400001928E-02 0. -1.
       -1   -1    0    0    0  501  0.00000000000E+00  0.00000000000E+00 -0.54736920204E+03  0.54736920206E+03  0.50400001928E-02 0.  1.
    10030    2    1    2    0    0  0.00000000000E+00  0.00000000000E+00  0.10990474698E+04  0.21937858739E+04  0.18986287472E+04 0.  0.
        3    1    3    3  502    0 -0.28228712315E+03  0.75720408892E+03 -0.26068035942E+02  0.80853175873E+03  0.10100000352E+00 0.  1.
       -3    1    3    3    0  502  0.28228712315E+03 -0.75720408892E+03  0.11251155058E+04  0.13852541152E+04  0.10100000352E+00 0. -1.
</event>
<event>
 5   0  0.1429067E-05  0.1902193E+04  0.7818609E-02  0.8653766E-01
       -1   -1    0    0    0  501  0.00000000000E+00  0.00000000000E+00  0.91395372450E+03  0.91395372451E+03  0.50400001928E-02 0. -1.
        1   -1    0    0  501    0  0.00000000000E+00  0.00000000000E+00 -0.98974861313E+03  0.98974861315E+03  0.50400001928E-02 0.  1.
    10030    2    1    2    0    0  0.00000000000E+00  0.00000000000E+00 -0.75794888634E+02  0.19037023377E+04  0.19021928728E+04 0.  0.
        3    1    3    3  502    0  0.75165646787E+03  0.16365120162E+03 -0.59764017008E+03  0.97413702556E+03  0.10100000352E+00 0.  1.
       -3    1    3    3    0  502 -0.75165646787E+03 -0.16365120162E+03  0.52184528145E+03  0.92956531209E+03  0.10100000352E+00 0. -1.
</event>
<event>
 5   0  0.1010725E-05  0.1902220E+04  0.7818609E-02  0.8653752E-01
       -3   -1    0    0    0  501  0.00000000000E+00  0.00000000000E+00  0.81995276626E+03  0.81995277248E+03  0.10100000352E+00 0. -1.
        3   -1    0    0  501    0  0.00000000000E+00  0.00000000000E+00 -0.11032471684E+04  0.11032471730E+04  0.10100000352E+00 0.  1.
    10030    2    1    2    0    0  0.00000000000E+00  0.00000000000E+00 -0.28329440211E+03  0.19231999455E+04  0.19022203637E+04 0.  0.
        2    1    3    3  502    0 -0.25222559992E+03 -0.39516563332E+03 -0.97832299151E+03  0.10848453838E+04  0.25500000920E-02 0.  1.
       -2    1    3    3    0  502  0.25222559992E+03  0.39516563332E+03  0.69502858940E+03  0.83835456168E+03  0.25500000920E-02 0. -1.
</event>
<event>
 5   0  0.2879462E-05  0.1896849E+04  0.7818609E-02  0.8656427E-01
        2   -1    0    0  501    0  0.00000000000E+00  0.00000000000E+00  0.15897290740E+04  0.15897290740E+04  0.25500000920E-02 0.  1.
       -2   -1    0    0    0  501  0.00000000000E+00  0.00000000000E+00 -0.56582524362E+03  0.56582524363E+03  0.25500000920E-02 0. -1.
    10030    2    1    2    0    0  0.00000000000E+00  0.00000000000E+00  0.10239038304E+04  0.21555543176E+04  0.18968487980E+04 0.  0.
        4    1    3    3  502    0  0.94470998610E+03  0.10774699666E+02  0.60644422455E+03  0.11226616865E+04  0.12699999809E+01 0. -1.
       -4    1    3    3    0  502 -0.94470998610E+03 -0.10774699666E+02  0.41745960583E+03  0.10328926311E+04  0.12699999809E+01 0.  1.
</event>
<event>
 5   0  0.2888776E-05  0.1900929E+04  0.7818609E-02  0.8654394E-01
        2   -1    0    0  501    0  0.00000000000E+00  0.00000000000E+00  0.78301749461E+03  0.78301749462E+03  0.25500000920E-02 0. -1.
       -2   -1    0    0    0  501  0.00000000000E+00  0.00000000000E+00 -0.11537200864E+04  0.11537200864E+04  0.25500000920E-02 0.  1.
    10030    2    1    2    0    0  0.00000000000E+00  0.00000000000E+00 -0.37070259182E+03  0.19367375811E+04  0.19009292586E+04 0.  0.
        3    1    3    3  502    0  0.14341940794E+03  0.67607916357E+03  0.47942018557E+03  0.84112774685E+03  0.10100000352E+00 0. -1.
       -3    1    3    3    0  502 -0.14341940794E+03 -0.67607916357E+03 -0.85012277739E+03  0.10956098342E+04  0.10100000352E+00 0.  1.
</event>
<event>
 5   0  0.2813537E-05  0.1918095E+04  0.7818609E-02  0.8645901E-01
        2   -1    0    0  501    0  0.00000000000E+00  0.00000000000E+00  0.87960097707E+03  0.87960097707E+03  0.25500000920E-02 0.  1.
       -2   -1    0    0    0  501  0.00000000000E+00  0.00000000000E+00 -0.10456698431E+04  0.10456698431E+04  0.25500000920E-02 0. -1.
    10030    2    1    2    0    0  0.00000000000E+00  0.00000000000E+00 -0.16606886604E+03  0.19252708202E+04  0.19180951131E+04 0.  0.
        2    1    3    3  502    0 -0.72620143397E+03 -0.15899231851E+03 -0.69120969344E+03  0.10150950302E+04  0.25500000920E-02 0. -1.
       -2    1    3    3    0  502  0.72620143397E+03  0.15899231851E+03  0.52514082740E+03  0.91017578997E+03  0.25500000920E-02 0.  1.
</event>
<event>
 5   0  0.2855141E-05  0.1894136E+04  0.7818609E-02  0.8657781E-01
       -2   -1    0    0    0  501  0.00000000000E+00  0.00000000000E+00  0.42372169178E+03  0.42372169179E+03  0.25500000920E-02 0.  1.
        2   -1    0    0  501    0  0.00000000000E+00  0.00000000000E+00 -0.21168081627E+04  0.21168081627E+04  0.25500000920E-02 0. -1.
    10030    2    1    2    0    0  0.00000000000E+00  0.00000000000E+00 -0.16930864709E+04  0.25405298545E+04  0.18941357247E+04 0.  0.
        1    1    3    3  502    0  0.17865783590E+03 -0.88456602241E+03 -0.46115100381E+03  0.10134278063E+04  0.50400001928E-02 0. -1.
       -1    1    3    3    0  502 -0.17865783590E+03  0.88456602241E+03 -0.12319354671E+04  0.15271020482E+04  0.50400001928E-02 0.  1.
</event>
<event>
 5   0  0.2789718E-05  0.1892806E+04  0.7818609E-02  0.8658445E-01
        2   -1    0    0  501    0  0.00000000000E+00  0.00000000000E+00  0.80536710365E+03  0.80536710365E+03  0.25500000920E-02 0. -1.
       -2   -1    0    0    0  501  0.00000000000E+00  0.00000000000E+00 -0.11121373758E+04  0.11121373758E+04  0.25500000920E-02 0.  1.
    10030    2    1    2    0    0  0.00000000000E+00  0.00000000000E+00 -0.30677027217E+03  0.19175044795E+04  0.18928062312E+04 0.  0.
        5    1    3    3  502    0 -0.41692899741E+03  0.87033662095E+02  0.70277696461E+03  0.82177989706E+03  0.46999998093E+01 0. -1.
       -5    1    3    3    0  502  0.41692899741E+03 -0.87033662095E+02 -0.10095472368E+04  0.10957245824E+04  0.46999998093E+01 0.  1.
</event>
<event>
 5   0  0.2888776E-05  0.1905285E+04  0.7818609E-02  0.8652230E-01
        2   -1    0    0  501    0  0.00000000000E+00  0.00000000000E+00  0.14281460763E+04  0.14281460763E+04  0.25500000920E-02 0.  1.
       -2   -1    0    0    0  501  0.00000000000E+00  0.00000000000E+00 -0.63545861339E+03  0.63545861340E+03  0.25500000920E-02 0. -1.
    10030    2    1    2    0    0  0.00000000000E+00  0.00000000000E+00  0.79268746286E+03  0.20636046897E+04  0.19052849922E+04 0.  0.
        3    1    3    3  502    0 -0.50569649278E+03 -0.66576703080E+03  0.89096730945E+03  0.12218008998E+04  0.10100000352E+00 0.  1.
       -3    1    3    3    0  502  0.50569649278E+03  0.66576703080E+03 -0.98279846589E+02  0.84180378983E+03  0.10100000352E+00 0. -1.
</event>
<event>
 5   0  0.1429067E-05  0.1901301E+04  0.7818609E-02  0.8654209E-01
       -1   -1    0    0    0  501  0.00000000000E+00  0.00000000000E+00  0.86663421204E+03  0.86663421206E+03  0.50400001928E-02 0. -1.
        1   -1    0    0  501    0  0.00000000000E+00  0.00000000000E+00 -0.10428122401E+04  0.10428122401E+04  0.50400001928E-02 0.  1.
    10030    2    1    2    0    0  0.00000000000E+00  0.00000000000E+00 -0.17617802804E+03  0.19094464522E+04  0.19013014112E+04 0.  0.
        3    1    3    3  502    0 -0.44785089042E+02  0.85157642161E+03  0.33388791863E+03  0.91578887220E+03  0.10100000352E+00 0. -1.
       -3    1    3    3    0  502  0.44785089042E+02 -0.85157642161E+03 -0.51006594667E+03  0.99365757995E+03  0.10100000352E+00 0.  1.
</event>
<event>
 5   0  0.1429067E-05  0.1898737E+04  0.7818609E-02  0.8655485E-01
        1   -1    0    0  501    0  0.00000000000E+00  0.00000000000E+00  0.37970868549E+03  0.37970868553E+03  0.50400001928E-02 0.  1.
       -1   -1    0    0    0  501  0.00000000000E+00  0.00000000000E+00 -0.23736631198E+04  0.23736631198E+04  0.50400001928E-02 0. -1.
    10030    2    1    2    0    0  0.00000000000E+00  0.00000000000E+00 -0.19939544343E+04  0.27533718053E+04  0.18987369518E+04 0.  0.
        3    1    3    3  502    0  0.93118625317E+03  0.32426870839E+02 -0.73298941262E+03  0.11855095231E+04  0.10100000352E+00 0.  1.
       -3    1    3    3    0  502 -0.93118625317E+03 -0.32426870839E+02 -0.12609650217E+04  0.15678622822E+04  0.10100000352E+00 0. -1.
</event>
<event>
 5   0  0.1327254E-05  0.1900021E+04  0.7818609E-02  0.8654846E-01
       -1   -1    0    0    0  501  0.00000000000E+00  0.00000000000E+00  0.63459616952E+03  0.63459616954E+03  0.50400001928E-02 0.  1.
        1   -1    0    0  501    0  0.00000000000E+00  0.00000000000E+00 -0.14221963510E+04  0.14221963510E+04  0.50400001928E-02 0. -1.
    10030    2    1    2    0    0  0.00000000000E+00  0.00000000000E+00 -0.78760018148E+03  0.20567925205E+04  0.19000214280E+04 0.  0.
        5    1    3    3  502    0  0.89048197770E+03 -0.33603971210E+02 -0.37374863835E+02  0.89191162675E+03  0.46999998093E+01 0. -1.
       -5    1    3    3    0  502 -0.89048197770E+03  0.33603971210E+02 -0.75022531764E+03  0.11648808938E+04  0.46999998093E+01 0.  1.
</event>
<event>
 5   0  0.1429067E-05  0.1902106E+04  0.7818609E-02  0.8653809E-01
       -1   -1    0    0    0  501  0.00000000000E+00  0.00000000000E+00  0.74690464285E+03  0.74690464287E+03  0.50400001928E-02 0.  1.
        1   -1    0    0  501    0  0.00000000000E+00  0.00000000000E+00 -0.12110002763E+04  0.12110002763E+04  0.50400001928E-02 0. -1.
    10030    2    1    2    0    0  0.00000000000E+00  0.00000000000E+00 -0.46409563345E+03  0.19579049192E+04  0.19021059160E+04 0.  0.
        3    1    3    3  502    0  0.84797385584E+03  0.60467167947E+02  0.20682315409E+03  0.87492386290E+03  0.10100000352E+00 0.  1.
       -3    1    3    3    0  502 -0.84797385584E+03 -0.60467167947E+02 -0.67091878755E+03  0.10829810563E+04  0.10100000352E+00 0. -1.
</event>
<event>
 5   0  0.2813537E-05  0.1893219E+04  0.7818609E-02  0.8658239E-01
        2   -1    0    0  501    0  0.00000000000E+00  0.00000000000E+00  0.11855966541E+04  0.11855966541E+04  0.25500000920E-02 0.  1.
       -2   -1    0    0    0  501  0.00000000000E+00  0.00000000000E+00 -0.75579620304E+03  0.75579620304E+03  0.25500000920E-02 0. -1.
    10030    2    1    2    0    0  0.00000000000E+00  0.00000000000E+00  0.42980045109E+03  0.19413928572E+04  0.18932188986E+04 0.  0.
        2    1    3    3  502    0 -0.71975630104E+03 -0.36034196679E+03 -0.29594662746E+03  0.85760123147E+03  0.25500000920E-02 0. -1.
       -2    1    3    3    0  502  0.71975630104E+03  0.36034196679E+03  0.72574707856E+03  0.10837916257E+04  0.25500000920E-02 0.  1.
</event>
<event>
 5   0  0.2888776E-05  0.1901075E+04  0.7818609E-02  0.8654321E-01
       -2   -1    0    0    0  501  0.00000000000E+00  0.00000000000E+00  0.73708129555E+03  0.73708129556E+03  0.25500000920E-02 0.  1.
        2   -1    0    0  501    0  0.00000000000E+00  0.00000000000E+00 -0.12258104215E+04  0.12258104215E+04  0.25500000920E-02 0. -1.
    10030    2    1    2    0    0  0.00000000000E+00  0.00000000000E+00 -0.48872912591E+03  0.19628917170E+04  0.19010754152E+04 0.  0.
        3    1    3    3  502    0  0.12017375568E+03  0.33584578988E+03  0.66535676474E+03  0.75493957421E+03  0.10100000352E+00 0.  1.
       -3    1    3    3    0  502 -0.12017375568E+03 -0.33584578988E+03 -0.11540858906E+04  0.12079521428E+04  0.10100000352E+00 0. -1.
</event>
<event>
 5   0  0.1429067E-05  0.1902775E+04  0.7818609E-02  0.8653476E-01
       -1   -1    0    0    0  501  0.00000000000E+00  0.00000000000E+00  0.77298730838E+03  0.77298730840E+03  0.50400001928E-02 0. -1.
        1   -1    0    0  501    0  0.00000000000E+00  0.00000000000E+00 -0.11709616402E+04  0.11709616402E+04  0.50400001928E-02 0.  1.
    10030    2    1    2    0    0  0.00000000000E+00  0.00000000000E+00 -0.39797433178E+03  0.19439489486E+04  0.19027753272E+04 0.  0.
        3    1    3    3  502    0 -0.62069511562E+03 -0.57181773294E+02 -0.93329335851E+03  0.11223050766E+04  0.10100000352E+00 0.  1.
       -3    1    3    3    0  502  0.62069511562E+03  0.57181773294E+02  0.53531902673E+03  0.82164387196E+03  0.10100000352E+00 0. -1.
</event>
<event>
 5   0  0.1344119E-05  0.1900278E+04  0.7818609E-02  0.8654718E-01
       -1   -1    0    0    0  501  0.00000000000E+00  0.00000000000E+00  0.55102885759E+03  0.55102885761E+03  0.50400001928E-02 0. -1.
        1   -1    0    0  501    0  0.00000000000E+00  0.00000000000E+00 -0.16383243734E+04  0.16383243734E+04  0.50400001928E-02 0.  1.
    10030    2    1    2    0    0  0.00000000000E+00  0.00000000000E+00 -0.10872955158E+04  0.21893532310E+04  0.19002778827E+04 0.  0.
        2    1    3    3  502    0 -0.33926524901E+02  0.93693050262E+03 -0.72129234193E+03  0.11829000035E+04  0.25500000920E-02 0. -1.
       -2    1    3    3    0  502  0.33926524901E+02 -0.93693050262E+03 -0.36600317388E+03  0.10064532275E+04  0.25500000920E-02 0.  1.
</event>
<event>
 5   0  0.2813537E-05  0.1890736E+04  0.7818609E-02  0.8659481E-01
       -2   -1    0    0    0  501  0.00000000000E+00  0.00000000000E+00  0.39778032885E+03  0.39778032886E+03  0.25500000920E-02 0.  1.
        2   -1    0    0  501    0  0.00000000000E+00  0.00000000000E+00 -0.22467695957E+04  0.22467695957E+04  0.25500000920E-02 0. -1.
    10030    2    1    2    0    0  0.00000000000E+00  0.00000000000E+00 -0.18489892668E+04  0.26445499246E+04  0.18907360986E+04 0.  0.
        2    1    3    3  502    0 -0.78564839858E+03  0.27390386111E+03 -0.15522765771E+04  0.17612010968E+04  0.25500000920E-02 0. -1.
       -2    1    3    3    0  502  0.78564839858E+03 -0.27390386111E+03 -0.29671268971E+03  0.88334882779E+03  0.25500000920E-02 0.  1.
</event>
<event>
 5   0  0.1471485E-05  0.1899309E+04  0.7818609E-02  0.8655201E-01
        1   -1    0    0  501    0  0.00000000000E+00  0.00000000000E+00  0.11556541232E+04  0.11556541232E+04  0.50400001928E-02 0. -1.
       -1   -1    0    0    0  501  0.00000000000E+00  0.00000000000E+00 -0.78037469621E+03  0.78037469623E+03  0.50400001928E-02 0.  1.
    10030    2    1    2    0    0  0.00000000000E+00  0.00000000000E+00  0.37527942697E+03  0.19360288194E+04  0.18993085429E+04 0.  0.
        4    1    3    3  502    0 -0.47472691801E+03 -0.61979016246E+03  0.73877414391E+03  0.10748461940E+04  0.12699999809E+01 0. -1.
       -4    1    3    3    0  502  0.47472691801E+03  0.61979016246E+03 -0.36349471694E+03  0.86118262541E+03  0.12699999809E+01 0.  1.
</event>
<event>
 5   0  0.2855141E-05  0.1899611E+04  0.7818609E-02  0.8655050E-01
       -2   -1    0    0    0  501  0.00000000000E+00  0.00000000000E+00  0.79476961940E+03  0.79476961940E+03  0.25500000920E-02 0.  1.
        2   -1    0    0  501    0  0.00000000000E+00  0.00000000000E+00 -0.11350839691E+04  0.11350839691E+04  0.25500000920E-02 0. -1.
    10030    2    1    2    0    0  0.00000000000E+00  0.00000000000E+00 -0.34031434973E+03  0.19298535885E+04  0.18996107540E+04 0.  0.
        1    1    3    3  502    0  0.18241457179E+03 -0.63153507734E+03  0.52633665873E+03  0.84210563961E+03  0.50400001928E-02 0.  1.
       -1    1    3    3    0  502 -0.18241457179E+03  0.63153507734E+03 -0.86665100846E+03  0.10877479489E+04  0.50400001928E-02 0. -1.
</event>
<event>
 5   0  0.1471485E-05  0.1923915E+04  0.7818609E-02  0.8643043E-01
        1   -1    0    0  501    0  0.00000000000E+00  0.00000000000E+00  0.16939614109E+04  0.16939614109E+04  0.50400001928E-02 0.  1.
       -1   -1    0    0    0  501  0.00000000000E+00  0.00000000000E+00 -0.54627119983E+03  0.54627119985E+03  0.50400001928E-02 0. -1.
    10030    2    1    2    0    0  0.00000000000E+00  0.00000000000E+00  0.11476902110E+04  0.22402326107E+04  0.19239151046E+04 0.  0.
        4    1    3    3  502    0  0.77011129159E+03  0.14445262208E+03 -0.75958899755E+02  0.78721618937E+03  0.12699999809E+01 0. -1.
       -4    1    3    3    0  502 -0.77011129159E+03 -0.14445262208E+03  0.12236491108E+04  0.14530164213E+04  0.12699999809E+01 0.  1.
</event>
<event>
 5   0  0.1429067E-05  0.1888376E+04  0.7818609E-02  0.8660664E-01
        1   -1    0    0  501    0  0.00000000000E+00  0.00000000000E+00  0.82128077140E+03  0.82128077142E+03  0.50400001928E-02 0. -1.
       -1   -1    0    0    0  501  0.00000000000E+00  0.00000000000E+00 -0.10854892168E+04  0.10854892168E+04  0.50400001928E-02 0.  1.
    10030    2    1    2    0    0  0.00000000000E+00  0.00000000000E+00 -0.26420844538E+03  0.19067699882E+04  0.18883764681E+04 0.  0.
        3    1    3    3  502    0 -0.86832484504E+03 -0.61694883105E+02  0.23710347523E+03  0.90222633706E+03  0.10100000352E+00 0.  1.
       -3    1    3    3    0  502  0.86832484504E+03  0.61694883105E+02 -0.50131192061E+03  0.10045436512E+04  0.10100000352E+00 0. -1.
</event>
<event>
 5   0  0.1344119E-05  0.1894747E+04  0.7818609E-02  0.8657475E-01
        1   -1    0    0  501    0  0.00000000000E+00  0.00000000000E+00  0.16796678938E+04  0.16796678938E+04  0.50400001928E-02 0.  1.
       -1   -1    0    0    0  501  0.00000000000E+00  0.00000000000E+00 -0.53434181092E+03  0.53434181095E+03  0.50400001928E-02 0. -1.
    10030    2    1    2    0    0  0.00000000000E+00  0.00000000000E+00  0.11453260829E+04  0.22140097048E+04  0.18947472488E+04 0.  0.
        2    1    3    3  502    0  0.38306677970E+03 -0.37238355820E+03 -0.34153849715E+03  0.63408060778E+03  0.25500000920E-02 0. -1.
       -2    1    3    3    0  502 -0.38306677970E+03  0.37238355820E+03  0.14868645800E+04  0.15799290970E+04  0.25500000920E-02 0.  1.
</event>
<event>
 5   0  0.2855141E-05  0.1900949E+04  0.7818609E-02  0.8654384E-01
       -2   -1    0    0    0  501  0.00000000000E+00  0.00000000000E+00  0.76811203468E+03  0.76811203469E+03  0.25500000920E-02 0. -1.
        2   -1    0    0  501    0  0.00000000000E+00  0.00000000000E+00 -0.11761329412E+04  0.11761329412E+04  0.25500000920E-02 0.  1.
    10030    2    1    2    0    0  0.00000000000E+00  0.00000000000E+00 -0.40802090652E+03  0.19442449759E+04  0.19009490961E+04 0.  0.
        1    1    3    3  502    0 -0.36457760715E+03  0.58546237287E+03 -0.87290813465E+03  0.11124979251E+04  0.50400001928E-02 0.  1.
       -1    1    3    3    0  502  0.36457760715E+03 -0.58546237287E+03  0.46488722813E+03  0.83174705084E+03  0.50400001928E-02 0. -1.
</event>
<event>
 5   0  0.2789718E-05  0.1956801E+04  0.7818609E-02  0.8627088E-01
        2   -1    0    0  501    0  0.00000000000E+00  0.00000000000E+00  0.30432415331E+04  0.30432415331E+04  0.25500000920E-02 0. -1.
       -2   -1    0    0    0  501  0.00000000000E+00  0.00000000000E+00 -0.31455529030E+03  0.31455529031E+03  0.25500000920E-02 0.  1.
    10030    2    1    2    0    0  0.00000000000E+00  0.00000000000E+00  0.27286862428E+04  0.33577968234E+04  0.19568011896E+04 0.  0.
        5    1    3    3  502    0 -0.15515177375E+03 -0.42486472913E+03  0.28530463995E+04  0.28886810067E+04  0.46999998093E+01 0. -1.
       -5    1    3    3    0  502  0.15515177375E+03  0.42486472913E+03 -0.12436015664E+03  0.46911581674E+03  0.46999998093E+01 0.  1.
</event>
<event>
 5   0  0.1327254E-05  0.1936657E+04  0.7818609E-02  0.8636822E-01
       -1   -1    0    0    0  501  0.00000000000E+00  0.00000000000E+00  0.10687126998E+04  0.10687126998E+04  0.50400001928E-02 0.  1.
        1   -1    0    0  501    0  0.00000000000E+00  0.00000000000E+00 -0.87737365229E+03  0.87737365230E+03  0.50400001928E-02 0. -1.
    10030    2    1    2    0    0  0.00000000000E+00  0.00000000000E+00  0.19133904747E+03  0.19460863521E+04  0.19366572899E+04 0.  0.
        5    1    3    3  502    0  0.77446531891E+03 -0.55520253887E+03  0.26852997784E+03  0.99003880144E+03  0.46999998093E+01 0.  1.
       -5    1    3    3    0  502 -0.77446531891E+03  0.55520253887E+03 -0.77190930368E+02  0.95604755064E+03  0.46999998093E+01 0. -1.
</event>
<event>
 5   0  0.2879462E-05  0.1901461E+04  0.7818609E-02  0.8654130E-01
       -2   -1    0    0    0  501  0.00000000000E+00  0.00000000000E+00  0.36373637619E+03  0.36373637620E+03  0.25500000920E-02 0.  1.
        2   -1    0    0  501    0  0.00000000000E+00  0.00000000000E+00 -0.24850090126E+04  0.24850090126E+04  0.25500000920E-02 0. -1.
    10030    2    1    2    0    0  0.00000000000E+00  0.00000000000E+00 -0.21212726364E+04  0.28487453888E+04  0.19014606733E+04 0.  0.
        4    1    3    3  502    0 -0.59094951341E+03 -0.17573806926E+03  0.23643336103E+02  0.61698121254E+03  0.12699999809E+01 0.  1.
       -4    1    3    3    0  502  0.59094951341E+03  0.17573806926E+03 -0.21449159725E+04  0.22317641763E+04  0.12699999809E+01 0. -1.
</event>
<event>
 5   0  0.1413011E-05  0.1900185E+04  0.7818609E-02  0.8654764E-01
        1   -1    0    0  501    0  0.00000000000E+00  0.00000000000E+00  0.87121371020E+03  0.87121371021E+03  0.50400001928E-02 0.  1.
       -1   -1    0    0    0  501  0.00000000000E+00  0.00000000000E+00 -0.10361128479E+04  0.10361128479E+04  0.50400001928E-02 0. -1.
    10030    2    1    2    0    0  0.00000000000E+00  0.00000000000E+00 -0.16489913770E+03  0.19073265581E+04  0.19001849578E+04 0.  0.
        1    1    3    3  502    0 -0.42404727588E+03  0.25807852928E+03  0.73069080604E+03  0.88336270779E+03  0.50400001928E-02 0.  1.
       -1    1    3    3    0  502  0.42404727588E+03 -0.25807852928E+03 -0.89558994374E+03  0.10239638503E+04  0.50400001928E-02 0. -1.
</event>
<event>
 5   0  0.1327254E-05  0.1900679E+04  0.7818609E-02  0.8654519E-01
        1   -1    0    0  501    0  0.00000000000E+00  0.00000000000E+00  0.10047944362E+04  0.10047944362E+04  0.50400001928E-02 0. -1.
       -1   -1    0    0    0  501  0.00000000000E+00  0.00000000000E+00 -0.89883555179E+03  0.89883555181E+03  0.50400001928E-02 0.  1.
    10030    2    1    2    0    0  0.00000000000E+00  0.00000000000E+00  0.10595888436E+03  0.19036299880E+04  0.19006787856E+04 0.  0.
        5    1    3    3  502    0  0.15500506805E+03 -0.93554865404E+03 -0.91250338221E+01  0.94835816623E+03  0.46999998093E+01 0.  1.
       -5    1    3    3    0  502 -0.15500506805E+03  0.93554865404E+03  0.11508391818E+03  0.95527182175E+03  0.46999998093E+01 0. -1.
</event>
<event>
 5   0  0.1344119E-05  0.1896583E+04  0.7818609E-02  0.8656559E-01
        1   -1    0    0  501    0  0.00000000000E+00  0.00000000000E+00  0.20927463307E+04  0.20927463307E+04  0.50400001928E-02 0. -1.
       -1   -1    0    0    0  501  0.00000000000E+00  0.00000000000E+00 -0.42970186277E+03  0.42970186280E+03  0.50400001928E-02 0.  1.
    10030    2    1    2    0    0  0.00000000000E+00  0.00000000000E+00  0.16630444679E+04  0.25224481935E+04  0.18965832401E+04 0.  0.
        2    1    3    3  502    0 -0.24652831577E+03  0.44526312840E+03 -0.23265872832E+03  0.55961196186E+03  0.25500000920E-02 0.  1.
       -2    1    3    3    0  502  0.24652831577E+03 -0.44526312840E+03  0.18957031963E+04  0.19628362317E+04  0.25500000920E-02 0. -1.
</event>
<event>
 5   0  0.1344119E-05  0.1916699E+04  0.7818609E-02  0.8646589E-01
        1   -1    0    0  501    0  0.00000000000E+00  0.00000000000E+00  0.15973923531E+04  0.15973923531E+04  0.50400001928E-02 0. -1.
       -1   -1    0    0    0  501  0.00000000000E+00  0.00000000000E+00 -0.57495803895E+03  0.57495803897E+03  0.50400001928E-02 0.  1.
    10030    2    1    2    0    0  0.00000000000E+00  0.00000000000E+00  0.10224343141E+04  0.21723503920E+04  0.19166988024E+04 0.  0.
        2    1    3    3  502    0  0.58901009551E+03  0.74751688611E+02  0.13638278784E+04  0.14874633405E+04  0.25500000920E-02 0. -1.
       -2    1    3    3    0  502 -0.58901009551E+03 -0.74751688611E+02 -0.34139356429E+03  0.68488705150E+03  0.25500000920E-02 0.  1.
</event>
<event>
 5   0  0.1010725E-05  0.1895723E+04  0.7818609E-02  0.8656988E-01
        3   -1    0    0  501    0  0.00000000000E+00  0.00000000000E+00  0.62538793499E+03  0.62538794314E+03  0.10100000352E+00 0. -1.
       -3   -1    0    0    0  501  0.00000000000E+00  0.00000000000E+00 -0.14366148054E+04  0.14366148089E+04  0.10100000352E+00 0.  1.
    10030    2    1    2    0    0  0.00000000000E+00  0.00000000000E+00 -0.81122687041E+03  0.20620027521E+04  0.18957231640E+04 0.  0.
        2    1    3    3  502    0  0.83497512666E+03 -0.13094545408E+03 -0.87233156265E+03  0.12146162066E+04  0.25500000920E-02 0.  1.
       -2    1    3    3    0  502 -0.83497512666E+03  0.13094545408E+03  0.61104692239E+02  0.84738654551E+03  0.25500000920E-02 0. -1.
</event>
<event>
 5   0  0.1327254E-05  0.1899513E+04  0.7818609E-02  0.8655099E-01
       -1   -1    0    0    0  501  0.00000000000E+00  0.00000000000E+00  0.51190913300E+03  0.51190913303E+03  0.50400001928E-02 0. -1.
        1   -1    0    0  501    0  0.00000000000E+00  0.00000000000E+00 -0.17621042383E+04  0.17621042383E+04  0.50400001928E-02 0.  1.
    10030    2    1    2    0    0  0.00000000000E+00  0.00000000000E+00 -0.12501951052E+04  0.22740133713E+04  0.18995128353E+04 0.  0.
        5    1    3    3  502    0  0.59245456802E+03 -0.50592171837E+03 -0.12753814190E+04  0.14945163279E+04  0.46999998093E+01 0.  1.
       -5    1    3    3    0  502 -0.59245456802E+03  0.50592171837E+03  0.25186313779E+02  0.77949704341E+03  0.46999998093E+01 0. -1.
</event>
<event>
 5   0  0.1344119E-05  0.1899620E+04  0.7818609E-02  0.8655046E-01
       -1   -1    0    0    0  501  0.00000000000E+00  0.00000000000E+00  0.56537950930E+03  0.56537950932E+03  0.50400001928E-02 0.  1.
        1   -1    0    0  501    0  0.00000000000E+00  0.00000000000E+00 -0.15956339262E+04  0.15956339262E+04  0.50400001928E-02 0. -1.
    10030    2    1    2    0    0  0.00000000000E+00  0.00000000000E+00 -0.10302544169E+04  0.21610134355E+04  0.18996196738E+04 0.  0.
        2    1    3    3  502    0 -0.59124894723E+03  0.42366828737E+03 -0.12099677525E+04  0.14117691374E+04  0.25500000920E-02 0. -1.
       -2    1    3    3    0  502  0.59124894723E+03 -0.42366828737E+03  0.17971333554E+03  0.74924429814E+03  0.25500000920E-02 0.  1.
</event>
<event>
 5   0  0.1344119E-05  0.1899016E+04  0.7818609E-02  0.8655346E-01
       -1   -1    0    0    0  501  0.00000000000E+00  0.00000000000E+00  0.73582009514E+03  0.73582009515E+03  0.50400001928E-02 0. -1.
        1   -1    0    0  501    0  0.00000000000E+00  0.00000000000E+00 -0.12252530968E+04  0.12252530968E+04  0.50400001928E-02 0.  1.
    10030    2    1    2    0    0  0.00000000000E+00  0.00000000000E+00 -0.48943300170E+03  0.19610731920E+04  0.18990164300E+04 0.  0.
        2    1    3    3  502    0  0.58037675073E+03 -0.61032622968E+03  0.20805210761E+03  0.86753729540E+03  0.25500000920E-02 0. -1.
       -2    1    3    3    0  502 -0.58037675073E+03  0.61032622968E+03 -0.69748510931E+03  0.10935358966E+04  0.25500000920E-02 0.  1.
</event>
<event>
 5   0  0.1344119E-05  0.1902437E+04  0.7818609E-02  0.8653644E-01
        1   -1    0    0  501    0  0.00000000000E+00  0.00000000000E+00  0.61762542351E+03  0.61762542353E+03  0.50400001928E-02 0. -1.
       -1   -1    0    0    0  501  0.00000000000E+00  0.00000000000E+00 -0.14649925785E+04  0.14649925786E+04  0.50400001928E-02 0.  1.
    10030    2    1    2    0    0  0.00000000000E+00  0.00000000000E+00 -0.84736715504E+03  0.20826180021E+04  0.19024370284E+04 0.  0.
        2    1    3    3  502    0  0.32957119707E+03  0.66855803018E+03  0.22324283233E+03  0.77809021061E+03  0.25500000920E-02 0. -1.
       -2    1    3    3    0  502 -0.32957119707E+03 -0.66855803018E+03 -0.10706099874E+04  0.13045277915E+04  0.25500000920E-02 0.  1.
</event>
<event>
 5   0  0.2855141E-05  0.1901076E+04  0.7818609E-02  0.8654321E-01
        2   -1    0    0  501    0  0.00000000000E+00  0.00000000000E+00  0.19826619040E+04  0.19826619040E+04  0.25500000920E-02 0. -1.
       -2   -1    0    0    0  501  0.00000000000E+00  0.00000000000E+00 -0.45571190834E+03  0.45571190835E+03  0.25500000920E-02 0.  1.
    10030    2    1    2    0    0  0.00000000000E+00  0.00000000000E+00  0.15269499956E+04  0.24383738123E+04  0.19010761582E+04 0.  0.
        1    1    3    3  502    0  0.44202334470E+03 -0.80501473354E+03  0.10778871151E+04  0.14160769723E+04  0.50400001928E-02 0. -1.
       -1    1    3    3    0  502 -0.44202334470E+03  0.80501473354E+03  0.44906288054E+03  0.10222968401E+04  0.50400001928E-02 0.  1.
</event>
<event>
 5   0  0.1327254E-05  0.1892208E+04  0.7818609E-02  0.8658745E-01
        1   -1    0    0  501    0  0.00000000000E+00  0.00000000000E+00  0.29020551557E+04  0.29020551557E+04  0.50400001928E-02 0.  1.
       -1   -1    0    0    0  501  0.00000000000E+00  0.00000000000E+00 -0.30844086981E+03  0.30844086985E+03  0.50400001928E-02 0. -1.
    10030    2    1    2    0    0  0.00000000000E+00  0.00000000000E+00  0.25936142859E+04  0.32104960256E+04  0.18922076171E+04 0.  0.
        5    1    3    3  502    0 -0.44214295080E+03  0.27439712198E+03 -0.43801945332E+02  0.52223066734E+03  0.46999998093E+01 0. -1.
       -5    1    3    3    0  502  0.44214295080E+03 -0.27439712198E+03  0.26374162312E+04  0.26882653582E+04  0.46999998093E+01 0.  1.
</event>
<event>
 5   0  0.1344119E-05  0.1901116E+04  0.7818609E-02  0.8654301E-01
       -1   -1    0    0    0  501  0.00000000000E+00  0.00000000000E+00  0.52199467946E+03  0.52199467948E+03  0.50400001928E-02 0.  1.
        1   -1    0    0  501    0  0.00000000000E+00  0.00000000000E+00 -0.17309770019E+04  0.17309770019E+04  0.50400001928E-02 0. -1.
    10030    2    1    2    0    0  0.00000000000E+00  0.00000000000E+00 -0.12089823224E+04  0.22529716814E+04  0.19011162882E+04 0.  0.
        2    1    3    3  502    0 -0.41413685321E+03 -0.68574247068E+03 -0.12108631075E+04  0.14518751787E+04  0.25500000920E-02 0. -1.
       -2    1    3    3    0  502  0.41413685321E+03  0.68574247068E+03  0.18807851024E+01  0.80109650270E+03  0.25500000920E-02 0.  1.
</event>
<event>
 5   0  0.1413011E-05  0.1902653E+04  0.7818609E-02  0.8653537E-01
        1   -1    0    0  501    0  0.00000000000E+00  0.00000000000E+00  0.76568866849E+03  0.76568866851E+03  0.50400001928E-02 0.  1.
       -1   -1    0    0    0  501  0.00000000000E+00  0.00000000000E+00 -0.11819709292E+04  0.11819709292E+04  0.50400001928E-02 0. -1.
    10030    2    1    2    0    0  0.00000000000E+00  0.00000000000E+00 -0.41628226067E+03  0.19476595977E+04  0.19026526188E+04 0.  0.
        1    1    3    3  502    0 -0.32679691014E+03  0.12067284108E+03 -0.11143292983E+04  0.11675135717E+04  0.50400001928E-02 0. -1.
       -1    1    3    3    0  502  0.32679691014E+03 -0.12067284108E+03  0.69804703764E+03  0.78014602596E+03  0.50400001928E-02 0.  1.
</event>
<event>
 5   0  0.2789718E-05  0.1900348E+04  0.7818609E-02  0.8654683E-01
        2   -1    0    0  501    0  0.00000000000E+00  0.00000000000E+00  0.22479879151E+04  0.22479879151E+04  0.25500000920E-02 0.  1.
       -2   -1    0    0    0  501  0.00000000000E+00  0.00000000000E+00 -0.40161715050E+03  0.40161715051E+03  0.25500000920E-02 0. -1.
    10030    2    1    2    0    0  0.00000000000E+00  0.00000000000E+00  0.18463707646E+04  0.26496050656E+04  0.19003478638E+04 0.  0.
        5    1    3    3  502    0  0.79063830657E+03 -0.36430524530E+03  0.39229625084E+03  0.95485374900E+03  0.46999998093E+01 0.  1.
       -5    1    3    3    0  502 -0.79063830657E+03  0.36430524530E+03  0.14540745138E+04  0.16947513166E+04  0.46999998093E+01 0. -1.
</event>
<event>
 5   0  0.2789718E-05  0.1898855E+04  0.7818609E-02  0.8655426E-01
       -2   -1    0    0    0  501  0.00000000000E+00  0.00000000000E+00  0.35721398401E+03  0.35721398402E+03  0.25500000920E-02 0.  1.
        2   -1    0    0  501    0  0.00000000000E+00  0.00000000000E+00 -0.25234534572E+04  0.25234534572E+04  0.25500000920E-02 0. -1.
    10030    2    1    2    0    0  0.00000000000E+00  0.00000000000E+00 -0.21662394732E+04  0.28806674412E+04  0.18988553004E+04 0.  0.
        5    1    3    3  502    0  0.23662175610E+01  0.80052428340E+03 -0.30875869395E+03  0.85802024941E+03  0.46999998093E+01 0.  1.
       -5    1    3    3    0  502 -0.23662175610E+01 -0.80052428340E+03 -0.18574807793E+04  0.20226471918E+04  0.46999998093E+01 0. -1.
</event>
<event>
 5   0  0.2879462E-05  0.1899751E+04  0.7818609E-02  0.8654981E-01
        2   -1    0    0  501    0  0.00000000000E+00  0.00000000000E+00  0.16355046554E+04  0.16355046554E+04  0.25500000920E-02 0. -1.
       -2   -1    0    0    0  501  0.00000000000E+00  0.00000000000E+00 -0.55167258738E+03  0.55167258739E+03  0.25500000920E-02 0.  1.
    10030    2    1    2    0    0  0.00000000000E+00  0.00000000000E+00  0.10838320680E+04  0.21871772428E+04  0.18997505994E+04 0.  0.
        4    1    3    3  502    0  0.55319629602E+03  0.72854302993E+03  0.24735407368E+03  0.94762162231E+03  0.12699999809E+01 0.  1.
       -4    1    3    3    0  502 -0.55319629602E+03 -0.72854302993E+03  0.83647799436E+03  0.12395556205E+04  0.12699999809E+01 0. -1.
</event>
<event>
 5   0  0.1327254E-05  0.1894737E+04  0.7818609E-02  0.8657481E-01
        1   -1    0    0  501    0  0.00000000000E+00  0.00000000000E+00  0.88744504233E+03  0.88744504234E+03  0.50400001928E-02 0. -1.
       -1   -1    0    0    0  501  0.00000000000E+00  0.00000000000E+00 -0.10113377718E+04  0.10113377718E+04  0.50400001928E-02 0.  1.
    10030    2    1    2    0    0  0.00000000000E+00  0.00000000000E+00 -0.12389272947E+03  0.18987828142E+04  0.18947365957E+04 0.  0.
        5    1    3    3  502    0 -0.26139825232E+03  0.16366934059E+03  0.83571642383E+03  0.89082025708E+03  0.46999998093E+01 0. -1.
       -5    1    3    3    0  502  0.26139825232E+03 -0.16366934059E+03 -0.95960915331E+03  0.10079625571E+04  0.46999998093E+01 0.  1.
</event>
<event>
 5   0  0.2813537E-05  0.1899233E+04  0.7818609E-02  0.8655238E-01
       -2   -1    0    0    0  501  0.00000000000E+00  0.00000000000E+00  0.12658578576E+04  0.12658578576E+04  0.25500000920E-02 0.  1.
        2   -1    0    0  501    0  0.00000000000E+00  0.00000000000E+00 -0.71237970464E+03  0.71237970464E+03  0.25500000920E-02 0. -1.
    10030    2    1    2    0    0  0.00000000000E+00  0.00000000000E+00  0.55347815297E+03  0.19782375622E+04  0.18992329470E+04 0.  0.
        2    1    3    3  502    0  0.15354423693E+02  0.31451075778E+03 -0.65641818000E+03  0.72803681372E+03  0.25500000920E-02 0. -1.
       -2    1    3    3    0  502 -0.15354423693E+02 -0.31451075778E+03  0.12098963330E+04  0.12502007485E+04  0.25500000920E-02 0.  1.
</event>
<event>
 5   0  0.1344119E-05  0.1895878E+04  0.7818609E-02  0.8656911E-01
        1   -1    0    0  501    0  0.00000000000E+00  0.00000000000E+00  0.18801156901E+04  0.18801156901E+04  0.50400001928E-02 0. -1.
       -1   -1    0    0    0  501  0.00000000000E+00  0.00000000000E+00 -0.47794335952E+03  0.47794335955E+03  0.50400001928E-02 0.  1.
    10030    2    1    2    0    0  0.00000000000E+00  0.00000000000E+00  0.14021723306E+04  0.23580590496E+04  0.18958784869E+04 0.  0.
        2    1    3    3  502    0 -0.22797476493E+03 -0.80179486706E+03  0.12625007900E+04  0.15128634264E+04  0.25500000920E-02 0. -1.
       -2    1    3    3    0  502  0.22797476493E+03  0.80179486706E+03  0.13967154059E+03  0.84519562324E+03  0.25500000920E-02 0.  1.
</event>
<event>
 5   0  0.2813537E-05  0.1899318E+04  0.7818609E-02  0.8655196E-01
       -2   -1    0    0    0  501  0.00000000000E+00  0.00000000000E+00  0.91573326064E+03  0.91573326064E+03  0.25500000920E-02 0.  1.
        2   -1    0    0  501    0  0.00000000000E+00  0.00000000000E+00 -0.98484194723E+03  0.98484194723E+03  0.25500000920E-02 0. -1.
    10030    2    1    2    0    0  0.00000000000E+00  0.00000000000E+00 -0.69108686587E+02  0.19005752079E+04  0.18993183278E+04 0.  0.
        2    1    3    3  502    0  0.47808710069E+03 -0.37052981709E+03  0.69804550053E+03  0.92364881964E+03  0.25500000920E-02 0.  1.
       -2    1    3    3    0  502 -0.47808710069E+03  0.37052981709E+03 -0.76715418712E+03  0.97692638823E+03  0.25500000920E-02 0. -1.
</event>
<event>
 5   0  0.1327254E-05  0.1900639E+04  0.7818609E-02  0.8654538E-01
        1   -1    0    0  501    0  0.00000000000E+00  0.00000000000E+00  0.16562961923E+04  0.16562961923E+04  0.50400001928E-02 0.  1.
       -1   -1    0    0    0  501  0.00000000000E+00  0.00000000000E+00 -0.54525695203E+03  0.54525695205E+03  0.50400001928E-02 0. -1.
    10030    2    1    2    0    0  0.00000000000E+00  0.00000000000E+00  0.11110392403E+04  0.22015531444E+04  0.19006388542E+04 0.  0.
        5    1    3    3  502    0 -0.50992013046E+03 -0.18789812113E+03  0.14585365032E+04  0.15564944795E+04  0.46999998093E+01 0. -1.
       -5    1    3    3    0  502  0.50992013046E+03  0.18789812113E+03 -0.34749726297E+03  0.64505866488E+03  0.46999998093E+01 0.  1.
</event>
<event>
 5   0  0.2879462E-05  0.1900163E+04  0.7818609E-02  0.8654775E-01
        2   -1    0    0  501    0  0.00000000000E+00  0.00000000000E+00  0.87981065236E+03  0.87981065236E+03  0.25500000920E-02 0. -1.
       -2   -1    0    0    0  501  0.00000000000E+00  0.00000000000E+00 -0.10259644163E+04  0.10259644163E+04  0.25500000920E-02 0.  1.
    10030    2    1    2    0    0  0.00000000000E+00  0.00000000000E+00 -0.14615376393E+03  0.19057750687E+04  0.19001625429E+04 0.  0.
        4    1    3    3  502    0  0.35757708191E+03 -0.33922415828E+03  0.74155272555E+03  0.89041364362E+03  0.12699999809E+01 0. -1.
       -4    1    3    3    0  502 -0.35757708191E+03  0.33922415828E+03 -0.88770648949E+03  0.10153614250E+04  0.12699999809E+01 0.  1.
</event>
<event>
 5   0  0.1413011E-05  0.1899887E+04  0.7818609E-02  0.8654913E-01
       -1   -1    0    0    0  501  0.00000000000E+00  0.00000000000E+00  0.33740179544E+03  0.33740179547E+03  0.50400001928E-02 0.  1.
        1   -1    0    0  501    0  0.00000000000E+00  0.00000000000E+00 -0.26745335657E+04  0.26745335657E+04  0.50400001928E-02 0. -1.
    10030    2    1    2    0    0  0.00000000000E+00  0.00000000000E+00 -0.23371317703E+04  0.30119353612E+04  0.18998867620E+04 0.  0.
        1    1    3    3  502    0 -0.60505550942E+03  0.60841374259E+03 -0.18147344884E+04  0.20073666120E+04  0.50400001928E-02 0. -1.
       -1    1    3    3    0  502  0.60505550942E+03 -0.60841374259E+03 -0.52239728188E+03  0.10045687492E+04  0.50400001928E-02 0.  1.
</event>
<event>
 5   0  0.1327254E-05  0.1900849E+04  0.7818609E-02  0.8654434E-01
       -1   -1    0    0    0  501  0.00000000000E+00  0.00000000000E+00  0.99307450291E+03  0.99307450292E+03  0.50400001928E-02 0. -1.
        1   -1    0    0  501    0  0.00000000000E+00  0.00000000000E+00 -0.90960668068E+03  0.90960668070E+03  0.50400001928E-02 0.  1.
    10030    2    1    2    0    0  0.00000000000E+00  0.00000000000E+00  0.83467822229E+02  0.19026811836E+04  0.19008494967E+04 0.  0.
        5    1    3    3  502    0  0.38651239090E+02 -0.93987581811E+03 -0.94134282955E+02  0.94538025417E+03  0.46999998093E+01 0. -1.
       -5    1    3    3    0  502 -0.38651239090E+02  0.93987581811E+03  0.17760210518E+03  0.95730092945E+03  0.46999998093E+01 0.  1.
</event>
<event>
 5   0  0.1413011E-05  0.1896683E+04  0.7818609E-02  0.8656509E-01
        1   -1    0    0  501    0  0.00000000000E+00  0.00000000000E+00  0.13770897779E+04  0.13770897780E+04  0.50400001928E-02 0.  1.
       -1   -1    0    0    0  501  0.00000000000E+00  0.00000000000E+00 -0.65308098903E+03  0.65308098905E+03  0.50400001928E-02 0. -1.
    10030    2    1    2    0    0  0.00000000000E+00  0.00000000000E+00  0.72400878892E+03  0.20301707670E+04  0.18966825293E+04 0.  0.
        1    1    3    3  502    0  0.41250872446E+03 -0.31189027924E+03 -0.48887162213E+03  0.71164208489E+03  0.50400001928E-02 0. -1.
       -1    1    3    3    0  502 -0.41250872446E+03  0.31189027924E+03  0.12128804110E+04  0.13185286821E+04  0.50400001928E-02 0.  1.
</event>
<event>
 5   0  0.2813537E-05  0.1904277E+04  0.7818609E-02  0.8652730E-01
        2   -1    0    0  501    0  0.00000000000E+00  0.00000000000E+00  0.10223534113E+04  0.10223534113E+04  0.25500000920E-02 0.  1.
       -2   -1    0    0    0  501  0.00000000000E+00  0.00000000000E+00 -0.88674576680E+03  0.88674576680E+03  0.25500000920E-02 0. -1.
    10030    2    1    2    0    0  0.00000000000E+00  0.00000000000E+00  0.13560764449E+03  0.19090991781E+04  0.19042768282E+04 0.  0.
        2    1    3    3  502    0  0.57923498743E+03 -0.11906240854E+03  0.81593653615E+03  0.10076911525E+04  0.25500000920E-02 0.  1.
       -2    1    3    3    0  502 -0.57923498743E+03  0.11906240854E+03 -0.68032889165E+03  0.90140802560E+03  0.25500000920E-02 0. -1.
</event>
<event>
 5   0  0.2888776E-05  0.1908208E+04  0.7818609E-02  0.8650781E-01
       -2   -1    0    0    0  501  0.00000000000E+00  0.00000000000E+00  0.50584326995E+03  0.50584326996E+03  0.25500000920E-02 0. -1.
        2   -1    0    0  501    0  0.00000000000E+00  0.00000000000E+00 -0.17995982816E+04  0.17995982816E+04  0.25500000920E-02 0.  1.
    10030    2    1    2    0    0  0.00000000000E+00  0.00000000000E+00 -0.12937550116E+04  0.23054415515E+04  0.19082082479E+04 0.  0.
        3    1    3    3  502    0 -0.64397138734E+03  0.29385981277E+03 -0.14197876772E+04  0.15864582553E+04  0.10100000352E+00 0.  1.
       -3    1    3    3    0  502  0.64397138734E+03 -0.29385981277E+03  0.12603266557E+03  0.71898329624E+03  0.10100000352E+00 0. -1.
</event>
<event>
 5   0  0.1327254E-05  0.1898383E+04  0.7818609E-02  0.8655661E-01
        1   -1    0    0  501    0  0.00000000000E+00  0.00000000000E+00  0.19859131492E+04  0.19859131492E+04  0.50400001928E-02 0.  1.
       -1   -1    0    0    0  501  0.00000000000E+00  0.00000000000E+00 -0.45367792441E+03  0.45367792444E+03  0.50400001928E-02 0. -1.
    10030    2    1    2    0    0  0.00000000000E+00  0.00000000000E+00  0.15322352248E+04  0.24395910737E+04  0.18983834762E+04 0.  0.
        5    1    3    3  502    0 -0.41513119981E+03  0.38707448626E+03 -0.21154883130E+03  0.60575206891E+03  0.46999998093E+01 0. -1.
       -5    1    3    3    0  502  0.41513119981E+03 -0.38707448626E+03  0.17437840561E+04  0.18338390047E+04  0.46999998093E+01 0.  1.
</event>
<event>
 5   0  0.2789718E-05  0.1900004E+04  0.7818609E-02  0.8654854E-01
        2   -1    0    0  501    0  0.00000000000E+00  0.00000000000E+00  0.11219150246E+04  0.11219150246E+04  0.25500000920E-02 0.  1.
       -2   -1    0    0    0  501  0.00000000000E+00  0.00000000000E+00 -0.80443181214E+03  0.80443181214E+03  0.25500000920E-02 0. -1.
    10030    2    1    2    0    0  0.00000000000E+00  0.00000000000E+00  0.31748321249E+03  0.19263468368E+04  0.19000043540E+04 0.  0.
        5    1    3    3  502    0 -0.29139597085E+03  0.32402950346E+03 -0.69710370314E+03  0.82212066868E+03  0.46999998093E+01 0. -1.
       -5    1    3    3    0  502  0.29139597085E+03 -0.32402950346E+03  0.10145869156E+04  0.11042261681E+04  0.46999998093E+01 0.  1.
</event>
<event>
 5   0  0.2789718E-05  0.1900730E+04  0.7818609E-02  0.8654493E-01
       -2   -1    0    0    0  501  0.00000000000E+00  0.00000000000E+00  0.62422603004E+03  0.62422603004E+03  0.25500000920E-02 0.  1.
        2   -1    0    0  501    0  0.00000000000E+00  0.00000000000E+00 -0.14469008698E+04  0.14469008698E+04  0.25500000920E-02 0. -1.
    10030    2    1    2    0    0  0.00000000000E+00  0.00000000000E+00 -0.82267483974E+03  0.20711268998E+04  0.19007295292E+04 0.  0.
        5    1    3    3  502    0  0.48500522532E+02  0.21910627184E+03 -0.14176035256E+04  0.14352636360E+04  0.46999998093E+01 0. -1.
       -5    1    3    3    0  502 -0.48500522532E+02 -0.21910627184E+03  0.59492868585E+03  0.63586326383E+03  0.46999998093E+01 0.  1.
</event>
<event>
 5   0  0.2789718E-05  0.1897173E+04  0.7818609E-02  0.8656265E-01
        2   -1    0    0  501    0  0.00000000000E+00  0.00000000000E+00  0.11914665846E+04  0.11914665846E+04  0.25500000920E-02 0. -1.
       -2   -1    0    0    0  501  0.00000000000E+00  0.00000000000E+00 -0.75521757711E+03  0.75521757711E+03  0.25500000920E-02 0.  1.
    10030    2    1    2    0    0  0.00000000000E+00  0.00000000000E+00  0.43624900749E+03  0.19466841617E+04  0.18971731679E+04 0.  0.
        5    1    3    3  502    0 -0.56135030184E+03  0.31870580190E+01 -0.56646765510E+03  0.79751615218E+03  0.46999998093E+01 0.  1.
       -5    1    3    3    0  502  0.56135030184E+03 -0.31870580190E+01  0.10027166626E+04  0.11491680095E+04  0.46999998093E+01 0. -1.
</event>
<event>
 5   0  0.1413011E-05  0.1896321E+04  0.7818609E-02  0.8656690E-01
       -1   -1    0    0    0  501  0.00000000000E+00  0.00000000000E+00  0.42487934831E+03  0.42487934834E+03  0.50400001928E-02 0.  1.
        1   -1    0    0  501    0  0.00000000000E+00  0.00000000000E+00 -0.21159138426E+04  0.21159138427E+04  0.50400001928E-02 0. -1.
    10030    2    1    2    0    0  0.00000000000E+00  0.00000000000E+00 -0.16910344943E+04  0.25407931910E+04  0.18963207477E+04 0.  0.
        1    1    3    3  502    0 -0.89060674086E+03  0.31354890529E+03 -0.96166654037E+03  0.13477001958E+04  0.50400001928E-02 0.  1.
       -1    1    3    3    0  502  0.89060674086E+03 -0.31354890529E+03 -0.72936795397E+03  0.11930929952E+04  0.50400001928E-02 0. -1.
</event>
<event>
 5   0  0.2879462E-05  0.1900231E+04  0.7818609E-02  0.8654741E-01
        2   -1    0    0  501    0  0.00000000000E+00  0.00000000000E+00  0.14430093851E+04  0.14430093851E+04  0.25500000920E-02 0. -1.
       -2   -1    0    0    0  501  0.00000000000E+00  0.00000000000E+00 -0.62558109122E+03  0.62558109122E+03  0.25500000920E-02 0.  1.
    10030    2    1    2    0    0  0.00000000000E+00  0.00000000000E+00  0.81742829384E+03  0.20685904763E+04  0.19002309183E+04 0.  0.
        4    1    3    3  502    0  0.94260639577E+02 -0.29890660422E+03 -0.56768592686E+03  0.64845905860E+03  0.12699999809E+01 0.  1.
       -4    1    3    3    0  502 -0.94260639577E+02  0.29890660422E+03  0.13851142207E+04  0.14201314177E+04  0.12699999809E+01 0. -1.
</event>
<event>
 5   0  0.1413011E-05  0.1897654E+04  0.7818609E-02  0.8656025E-01
       -1   -1    0    0    0  501  0.00000000000E+00  0.00000000000E+00  0.87468667512E+03  0.87468667513E+03  0.50400001928E-02 0. -1.
        1   -1    0    0  501    0  0.00000000000E+00  0.00000000000E+00 -0.10292515289E+04  0.10292515289E+04  0.50400001928E-02 0.  1.
    10030    2    1    2    0    0  0.00000000000E+00  0.00000000000E+00 -0.15456485377E+03  0.19039382040E+04  0.18976539175E+04 0.  0.
        1    1    3    3  502    0  0.50093433721E+03 -0.17515431382E+03 -0.86643554687E+03  0.10160338581E+04  0.50400001928E-02 0.  1.
       -1    1    3    3    0  502 -0.50093433721E+03  0.17515431382E+03  0.71187069310E+03  0.88790434596E+03  0.50400001928E-02 0. -1.
</event>
<event>
 5   0  0.1429067E-05  0.1899267E+04  0.7818609E-02  0.8655221E-01
       -1   -1    0    0    0  501  0.00000000000E+00  0.00000000000E+00  0.59485092346E+03  0.59485092348E+03  0.50400001928E-02 0.  1.
        1   -1    0    0  501    0  0.00000000000E+00  0.00000000000E+00 -0.15160159847E+04  0.15160159847E+04  0.50400001928E-02 0. -1.
    10030    2    1    2    0    0  0.00000000000E+00  0.00000000000E+00 -0.92116506123E+03  0.21108669082E+04  0.18992667095E+04 0.  0.
        3    1    3    3  502    0 -0.59677160391E+03 -0.73687112857E+03 -0.51820566448E+03  0.10805797186E+04  0.10100000352E+00 0. -1.
       -3    1    3    3    0  502  0.59677160391E+03  0.73687112857E+03 -0.40295939675E+03  0.10302871896E+04  0.10100000352E+00 0.  1.
</event>
<event>
 5   0  0.1344119E-05  0.1900175E+04  0.7818609E-02  0.8654769E-01
        1   -1    0    0  501    0  0.00000000000E+00  0.00000000000E+00  0.11651517092E+04  0.11651517093E+04  0.50400001928E-02 0.  1.
       -1   -1    0    0    0  501  0.00000000000E+00  0.00000000000E+00 -0.77471990039E+03  0.77471990041E+03  0.50400001928E-02 0. -1.
    10030    2    1    2    0    0  0.00000000000E+00  0.00000000000E+00  0.39043180885E+03  0.19398716097E+04  0.19001749563E+04 0.  0.
        2    1    3    3  502    0  0.73602032970E+03 -0.35059517541E+03 -0.30285267525E+03  0.86969112084E+03  0.25500000920E-02 0. -1.
       -2    1    3    3    0  502 -0.73602032970E+03  0.35059517541E+03  0.69328448410E+03  0.10701804888E+04  0.25500000920E-02 0.  1.
</event>
<event>
 5   0  0.2879462E-05  0.1900075E+04  0.7818609E-02  0.8654819E-01
        2   -1    0    0  501    0  0.00000000000E+00  0.00000000000E+00  0.13056686532E+04  0.13056686532E+04  0.25500000920E-02 0.  1.
       -2   -1    0    0    0  501  0.00000000000E+00  0.00000000000E+00 -0.69127148812E+03  0.69127148813E+03  0.25500000920E-02 0. -1.
    10030    2    1    2    0    0  0.00000000000E+00  0.00000000000E+00  0.61439716507E+03  0.19969401413E+04  0.19000752752E+04 0.  0.
        4    1    3    3  502    0 -0.66029983531E+03 -0.78377515156E+02 -0.40594423886E+03  0.77905792170E+03  0.12699999809E+01 0. -1.
       -4    1    3    3    0  502  0.66029983531E+03  0.78377515156E+02  0.10203414039E+04  0.12178822196E+04  0.12699999809E+01 0.  1.
</event>
<event>
 5   0  0.1471485E-05  0.1899105E+04  0.7818609E-02  0.8655302E-01
        1   -1    0    0  501    0  0.00000000000E+00  0.00000000000E+00  0.12220891591E+04  0.12220891591E+04  0.50400001928E-02 0.  1.
       -1   -1    0    0    0  501  0.00000000000E+00  0.00000000000E+00 -0.73779359309E+03  0.73779359310E+03  0.50400001928E-02 0. -1.
    10030    2    1    2    0    0  0.00000000000E+00  0.00000000000E+00  0.48429556600E+03  0.19598827522E+04  0.18991045804E+04 0.  0.
        4    1    3    3  502    0  0.66939496418E+03 -0.26651460145E+03  0.88043035757E+03  0.11376637809E+04  0.12699999809E+01 0.  1.
       -4    1    3    3    0  502 -0.66939496418E+03  0.26651460145E+03 -0.39613479156E+03  0.82221897134E+03  0.12699999809E+01 0. -1.
</event>
<event>
 5   0  0.1429067E-05  0.1900012E+04  0.7818609E-02  0.8654851E-01
        1   -1    0    0  501    0  0.00000000000E+00  0.00000000000E+00  0.13830423848E+04  0.13830423848E+04  0.50400001928E-02 0.  1.
       -1   -1    0    0    0  501  0.00000000000E+00  0.00000000000E+00 -0.65255485573E+03  0.65255485575E+03  0.50400001928E-02 0. -1.
    10030    2    1    2    0    0  0.00000000000E+00  0.00000000000E+00  0.73048752908E+03  0.20355972406E+04  0.19000116041E+04 0.  0.
        3    1    3    3  502    0 -0.86897927382E+03 -0.37011723334E+03  0.25598985028E+03  0.97859213077E+03  0.10100000352E+00 0. -1.
       -3    1    3    3    0  502  0.86897927382E+03  0.37011723334E+03  0.47449767881E+03  0.10570051098E+04  0.10100000352E+00 0.  1.
</event>
<event>
 5   0  0.2855141E-05  0.1900324E+04  0.7818609E-02  0.8654695E-01
        2   -1    0    0  501    0  0.00000000000E+00  0.00000000000E+00  0.12671643567E+04  0.12671643567E+04  0.25500000920E-02 0.  1.
       -2   -1    0    0    0  501  0.00000000000E+00  0.00000000000E+00 -0.71246293640E+03  0.71246293640E+03  0.25500000920E-02 0. -1.
    10030    2    1    2    0    0  0.00000000000E+00  0.00000000000E+00  0.55470142030E+03  0.19796272931E+04  0.19003238024E+04 0.  0.
        1    1    3    3  502    0 -0.49901684626E+03 -0.56174488165E+03  0.88319846272E+03  0.11595752022E+04  0.50400001928E-02 0.  1.
       -1    1    3    3    0  502  0.49901684626E+03  0.56174488165E+03 -0.32849704243E+03  0.82005209092E+03  0.50400001928E-02 0. -1.
</event>
<event>
 5   0  0.2789718E-05  0.1900977E+04  0.7818609E-02  0.8654370E-01
        2   -1    0    0  501    0  0.00000000000E+00  0.00000000000E+00  0.72198743490E+03  0.72198743490E+03  0.25500000920E-02 0.  1.
       -2   -1    0    0    0  501  0.00000000000E+00  0.00000000000E+00 -0.12513079326E+04  0.12513079326E+04  0.25500000920E-02 0. -1.
    10030    2    1    2    0    0  0.00000000000E+00  0.00000000000E+00 -0.52932049771E+03  0.19732953675E+04  0.19009772271E+04 0.  0.
        5    1    3    3  502    0  0.25085016142E+03  0.38137670485E+03  0.60074145273E+03  0.75451068747E+03  0.46999998093E+01 0.  1.
       -5    1    3    3    0  502 -0.25085016142E+03 -0.38137670485E+03 -0.11300619504E+04  0.12187846800E+04  0.46999998093E+01 0. -1.
</event>
<event>
 5   0  0.1471485E-05  0.1900838E+04  0.7818609E-02  0.8654439E-01
        1   -1    0    0  501    0  0.00000000000E+00  0.00000000000E+00  0.11268669929E+04  0.11268669930E+04  0.50400001928E-02 0. -1.
       -1   -1    0    0    0  501  0.00000000000E+00  0.00000000000E+00 -0.80159972317E+03  0.80159972319E+03  0.50400001928E-02 0.  1.
    10030    2    1    2    0    0  0.00000000000E+00  0.00000000000E+00  0.32526726978E+03  0.19284667161E+04  0.19008379938E+04 0.  0.
        4    1    3    3  502    0 -0.63818513556E+03 -0.68699293668E+03  0.31998502232E+03  0.99077322820E+03  0.12699999809E+01 0. -1.
       -4    1    3    3    0  502  0.63818513556E+03  0.68699293668E+03  0.52822474603E+01  0.93769348795E+03  0.12699999809E+01 0.  1.
</event>
<event>
 5   0  0.2879462E-05  0.1914829E+04  0.7818609E-02  0.8647510E-01
        2   -1    0    0  501    0  0.00000000000E+00  0.00000000000E+00  0.11543768445E+04  0.11543768445E+04  0.25500000920E-02 0.  1.
       -2   -1    0    0    0  501  0.00000000000E+00  0.00000000000E+00 -0.79405826757E+03  0.79405826758E+03  0.25500000920E-02 0. -1.
    10030    2    1    2    0    0  0.00000000000E+00  0.00000000000E+00  0.36031857693E+03  0.19484351121E+04  0.19148289504E+04 0.  0.
        4    1    3    3  502    0 -0.51641490017E+03 -0.18865025204E+03  0.97773168247E+03  0.11217103559E+04  0.12699999809E+01 0.  1.
       -4    1    3    3    0  502  0.51641490017E+03  0.18865025204E+03 -0.61741310554E+03  0.82672475619E+03  0.12699999809E+01 0. -1.
</event>
<event>
 5   0  0.2813537E-05  0.1904352E+04  0.7818609E-02  0.8652693E-01
        2   -1    0    0  501    0  0.00000000000E+00  0.00000000000E+00  0.15985009134E+04  0.15985009134E+04  0.25500000920E-02 0. -1.
       -2   -1    0    0    0  501  0.00000000000E+00  0.00000000000E+00 -0.56718111345E+03  0.56718111345E+03  0.25500000920E-02 0.  1.
    10030    2    1    2    0    0  0.00000000000E+00  0.00000000000E+00  0.10313198000E+04  0.21656820269E+04  0.19043524127E+04 0.  0.
        2    1    3    3  502    0  0.18271507317E+03 -0.92702637766E+03  0.38169456669E+03  0.10190453597E+04  0.25500000920E-02 0.  1.
       -2    1    3    3    0  502 -0.18271507317E+03  0.92702637766E+03  0.64962523327E+03  0.11466366672E+04  0.25500000920E-02 0. -1.
</event>
<event>
 5   0  0.1413011E-05  0.1911084E+04  0.7818609E-02  0.8649359E-01
        1   -1    0    0  501    0  0.00000000000E+00  0.00000000000E+00  0.14268162984E+04  0.14268162984E+04  0.50400001928E-02 0.  1.
       -1   -1    0    0    0  501  0.00000000000E+00  0.00000000000E+00 -0.63992856650E+03  0.63992856652E+03  0.50400001928E-02 0. -1.
    10030    2    1    2    0    0  0.00000000000E+00  0.00000000000E+00  0.78688773188E+03  0.20667448649E+04  0.19110839945E+04 0.  0.
        1    1    3    3  502    0  0.48360556663E+03 -0.46368492575E+03  0.11302469790E+04  0.13139011713E+04  0.50400001928E-02 0.  1.
       -1    1    3    3    0  502 -0.48360556663E+03  0.46368492575E+03 -0.34335924708E+03  0.75284369362E+03  0.50400001928E-02 0. -1.
</event>
<event>
 5   0  0.2813537E-05  0.1902451E+04  0.7818609E-02  0.8653637E-01
        2   -1    0    0  501    0  0.00000000000E+00  0.00000000000E+00  0.14578906967E+04  0.14578906967E+04  0.25500000920E-02 0. -1.
       -2   -1    0    0    0  501  0.00000000000E+00  0.00000000000E+00 -0.62064348704E+03  0.62064348704E+03  0.25500000920E-02 0.  1.
    10030    2    1    2    0    0  0.00000000000E+00  0.00000000000E+00  0.83724720965E+03  0.20785341837E+04  0.19024514351E+04 0.  0.
        2    1    3    3  502    0  0.66135538393E+03 -0.61912852606E+03  0.10174611316E+03  0.91162675871E+03  0.25500000920E-02 0.  1.
       -2    1    3    3    0  502 -0.66135538393E+03  0.61912852606E+03  0.73550109649E+03  0.11669074250E+04  0.25500000920E-02 0. -1.
</event>
<event>
 5   0  0.1344119E-05  0.1901579E+04  0.7818609E-02  0.8654071E-01
       -1   -1    0    0    0  501  0.00000000000E+00  0.00000000000E+00  0.75835545184E+03  0.75835545186E+03  0.50400001928E-02 0.  1.
        1   -1    0    0  501    0  0.00000000000E+00  0.00000000000E+00 -0.11920545516E+04  0.11920545516E+04  0.50400001928E-02 0. -1.
    10030    2    1    2    0    0  0.00000000000E+00  0.00000000000E+00 -0.43369909979E+03  0.19504100035E+04  0.19015794153E+04 0.  0.
        2    1    3    3  502    0  0.81191273672E+03  0.43844734044E+03  0.18303331570E+02  0.92291569190E+03  0.25500000920E-02 0.  1.
       -2    1    3    3    0  502 -0.81191273672E+03 -0.43844734044E+03 -0.45200243136E+03  0.10274943116E+04  0.25500000920E-02 0. -1.
</event>
<event>
 5   0  0.1413011E-05  0.1901440E+04  0.7818609E-02  0.8654140E-01
        1   -1    0    0  501    0  0.00000000000E+00  0.00000000000E+00  0.26116628734E+04  0.26116628734E+04  0.50400001928E-02 0.  1.
       -1   -1    0    0    0  501  0.00000000000E+00  0.00000000000E+00 -0.34608918736E+03  0.34608918739E+03  0.50400001928E-02 0. -1.
    10030    2    1    2    0    0  0.00000000000E+00  0.00000000000E+00  0.22655736861E+04  0.29577520608E+04  0.19014397509E+04 0.  0.
        1    1    3    3  502    0  0.45398564543E+03  0.73879274393E+02  0.24270679476E+04  0.24702671790E+04  0.50400001928E-02 0.  1.
       -1    1    3    3    0  502 -0.45398564543E+03 -0.73879274393E+02 -0.16149426154E+03  0.48748488180E+03  0.50400001928E-02 0. -1.
</event>
<event>
 5   0  0.2855141E-05  0.1900568E+04  0.7818609E-02  0.8654574E-01
       -2   -1    0    0    0  501  0.00000000000E+00  0.00000000000E+00  0.68053344405E+03  0.68053344405E+03  0.25500000920E-02 0. -1.
        2   -1    0    0  501    0  0.00000000000E+00  0.00000000000E+00 -0.13269583066E+04  0.13269583066E+04  0.25500000920E-02 0.  1.
    10030    2    1    2    0    0  0.00000000000E+00  0.00000000000E+00 -0.64642486256E+03  0.20074917507E+04  0.19005678167E+04 0.  0.
        1    1    3    3  502    0  0.44428288720E+03  0.83977884038E+03 -0.30146986317E+03  0.99674463281E+03  0.50400001928E-02 0. -1.
       -1    1    3    3    0  502 -0.44428288720E+03 -0.83977884038E+03 -0.34495499939E+03  0.10107471178E+04  0.50400001928E-02 0.  1.
</event>
<event>
 5   0  0.2813537E-05  0.1860188E+04  0.7818609E-02  0.8674931E-01
        2   -1    0    0  501    0  0.00000000000E+00  0.00000000000E+00  0.94620170453E+03  0.94620170453E+03  0.25500000920E-02 0. -1.
       -2   -1    0    0    0  501  0.00000000000E+00  0.00000000000E+00 -0.91426091402E+03  0.91426091402E+03  0.25500000920E-02 0.  1.
    10030    2    1    2    0    0  0.00000000000E+00  0.00000000000E+00  0.31940790510E+02  0.18604626186E+04  0.18601884154E+04 0.  0.
        2    1    3    3  502    0 -0.45200341332E+03 -0.65813163066E+03  0.49314753177E+03  0.93842358081E+03  0.25500000920E-02 0. -1.
       -2    1    3    3    0  502  0.45200341332E+03  0.65813163066E+03 -0.46120674126E+03  0.92203903774E+03  0.25500000920E-02 0.  1.
</event>
<event>
 5   0  0.1413011E-05  0.1901843E+04  0.7818609E-02  0.8653939E-01
        1   -1    0    0  501    0  0.00000000000E+00  0.00000000000E+00  0.73897597345E+03  0.73897597347E+03  0.50400001928E-02 0.  1.
       -1   -1    0    0    0  501  0.00000000000E+00  0.00000000000E+00 -0.12236552056E+04  0.12236552056E+04  0.50400001928E-02 0. -1.
    10030    2    1    2    0    0  0.00000000000E+00  0.00000000000E+00 -0.48467923218E+03  0.19626311791E+04  0.19018431026E+04 0.  0.
        1    1    3    3  502    0 -0.34318454258E+03 -0.56671472465E+03  0.46160011059E+03  0.80747499746E+03  0.50400001928E-02 0.  1.
       -1    1    3    3    0  502  0.34318454258E+03  0.56671472465E+03 -0.94627934277E+03  0.11551561816E+04  0.50400001928E-02 0. -1.
</event>
<event>
 5   0  0.1344119E-05  0.1899404E+04  0.7818609E-02  0.8655153E-01
        1   -1    0    0  501    0  0.00000000000E+00  0.00000000000E+00  0.16275838304E+04  0.16275838305E+04  0.50400001928E-02 0.  1.
       -1   -1    0    0    0  501  0.00000000000E+00  0.00000000000E+00 -0.55415493597E+03  0.55415493600E+03  0.50400001928E-02 0. -1.
    10030    2    1    2    0    0  0.00000000000E+00  0.00000000000E+00  0.10734288945E+04  0.21817387664E+04  0.18994037100E+04 0.  0.
        2    1    3    3  502    0 -0.97526457674E+02 -0.25597176346E+03 -0.50779443094E+03  0.57696458967E+03  0.25500000920E-02 0. -1.
       -2    1    3    3    0  502  0.97526457674E+02  0.25597176346E+03  0.15812233254E+04  0.16047741768E+04  0.25500000920E-02 0.  1.
</event>
<event>
 5   0  0.2855141E-05  0.1898924E+04  0.7818609E-02  0.8655392E-01
        2   -1    0    0  501    0  0.00000000000E+00  0.00000000000E+00  0.10365942881E+04  0.10365942881E+04  0.25500000920E-02 0. -1.
       -2   -1    0    0    0  501  0.00000000000E+00  0.00000000000E+00 -0.86965417162E+03  0.86965417162E+03  0.25500000920E-02 0.  1.
    10030    2    1    2    0    0  0.00000000000E+00  0.00000000000E+00  0.16694011652E+03  0.19062484598E+04  0.18989244819E+04 0.  0.
        1    1    3    3  502    0 -0.56206019181E+03 -0.62182379389E+03 -0.36423443125E+03  0.91391641347E+03  0.50400001928E-02 0.  1.
       -1    1    3    3    0  502  0.56206019181E+03  0.62182379389E+03  0.53117454777E+03  0.99233204629E+03  0.50400001928E-02 0. -1.
</event>
<event>
 5   0  0.1344119E-05  0.1904836E+04  0.7818609E-02  0.8652453E-01
       -1   -1    0    0    0  501  0.00000000000E+00  0.00000000000E+00  0.10752886895E+04  0.10752886895E+04  0.50400001928E-02 0. -1.
        1   -1    0    0  501    0  0.00000000000E+00  0.00000000000E+00 -0.84358776516E+03  0.84358776517E+03  0.50400001928E-02 0.  1.
    10030    2    1    2    0    0  0.00000000000E+00  0.00000000000E+00  0.23170092429E+03  0.19188764546E+04  0.19048363525E+04 0.  0.
        2    1    3    3  502    0  0.35390828928E+03 -0.87866755807E+02 -0.77048053602E+03  0.85241533327E+03  0.25500000920E-02 0.  1.
       -2    1    3    3    0  502 -0.35390828928E+03  0.87866755807E+02  0.10021814603E+04  0.10664611214E+04  0.25500000920E-02 0. -1.
</event>
<event>
 5   0  0.1429067E-05  0.1898751E+04  0.7818609E-02  0.8655478E-01
       -1   -1    0    0    0  501  0.00000000000E+00  0.00000000000E+00  0.48914502292E+03  0.48914502294E+03  0.50400001928E-02 0. -1.
        1   -1    0    0  501    0  0.00000000000E+00  0.00000000000E+00 -0.18426309975E+04  0.18426309975E+04  0.50400001928E-02 0.  1.
    10030    2    1    2    0    0  0.00000000000E+00  0.00000000000E+00 -0.13534859745E+04  0.23317760204E+04  0.18987509384E+04 0.  0.
        3    1    3    3  502    0 -0.81274974747E+03  0.90033598949E+02 -0.84409584216E+02  0.82206641402E+03  0.10100000352E+00 0. -1.
       -3    1    3    3    0  502  0.81274974747E+03 -0.90033598949E+02 -0.12690763903E+04  0.15097096064E+04  0.10100000352E+00 0.  1.
</event>
<event>
 5   0  0.2855141E-05  0.1902061E+04  0.7818609E-02  0.8653831E-01
        2   -1    0    0  501    0  0.00000000000E+00  0.00000000000E+00  0.87156585357E+03  0.87156585357E+03  0.25500000920E-02 0.  1.
       -2   -1    0    0    0  501  0.00000000000E+00  0.00000000000E+00 -0.10377399715E+04  0.10377399715E+04  0.25500000920E-02 0. -1.
    10030    2    1    2    0    0  0.00000000000E+00  0.00000000000E+00 -0.16617411791E+03  0.19093058251E+04  0.19020606973E+04 0.  0.
        1    1    3    3  502    0  0.89937628756E+02 -0.39927203590E+03  0.77864185316E+03  0.87965338130E+03  0.50400001928E-02 0.  1.
       -1    1    3    3    0  502 -0.89937628756E+02  0.39927203590E+03 -0.94481597107E+03  0.10296524438E+04  0.50400001928E-02 0. -1.
</event>
<event>
 5   0  0.2879462E-05  0.1900761E+04  0.7818609E-02  0.8654478E-01
       -2   -1    0    0    0  501  0.00000000000E+00  0.00000000000E+00  0.17029813466E+04  0.17029813466E+04  0.25500000920E-02 0. -1.
        2   -1    0    0  501    0  0.00000000000E+00  0.00000000000E+00 -0.53037741545E+03  0.53037741546E+03  0.25500000920E-02 0.  1.
    10030    2    1    2    0    0  0.00000000000E+00  0.00000000000E+00  0.11726039311E+04  0.22333587621E+04  0.19007607374E+04 0.  0.
        4    1    3    3  502    0 -0.86046342624E+03 -0.33670086634E+03  0.32500009763E+03  0.97948530242E+03  0.12699999809E+01 0.  1.
       -4    1    3    3    0  502  0.86046342624E+03  0.33670086634E+03  0.84760383351E+03  0.12538734596E+04  0.12699999809E+01 0. -1.
</event>
<event>
 5   0  0.2879462E-05  0.1903323E+04  0.7818609E-02  0.8653204E-01
       -2   -1    0    0    0  501  0.00000000000E+00  0.00000000000E+00  0.30342343068E+03  0.30342343069E+03  0.25500000920E-02 0. -1.
        2   -1    0    0  501    0  0.00000000000E+00  0.00000000000E+00 -0.29848041990E+04  0.29848041990E+04  0.25500000920E-02 0.  1.
    10030    2    1    2    0    0  0.00000000000E+00  0.00000000000E+00 -0.26813807683E+04  0.32882276297E+04  0.19033229153E+04 0.  0.
        4    1    3    3  502    0  0.76040403216E+03 -0.13327130515E+03 -0.23020982008E+04  0.24280925171E+04  0.12699999809E+01 0. -1.
       -4    1    3    3    0  502 -0.76040403216E+03  0.13327130515E+03 -0.37928256756E+03  0.86013511256E+03  0.12699999809E+01 0.  1.
</event>
<event>
 5   0  0.2888776E-05  0.1916726E+04  0.7818609E-02  0.8646575E-01
        2   -1    0    0  501    0  0.00000000000E+00  0.00000000000E+00  0.13216329634E+04  0.13216329634E+04  0.25500000920E-02 0. -1.
       -2   -1    0    0    0  501  0.00000000000E+00  0.00000000000E+00 -0.69494337280E+03  0.69494337280E+03  0.25500000920E-02 0.  1.
    10030    2    1    2    0    0  0.00000000000E+00  0.00000000000E+00  0.62668959056E+03  0.20165763362E+04  0.19167264480E+04 0.  0.
        3    1    3    3  502    0 -0.51852309602E+03 -0.33069630169E+03  0.10866401706E+04  0.12486044673E+04  0.10100000352E+00 0. -1.
       -3    1    3    3    0  502  0.51852309602E+03  0.33069630169E+03 -0.45995058009E+03  0.76797186888E+03  0.10100000352E+00 0.  1.
</event>
<event>
 5   0  0.1413011E-05  0.1904995E+04  0.7818609E-02  0.8652374E-01
        1   -1    0    0  501    0  0.00000000000E+00  0.00000000000E+00  0.10181514033E+04  0.10181514033E+04  0.50400001928E-02 0.  1.
       -1   -1    0    0    0  501  0.00000000000E+00  0.00000000000E+00 -0.89107747190E+03  0.89107747192E+03  0.50400001928E-02 0. -1.
    10030    2    1    2    0    0  0.00000000000E+00  0.00000000000E+00  0.12707393143E+03  0.19092288753E+04  0.19049953055E+04 0.  0.
        1    1    3    3  502    0 -0.55680590766E+03 -0.77007619407E+03  0.12850088411E+03  0.95893828828E+03  0.50400001928E-02 0. -1.
       -1    1    3    3    0  502  0.55680590766E+03  0.77007619407E+03 -0.14269526736E+01  0.95029058698E+03  0.50400001928E-02 0.  1.
</event>
<event>
 5   0  0.2813537E-05  0.1905492E+04  0.7818609E-02  0.8652127E-01
       -2   -1    0    0    0  501  0.00000000000E+00  0.00000000000E+00  0.77922762777E+03  0.77922762777E+03  0.25500000920E-02 0.  1.
        2   -1    0    0  501    0  0.00000000000E+00  0.00000000000E+00 -0.11649038340E+04  0.11649038340E+04  0.25500000920E-02 0. -1.
    10030    2    1    2    0    0  0.00000000000E+00  0.00000000000E+00 -0.38567620625E+03  0.19441314618E+04  0.19054923261E+04 0.  0.
        2    1    3    3  502    0 -0.73844295634E+03 -0.96014903820E+02 -0.79920282990E+03  0.10923561804E+04  0.25500000920E-02 0. -1.
       -2    1    3    3    0  502  0.73844295634E+03  0.96014903820E+02  0.41352662365E+03  0.85177528140E+03  0.25500000920E-02 0.  1.
</event>
<event>
 5   0  0.2855141E-05  0.1926394E+04  0.7818609E-02  0.8641829E-01
        2   -1    0    0  501    0  0.00000000000E+00  0.00000000000E+00  0.66914653150E+03  0.66914653151E+03  0.25500000920E-02 0. -1.
       -2   -1    0    0    0  501  0.00000000000E+00  0.00000000000E+00 -0.13864656875E+04  0.13864656875E+04  0.25500000920E-02 0.  1.
    10030    2    1    2    0    0  0.00000000000E+00  0.00000000000E+00 -0.71731915605E+03  0.20556122191E+04  0.19263942544E+04 0.  0.
        1    1    3    3  502    0  0.36682961184E+03 -0.64813073775E+03  0.29314170457E+03  0.80035584356E+03  0.50400001928E-02 0. -1.
       -1    1    3    3    0  502 -0.36682961184E+03  0.64813073775E+03 -0.10104608606E+04  0.12552563755E+04  0.50400001928E-02 0.  1.
</event>
<event>
 5   0  0.1344119E-05  0.1911842E+04  0.7818609E-02  0.8648984E-01
        1   -1    0    0  501    0  0.00000000000E+00  0.00000000000E+00  0.10136941342E+04  0.10136941342E+04  0.50400001928E-02 0. -1.
       -1   -1    0    0    0  501  0.00000000000E+00  0.00000000000E+00 -0.90144073480E+03  0.90144073481E+03  0.50400001928E-02 0.  1.
    10030    2    1    2    0    0  0.00000000000E+00  0.00000000000E+00  0.11225339940E+03  0.19151348690E+04  0.19118422374E+04 0.  0.
        2    1    3    3  502    0 -0.12726110777E+03  0.91537765102E+03  0.30082911448E+03  0.97191038150E+03  0.25500000920E-02 0.  1.
       -2    1    3    3    0  502  0.12726110777E+03 -0.91537765102E+03 -0.18857571509E+03  0.94322448752E+03  0.25500000920E-02 0. -1.
</event>
<event>
 5   0  0.1344119E-05  0.1898651E+04  0.7818609E-02  0.8655528E-01
       -1   -1    0    0    0  501  0.00000000000E+00  0.00000000000E+00  0.62969104811E+03  0.62969104813E+03  0.50400001928E-02 0. -1.
        1   -1    0    0  501    0  0.00000000000E+00  0.00000000000E+00 -0.14312084094E+04  0.14312084094E+04  0.50400001928E-02 0.  1.
    10030    2    1    2    0    0  0.00000000000E+00  0.00000000000E+00 -0.80151736126E+03  0.20608994575E+04  0.18986512301E+04 0.  0.
        2    1    3    3  502    0 -0.79587335911E+03 -0.49954117757E+03 -0.25406830808E+03  0.97339945398E+03  0.25500000920E-02 0.  1.
       -2    1    3    3    0  502  0.79587335911E+03  0.49954117757E+03 -0.54744905318E+03  0.10875000035E+04  0.25500000920E-02 0. -1.
</event>
<event>
 5   0  0.2855141E-05  0.1902939E+04  0.7818609E-02  0.8653395E-01
       -2   -1    0    0    0  501  0.00000000000E+00  0.00000000000E+00  0.75164967264E+03  0.75164967265E+03  0.25500000920E-02 0.  1.
        2   -1    0    0  501    0  0.00000000000E+00  0.00000000000E+00 -0.12044092959E+04  0.12044092959E+04  0.25500000920E-02 0. -1.
    10030    2    1    2    0    0  0.00000000000E+00  0.00000000000E+00 -0.45275962330E+03  0.19560589686E+04  0.19029386254E+04 0.  0.
        1    1    3    3  502    0  0.59191178041E+02  0.93849292096E+03 -0.77345284936E+02  0.94353317449E+03  0.50400001928E-02 0. -1.
       -1    1    3    3    0  502 -0.59191178041E+02 -0.93849292096E+03 -0.37541433837E+03  0.10125257941E+04  0.50400001928E-02 0.  1.
</event>
<event>
 5   0  0.2879462E-05  0.1900208E+04  0.7818609E-02  0.8654753E-01
       -2   -1    0    0    0  501  0.00000000000E+00  0.00000000000E+00  0.40222953458E+03  0.40222953458E+03  0.25500000920E-02 0. -1.
        2   -1    0    0  501    0  0.00000000000E+00  0.00000000000E+00 -0.22442357979E+04  0.22442357979E+04  0.25500000920E-02 0.  1.
    10030    2    1    2    0    0  0.00000000000E+00  0.00000000000E+00 -0.18420062633E+04  0.26464653325E+04  0.19002083259E+04 0.  0.
        4    1    3    3  502    0  0.67200068156E+03  0.60898016146E+03 -0.13155511231E+04  0.15978479663E+04  0.12699999809E+01 0.  1.
       -4    1    3    3    0  502 -0.67200068156E+03 -0.60898016146E+03 -0.52645514023E+03  0.10486173662E+04  0.12699999809E+01 0. -1.
</event>
<event>
 5   0  0.2879462E-05  0.1899624E+04  0.7818609E-02  0.8655043E-01
        2   -1    0    0  501    0  0.00000000000E+00  0.00000000000E+00  0.20361675766E+04  0.20361675766E+04  0.25500000920E-02 0. -1.
       -2   -1    0    0    0  501  0.00000000000E+00  0.00000000000E+00 -0.44305932118E+03  0.44305932119E+03  0.25500000920E-02 0.  1.
    10030    2    1    2    0    0  0.00000000000E+00  0.00000000000E+00  0.15931082554E+04  0.24792268978E+04  0.18996241990E+04 0.  0.
        4    1    3    3  502    0  0.22028345143E+03 -0.40086405898E+03  0.18829586818E+04  0.19377181949E+04  0.12699999809E+01 0. -1.
       -4    1    3    3    0  502 -0.22028345143E+03  0.40086405898E+03 -0.28985042634E+03  0.54150870289E+03  0.12699999809E+01 0.  1.
</event>
<event>
 5   0  0.1429067E-05  0.1897653E+04  0.7818609E-02  0.8656026E-01
       -1   -1    0    0    0  501  0.00000000000E+00  0.00000000000E+00  0.12639020260E+04  0.12639020260E+04  0.50400001928E-02 0. -1.
        1   -1    0    0  501    0  0.00000000000E+00  0.00000000000E+00 -0.71229543737E+03  0.71229543739E+03  0.50400001928E-02 0.  1.
    10030    2    1    2    0    0  0.00000000000E+00  0.00000000000E+00  0.55160658862E+03  0.19761974634E+04  0.18976529150E+04 0.  0.
        3    1    3    3  502    0 -0.35140547845E+03  0.77372364201E+03 -0.16372951125E+03  0.86541403244E+03  0.10100000352E+00 0.  1.
       -3    1    3    3    0  502  0.35140547845E+03 -0.77372364201E+03  0.71533609987E+03  0.11107834309E+04  0.10100000352E+00 0. -1.
</event>
<event>
 5   0  0.1327254E-05  0.1899894E+04  0.7818609E-02  0.8654909E-01
        1   -1    0    0  501    0  0.00000000000E+00  0.00000000000E+00  0.14462706575E+04  0.14462706575E+04  0.50400001928E-02 0.  1.
       -1   -1    0    0    0  501  0.00000000000E+00  0.00000000000E+00 -0.62394906046E+03  0.62394906048E+03  0.50400001928E-02 0. -1.
    10030    2    1    2    0    0  0.00000000000E+00  0.00000000000E+00  0.82232159702E+03  0.20702197180E+04  0.18998939107E+04 0.  0.
        5    1    3    3  502    0 -0.82017549932E+03  0.47910468507E+03  0.39790557305E+03  0.10298446893E+04  0.46999998093E+01 0. -1.
       -5    1    3    3    0  502  0.82017549932E+03 -0.47910468507E+03  0.42441602397E+03  0.10403750287E+04  0.46999998093E+01 0.  1.
</event>
<event>
 5   0  0.2813537E-05  0.1899182E+04  0.7818609E-02  0.8655263E-01
        2   -1    0    0  501    0  0.00000000000E+00  0.00000000000E+00  0.92170082999E+03  0.92170082999E+03  0.25500000920E-02 0.  1.
       -2   -1    0    0    0  501  0.00000000000E+00  0.00000000000E+00 -0.97832557479E+03  0.97832557479E+03  0.25500000920E-02 0. -1.
    10030    2    1    2    0    0  0.00000000000E+00  0.00000000000E+00 -0.56624744799E+02  0.19000264048E+04  0.18991824497E+04 0.  0.
        2    1    3    3  502    0  0.49139415946E+03 -0.56535785754E+03 -0.61220325928E+03  0.96741436712E+03  0.25500000920E-02 0. -1.
       -2    1    3    3    0  502 -0.49139415946E+03  0.56535785754E+03  0.55557851448E+03  0.93261203766E+03  0.25500000920E-02 0.  1.
</event>
<event>
 5   0  0.1344119E-05  0.1899270E+04  0.7818609E-02  0.8655220E-01
        1   -1    0    0  501    0  0.00000000000E+00  0.00000000000E+00  0.78169193470E+03  0.78169193472E+03  0.50400001928E-02 0.  1.
       -1   -1    0    0    0  501  0.00000000000E+00  0.00000000000E+00 -0.11536594079E+04  0.11536594079E+04  0.50400001928E-02 0. -1.
    10030    2    1    2    0    0  0.00000000000E+00  0.00000000000E+00 -0.37196747318E+03  0.19353513426E+04  0.18992696012E+04 0.  0.
        2    1    3    3  502    0  0.46121367149E+03  0.77468118311E+03  0.11793951012E+03  0.90926273117E+03  0.25500000920E-02 0.  1.
       -2    1    3    3    0  502 -0.46121367149E+03 -0.77468118311E+03 -0.48990698330E+03  0.10260886114E+04  0.25500000920E-02 0. -1.
</event>
<event>
 5   0  0.1344119E-05  0.1898083E+04  0.7818609E-02  0.8655811E-01
       -1   -1    0    0    0  501  0.00000000000E+00  0.00000000000E+00  0.69342634448E+03  0.69342634450E+03  0.50400001928E-02 0.  1.
        1   -1    0    0  501    0  0.00000000000E+00  0.00000000000E+00 -0.12988829039E+04  0.12988829040E+04  0.50400001928E-02 0. -1.
    10030    2    1    2    0    0  0.00000000000E+00  0.00000000000E+00 -0.60545655946E+03  0.19923092485E+04  0.18980828475E+04 0.  0.
        2    1    3    3  502    0 -0.69188427313E+03 -0.29400323040E+03 -0.91074057634E+03  0.11809276626E+04  0.25500000920E-02 0. -1.
       -2    1    3    3    0  502  0.69188427313E+03  0.29400323040E+03  0.30528401688E+03  0.81138158585E+03  0.25500000920E-02 0.  1.
</event>
<event>
 5   0  0.1413011E-05  0.1901234E+04  0.7818609E-02  0.8654242E-01
       -1   -1    0    0    0  501  0.00000000000E+00  0.00000000000E+00  0.61721090461E+03  0.61721090463E+03  0.50400001928E-02 0. -1.
        1   -1    0    0  501    0  0.00000000000E+00  0.00000000000E+00 -0.14641233506E+04  0.14641233506E+04  0.50400001928E-02 0.  1.
    10030    2    1    2    0    0  0.00000000000E+00  0.00000000000E+00 -0.84691244599E+03  0.20813342552E+04  0.19012342283E+04 0.  0.
        1    1    3    3  502    0  0.45492032665E+03 -0.78464850470E+03 -0.11180057906E+03  0.91385182006E+03  0.50400001928E-02 0. -1.
       -1    1    3    3    0  502 -0.45492032665E+03  0.78464850470E+03 -0.73511186693E+03  0.11674824352E+04  0.50400001928E-02 0.  1.
</event>
<event>
 5   0  0.2813537E-05  0.1905801E+04  0.7818609E-02  0.8651974E-01
       -2   -1    0    0    0  501  0.00000000000E+00  0.00000000000E+00  0.77572912109E+03  0.77572912110E+03  0.25500000920E-02 0. -1.
        2   -1    0    0  501    0  0.00000000000E+00  0.00000000000E+00 -0.11705370290E+04  0.11705370290E+04  0.25500000920E-02 0.  1.
    10030    2    1    2    0    0  0.00000000000E+00  0.00000000000E+00 -0.39480790794E+03  0.19462661501E+04  0.19058013126E+04 0.  0.
        2    1    3    3  502    0  0.88387742523E+03 -0.15912535249E+03  0.12788620441E+03  0.90714665954E+03  0.25500000920E-02 0. -1.
       -2    1    3    3    0  502 -0.88387742523E+03  0.15912535249E+03 -0.52269411235E+03  0.10391194906E+04  0.25500000920E-02 0.  1.
</event>
<event>
 5   0  0.2879462E-05  0.1898485E+04  0.7818609E-02  0.8655611E-01
        2   -1    0    0  501    0  0.00000000000E+00  0.00000000000E+00  0.20246027100E+04  0.20246027100E+04  0.25500000920E-02 0. -1.
       -2   -1    0    0    0  501  0.00000000000E+00  0.00000000000E+00 -0.44505577796E+03  0.44505577797E+03  0.25500000920E-02 0.  1.
    10030    2    1    2    0    0  0.00000000000E+00  0.00000000000E+00  0.15795469321E+04  0.24696584880E+04  0.18984848002E+04 0.  0.
        4    1    3    3  502    0 -0.73137709896E+03 -0.54127857875E+02  0.57789918429E+01  0.73340118320E+03  0.12699999809E+01 0.  1.
       -4    1    3    3    0  502  0.73137709896E+03  0.54127857875E+02  0.15737679402E+04  0.17362573048E+04  0.12699999809E+01 0. -1.
</event>
<event>
 5   0  0.1429067E-05  0.1900482E+04  0.7818609E-02  0.8654616E-01
        1   -1    0    0  501    0  0.00000000000E+00  0.00000000000E+00  0.86136841435E+03  0.86136841436E+03  0.50400001928E-02 0. -1.
       -1   -1    0    0    0  501  0.00000000000E+00  0.00000000000E+00 -0.10482835826E+04  0.10482835826E+04  0.50400001928E-02 0.  1.
    10030    2    1    2    0    0  0.00000000000E+00  0.00000000000E+00 -0.18691516823E+03  0.19096519969E+04  0.19004824307E+04 0.  0.
        3    1    3    3  502    0  0.84836971356E+02  0.79620775716E+03  0.42068907124E+03  0.90450174634E+03  0.10100000352E+00 0. -1.
       -3    1    3    3    0  502 -0.84836971356E+02 -0.79620775716E+03 -0.60760423947E+03  0.10051502506E+04  0.10100000352E+00 0.  1.
</event>
<event>
 5   0  0.2855141E-05  0.1898597E+04  0.7818609E-02  0.8655555E-01
        2   -1    0    0  501    0  0.00000000000E+00  0.00000000000E+00  0.15854043786E+04  0.15854043786E+04  0.25500000920E-02 0. -1.
       -2   -1    0    0    0  501  0.00000000000E+00  0.00000000000E+00 -0.56841481639E+03  0.56841481640E+03  0.25500000920E-02 0.  1.
    10030    2    1    2    0    0  0.00000000000E+00  0.00000000000E+00  0.10169895622E+04  0.21538191950E+04  0.18985966805E+04 0.  0.
        1    1    3    3  502    0  0.57462663114E+03  0.73159343106E+03  0.29402320211E+03  0.97564048552E+03  0.50400001928E-02 0. -1.
       -1    1    3    3    0  502 -0.57462663114E+03 -0.73159343106E+03  0.72296636008E+03  0.11781787095E+04  0.50400001928E-02 0.  1.
</event>
<event>
 5   0  0.1344119E-05  0.1896111E+04  0.7818609E-02  0.8656795E-01
       -1   -1    0    0    0  501  0.00000000000E+00  0.00000000000E+00  0.58903186979E+03  0.58903186981E+03  0.50400001928E-02 0.  1.
        1   -1    0    0  501    0  0.00000000000E+00  0.00000000000E+00 -0.15259087104E+04  0.15259087104E+04  0.50400001928E-02 0. -1.
    10030    2    1    2    0    0  0.00000000000E+00  0.00000000000E+00 -0.93687684061E+03  0.21149405802E+04  0.18961106095E+04 0.  0.
        2    1    3    3  502    0 -0.75131017074E+03 -0.50887861156E+03 -0.16218892737E+03  0.92180782277E+03  0.25500000920E-02 0.  1.
       -2    1    3    3    0  502  0.75131017074E+03  0.50887861156E+03 -0.77468791324E+03  0.11931327574E+04  0.25500000920E-02 0. -1.
</event>
<event>
 5   0  0.1413011E-05  0.1904653E+04  0.7818609E-02  0.8652544E-01
       -1   -1    0    0    0  501  0.00000000000E+00  0.00000000000E+00  0.10027234924E+04  0.10027234924E+04  0.50400001928E-02 0.  1.
        1   -1    0    0  501    0  0.00000000000E+00  0.00000000000E+00 -0.90446274698E+03  0.90446274699E+03  0.50400001928E-02 0. -1.
    10030    2    1    2    0    0  0.00000000000E+00  0.00000000000E+00  0.98260745388E+02  0.19071862394E+04  0.19046532959E+04 0.  0.
        1    1    3    3  502    0  0.87091451384E+03  0.32623683198E+03  0.25435044025E+03  0.96416632768E+03  0.50400001928E-02 0.  1.
       -1    1    3    3    0  502 -0.87091451384E+03 -0.32623683198E+03 -0.15608969486E+03  0.94301991168E+03  0.50400001928E-02 0. -1.
</event>
<event>
 5   0  0.1429067E-05  0.1901638E+04  0.7818609E-02  0.8654042E-01
       -1   -1    0    0    0  501  0.00000000000E+00  0.00000000000E+00  0.77610895994E+03  0.77610895996E+03  0.50400001928E-02 0.  1.
        1   -1    0    0  501    0  0.00000000000E+00  0.00000000000E+00 -0.11648577248E+04  0.11648577248E+04  0.50400001928E-02 0. -1.
    10030    2    1    2    0    0  0.00000000000E+00  0.00000000000E+00 -0.38874876483E+03  0.19409666847E+04  0.19016377334E+04 0.  0.
        3    1    3    3  502    0 -0.31155286058E+03 -0.91766779151E+02  0.71773482398E+03  0.78780049152E+03  0.10100000352E+00 0.  1.
       -3    1    3    3    0  502  0.31155286058E+03  0.91766779151E+02 -0.11064835888E+04  0.11531661932E+04  0.10100000352E+00 0. -1.
</event>
<event>
 5   0  0.1413011E-05  0.1900191E+04  0.7818609E-02  0.8654761E-01
        1   -1    0    0  501    0  0.00000000000E+00  0.00000000000E+00  0.15767369290E+04  0.15767369290E+04  0.50400001928E-02 0. -1.
       -1   -1    0    0    0  501  0.00000000000E+00  0.00000000000E+00 -0.57249991795E+03  0.57249991797E+03  0.50400001928E-02 0.  1.
    10030    2    1    2    0    0  0.00000000000E+00  0.00000000000E+00  0.10042370110E+04  0.21492368470E+04  0.19001913193E+04 0.  0.
        1    1    3    3  502    0  0.21911441082E+03 -0.36161119775E+03 -0.46022169800E+03  0.62496223462E+03  0.50400001928E-02 0.  1.
       -1    1    3    3    0  502 -0.21911441082E+03  0.36161119775E+03  0.14644587090E+04  0.15242746123E+04  0.50400001928E-02 0. -1.
</event>
<event>
 5   0  0.1413011E-05  0.1901443E+04  0.7818609E-02  0.8654138E-01
       -1   -1    0    0    0  501  0.00000000000E+00  0.00000000000E+00  0.11869081641E+04  0.11869081641E+04  0.50400001928E-02 0.  1.
        1   -1    0    0  501    0  0.00000000000E+00  0.00000000000E+00 -0.76153432449E+03  0.76153432450E+03  0.50400001928E-02 0. -1.
    10030    2    1    2    0    0  0.00000000000E+00  0.00000000000E+00  0.42537383964E+03  0.19484424886E+04  0.19014429332E+04 0.  0.
        1    1    3    3  502    0 -0.60803845127E+02 -0.46978791894E+03 -0.63198987031E+03  0.78981579660E+03  0.50400001928E-02 0. -1.
       -1    1    3    3    0  502  0.60803845127E+02  0.46978791894E+03  0.10573637099E+04  0.11586266920E+04  0.50400001928E-02 0.  1.
</event>
<event>
 5   0  0.1344119E-05  0.1918126E+04  0.7818609E-02  0.8645886E-01
       -1   -1    0    0    0  501  0.00000000000E+00  0.00000000000E+00  0.66728124911E+03  0.66728124913E+03  0.50400001928E-02 0.  1.
        1   -1    0    0  501    0  0.00000000000E+00  0.00000000000E+00 -0.13784316067E+04  0.13784316067E+04  0.50400001928E-02 0. -1.
    10030    2    1    2    0    0  0.00000000000E+00  0.00000000000E+00 -0.71115035759E+03  0.20457128558E+04  0.19181257147E+04 0.  0.
        2    1    3    3  502    0  0.95616839564E+03  0.64186446125E+02 -0.31533394326E+03  0.10088673830E+04  0.25500000920E-02 0.  1.
       -2    1    3    3    0  502 -0.95616839564E+03 -0.64186446125E+02 -0.39581641433E+03  0.10368454728E+04  0.25500000920E-02 0. -1.
</event>
<event>
 5   0  0.1413011E-05  0.1889301E+04  0.7818609E-02  0.8660200E-01
       -1   -1    0    0    0  501  0.00000000000E+00  0.00000000000E+00  0.16049997579E+04  0.16049997579E+04  0.50400001928E-02 0.  1.
        1   -1    0    0  501    0  0.00000000000E+00  0.00000000000E+00 -0.55599052626E+03  0.55599052628E+03  0.50400001928E-02 0. -1.
    10030    2    1    2    0    0  0.00000000000E+00  0.00000000000E+00  0.10490092316E+04  0.21609902842E+04  0.18893010983E+04 0.  0.
        1    1    3    3  502    0 -0.36217312833E+03  0.17357299696E+03  0.15024856561E+04  0.15552363508E+04  0.50400001928E-02 0.  1.
       -1    1    3    3    0  502  0.36217312833E+03 -0.17357299696E+03 -0.45347642448E+03  0.60575393333E+03  0.50400001928E-02 0. -1.
</event>
<event>
 5   0  0.2813537E-05  0.1900617E+04  0.7818609E-02  0.8654549E-01
       -2   -1    0    0    0  501  0.00000000000E+00  0.00000000000E+00  0.91685906919E+03  0.91685906920E+03  0.25500000920E-02 0.  1.
        2   -1    0    0  501    0  0.00000000000E+00  0.00000000000E+00 -0.98497863588E+03  0.98497863588E+03  0.25500000920E-02 0. -1.
    10030    2    1    2    0    0  0.00000000000E+00  0.00000000000E+00 -0.68119566688E+02  0.19018377051E+04  0.19006173684E+04 0.  0.
        2    1    3    3  502    0 -0.54885501233E+03  0.69592509797E+03  0.30899124338E+03  0.93863153316E+03  0.25500000920E-02 0.  1.
       -2    1    3    3    0  502  0.54885501233E+03 -0.69592509797E+03 -0.37711081007E+03  0.96320617192E+03  0.25500000920E-02 0. -1.
</event>
<event>
 5   0  0.1344119E-05  0.1894845E+04  0.7818609E-02  0.8657427E-01
        1   -1    0    0  501    0  0.00000000000E+00  0.00000000000E+00  0.15752399470E+04  0.15752399470E+04  0.50400001928E-02 0.  1.
       -1   -1    0    0    0  501  0.00000000000E+00  0.00000000000E+00 -0.56982365126E+03  0.56982365128E+03  0.50400001928E-02 0. -1.
    10030    2    1    2    0    0  0.00000000000E+00  0.00000000000E+00  0.10054162958E+04  0.21450635983E+04  0.18948445617E+04 0.  0.
        2    1    3    3  502    0  0.91288843504E+03  0.19324321840E+03  0.68838112997E+03  0.11595588887E+04  0.25500000920E-02 0.  1.
       -2    1    3    3    0  502 -0.91288843504E+03 -0.19324321840E+03  0.31703516580E+03  0.98550470960E+03  0.25500000920E-02 0. -1.
</event>
<event>
 5   0  0.1327254E-05  0.1900409E+04  0.7818609E-02  0.8654653E-01
       -1   -1    0    0    0  501  0.00000000000E+00  0.00000000000E+00  0.77210060003E+03  0.77210060004E+03  0.50400001928E-02 0.  1.
        1   -1    0    0  501    0  0.00000000000E+00  0.00000000000E+00 -0.11693925205E+04  0.11693925205E+04  0.50400001928E-02 0. -1.
    10030    2    1    2    0    0  0.00000000000E+00  0.00000000000E+00 -0.39729192044E+03  0.19414931205E+04  0.19004090789E+04 0.  0.
        5    1    3    3  502    0 -0.11746306196E+03 -0.13444104787E+03  0.75480090093E+03  0.77564067475E+03  0.46999998093E+01 0.  1.
       -5    1    3    3    0  502  0.11746306196E+03  0.13444104787E+03 -0.11520928214E+04  0.11658524458E+04  0.46999998093E+01 0. -1.
</event>
<event>
 5   0  0.2855141E-05  0.1900159E+04  0.7818609E-02  0.8654777E-01
       -2   -1    0    0    0  501  0.00000000000E+00  0.00000000000E+00  0.32506446523E+03  0.32506446524E+03  0.25500000920E-02 0. -1.
        2   -1    0    0  501    0  0.00000000000E+00  0.00000000000E+00 -0.27768363390E+04  0.27768363390E+04  0.25500000920E-02 0.  1.
    10030    2    1    2    0    0  0.00000000000E+00  0.00000000000E+00 -0.24517718738E+04  0.31019008042E+04  0.19001587508E+04 0.  0.
        1    1    3    3  502    0  0.86356331366E+03 -0.30524895349E+03 -0.16380003585E+04  0.18766895574E+04  0.50400001928E-02 0. -1.
       -1    1    3    3    0  502 -0.86356331366E+03  0.30524895349E+03 -0.81377151526E+03  0.12252112468E+04  0.50400001928E-02 0.  1.
</event>
<event>
 5   0  0.2855141E-05  0.1886778E+04  0.7818609E-02  0.8661466E-01
        2   -1    0    0  501    0  0.00000000000E+00  0.00000000000E+00  0.31643389719E+04  0.31643389719E+04  0.25500000920E-02 0. -1.
       -2   -1    0    0    0  501  0.00000000000E+00  0.00000000000E+00 -0.28125390110E+03  0.28125390111E+03  0.25500000920E-02 0.  1.
    10030    2    1    2    0    0  0.00000000000E+00  0.00000000000E+00  0.28830850708E+04  0.34455928730E+04  0.18867778675E+04 0.  0.
        1    1    3    3  502    0 -0.25370260600E+03  0.89769635820E+03  0.16982418740E+04  0.19375885080E+04  0.50400001928E-02 0. -1.
       -1    1    3    3    0  502  0.25370260600E+03 -0.89769635820E+03  0.11848431969E+04  0.15080043650E+04  0.50400001928E-02 0.  1.
</event>
<event>
 5   0  0.2813537E-05  0.1886227E+04  0.7818609E-02  0.8661743E-01
        2   -1    0    0  501    0  0.00000000000E+00  0.00000000000E+00  0.12601680515E+04  0.12601680515E+04  0.25500000920E-02 0.  1.
       -2   -1    0    0    0  501  0.00000000000E+00  0.00000000000E+00 -0.70582868384E+03  0.70582868385E+03  0.25500000920E-02 0. -1.
    10030    2    1    2    0    0  0.00000000000E+00  0.00000000000E+00  0.55433936769E+03  0.19659967354E+04  0.18862266643E+04 0.  0.
        2    1    3    3  502    0  0.23328996468E+03 -0.11143159766E+03  0.12225116838E+04  0.12495503294E+04  0.25500000920E-02 0.  1.
       -2    1    3    3    0  502 -0.23328996468E+03  0.11143159766E+03 -0.66817231615E+03  0.71644640598E+03  0.25500000920E-02 0. -1.
</event>
<event>
 5   0  0.2789718E-05  0.1903021E+04  0.7818609E-02  0.8653354E-01
        2   -1    0    0  501    0  0.00000000000E+00  0.00000000000E+00  0.11465794154E+04  0.11465794154E+04  0.25500000920E-02 0. -1.
       -2   -1    0    0    0  501  0.00000000000E+00  0.00000000000E+00 -0.78962872599E+03  0.78962872600E+03  0.25500000920E-02 0.  1.
    10030    2    1    2    0    0  0.00000000000E+00  0.00000000000E+00  0.35695068940E+03  0.19362081414E+04  0.19030208018E+04 0.  0.
        5    1    3    3  502    0  0.39857794066E+03 -0.78483807284E+03  0.54604389914E+03  0.10358673685E+04  0.46999998093E+01 0. -1.
       -5    1    3    3    0  502 -0.39857794066E+03  0.78483807284E+03 -0.18909320973E+03  0.90034077289E+03  0.46999998093E+01 0.  1.
</event>
<event>
 5   0  0.1471485E-05  0.1897747E+04  0.7818609E-02  0.8655979E-01
       -1   -1    0    0    0  501  0.00000000000E+00  0.00000000000E+00  0.34858111574E+03  0.34858111578E+03  0.50400001928E-02 0.  1.
        1   -1    0    0  501    0  0.00000000000E+00  0.00000000000E+00 -0.25829303492E+04  0.25829303492E+04  0.50400001928E-02 0. -1.
    10030    2    1    2    0    0  0.00000000000E+00  0.00000000000E+00 -0.22343492334E+04  0.29315114650E+04  0.18977468146E+04 0.  0.
        4    1    3    3  502    0  0.89039911400E+03 -0.32775138925E+02 -0.61312208479E+03  0.10815752843E+04  0.12699999809E+01 0.  1.
       -4    1    3    3    0  502 -0.89039911400E+03  0.32775138925E+02 -0.16212271486E+04  0.18499361806E+04  0.12699999809E+01 0. -1.
</event>
<event>
 5   0  0.2855141E-05  0.1893033E+04  0.7818609E-02  0.8658332E-01
       -2   -1    0    0    0  501  0.00000000000E+00  0.00000000000E+00  0.69835061235E+03  0.69835061235E+03  0.25500000920E-02 0.  1.
        2   -1    0    0  501    0  0.00000000000E+00  0.00000000000E+00 -0.12828709697E+04  0.12828709697E+04  0.25500000920E-02 0. -1.
    10030    2    1    2    0    0  0.00000000000E+00  0.00000000000E+00 -0.58452035731E+03  0.19812215820E+04  0.18930332562E+04 0.  0.
        1    1    3    3  502    0 -0.48143018346E+03  0.50695369920E+03  0.37552110115E+03  0.79359509331E+03  0.50400001928E-02 0.  1.
       -1    1    3    3    0  502  0.48143018346E+03 -0.50695369920E+03 -0.96004145846E+03  0.11876264887E+04  0.50400001928E-02 0. -1.
</event>
<event>
 5   0  0.1413011E-05  0.1902653E+04  0.7818609E-02  0.8653537E-01
       -1   -1    0    0    0  501  0.00000000000E+00  0.00000000000E+00  0.12691974681E+04  0.12691974681E+04  0.50400001928E-02 0.  1.
        1   -1    0    0  501    0  0.00000000000E+00  0.00000000000E+00 -0.71306656133E+03  0.71306656135E+03  0.50400001928E-02 0. -1.
    10030    2    1    2    0    0  0.00000000000E+00  0.00000000000E+00  0.55613090676E+03  0.19822640295E+04  0.19026531731E+04 0.  0.
        1    1    3    3  502    0 -0.69485586521E+03 -0.64437593889E+03  0.36509045069E+03  0.10155471733E+04  0.50400001928E-02 0.  1.
       -1    1    3    3    0  502  0.69485586521E+03  0.64437593889E+03  0.19104045607E+03  0.96671685613E+03  0.50400001928E-02 0. -1.
</event>
<event>
 5   0  0.1344119E-05  0.1906208E+04  0.7818609E-02  0.8651773E-01
       -1   -1    0    0    0  501  0.00000000000E+00  0.00000000000E+00  0.10166316036E+04  0.10166316036E+04  0.50400001928E-02 0. -1.
        1   -1    0    0  501    0  0.00000000000E+00  0.00000000000E+00 -0.89354591254E+03  0.89354591256E+03  0.50400001928E-02 0.  1.
    10030    2    1    2    0    0  0.00000000000E+00  0.00000000000E+00  0.12308569109E+03  0.19101775162E+04  0.19062077683E+04 0.  0.
        2    1    3    3  502    0 -0.88864068888E+03  0.32568241474E+03 -0.51189011626E+02  0.94782468006E+03  0.25500000920E-02 0.  1.
       -2    1    3    3    0  502  0.88864068888E+03 -0.32568241474E+03  0.17427470271E+03  0.96235283614E+03  0.25500000920E-02 0. -1.
</event>
<event>
 5   0  0.1429067E-05  0.1897284E+04  0.7818609E-02  0.8656209E-01
       -1   -1    0    0    0  501  0.00000000000E+00  0.00000000000E+00  0.71229144589E+03  0.71229144591E+03  0.50400001928E-02 0.  1.
        1   -1    0    0  501    0  0.00000000000E+00  0.00000000000E+00 -0.12634183373E+04  0.12634183373E+04  0.50400001928E-02 0. -1.
    10030    2    1    2    0    0  0.00000000000E+00  0.00000000000E+00 -0.55112689144E+03  0.19757097833E+04  0.18972844534E+04 0.  0.
        3    1    3    3  502    0 -0.28891773984E+03  0.52203191203E+03  0.49243921074E+03  0.77361952150E+03  0.10100000352E+00 0.  1.
       -3    1    3    3    0  502  0.28891773984E+03 -0.52203191203E+03 -0.10435661022E+04  0.12020902617E+04  0.10100000352E+00 0. -1.
</event>
<event>
 5   0  0.1327254E-05  0.1903191E+04  0.7818609E-02  0.8653270E-01
        1   -1    0    0  501    0  0.00000000000E+00  0.00000000000E+00  0.13420993885E+04  0.13420993885E+04  0.50400001928E-02 0.  1.
       -1   -1    0    0    0  501  0.00000000000E+00  0.00000000000E+00 -0.67471471610E+03  0.67471471612E+03  0.50400001928E-02 0. -1.
    10030    2    1    2    0    0  0.00000000000E+00  0.00000000000E+00  0.66738467243E+03  0.20168141047E+04  0.19031912231E+04 0.  0.
        5    1    3    3  502    0  0.52346603388E+03 -0.15570013467E+03  0.11594797162E+04  0.12816686478E+04  0.46999998093E+01 0.  1.
       -5    1    3    3    0  502 -0.52346603388E+03  0.15570013467E+03 -0.49209504378E+03  0.73514545681E+03  0.46999998093E+01 0. -1.
</event>
<event>
 5   0  0.1344119E-05  0.1897886E+04  0.7818609E-02  0.8655909E-01
       -1   -1    0    0    0  501  0.00000000000E+00  0.00000000000E+00  0.11865586367E+04  0.11865586367E+04  0.50400001928E-02 0. -1.
        1   -1    0    0  501    0  0.00000000000E+00  0.00000000000E+00 -0.75891127420E+03  0.75891127422E+03  0.50400001928E-02 0.  1.
    10030    2    1    2    0    0  0.00000000000E+00  0.00000000000E+00  0.42764736248E+03  0.19454699109E+04  0.18978859048E+04 0.  0.
        2    1    3    3  502    0  0.85225512930E+03  0.30383308389E+03 -0.79424670339E+02  0.90827398209E+03  0.25500000920E-02 0.  1.
       -2    1    3    3    0  502 -0.85225512930E+03 -0.30383308389E+03  0.50707203282E+03  0.10371959288E+04  0.25500000920E-02 0. -1.
</event>
<event>
 5   0  0.2855141E-05  0.1898713E+04  0.7818609E-02  0.8655497E-01
        2   -1    0    0  501    0  0.00000000000E+00  0.00000000000E+00  0.10542335347E+04  0.10542335347E+04  0.25500000920E-02 0. -1.
       -2   -1    0    0    0  501  0.00000000000E+00  0.00000000000E+00 -0.85491305854E+03  0.85491305855E+03  0.25500000920E-02 0.  1.
    10030    2    1    2    0    0  0.00000000000E+00  0.00000000000E+00  0.19932047614E+03  0.19091465932E+04  0.18987132649E+04 0.  0.
        1    1    3    3  502    0 -0.45117015420E+03  0.17970326005E+03 -0.72056128426E+03  0.86893977589E+03  0.50400001928E-02 0.  1.
       -1    1    3    3    0  502  0.45117015420E+03 -0.17970326005E+03  0.91988176040E+03  0.10402068173E+04  0.50400001928E-02 0. -1.
</event>
<event>
 5   0  0.2888776E-05  0.1904186E+04  0.7818609E-02  0.8652775E-01
       -2   -1    0    0    0  501  0.00000000000E+00  0.00000000000E+00  0.65246497550E+03  0.65246497550E+03  0.25500000920E-02 0.  1.
        2   -1    0    0  501    0  0.00000000000E+00  0.00000000000E+00 -0.13893181227E+04  0.13893181227E+04  0.25500000920E-02 0. -1.
    10030    2    1    2    0    0  0.00000000000E+00  0.00000000000E+00 -0.73685314715E+03  0.20417830982E+04  0.19041863510E+04 0.  0.
        3    1    3    3  502    0 -0.19160627087E+01  0.91755520830E+03 -0.64089496753E+03  0.11192218731E+04  0.10100000352E+00 0.  1.
       -3    1    3    3    0  502  0.19160627087E+01 -0.91755520830E+03 -0.95958179622E+02  0.92256122507E+03  0.10100000352E+00 0. -1.
</event>
<event>
 5   0  0.1413011E-05  0.1895507E+04  0.7818609E-02  0.8657096E-01
        1   -1    0    0  501    0  0.00000000000E+00  0.00000000000E+00  0.66063390220E+03  0.66063390222E+03  0.50400001928E-02 0. -1.
       -1   -1    0    0    0  501  0.00000000000E+00  0.00000000000E+00 -0.13596590492E+04  0.13596590492E+04  0.50400001928E-02 0.  1.
    10030    2    1    2    0    0  0.00000000000E+00  0.00000000000E+00 -0.69902514696E+03  0.20202929514E+04  0.18955071758E+04 0.  0.
        1    1    3    3  502    0  0.15532451568E+03 -0.54422609538E+03 -0.11597759377E+04  0.12904991180E+04  0.50400001928E-02 0.  1.
       -1    1    3    3    0  502 -0.15532451568E+03  0.54422609538E+03  0.46075079069E+03  0.72979383336E+03  0.50400001928E-02 0. -1.
</event>
<event>
 5   0  0.1344119E-05  0.1897416E+04  0.7818609E-02  0.8656144E-01
       -1   -1    0    0    0  501  0.00000000000E+00  0.00000000000E+00  0.10603267060E+04  0.10603267060E+04  0.50400001928E-02 0. -1.
        1   -1    0    0  501    0  0.00000000000E+00  0.00000000000E+00 -0.84883927748E+03  0.84883927750E+03  0.50400001928E-02 0.  1.
    10030    2    1    2    0    0  0.00000000000E+00  0.00000000000E+00  0.21148742849E+03  0.19091659835E+04  0.18974160904E+04 0.  0.
        2    1    3    3  502    0  0.53652280652E+03  0.44797503063E+03  0.75120555051E+03  0.10260838802E+04  0.25500000920E-02 0. -1.
       -2    1    3    3    0  502 -0.53652280652E+03 -0.44797503063E+03 -0.53971812202E+03  0.88308210333E+03  0.25500000920E-02 0.  1.
</event>
<event>
 5   0  0.1413011E-05  0.1900265E+04  0.7818609E-02  0.8654724E-01
       -1   -1    0    0    0  501  0.00000000000E+00  0.00000000000E+00  0.61859254767E+03  0.61859254769E+03  0.50400001928E-02 0.  1.
        1   -1    0    0  501    0  0.00000000000E+00  0.00000000000E+00 -0.14593647869E+04  0.14593647869E+04  0.50400001928E-02 0. -1.
    10030    2    1    2    0    0  0.00000000000E+00  0.00000000000E+00 -0.84077223927E+03  0.20779573346E+04  0.19002654357E+04 0.  0.
        1    1    3    3  502    0  0.94044752067E+03  0.12403625964E+03 -0.36123902113E+03  0.10150468774E+04  0.50400001928E-02 0. -1.
       -1    1    3    3    0  502 -0.94044752067E+03 -0.12403625964E+03 -0.47953321813E+03  0.10629104573E+04  0.50400001928E-02 0.  1.
</event>
<event>
 5   0  0.1471485E-05  0.1899919E+04  0.7818609E-02  0.8654897E-01
       -1   -1    0    0    0  501  0.00000000000E+00  0.00000000000E+00  0.65570288368E+03  0.65570288370E+03  0.50400001928E-02 0.  1.
        1   -1    0    0  501    0  0.00000000000E+00  0.00000000000E+00 -0.13762677330E+04  0.13762677330E+04  0.50400001928E-02 0. -1.
    10030    2    1    2    0    0  0.00000000000E+00  0.00000000000E+00 -0.72056484931E+03  0.20319706167E+04  0.18999186522E+04 0.  0.
        4    1    3    3  502    0  0.17709971990E+03 -0.84141105671E+03 -0.79218759447E+03  0.11691448477E+04  0.12699999809E+01 0. -1.
       -4    1    3    3    0  502 -0.17709971990E+03  0.84141105671E+03  0.71622745159E+02  0.86282576901E+03  0.12699999809E+01 0.  1.
</event>
<event>
 5   0  0.1327254E-05  0.1904388E+04  0.7818609E-02  0.8652675E-01
        1   -1    0    0  501    0  0.00000000000E+00  0.00000000000E+00  0.15409809544E+04  0.15409809544E+04  0.50400001928E-02 0. -1.
       -1   -1    0    0    0  501  0.00000000000E+00  0.00000000000E+00 -0.58837397842E+03  0.58837397844E+03  0.50400001928E-02 0.  1.
    10030    2    1    2    0    0  0.00000000000E+00  0.00000000000E+00  0.95260697602E+03  0.21293549329E+04  0.19043876652E+04 0.  0.
        5    1    3    3  502    0  0.22373563578E+03 -0.13568415591E+03 -0.54737168133E+03  0.60671712717E+03  0.46999998093E+01 0.  1.
       -5    1    3    3    0  502 -0.22373563578E+03  0.13568415591E+03  0.14999786574E+04  0.15226378057E+04  0.46999998093E+01 0. -1.
</event>
<event>
 5   0  0.2855141E-05  0.1899397E+04  0.7818609E-02  0.8655156E-01
       -2   -1    0    0    0  501  0.00000000000E+00  0.00000000000E+00  0.72405162045E+03  0.72405162045E+03  0.25500000920E-02 0. -1.
        2   -1    0    0  501    0  0.00000000000E+00  0.00000000000E+00 -0.12456674419E+04  0.12456674419E+04  0.25500000920E-02 0.  1.
    10030    2    1    2    0    0  0.00000000000E+00  0.00000000000E+00 -0.52161582145E+03  0.19697190623E+04  0.18993973042E+04 0.  0.
        1    1    3    3  502    0  0.22589774808E+02 -0.91627545892E+03 -0.51872563945E+03  0.10531606257E+04  0.50400001928E-02 0. -1.
       -1    1    3    3    0  502 -0.22589774808E+02  0.91627545892E+03 -0.28901819960E+01  0.91655843661E+03  0.50400001928E-02 0.  1.
</event>
<event>
 5   0  0.1327254E-05  0.1904205E+04  0.7818609E-02  0.8652766E-01
       -1   -1    0    0    0  501  0.00000000000E+00  0.00000000000E+00  0.74788336249E+03  0.74788336251E+03  0.50400001928E-02 0.  1.
        1   -1    0    0  501    0  0.00000000000E+00  0.00000000000E+00 -0.12120867372E+04  0.12120867372E+04  0.50400001928E-02 0. -1.
    10030    2    1    2    0    0  0.00000000000E+00  0.00000000000E+00 -0.46420337473E+03  0.19599700997E+04  0.19042053510E+04 0.  0.
        5    1    3    3  502    0  0.55732023874E+03  0.77147954544E+03 -0.25915597370E+03  0.98639264304E+03  0.46999998093E+01 0.  1.
       -5    1    3    3    0  502 -0.55732023874E+03 -0.77147954544E+03 -0.20504740103E+03  0.97357745671E+03  0.46999998093E+01 0. -1.
</event>
<event>
 5   0  0.2813537E-05  0.1883256E+04  0.7818609E-02  0.8663236E-01
        2   -1    0    0  501    0  0.00000000000E+00  0.00000000000E+00  0.20919758571E+04  0.20919758571E+04  0.25500000920E-02 0.  1.
       -2   -1    0    0    0  501  0.00000000000E+00  0.00000000000E+00 -0.42384018506E+03  0.42384018506E+03  0.25500000920E-02 0. -1.
    10030    2    1    2    0    0  0.00000000000E+00  0.00000000000E+00  0.16681356720E+04  0.25158160421E+04  0.18832561530E+04 0.  0.
        2    1    3    3  502    0  0.71690065133E+03 -0.31863888946E+03  0.13839789458E+03  0.79663747274E+03  0.25500000920E-02 0. -1.
       -2    1    3    3    0  502 -0.71690065133E+03  0.31863888946E+03  0.15297377774E+04  0.17191785694E+04  0.25500000920E-02 0.  1.
</event>
<event>
 5   0  0.1471485E-05  0.1899263E+04  0.7818609E-02  0.8655223E-01
        1   -1    0    0  501    0  0.00000000000E+00  0.00000000000E+00  0.10315439093E+04  0.10315439093E+04  0.50400001928E-02 0.  1.
       -1   -1    0    0    0  501  0.00000000000E+00  0.00000000000E+00 -0.87422346999E+03  0.87422347001E+03  0.50400001928E-02 0. -1.
    10030    2    1    2    0    0  0.00000000000E+00  0.00000000000E+00  0.15732043927E+03  0.19057673793E+04  0.18992629053E+04 0.  0.
        4    1    3    3  502    0  0.69063774317E+03 -0.33308940486E+03  0.64081923528E+03  0.99928972232E+03  0.12699999809E+01 0.  1.
       -4    1    3    3    0  502 -0.69063774317E+03  0.33308940486E+03 -0.48349879601E+03  0.90647765696E+03  0.12699999809E+01 0. -1.
</event>
<event>
 5   0  0.2888776E-05  0.1899228E+04  0.7818609E-02  0.8655241E-01
       -2   -1    0    0    0  501  0.00000000000E+00  0.00000000000E+00  0.50553166923E+03  0.50553166924E+03  0.25500000920E-02 0.  1.
        2   -1    0    0  501    0  0.00000000000E+00  0.00000000000E+00 -0.17837989977E+04  0.17837989977E+04  0.25500000920E-02 0. -1.
    10030    2    1    2    0    0  0.00000000000E+00  0.00000000000E+00 -0.12782673285E+04  0.22893306669E+04  0.18992281431E+04 0.  0.
        3    1    3    3  502    0  0.49878342350E+03  0.38503430187E+03  0.21723582961E+03  0.66650411330E+03  0.10100000352E+00 0.  1.
       -3    1    3    3    0  502 -0.49878342350E+03 -0.38503430187E+03 -0.14955031581E+04  0.16228265537E+04  0.10100000352E+00 0. -1.
</event>
<event>
 5   0  0.1413011E-05  0.1902158E+04  0.7818609E-02  0.8653783E-01
       -1   -1    0    0    0  501  0.00000000000E+00  0.00000000000E+00  0.44615397041E+03  0.44615397044E+03  0.50400001928E-02 0.  1.
        1   -1    0    0  501    0  0.00000000000E+00  0.00000000000E+00 -0.20274410871E+04  0.20274410871E+04  0.50400001928E-02 0. -1.
    10030    2    1    2    0    0  0.00000000000E+00  0.00000000000E+00 -0.15812871167E+04  0.24735950576E+04  0.19021576074E+04 0.  0.
        1    1    3    3  502    0 -0.22914265334E+03 -0.57054667417E+03  0.15296086091E+03  0.63358258182E+03  0.50400001928E-02 0.  1.
       -1    1    3    3    0  502  0.22914265334E+03  0.57054667417E+03 -0.17342479776E+04  0.18400124757E+04  0.50400001928E-02 0. -1.
</event>
<event>
 5   0  0.2888776E-05  0.1894932E+04  0.7818609E-02  0.8657383E-01
        2   -1    0    0  501    0  0.00000000000E+00  0.00000000000E+00  0.19844569028E+04  0.19844569028E+04  0.25500000920E-02 0. -1.
       -2   -1    0    0    0  501  0.00000000000E+00  0.00000000000E+00 -0.45236144266E+03  0.45236144266E+03  0.25500000920E-02 0.  1.
    10030    2    1    2    0    0  0.00000000000E+00  0.00000000000E+00  0.15320954601E+04  0.24368183455E+04  0.18949319644E+04 0.  0.
        3    1    3    3  502    0 -0.43128247817E+03 -0.15202513459E+03  0.18331482605E+04  0.18893249516E+04  0.10100000352E+00 0. -1.
       -3    1    3    3    0  502  0.43128247817E+03  0.15202513459E+03 -0.30105280036E+03  0.54749339387E+03  0.10100000352E+00 0.  1.
</event>
<event>
 5   0  0.1327254E-05  0.1884583E+04  0.7818609E-02  0.8662569E-01
        1   -1    0    0  501    0  0.00000000000E+00  0.00000000000E+00  0.55115059758E+03  0.55115059761E+03  0.50400001928E-02 0. -1.
       -1   -1    0    0    0  501  0.00000000000E+00  0.00000000000E+00 -0.16110176737E+04  0.16110176737E+04  0.50400001928E-02 0.  1.
    10030    2    1    2    0    0  0.00000000000E+00  0.00000000000E+00 -0.10598670761E+04  0.21621682713E+04  0.18845830877E+04 0.  0.
        5    1    3    3  502    0 -0.92527006337E+03 -0.17766257981E+03 -0.54626307035E+03  0.10890886623E+04  0.46999998093E+01 0. -1.
       -5    1    3    3    0  502  0.92527006337E+03  0.17766257981E+03 -0.51360400576E+03  0.10730796090E+04  0.46999998093E+01 0.  1.
</event>
<event>
 5   0  0.1327254E-05  0.1901327E+04  0.7818609E-02  0.8654196E-01
       -1   -1    0    0    0  501  0.00000000000E+00  0.00000000000E+00  0.75085171098E+03  0.75085171100E+03  0.50400001928E-02 0.  1.
        1   -1    0    0  501    0  0.00000000000E+00  0.00000000000E+00 -0.12036485357E+04  0.12036485357E+04  0.50400001928E-02 0. -1.
    10030    2    1    2    0    0  0.00000000000E+00  0.00000000000E+00 -0.45279682467E+03  0.19545002467E+04  0.19013274967E+04 0.  0.
        5    1    3    3  502    0  0.18867726672E+02 -0.15732075352E+03 -0.11899671907E+04  0.12004789942E+04  0.46999998093E+01 0. -1.
       -5    1    3    3    0  502 -0.18867726672E+02  0.15732075352E+03  0.73717036603E+03  0.75402125245E+03  0.46999998093E+01 0.  1.
</event>
<event>
 5   0  0.1429067E-05  0.1904438E+04  0.7818609E-02  0.8652650E-01
       -1   -1    0    0    0  501  0.00000000000E+00  0.00000000000E+00  0.18997002460E+04  0.18997002460E+04  0.50400001928E-02 0. -1.
        1   -1    0    0  501    0  0.00000000000E+00  0.00000000000E+00 -0.47729711915E+03  0.47729711917E+03  0.50400001928E-02 0.  1.
    10030    2    1    2    0    0  0.00000000000E+00  0.00000000000E+00  0.14224031269E+04  0.23769973652E+04  0.19044384524E+04 0.  0.
        3    1    3    3  502    0 -0.63244347052E+03  0.17864321669E+03 -0.14885649753E+03  0.67383707922E+03  0.10100000352E+00 0.  1.
       -3    1    3    3    0  502  0.63244347052E+03 -0.17864321669E+03  0.15712596244E+04  0.17031602860E+04  0.10100000352E+00 0. -1.
</event>
<event>
 5   0  0.2789718E-05  0.1887324E+04  0.7818609E-02  0.8661192E-01
        2   -1    0    0  501    0  0.00000000000E+00  0.00000000000E+00  0.20576692347E+04  0.20576692347E+04  0.25500000920E-02 0.  1.
       -2   -1    0    0    0  501  0.00000000000E+00  0.00000000000E+00 -0.43277028814E+03  0.43277028815E+03  0.25500000920E-02 0. -1.
    10030    2    1    2    0    0  0.00000000000E+00  0.00000000000E+00  0.16248989466E+04  0.24904395229E+04  0.18873241456E+04 0.  0.
        5    1    3    3  502    0  0.19776893536E+03  0.56540650116E+03 -0.14972590368E+03  0.61744392424E+03  0.46999998093E+01 0. -1.
       -5    1    3    3    0  502 -0.19776893536E+03 -0.56540650116E+03  0.17746248503E+04  0.18729955987E+04  0.46999998093E+01 0.  1.
</event>
<event>
 5   0  0.2855141E-05  0.1893488E+04  0.7818609E-02  0.8658104E-01
        2   -1    0    0  501    0  0.00000000000E+00  0.00000000000E+00  0.97163766406E+03  0.97163766406E+03  0.25500000920E-02 0.  1.
       -2   -1    0    0    0  501  0.00000000000E+00  0.00000000000E+00 -0.92248834758E+03  0.92248834758E+03  0.25500000920E-02 0. -1.
    10030    2    1    2    0    0  0.00000000000E+00  0.00000000000E+00  0.49149316475E+02  0.18941260116E+04  0.18934882341E+04 0.  0.
        1    1    3    3  502    0  0.15693436129E+03 -0.93353492322E+03  0.10127615547E+02  0.94668812988E+03  0.50400001928E-02 0.  1.
       -1    1    3    3    0  502 -0.15693436129E+03  0.93353492322E+03  0.39021700929E+02  0.94743788176E+03  0.50400001928E-02 0. -1.
</event>
<event>
 5   0  0.2855141E-05  0.1897732E+04  0.7818609E-02  0.8655986E-01
       -2   -1    0    0    0  501  0.00000000000E+00  0.00000000000E+00  0.58964686862E+03  0.58964686863E+03  0.25500000920E-02 0. -1.
        2   -1    0    0  501    0  0.00000000000E+00  0.00000000000E+00 -0.15269250955E+04  0.15269250955E+04  0.25500000920E-02 0.  1.
    10030    2    1    2    0    0  0.00000000000E+00  0.00000000000E+00 -0.93727822688E+03  0.21165719641E+04  0.18977319107E+04 0.  0.
        1    1    3    3  502    0 -0.13913017269E+03  0.13773230772E+03 -0.15041547239E+04  0.15168417277E+04  0.50400001928E-02 0.  1.
       -1    1    3    3    0  502  0.13913017269E+03 -0.13773230772E+03  0.56687649702E+03  0.59973023640E+03  0.50400001928E-02 0. -1.
</event>
<event>
 5   0  0.1344119E-05  0.1911087E+04  0.7818609E-02  0.8649357E-01
       -1   -1    0    0    0  501  0.00000000000E+00  0.00000000000E+00  0.67827234946E+03  0.67827234948E+03  0.50400001928E-02 0.  1.
        1   -1    0    0  501    0  0.00000000000E+00  0.00000000000E+00 -0.13461599198E+04  0.13461599198E+04  0.50400001928E-02 0. -1.
    10030    2    1    2    0    0  0.00000000000E+00  0.00000000000E+00 -0.66788757031E+03  0.20244322693E+04  0.19110866559E+04 0.  0.
        2    1    3    3  502    0  0.18425091876E+02  0.78053244593E+03 -0.91751918102E+03  0.12047455460E+04  0.25500000920E-02 0. -1.
       -2    1    3    3    0  502 -0.18425091876E+02 -0.78053244593E+03  0.24963161070E+03  0.81968672322E+03  0.25500000920E-02 0.  1.
</event>
<event>
 5   0  0.1344119E-05  0.1897608E+04  0.7818609E-02  0.8656048E-01
        1   -1    0    0  501    0  0.00000000000E+00  0.00000000000E+00  0.11635293500E+04  0.11635293500E+04  0.50400001928E-02 0.  1.
       -1   -1    0    0    0  501  0.00000000000E+00  0.00000000000E+00 -0.77370539998E+03  0.77370540000E+03  0.50400001928E-02 0. -1.
    10030    2    1    2    0    0  0.00000000000E+00  0.00000000000E+00  0.38982395006E+03  0.19372347500E+04  0.18976079060E+04 0.  0.
        2    1    3    3  502    0  0.64998639368E+03 -0.74340996432E+02 -0.50662082156E+03  0.82745003025E+03  0.25500000920E-02 0. -1.
       -2    1    3    3    0  502 -0.64998639368E+03  0.74340996432E+02  0.89644477161E+03  0.11097847198E+04  0.25500000920E-02 0.  1.
</event>
<event>
 5   0  0.2813537E-05  0.1902263E+04  0.7818609E-02  0.8653731E-01
        2   -1    0    0  501    0  0.00000000000E+00  0.00000000000E+00  0.64851430279E+03  0.64851430280E+03  0.25500000920E-02 0. -1.
       -2   -1    0    0    0  501  0.00000000000E+00  0.00000000000E+00 -0.13949587214E+04  0.13949587214E+04  0.25500000920E-02 0.  1.
    10030    2    1    2    0    0  0.00000000000E+00  0.00000000000E+00 -0.74644441857E+03  0.20434730242E+04  0.19022625293E+04 0.  0.
        2    1    3    3  502    0  0.64229787317E+03  0.70015024425E+03 -0.41996998459E+03  0.10388126445E+04  0.25500000920E-02 0. -1.
       -2    1    3    3    0  502 -0.64229787317E+03 -0.70015024425E+03 -0.32647443398E+03  0.10046603797E+04  0.25500000920E-02 0.  1.
</event>
<event>
 5   0  0.1327254E-05  0.1899593E+04  0.7818609E-02  0.8655059E-01
       -1   -1    0    0    0  501  0.00000000000E+00  0.00000000000E+00  0.46748837046E+03  0.46748837049E+03  0.50400001928E-02 0. -1.
        1   -1    0    0  501    0  0.00000000000E+00  0.00000000000E+00 -0.19297024615E+04  0.19297024615E+04  0.50400001928E-02 0.  1.
    10030    2    1    2    0    0  0.00000000000E+00  0.00000000000E+00 -0.14622140910E+04  0.23971908320E+04  0.18995930714E+04 0.  0.
        5    1    3    3  502    0  0.35905912011E+03  0.60560069152E+03  0.73395236142E+02  0.70787329374E+03  0.46999998093E+01 0. -1.
       -5    1    3    3    0  502 -0.35905912011E+03 -0.60560069152E+03 -0.15356093272E+04  0.16893175382E+04  0.46999998093E+01 0.  1.
</event>
<event>
 5   0  0.1471485E-05  0.1885460E+04  0.7818609E-02  0.8662128E-01
        1   -1    0    0  501    0  0.00000000000E+00  0.00000000000E+00  0.98177698315E+03  0.98177698317E+03  0.50400001928E-02 0. -1.
       -1   -1    0    0    0  501  0.00000000000E+00  0.00000000000E+00 -0.90523565273E+03  0.90523565275E+03  0.50400001928E-02 0.  1.
    10030    2    1    2    0    0  0.00000000000E+00  0.00000000000E+00  0.76541330418E+02  0.18870126359E+04  0.18854596556E+04 0.  0.
        4    1    3    3  502    0 -0.47948595116E+03  0.63528324325E+03  0.54390589447E+03  0.96401598091E+03  0.12699999809E+01 0. -1.
       -4    1    3    3    0  502  0.47948595116E+03 -0.63528324325E+03 -0.46736456405E+03  0.92299665500E+03  0.12699999809E+01 0.  1.
</event>
<event>
 5   0  0.1429067E-05  0.1903545E+04  0.7818609E-02  0.8653094E-01
       -1   -1    0    0    0  501  0.00000000000E+00  0.00000000000E+00  0.81468308515E+03  0.81468308517E+03  0.50400001928E-02 0.  1.
        1   -1    0    0  501    0  0.00000000000E+00  0.00000000000E+00 -0.11119301133E+04  0.11119301133E+04  0.50400001928E-02 0. -1.
    10030    2    1    2    0    0  0.00000000000E+00  0.00000000000E+00 -0.29724702815E+03  0.19266131985E+04  0.19035447515E+04 0.  0.
        3    1    3    3  502    0 -0.32152277508E+03  0.76189931528E+03 -0.62550563562E+03  0.10368822363E+04  0.10100000352E+00 0. -1.
       -3    1    3    3    0  502  0.32152277508E+03 -0.76189931528E+03  0.32825860747E+03  0.88973096220E+03  0.10100000352E+00 0.  1.
</event>
<event>
 5   0  0.1327254E-05  0.1897598E+04  0.7818609E-02  0.8656053E-01
       -1   -1    0    0    0  501  0.00000000000E+00  0.00000000000E+00  0.60569687544E+03  0.60569687546E+03  0.50400001928E-02 0. -1.
        1   -1    0    0  501    0  0.00000000000E+00  0.00000000000E+00 -0.14862534613E+04  0.14862534613E+04  0.50400001928E-02 0.  1.
    10030    2    1    2    0    0  0.00000000000E+00  0.00000000000E+00 -0.88055658585E+03  0.20919503368E+04  0.18975975102E+04 0.  0.
        5    1    3    3  502    0  0.19326676626E+03 -0.21568036066E+03  0.55576755463E+03  0.62671343187E+03  0.46999998093E+01 0. -1.
       -5    1    3    3    0  502 -0.19326676626E+03  0.21568036066E+03 -0.14363241405E+04  0.14652369049E+04  0.46999998093E+01 0.  1.
</event>
<event>
 5   0  0.2813537E-05  0.1900902E+04  0.7818609E-02  0.8654408E-01
        2   -1    0    0  501    0  0.00000000000E+00  0.00000000000E+00  0.10286238312E+04  0.10286238312E+04  0.25500000920E-02 0.  1.
       -2   -1    0    0    0  501  0.00000000000E+00  0.00000000000E+00 -0.87821909901E+03  0.87821909901E+03  0.25500000920E-02 0. -1.
    10030    2    1    2    0    0  0.00000000000E+00  0.00000000000E+00  0.15040473221E+03  0.19068429302E+04  0.19009019904E+04 0.  0.
        2    1    3    3  502    0 -0.90895152194E+03 -0.11281610013E+03  0.32983966463E+03  0.97350631536E+03  0.25500000920E-02 0.  1.
       -2    1    3    3    0  502  0.90895152194E+03  0.11281610013E+03 -0.17943493242E+03  0.93333661487E+03  0.25500000920E-02 0. -1.
</event>
<event>
 5   0  0.2813537E-05  0.1899432E+04  0.7818609E-02  0.8655139E-01
       -2   -1    0    0    0  501  0.00000000000E+00  0.00000000000E+00  0.68450775995E+03  0.68450775995E+03  0.25500000920E-02 0. -1.
        2   -1    0    0  501    0  0.00000000000E+00  0.00000000000E+00 -0.13176774764E+04  0.13176774764E+04  0.25500000920E-02 0.  1.
    10030    2    1    2    0    0  0.00000000000E+00  0.00000000000E+00 -0.63316971649E+03  0.20021852364E+04  0.18994319759E+04 0.  0.
        2    1    3    3  502    0 -0.86288181710E+03  0.63616480761E+02 -0.72936623291E+03  0.11316303233E+04  0.25500000920E-02 0.  1.
       -2    1    3    3    0  502  0.86288181710E+03 -0.63616480761E+02  0.96196516421E+02  0.87055491308E+03  0.25500000920E-02 0. -1.
</event>
<event>
 5   0  0.1471485E-05  0.1897009E+04  0.7818609E-02  0.8656346E-01
       -1   -1    0    0    0  501  0.00000000000E+00  0.00000000000E+00  0.11408299861E+04  0.11408299861E+04  0.50400001928E-02 0. -1.
        1   -1    0    0  501    0  0.00000000000E+00  0.00000000000E+00 -0.78860220349E+03  0.78860220351E+03  0.50400001928E-02 0.  1.
    10030    2    1    2    0    0  0.00000000000E+00  0.00000000000E+00  0.35222778260E+03  0.19294321896E+04  0.18970092682E+04 0.  0.
        4    1    3    3  502    0 -0.54156850800E+02 -0.86338347898E+02 -0.78301597250E+03  0.78962199874E+03  0.12699999809E+01 0.  1.
       -4    1    3    3    0  502  0.54156850800E+02  0.86338347898E+02  0.11352437551E+04  0.11398101909E+04  0.12699999809E+01 0. -1.
</event>
<event>
 5   0  0.1413011E-05  0.1907508E+04  0.7818609E-02  0.8651128E-01
       -1   -1    0    0    0  501  0.00000000000E+00  0.00000000000E+00  0.92068968354E+03  0.92068968355E+03  0.50400001928E-02 0.  1.
        1   -1    0    0  501    0  0.00000000000E+00  0.00000000000E+00 -0.98800613458E+03  0.98800613459E+03  0.50400001928E-02 0. -1.
    10030    2    1    2    0    0  0.00000000000E+00  0.00000000000E+00 -0.67316451041E+02  0.19086958181E+04  0.19075083805E+04 0.  0.
        1    1    3    3  502    0 -0.74310010317E+03 -0.54424142455E+03 -0.28130080147E+03  0.96308184100E+03  0.50400001928E-02 0. -1.
       -1    1    3    3    0  502  0.74310010317E+03  0.54424142455E+03  0.21398435043E+03  0.94561397715E+03  0.50400001928E-02 0.  1.
</event>
<event>
 5   0  0.1413011E-05  0.1900558E+04  0.7818609E-02  0.8654579E-01
        1   -1    0    0  501    0  0.00000000000E+00  0.00000000000E+00  0.12161192404E+04  0.12161192404E+04  0.50400001928E-02 0.  1.
       -1   -1    0    0    0  501  0.00000000000E+00  0.00000000000E+00 -0.74255039161E+03  0.74255039162E+03  0.50400001928E-02 0. -1.
    10030    2    1    2    0    0  0.00000000000E+00  0.00000000000E+00  0.47356884875E+03  0.19586696320E+04  0.19005576215E+04 0.  0.
        1    1    3    3  502    0 -0.20786484155E+03  0.47306157962E+03 -0.58511859679E+03  0.78061438803E+03  0.50400001928E-02 0. -1.
       -1    1    3    3    0  502  0.20786484155E+03 -0.47306157962E+03  0.10586874455E+04  0.11780552440E+04  0.50400001928E-02 0.  1.
</event>
<event>
 5   0  0.1327254E-05  0.1899352E+04  0.7818609E-02  0.8655179E-01
       -1   -1    0    0    0  501  0.00000000000E+00  0.00000000000E+00  0.81368724814E+03  0.81368724816E+03  0.50400001928E-02 0.  1.
        1   -1    0    0  501    0  0.00000000000E+00  0.00000000000E+00 -0.11083920955E+04  0.11083920956E+04  0.50400001928E-02 0. -1.
    10030    2    1    2    0    0  0.00000000000E+00  0.00000000000E+00 -0.29470484740E+03  0.19220793437E+04  0.18993520096E+04 0.  0.
        5    1    3    3  502    0  0.10977934725E+03  0.23685090291E+02  0.80693186134E+03  0.81472302498E+03  0.46999998093E+01 0.  1.
       -5    1    3    3    0  502 -0.10977934725E+03 -0.23685090291E+02 -0.11016367087E+04  0.11073563187E+04  0.46999998093E+01 0. -1.
</event>
<event>
 5   0  0.2855141E-05  0.1899012E+04  0.7818609E-02  0.8655348E-01
        2   -1    0    0  501    0  0.00000000000E+00  0.00000000000E+00  0.18763807484E+04  0.18763807484E+04  0.25500000920E-02 0. -1.
       -2   -1    0    0    0  501  0.00000000000E+00  0.00000000000E+00 -0.48047904561E+03  0.48047904562E+03  0.25500000920E-02 0.  1.
    10030    2    1    2    0    0  0.00000000000E+00  0.00000000000E+00  0.13959017028E+04  0.23568597940E+04  0.18990119865E+04 0.  0.
        1    1    3    3  502    0 -0.12742740083E+03  0.51831907496E+03 -0.27666210282E+03  0.60119408273E+03  0.50400001928E-02 0.  1.
       -1    1    3    3    0  502  0.12742740083E+03 -0.51831907496E+03  0.16725638056E+04  0.17556657113E+04  0.50400001928E-02 0. -1.
</event>
<event>
 5   0  0.2888776E-05  0.1901259E+04  0.7818609E-02  0.8654230E-01
       -2   -1    0    0    0  501  0.00000000000E+00  0.00000000000E+00  0.55793458954E+03  0.55793458954E+03  0.25500000920E-02 0. -1.
        2   -1    0    0  501    0  0.00000000000E+00  0.00000000000E+00 -0.16197182021E+04  0.16197182021E+04  0.25500000920E-02 0.  1.
    10030    2    1    2    0    0  0.00000000000E+00  0.00000000000E+00 -0.10617836126E+04  0.21776527917E+04  0.19012593829E+04 0.  0.
        3    1    3    3  502    0  0.37932539575E+03  0.28174215388E+03 -0.14756901456E+04  0.15494927600E+04  0.10100000352E+00 0.  1.
       -3    1    3    3    0  502 -0.37932539575E+03 -0.28174215388E+03  0.41390653303E+03  0.62816003170E+03  0.10100000352E+00 0. -1.
</event>
<event>
 5   0  0.2855141E-05  0.1898814E+04  0.7818609E-02  0.8655447E-01
       -2   -1    0    0    0  501  0.00000000000E+00  0.00000000000E+00  0.76341151242E+03  0.76341151242E+03  0.25500000920E-02 0.  1.
        2   -1    0    0  501    0  0.00000000000E+00  0.00000000000E+00 -0.11807176757E+04  0.11807176757E+04  0.25500000920E-02 0. -1.
    10030    2    1    2    0    0  0.00000000000E+00  0.00000000000E+00 -0.41730616325E+03  0.19441291881E+04  0.18988138050E+04 0.  0.
        1    1    3    3  502    0 -0.44887077236E+03  0.66861111668E+03 -0.72349300710E+03  0.10825746750E+04  0.50400001928E-02 0. -1.
       -1    1    3    3    0  502  0.44887077236E+03 -0.66861111668E+03  0.30618684385E+03  0.86155451308E+03  0.50400001928E-02 0.  1.
</event>
<event>
 5   0  0.2888776E-05  0.1899030E+04  0.7818609E-02  0.8655339E-01
       -2   -1    0    0    0  501  0.00000000000E+00  0.00000000000E+00  0.49666708701E+03  0.49666708702E+03  0.25500000920E-02 0. -1.
        2   -1    0    0  501    0  0.00000000000E+00  0.00000000000E+00 -0.18152575849E+04  0.18152575849E+04  0.25500000920E-02 0.  1.
    10030    2    1    2    0    0  0.00000000000E+00  0.00000000000E+00 -0.13185904979E+04  0.23119246720E+04  0.18990299596E+04 0.  0.
        3    1    3    3  502    0  0.28704985128E+03  0.28571723317E+03 -0.17048255766E+04  0.17522734407E+04  0.10100000352E+00 0.  1.
       -3    1    3    3    0  502 -0.28704985128E+03 -0.28571723317E+03  0.38623507862E+03  0.55965123122E+03  0.10100000352E+00 0. -1.
</event>
<event>
 5   0  0.2789718E-05  0.1899334E+04  0.7818609E-02  0.8655188E-01
        2   -1    0    0  501    0  0.00000000000E+00  0.00000000000E+00  0.12607518260E+04  0.12607518260E+04  0.25500000920E-02 0. -1.
       -2   -1    0    0    0  501  0.00000000000E+00  0.00000000000E+00 -0.71534128372E+03  0.71534128373E+03  0.25500000920E-02 0.  1.
    10030    2    1    2    0    0  0.00000000000E+00  0.00000000000E+00  0.54541054229E+03  0.19760931097E+04  0.18993344410E+04 0.  0.
        5    1    3    3  502    0  0.25558852622E+03 -0.66208488223E+02  0.12217863026E+04  0.12499971672E+04  0.46999998093E+01 0. -1.
       -5    1    3    3    0  502 -0.25558852622E+03  0.66208488223E+02 -0.67637576034E+03  0.72609594257E+03  0.46999998093E+01 0.  1.
</event>
<event>
 5   0  0.1344119E-05  0.1902964E+04  0.7818609E-02  0.8653382E-01
        1   -1    0    0  501    0  0.00000000000E+00  0.00000000000E+00  0.11946219660E+04  0.11946219660E+04  0.50400001928E-02 0. -1.
       -1   -1    0    0    0  501  0.00000000000E+00  0.00000000000E+00 -0.75782803625E+03  0.75782803627E+03  0.50400001928E-02 0.  1.
    10030    2    1    2    0    0  0.00000000000E+00  0.00000000000E+00  0.43679392976E+03  0.19524500023E+04  0.19029640234E+04 0.  0.
        2    1    3    3  502    0  0.20392512634E+02  0.56284600201E+03 -0.56842658293E+03  0.80020013543E+03  0.25500000920E-02 0.  1.
       -2    1    3    3    0  502 -0.20392512634E+02 -0.56284600201E+03  0.10052205127E+04  0.11522498669E+04  0.25500000920E-02 0. -1.
</event>
<event>
 5   0  0.1429067E-05  0.1897462E+04  0.7818609E-02  0.8656121E-01
        1   -1    0    0  501    0  0.00000000000E+00  0.00000000000E+00  0.14127223263E+04  0.14127223263E+04  0.50400001928E-02 0. -1.
       -1   -1    0    0    0  501  0.00000000000E+00  0.00000000000E+00 -0.63713160910E+03  0.63713160912E+03  0.50400001928E-02 0.  1.
    10030    2    1    2    0    0  0.00000000000E+00  0.00000000000E+00  0.77559071719E+03  0.20498539354E+04  0.18974615137E+04 0.  0.
        3    1    3    3  502    0 -0.53528605385E+03  0.62527122832E+03  0.89748689097E+03  0.12177758407E+04  0.10100000352E+00 0. -1.
       -3    1    3    3    0  502  0.53528605385E+03 -0.62527122832E+03 -0.12189617377E+03  0.83207809477E+03  0.10100000352E+00 0.  1.
</event>
<event>
 5   0  0.2855141E-05  0.1900558E+04  0.7818609E-02  0.8654578E-01
        2   -1    0    0  501    0  0.00000000000E+00  0.00000000000E+00  0.16270634024E+04  0.16270634024E+04  0.25500000920E-02 0.  1.
       -2   -1    0    0    0  501  0.00000000000E+00  0.00000000000E+00 -0.55500637635E+03  0.55500637635E+03  0.25500000920E-02 0. -1.
    10030    2    1    2    0    0  0.00000000000E+00  0.00000000000E+00  0.10720570261E+04  0.21820697788E+04  0.19005584054E+04 0.  0.
        1    1    3    3  502    0 -0.79038471526E+02  0.38793594018E+03  0.15278670752E+04  0.15783279676E+04  0.50400001928E-02 0.  1.
       -1    1    3    3    0  502  0.79038471526E+02 -0.38793594018E+03 -0.45581004915E+03  0.60374181120E+03  0.50400001928E-02 0. -1.
</event>
<event>
 5   0  0.1429067E-05  0.1902403E+04  0.7818609E-02  0.8653661E-01
       -1   -1    0    0    0  501  0.00000000000E+00  0.00000000000E+00  0.10129172161E+04  0.10129172161E+04  0.50400001928E-02 0.  1.
        1   -1    0    0  501    0  0.00000000000E+00  0.00000000000E+00 -0.89324636002E+03  0.89324636003E+03  0.50400001928E-02 0. -1.
    10030    2    1    2    0    0  0.00000000000E+00  0.00000000000E+00  0.11967085610E+03  0.19061635762E+04  0.19024033393E+04 0.  0.
        3    1    3    3  502    0  0.85133275621E+03  0.30049288645E+03 -0.24029154629E+03  0.93423951641E+03  0.10100000352E+00 0. -1.
       -3    1    3    3    0  502 -0.85133275621E+03 -0.30049288645E+03  0.35996240238E+03  0.97192405975E+03  0.10100000352E+00 0.  1.
</event>
<event>
 5   0  0.1344119E-05  0.1901219E+04  0.7818609E-02  0.8654250E-01
        1   -1    0    0  501    0  0.00000000000E+00  0.00000000000E+00  0.85987693763E+03  0.85987693765E+03  0.50400001928E-02 0. -1.
       -1   -1    0    0    0  501  0.00000000000E+00  0.00000000000E+00 -0.10509157046E+04  0.10509157046E+04  0.50400001928E-02 0.  1.
    10030    2    1    2    0    0  0.00000000000E+00  0.00000000000E+00 -0.19103876693E+03  0.19107926422E+04  0.19012187436E+04 0.  0.
        2    1    3    3  502    0  0.14936610312E+03 -0.21189102579E+03  0.82366259654E+03  0.86349760423E+03  0.25500000920E-02 0. -1.
       -2    1    3    3    0  502 -0.14936610312E+03  0.21189102579E+03 -0.10147013635E+04  0.10472950380E+04  0.25500000920E-02 0.  1.
</event>
<event>
 5   0  0.1471485E-05  0.1897524E+04  0.7818609E-02  0.8656090E-01
       -1   -1    0    0    0  501  0.00000000000E+00  0.00000000000E+00  0.17827220129E+04  0.17827220129E+04  0.50400001928E-02 0. -1.
        1   -1    0    0  501    0  0.00000000000E+00  0.00000000000E+00 -0.50492988523E+03  0.50492988526E+03  0.50400001928E-02 0.  1.
    10030    2    1    2    0    0  0.00000000000E+00  0.00000000000E+00  0.12777921277E+04  0.22876518982E+04  0.18975243044E+04 0.  0.
        4    1    3    3  502    0  0.78501449151E+02  0.10499702740E+03 -0.49395650063E+03  0.51105918512E+03  0.12699999809E+01 0.  1.
       -4    1    3    3    0  502 -0.78501449151E+02 -0.10499702740E+03  0.17717486283E+04  0.17765927131E+04  0.12699999809E+01 0. -1.
</event>
<event>
 5   0  0.2879462E-05  0.1904324E+04  0.7818609E-02  0.8652707E-01
        2   -1    0    0  501    0  0.00000000000E+00  0.00000000000E+00  0.11302505228E+04  0.11302505228E+04  0.25500000920E-02 0.  1.
       -2   -1    0    0    0  501  0.00000000000E+00  0.00000000000E+00 -0.80213390547E+03  0.80213390548E+03  0.25500000920E-02 0. -1.
    10030    2    1    2    0    0  0.00000000000E+00  0.00000000000E+00  0.32811661734E+03  0.19323844283E+04  0.19043237813E+04 0.  0.
        4    1    3    3  502    0 -0.89149306350E+03 -0.31231392314E+03  0.28544874037E+03  0.98680416757E+03  0.12699999809E+01 0. -1.
       -4    1    3    3    0  502  0.89149306350E+03  0.31231392314E+03  0.42667876969E+02  0.94558026073E+03  0.12699999809E+01 0.  1.
</event>
<event>
 5   0  0.1010725E-05  0.1884601E+04  0.7818609E-02  0.8662559E-01
       -3   -1    0    0    0  501  0.00000000000E+00  0.00000000000E+00  0.63505653252E+03  0.63505654055E+03  0.10100000352E+00 0. -1.
        3   -1    0    0  501    0  0.00000000000E+00  0.00000000000E+00 -0.13981915152E+04  0.13981915189E+04  0.10100000352E+00 0.  1.
    10030    2    1    2    0    0  0.00000000000E+00  0.00000000000E+00 -0.76313498273E+03  0.20332480594E+04  0.18846014617E+04 0.  0.
        2    1    3    3  502    0 -0.25522102309E+03 -0.90069965250E+03 -0.26570506885E+03  0.97313761527E+03  0.25500000920E-02 0.  1.
       -2    1    3    3    0  502  0.25522102309E+03  0.90069965250E+03 -0.49742991387E+03  0.10601104442E+04  0.25500000920E-02 0. -1.
</event>
<event>
 5   0  0.1327254E-05  0.1900300E+04  0.7818609E-02  0.8654707E-01
       -1   -1    0    0    0  501  0.00000000000E+00  0.00000000000E+00  0.10142462533E+04  0.10142462533E+04  0.50400001928E-02 0. -1.
        1   -1    0    0  501    0  0.00000000000E+00  0.00000000000E+00 -0.89010475142E+03  0.89010475143E+03  0.50400001928E-02 0.  1.
    10030    2    1    2    0    0  0.00000000000E+00  0.00000000000E+00  0.12414150189E+03  0.19043510048E+04  0.19003004070E+04 0.  0.
        5    1    3    3  502    0  0.28133217727E+03 -0.81326200717E+03  0.46569524727E+03  0.97848711775E+03  0.46999998093E+01 0. -1.
       -5    1    3    3    0  502 -0.28133217727E+03  0.81326200717E+03 -0.34155374538E+03  0.92586388700E+03  0.46999998093E+01 0.  1.
</event>
<event>
 5   0  0.1327254E-05  0.1899840E+04  0.7818609E-02  0.8654936E-01
       -1   -1    0    0    0  501  0.00000000000E+00  0.00000000000E+00  0.19449040463E+04  0.19449040463E+04  0.50400001928E-02 0. -1.
        1   -1    0    0  501    0  0.00000000000E+00  0.00000000000E+00 -0.46395486362E+03  0.46395486365E+03  0.50400001928E-02 0.  1.
    10030    2    1    2    0    0  0.00000000000E+00  0.00000000000E+00  0.14809491827E+04  0.24088589100E+04  0.18998396686E+04 0.  0.
        5    1    3    3  502    0 -0.78205101227E+02  0.78140621554E+03  0.62857932671E+02  0.78783559277E+03  0.46999998093E+01 0.  1.
       -5    1    3    3    0  502  0.78205101227E+02 -0.78140621554E+03  0.14180912500E+04  0.16210233172E+04  0.46999998093E+01 0. -1.
</event>
<event>
 5   0  0.2789718E-05  0.1904945E+04  0.7818609E-02  0.8652399E-01
       -2   -1    0    0    0  501  0.00000000000E+00  0.00000000000E+00  0.63971769386E+03  0.63971769386E+03  0.25500000920E-02 0.  1.
        2   -1    0    0  501    0  0.00000000000E+00  0.00000000000E+00 -0.14181318984E+04  0.14181318984E+04  0.25500000920E-02 0. -1.
    10030    2    1    2    0    0  0.00000000000E+00  0.00000000000E+00 -0.77841420457E+03  0.20578495923E+04  0.19049452146E+04 0.  0.
        5    1    3    3  502    0  0.47184713021E+03 -0.78915618391E+03 -0.12071176666E+03  0.92736218248E+03  0.46999998093E+01 0. -1.
       -5    1    3    3    0  502 -0.47184713021E+03  0.78915618391E+03 -0.65770243791E+03  0.11304874098E+04  0.46999998093E+01 0.  1.
</event>
<event>
 5   0  0.2855141E-05  0.1899850E+04  0.7818609E-02  0.8654931E-01
       -2   -1    0    0    0  501  0.00000000000E+00  0.00000000000E+00  0.83115465000E+03  0.83115465000E+03  0.25500000920E-02 0. -1.
        2   -1    0    0  501    0  0.00000000000E+00  0.00000000000E+00 -0.10856673498E+04  0.10856673498E+04  0.25500000920E-02 0.  1.
    10030    2    1    2    0    0  0.00000000000E+00  0.00000000000E+00 -0.25451269978E+03  0.19168219998E+04  0.18998499584E+04 0.  0.
        1    1    3    3  502    0  0.52745158905E+03 -0.78138948117E+03 -0.96700860492E+01  0.94279807524E+03  0.50400001928E-02 0. -1.
       -1    1    3    3    0  502 -0.52745158905E+03  0.78138948117E+03 -0.24484261373E+03  0.97402392455E+03  0.50400001928E-02 0.  1.
</event>
<event>
 5   0  0.1344119E-05  0.1897766E+04  0.7818609E-02  0.8655969E-01
        1   -1    0    0  501    0  0.00000000000E+00  0.00000000000E+00  0.86854118546E+03  0.86854118548E+03  0.50400001928E-02 0. -1.
       -1   -1    0    0    0  501  0.00000000000E+00  0.00000000000E+00 -0.10366568613E+04  0.10366568613E+04  0.50400001928E-02 0.  1.
    10030    2    1    2    0    0  0.00000000000E+00  0.00000000000E+00 -0.16811567584E+03  0.19051980468E+04  0.18977662440E+04 0.  0.
        2    1    3    3  502    0  0.20973775535E+03 -0.77485718170E+02  0.84171676182E+03  0.87090818670E+03  0.25500000920E-02 0. -1.
       -2    1    3    3    0  502 -0.20973775535E+03  0.77485718170E+02 -0.10098324377E+04  0.10342898601E+04  0.25500000920E-02 0.  1.
</event>
<event>
 5   0  0.1010725E-05  0.1896906E+04  0.7818609E-02  0.8656398E-01
       -4   -1    0    0    0  501  0.00000000000E+00  0.00000000000E+00  0.12210619692E+04  0.12210626296E+04  0.12699999809E+01 0. -1.
        4   -1    0    0  501    0  0.00000000000E+00  0.00000000000E+00 -0.73670445467E+03  0.73670554934E+03  0.12699999809E+01 0.  1.
    10030    2    1    2    0    0  0.00000000000E+00  0.00000000000E+00  0.48435751449E+03  0.19577681790E+04  0.18969064396E+04 0.  0.
        5    1    3    3  502    0 -0.92790227614E+03 -0.85229384066E+02  0.59658027743E+02  0.93372793267E+03  0.46999998093E+01 0.  1.
       -5    1    3    3    0  502  0.92790227614E+03  0.85229384066E+02  0.42469948675E+03  0.10240402463E+04  0.46999998093E+01 0. -1.
</event>
<event>
 5   0  0.2855141E-05  0.1900308E+04  0.7818609E-02  0.8654703E-01
       -2   -1    0    0    0  501  0.00000000000E+00  0.00000000000E+00  0.11622484264E+04  0.11622484264E+04  0.25500000920E-02 0.  1.
        2   -1    0    0  501    0  0.00000000000E+00  0.00000000000E+00 -0.77676361312E+03  0.77676361312E+03  0.25500000920E-02 0. -1.
    10030    2    1    2    0    0  0.00000000000E+00  0.00000000000E+00  0.38548481330E+03  0.19390120395E+04  0.19003076457E+04 0.  0.
        1    1    3    3  502    0  0.38182964751E+03 -0.64433521634E+03  0.78931324206E+03  0.10881071385E+04  0.50400001928E-02 0.  1.
       -1    1    3    3    0  502 -0.38182964751E+03  0.64433521634E+03 -0.40382842876E+03  0.85090490105E+03  0.50400001928E-02 0. -1.
</event>
<event>
 5   0  0.2855141E-05  0.1901641E+04  0.7818609E-02  0.8654040E-01
       -2   -1    0    0    0  501  0.00000000000E+00  0.00000000000E+00  0.75226005960E+03  0.75226005960E+03  0.25500000920E-02 0.  1.
        2   -1    0    0  501    0  0.00000000000E+00  0.00000000000E+00 -0.12017912907E+04  0.12017912907E+04  0.25500000920E-02 0. -1.
    10030    2    1    2    0    0  0.00000000000E+00  0.00000000000E+00 -0.44953123105E+03  0.19540513503E+04  0.19016409629E+04 0.  0.
        1    1    3    3  502    0  0.83035350909E+02  0.57019711458E+02 -0.11962933195E+04  0.12005264776E+04  0.50400001928E-02 0. -1.
       -1    1    3    3    0  502 -0.83035350909E+02 -0.57019711458E+02  0.74676208845E+03  0.75352487270E+03  0.50400001928E-02 0.  1.
</event>
<event>
 5   0  0.2888776E-05  0.1908355E+04  0.7818609E-02  0.8650709E-01
       -2   -1    0    0    0  501  0.00000000000E+00  0.00000000000E+00  0.54440170908E+03  0.54440170909E+03  0.25500000920E-02 0.  1.
        2   -1    0    0  501    0  0.00000000000E+00  0.00000000000E+00 -0.16723949980E+04  0.16723949980E+04  0.25500000920E-02 0. -1.
    10030    2    1    2    0    0  0.00000000000E+00  0.00000000000E+00 -0.11279932889E+04  0.22167967071E+04  0.19083549934E+04 0.  0.
        3    1    3    3  502    0  0.18267878674E+02  0.59738413459E+03 -0.14280263139E+04  0.15480506074E+04  0.10100000352E+00 0. -1.
       -3    1    3    3    0  502 -0.18267878674E+02 -0.59738413459E+03  0.30003302495E+03  0.66874609974E+03  0.10100000352E+00 0.  1.
</event>
<event>
 5   0  0.1471485E-05  0.1900089E+04  0.7818609E-02  0.8654812E-01
        1   -1    0    0  501    0  0.00000000000E+00  0.00000000000E+00  0.10557246145E+04  0.10557246145E+04  0.50400001928E-02 0. -1.
       -1   -1    0    0    0  501  0.00000000000E+00  0.00000000000E+00 -0.85494361835E+03  0.85494361836E+03  0.50400001928E-02 0.  1.
    10030    2    1    2    0    0  0.00000000000E+00  0.00000000000E+00  0.20078099615E+03  0.19106682329E+04  0.19000894946E+04 0.  0.
        4    1    3    3  502    0  0.69478014180E+03 -0.24422906282E+03  0.70391207752E+03  0.10187546841E+04  0.12699999809E+01 0. -1.
       -4    1    3    3    0  502 -0.69478014180E+03  0.24422906282E+03 -0.50313108137E+03  0.89191354878E+03  0.12699999809E+01 0.  1.
</event>
<event>
 5   0  0.1471485E-05  0.1899317E+04  0.7818609E-02  0.8655196E-01
       -1   -1    0    0    0  501  0.00000000000E+00  0.00000000000E+00  0.29197739835E+03  0.29197739839E+03  0.50400001928E-02 0. -1.
        1   -1    0    0  501    0  0.00000000000E+00  0.00000000000E+00 -0.30887712909E+04  0.30887712909E+04  0.50400001928E-02 0.  1.
    10030    2    1    2    0    0  0.00000000000E+00  0.00000000000E+00 -0.27967938925E+04  0.33807486893E+04  0.18993171464E+04 0.  0.
        4    1    3    3  502    0  0.23611569282E+03 -0.70819483979E+03 -0.35356281619E+03  0.82601381913E+03  0.12699999809E+01 0. -1.
       -4    1    3    3    0  502 -0.23611569282E+03  0.70819483979E+03 -0.24432310763E+04  0.25547348702E+04  0.12699999809E+01 0.  1.
</event>
<event>
 5   0  0.1413011E-05  0.1899177E+04  0.7818609E-02  0.8655266E-01
        1   -1    0    0  501    0  0.00000000000E+00  0.00000000000E+00  0.68042696421E+03  0.68042696423E+03  0.50400001928E-02 0.  1.
       -1   -1    0    0    0  501  0.00000000000E+00  0.00000000000E+00 -0.13252243876E+04  0.13252243876E+04  0.50400001928E-02 0. -1.
    10030    2    1    2    0    0  0.00000000000E+00  0.00000000000E+00 -0.64479742342E+03  0.20056513519E+04  0.18991770923E+04 0.  0.
        1    1    3    3  502    0 -0.24716076170E+03  0.90994788927E+03 -0.20373927185E+03  0.96467781888E+03  0.50400001928E-02 0.  1.
       -1    1    3    3    0  502  0.24716076170E+03 -0.90994788927E+03 -0.44105815157E+03  0.10409735330E+04  0.50400001928E-02 0. -1.
</event>
<event>
 5   0  0.2789718E-05  0.1902199E+04  0.7818609E-02  0.8653763E-01
        2   -1    0    0  501    0  0.00000000000E+00  0.00000000000E+00  0.11398019350E+04  0.11398019350E+04  0.25500000920E-02 0.  1.
       -2   -1    0    0    0  501  0.00000000000E+00  0.00000000000E+00 -0.79363793311E+03  0.79363793311E+03  0.25500000920E-02 0. -1.
    10030    2    1    2    0    0  0.00000000000E+00  0.00000000000E+00  0.34616400191E+03  0.19334398681E+04  0.19021987823E+04 0.  0.
        5    1    3    3  502    0  0.81799367619E+02 -0.66321219491E+03 -0.51480963736E+03  0.84355948500E+03  0.46999998093E+01 0. -1.
       -5    1    3    3    0  502 -0.81799367619E+02  0.66321219491E+03  0.86097363927E+03  0.10898803831E+04  0.46999998093E+01 0.  1.
</event>
<event>
 5   0  0.1429067E-05  0.1900855E+04  0.7818609E-02  0.8654431E-01
        1   -1    0    0  501    0  0.00000000000E+00  0.00000000000E+00  0.80184314673E+03  0.80184314675E+03  0.50400001928E-02 0. -1.
       -1   -1    0    0    0  501  0.00000000000E+00  0.00000000000E+00 -0.11265447472E+04  0.11265447472E+04  0.50400001928E-02 0.  1.
    10030    2    1    2    0    0  0.00000000000E+00  0.00000000000E+00 -0.32470160045E+03  0.19283878939E+04  0.19008547394E+04 0.  0.
        3    1    3    3  502    0  0.40280979829E+03 -0.13599715660E+03  0.69999765440E+03  0.81899187210E+03  0.10100000352E+00 0. -1.
       -3    1    3    3    0  502 -0.40280979829E+03  0.13599715660E+03 -0.10246992548E+04  0.11093960218E+04  0.10100000352E+00 0.  1.
</event>
<event>
 5   0  0.2789718E-05  0.1897902E+04  0.7818609E-02  0.8655902E-01
        2   -1    0    0  501    0  0.00000000000E+00  0.00000000000E+00  0.13110124947E+04  0.13110124947E+04  0.25500000920E-02 0. -1.
       -2   -1    0    0    0  501  0.00000000000E+00  0.00000000000E+00 -0.68687950119E+03  0.68687950120E+03  0.25500000920E-02 0.  1.
    10030    2    1    2    0    0  0.00000000000E+00  0.00000000000E+00  0.62413299349E+03  0.19978919959E+04  0.18979015869E+04 0.  0.
        5    1    3    3  502    0  0.27070420541E+03  0.80126072594E+03  0.76507086967E+03  0.11404626444E+04  0.46999998093E+01 0. -1.
       -5    1    3    3    0  502 -0.27070420541E+03 -0.80126072594E+03 -0.14093787618E+03  0.85742935144E+03  0.46999998093E+01 0.  1.
</event>
<event>
 5   0  0.2855141E-05  0.1875849E+04  0.7818609E-02  0.8666972E-01
        2   -1    0    0  501    0  0.00000000000E+00  0.00000000000E+00  0.14655191273E+04  0.14655191273E+04  0.25500000920E-02 0.  1.
       -2   -1    0    0    0  501  0.00000000000E+00  0.00000000000E+00 -0.60026683333E+03  0.60026683333E+03  0.25500000920E-02 0. -1.
    10030    2    1    2    0    0  0.00000000000E+00  0.00000000000E+00  0.86525229398E+03  0.20657859606E+04  0.18758491685E+04 0.  0.
        1    1    3    3  502    0  0.51103053037E+03 -0.53622619041E+03 -0.20096505996E+03  0.76751396444E+03  0.50400001928E-02 0. -1.
       -1    1    3    3    0  502 -0.51103053037E+03  0.53622619041E+03  0.10662173539E+04  0.12982719962E+04  0.50400001928E-02 0.  1.
</event>
<event>
 5   0  0.2879462E-05  0.1909848E+04  0.7818609E-02  0.8649970E-01
        2   -1    0    0  501    0  0.00000000000E+00  0.00000000000E+00  0.81801670435E+03  0.81801670435E+03  0.25500000920E-02 0. -1.
       -2   -1    0    0    0  501  0.00000000000E+00  0.00000000000E+00 -0.11147448802E+04  0.11147448803E+04  0.25500000920E-02 0.  1.
    10030    2    1    2    0    0  0.00000000000E+00  0.00000000000E+00 -0.29672817590E+03  0.19327615846E+04  0.19098480915E+04 0.  0.
        4    1    3    3  502    0 -0.56016027626E+03 -0.70278503958E+03  0.17829638881E+03  0.91623008143E+03  0.12699999809E+01 0.  1.
       -4    1    3    3    0  502  0.56016027626E+03  0.70278503958E+03 -0.47502456471E+03  0.10165315032E+04  0.12699999809E+01 0. -1.
</event>
<event>
 5   0  0.2789718E-05  0.1901149E+04  0.7818609E-02  0.8654285E-01
        2   -1    0    0  501    0  0.00000000000E+00  0.00000000000E+00  0.15946533020E+04  0.15946533020E+04  0.25500000920E-02 0. -1.
       -2   -1    0    0    0  501  0.00000000000E+00  0.00000000000E+00 -0.56663852150E+03  0.56663852151E+03  0.25500000920E-02 0.  1.
    10030    2    1    2    0    0  0.00000000000E+00  0.00000000000E+00  0.10280147805E+04  0.21612918235E+04  0.19011491150E+04 0.  0.
        5    1    3    3  502    0 -0.80886818953E+03  0.31165882573E+03  0.95747619248E+03  0.12915810934E+04  0.46999998093E+01 0. -1.
       -5    1    3    3    0  502  0.80886818953E+03 -0.31165882573E+03  0.70538588041E+02  0.86971073013E+03  0.46999998093E+01 0.  1.
</event>
<event>
 5   0  0.1471485E-05  0.1899722E+04  0.7818609E-02  0.8654995E-01
       -1   -1    0    0    0  501  0.00000000000E+00  0.00000000000E+00  0.86145810049E+03  0.86145810051E+03  0.50400001928E-02 0.  1.
        1   -1    0    0  501    0  0.00000000000E+00  0.00000000000E+00 -0.10473356915E+04  0.10473356915E+04  0.50400001928E-02 0. -1.
    10030    2    1    2    0    0  0.00000000000E+00  0.00000000000E+00 -0.18587759097E+03  0.19087937920E+04  0.18997218906E+04 0.  0.
        4    1    3    3  502    0 -0.72492694494E+02 -0.94702747750E+03 -0.82025594572E+02  0.95333417277E+03  0.12699999809E+01 0. -1.
       -4    1    3    3    0  502  0.72492694494E+02  0.94702747750E+03 -0.10385199640E+03  0.95545961922E+03  0.12699999809E+01 0.  1.
</event>
<event>
 5   0  0.2855141E-05  0.1898881E+04  0.7818609E-02  0.8655414E-01
        2   -1    0    0  501    0  0.00000000000E+00  0.00000000000E+00  0.15539310437E+04  0.15539310437E+04  0.25500000920E-02 0. -1.
       -2   -1    0    0    0  501  0.00000000000E+00  0.00000000000E+00 -0.58010098715E+03  0.58010098715E+03  0.25500000920E-02 0.  1.
    10030    2    1    2    0    0  0.00000000000E+00  0.00000000000E+00  0.97383005659E+03  0.21340320309E+04  0.18988806518E+04 0.  0.
        1    1    3    3  502    0  0.66580977042E+03  0.64398826928E+03  0.25275372882E+03  0.96016039744E+03  0.50400001928E-02 0.  1.
       -1    1    3    3    0  502 -0.66580977042E+03 -0.64398826928E+03  0.72107632778E+03  0.11738716335E+04  0.50400001928E-02 0. -1.
</event>
<event>
 5   0  0.1413011E-05  0.1900147E+04  0.7818609E-02  0.8654783E-01
       -1   -1    0    0    0  501  0.00000000000E+00  0.00000000000E+00  0.61131274976E+03  0.61131274978E+03  0.50400001928E-02 0. -1.
        1   -1    0    0  501    0  0.00000000000E+00  0.00000000000E+00 -0.14765591906E+04  0.14765591907E+04  0.50400001928E-02 0.  1.
    10030    2    1    2    0    0  0.00000000000E+00  0.00000000000E+00 -0.86524644088E+03  0.20878719404E+04  0.19001467933E+04 0.  0.
        1    1    3    3  502    0  0.21134087405E+03 -0.85359779832E+03 -0.37445894126E+02  0.88016837102E+03  0.50400001928E-02 0. -1.
       -1    1    3    3    0  502 -0.21134087405E+03  0.85359779832E+03 -0.82780054676E+03  0.12077035694E+04  0.50400001928E-02 0.  1.
</event>
<event>
 5   0  0.1344119E-05  0.1898697E+04  0.7818609E-02  0.8655505E-01
       -1   -1    0    0    0  501  0.00000000000E+00  0.00000000000E+00  0.63872621062E+03  0.63872621064E+03  0.50400001928E-02 0.  1.
        1   -1    0    0  501    0  0.00000000000E+00  0.00000000000E+00 -0.14110313784E+04  0.14110313784E+04  0.50400001928E-02 0. -1.
    10030    2    1    2    0    0  0.00000000000E+00  0.00000000000E+00 -0.77230516777E+03  0.20497575890E+04  0.18986971590E+04 0.  0.
        2    1    3    3  502    0  0.13789451771E+03  0.19070865136E+03  0.60673636524E+03  0.65077930562E+03  0.25500000920E-02 0.  1.
       -2    1    3    3    0  502 -0.13789451771E+03 -0.19070865136E+03 -0.13790415330E+04  0.13989782834E+04  0.25500000920E-02 0. -1.
</event>
<event>
 5   0  0.1344119E-05  0.1898770E+04  0.7818609E-02  0.8655469E-01
        1   -1    0    0  501    0  0.00000000000E+00  0.00000000000E+00  0.84725536752E+03  0.84725536754E+03  0.50400001928E-02 0. -1.
       -1   -1    0    0    0  501  0.00000000000E+00  0.00000000000E+00 -0.10638249797E+04  0.10638249797E+04  0.50400001928E-02 0.  1.
    10030    2    1    2    0    0  0.00000000000E+00  0.00000000000E+00 -0.21656961220E+03  0.19110803473E+04  0.18987695218E+04 0.  0.
        2    1    3    3  502    0  0.84301632288E+03  0.38933785610E+03 -0.30723007226E+03  0.97808527448E+03  0.25500000920E-02 0.  1.
       -2    1    3    3    0  502 -0.84301632288E+03 -0.38933785610E+03  0.90660460057E+02  0.93299507280E+03  0.25500000920E-02 0. -1.
</event>
<event>
 5   0  0.1413011E-05  0.1900321E+04  0.7818609E-02  0.8654697E-01
       -1   -1    0    0    0  501  0.00000000000E+00  0.00000000000E+00  0.46355140178E+03  0.46355140181E+03  0.50400001928E-02 0.  1.
        1   -1    0    0  501    0  0.00000000000E+00  0.00000000000E+00 -0.19475824335E+04  0.19475824335E+04  0.50400001928E-02 0. -1.
    10030    2    1    2    0    0  0.00000000000E+00  0.00000000000E+00 -0.14840310317E+04  0.24111338353E+04  0.19003205700E+04 0.  0.
        1    1    3    3  502    0  0.20371421173E+03 -0.66175810415E+03 -0.15675976451E+04  0.17137052387E+04  0.50400001928E-02 0. -1.
       -1    1    3    3    0  502 -0.20371421173E+03  0.66175810415E+03  0.83566613315E+02  0.69742859660E+03  0.50400001928E-02 0.  1.
</event>
<event>
 5   0  0.1471485E-05  0.1894709E+04  0.7818609E-02  0.8657494E-01
       -1   -1    0    0    0  501  0.00000000000E+00  0.00000000000E+00  0.46762865930E+03  0.46762865933E+03  0.50400001928E-02 0. -1.
        1   -1    0    0  501    0  0.00000000000E+00  0.00000000000E+00 -0.19192166717E+04  0.19192166717E+04  0.50400001928E-02 0.  1.
    10030    2    1    2    0    0  0.00000000000E+00  0.00000000000E+00 -0.14515880124E+04  0.23868453311E+04  0.18947091799E+04 0.  0.
        4    1    3    3  502    0  0.43982410657E+03 -0.83508696071E+03 -0.82862810390E+03  0.12559624294E+04  0.12699999809E+01 0.  1.
       -4    1    3    3    0  502 -0.43982410657E+03  0.83508696071E+03 -0.62295990851E+03  0.11308829016E+04  0.12699999809E+01 0. -1.
</event>
<event>
 5   0  0.2879462E-05  0.1902870E+04  0.7818609E-02  0.8653429E-01
       -2   -1    0    0    0  501  0.00000000000E+00  0.00000000000E+00  0.43119004884E+03  0.43119004885E+03  0.25500000920E-02 0. -1.
        2   -1    0    0  501    0  0.00000000000E+00  0.00000000000E+00 -0.20993730515E+04  0.20993730516E+04  0.25500000920E-02 0.  1.
    10030    2    1    2    0    0  0.00000000000E+00  0.00000000000E+00 -0.16681830027E+04  0.25305631004E+04  0.19028702201E+04 0.  0.
        4    1    3    3  502    0  0.70739416666E+03  0.18489010411E+03 -0.16437128965E+04  0.17989954298E+04  0.12699999809E+01 0.  1.
       -4    1    3    3    0  502 -0.70739416666E+03 -0.18489010411E+03 -0.24470106232E+02  0.73156767057E+03  0.12699999809E+01 0. -1.
</event>
<event>
 5   0  0.2879462E-05  0.1900225E+04  0.7818609E-02  0.8654744E-01
       -2   -1    0    0    0  501  0.00000000000E+00  0.00000000000E+00  0.44551690241E+03  0.44551690241E+03  0.25500000920E-02 0.  1.
        2   -1    0    0  501    0  0.00000000000E+00  0.00000000000E+00 -0.20262172968E+04  0.20262172968E+04  0.25500000920E-02 0. -1.
    10030    2    1    2    0    0  0.00000000000E+00  0.00000000000E+00 -0.15807003943E+04  0.24717341992E+04  0.19002253063E+04 0.  0.
        4    1    3    3  502    0 -0.25088433528E+03 -0.78764486873E+03 -0.18109367723E+03  0.84624105417E+03  0.12699999809E+01 0.  1.
       -4    1    3    3    0  502  0.25088433528E+03  0.78764486873E+03 -0.13996067171E+04  0.16254931450E+04  0.12699999809E+01 0. -1.
</event>
<event>
 5   0  0.1327254E-05  0.1898358E+04  0.7818609E-02  0.8655674E-01
        1   -1    0    0  501    0  0.00000000000E+00  0.00000000000E+00  0.10604120493E+04  0.10604120493E+04  0.50400001928E-02 0. -1.
       -1   -1    0    0    0  501  0.00000000000E+00  0.00000000000E+00 -0.84961428953E+03  0.84961428954E+03  0.50400001928E-02 0.  1.
    10030    2    1    2    0    0  0.00000000000E+00  0.00000000000E+00  0.21079775980E+03  0.19100263389E+04  0.18983584803E+04 0.  0.
        5    1    3    3  502    0  0.52665005594E+03  0.35134004008E+03 -0.60613866602E+03  0.87648518391E+03  0.46999998093E+01 0.  1.
       -5    1    3    3    0  502 -0.52665005594E+03 -0.35134004008E+03  0.81693642582E+03  0.10335411550E+04  0.46999998093E+01 0. -1.
</event>
<event>
 5   0  0.2813537E-05  0.1902518E+04  0.7818609E-02  0.8653604E-01
        2   -1    0    0  501    0  0.00000000000E+00  0.00000000000E+00  0.75568289744E+03  0.75568289745E+03  0.25500000920E-02 0. -1.
       -2   -1    0    0    0  501  0.00000000000E+00  0.00000000000E+00 -0.11974513026E+04  0.11974513026E+04  0.25500000920E-02 0.  1.
    10030    2    1    2    0    0  0.00000000000E+00  0.00000000000E+00 -0.44176840519E+03  0.19531342001E+04  0.19025177738E+04 0.  0.
        2    1    3    3  502    0  0.76328597985E+03  0.10345964434E+03  0.35216378971E+03  0.84695260778E+03  0.25500000920E-02 0. -1.
       -2    1    3    3    0  502 -0.76328597985E+03 -0.10345964434E+03 -0.79393219490E+03  0.11061815923E+04  0.25500000920E-02 0.  1.
</event>
<event>
 5   0  0.1010725E-05  0.1900308E+04  0.7818609E-02  0.8654703E-01
        3   -1    0    0  501    0  0.00000000000E+00  0.00000000000E+00  0.26196783242E+04  0.26196783262E+04  0.10100000352E+00 0.  1.
       -3   -1    0    0    0  501  0.00000000000E+00  0.00000000000E+00 -0.34461977398E+03  0.34461978878E+03  0.10100000352E+00 0. -1.
    10030    2    1    2    0    0  0.00000000000E+00  0.00000000000E+00  0.22750585502E+04  0.29642981149E+04  0.19003083716E+04 0.  0.
        2    1    3    3  502    0  0.23567126787E+03 -0.88470826407E+03  0.15338286975E+04  0.17863034827E+04  0.25500000920E-02 0.  1.
       -2    1    3    3    0  502 -0.23567126787E+03  0.88470826407E+03  0.74122985270E+03  0.11779946322E+04  0.25500000920E-02 0. -1.
</event>
<event>
 5   0  0.2855141E-05  0.1896138E+04  0.7818609E-02  0.8656781E-01
        2   -1    0    0  501    0  0.00000000000E+00  0.00000000000E+00  0.16554294629E+04  0.16554294629E+04  0.25500000920E-02 0.  1.
       -2   -1    0    0    0  501  0.00000000000E+00  0.00000000000E+00 -0.54296147201E+03  0.54296147201E+03  0.25500000920E-02 0. -1.
    10030    2    1    2    0    0  0.00000000000E+00  0.00000000000E+00  0.11124679909E+04  0.21983909349E+04  0.18961375667E+04 0.  0.
        1    1    3    3  502    0 -0.76909839556E+03 -0.41075614755E+02  0.11972022676E+04  0.14235493732E+04  0.50400001928E-02 0.  1.
       -1    1    3    3    0  502  0.76909839556E+03  0.41075614755E+02 -0.84734276725E+02  0.77484156177E+03  0.50400001928E-02 0. -1.
</event>
<event>
 5   0  0.2879462E-05  0.1912479E+04  0.7818609E-02  0.8648670E-01
       -2   -1    0    0    0  501  0.00000000000E+00  0.00000000000E+00  0.82838686393E+03  0.82838686394E+03  0.25500000920E-02 0. -1.
        2   -1    0    0  501    0  0.00000000000E+00  0.00000000000E+00 -0.11038249389E+04  0.11038249390E+04  0.25500000920E-02 0.  1.
    10030    2    1    2    0    0  0.00000000000E+00  0.00000000000E+00 -0.27543807501E+03  0.19322118029E+04  0.19124791026E+04 0.  0.
        4    1    3    3  502    0  0.27721558685E+03 -0.44471307457E+03  0.67039270229E+03  0.85090903655E+03  0.12699999809E+01 0. -1.
       -4    1    3    3    0  502 -0.27721558685E+03  0.44471307457E+03 -0.94583077731E+03  0.10813027663E+04  0.12699999809E+01 0.  1.
</event>
<event>
 5   0  0.1327254E-05  0.1899691E+04  0.7818609E-02  0.8655010E-01
       -1   -1    0    0    0  501  0.00000000000E+00  0.00000000000E+00  0.91316253374E+03  0.91316253375E+03  0.50400001928E-02 0. -1.
        1   -1    0    0  501    0  0.00000000000E+00  0.00000000000E+00 -0.98800240995E+03  0.98800240996E+03  0.50400001928E-02 0.  1.
    10030    2    1    2    0    0  0.00000000000E+00  0.00000000000E+00 -0.74839876208E+02  0.19011649437E+04  0.18996913265E+04 0.  0.
        5    1    3    3  502    0 -0.85932687285E+03 -0.30375844475E+03 -0.30497134406E+03  0.96111470588E+03  0.46999998093E+01 0.  1.
       -5    1    3    3    0  502  0.85932687285E+03  0.30375844475E+03  0.23013146786E+03  0.94005023784E+03  0.46999998093E+01 0. -1.
</event>
<event>
 5   0  0.2879462E-05  0.1897009E+04  0.7818609E-02  0.8656346E-01
       -2   -1    0    0    0  501  0.00000000000E+00  0.00000000000E+00  0.45309040840E+03  0.45309040841E+03  0.25500000920E-02 0. -1.
        2   -1    0    0  501    0  0.00000000000E+00  0.00000000000E+00 -0.19856104282E+04  0.19856104282E+04  0.25500000920E-02 0.  1.
    10030    2    1    2    0    0  0.00000000000E+00  0.00000000000E+00 -0.15325200198E+04  0.24387008366E+04  0.18970092671E+04 0.  0.
        4    1    3    3  502    0 -0.39517585805E+03  0.67113394305E+03 -0.14622103290E+04  0.16566971321E+04  0.12699999809E+01 0.  1.
       -4    1    3    3    0  502  0.39517585805E+03 -0.67113394305E+03 -0.70309690747E+02  0.78200370448E+03  0.12699999809E+01 0. -1.
</event>
<event>
 5   0  0.2789718E-05  0.1899148E+04  0.7818609E-02  0.8655281E-01
       -2   -1    0    0    0  501  0.00000000000E+00  0.00000000000E+00  0.85617184678E+03  0.85617184678E+03  0.25500000920E-02 0. -1.
        2   -1    0    0  501    0  0.00000000000E+00  0.00000000000E+00 -0.10531657701E+04  0.10531657701E+04  0.25500000920E-02 0.  1.
    10030    2    1    2    0    0  0.00000000000E+00  0.00000000000E+00 -0.19699392334E+03  0.19093376169E+04  0.18991481062E+04 0.  0.
        5    1    3    3  502    0 -0.47590093577E+03 -0.47834094374E+03  0.57320221325E+03  0.88536694449E+03  0.46999998093E+01 0. -1.
       -5    1    3    3    0  502  0.47590093577E+03  0.47834094374E+03 -0.77019613659E+03  0.10239706724E+04  0.46999998093E+01 0.  1.
</event>
<event>
 5   0  0.2855141E-05  0.1899298E+04  0.7818609E-02  0.8655206E-01
        2   -1    0    0  501    0  0.00000000000E+00  0.00000000000E+00  0.13961993008E+04  0.13961993008E+04  0.25500000920E-02 0.  1.
       -2   -1    0    0    0  501  0.00000000000E+00  0.00000000000E+00 -0.64592040549E+03  0.64592040550E+03  0.25500000920E-02 0. -1.
    10030    2    1    2    0    0  0.00000000000E+00  0.00000000000E+00  0.75027889532E+03  0.20421197063E+04  0.18992984163E+04 0.  0.
        1    1    3    3  502    0 -0.87973745180E+02 -0.94262590830E+03  0.45524439726E+03  0.10504905731E+04  0.50400001928E-02 0.  1.
       -1    1    3    3    0  502  0.87973745180E+02  0.94262590830E+03  0.29503449806E+03  0.99162913325E+03  0.50400001928E-02 0. -1.
</event>
<event>
 5   0  0.1471485E-05  0.1899023E+04  0.7818609E-02  0.8655343E-01
       -1   -1    0    0    0  501  0.00000000000E+00  0.00000000000E+00  0.11793620439E+04  0.11793620439E+04  0.50400001928E-02 0.  1.
        1   -1    0    0  501    0  0.00000000000E+00  0.00000000000E+00 -0.76445782335E+03  0.76445782337E+03  0.50400001928E-02 0. -1.
    10030    2    1    2    0    0  0.00000000000E+00  0.00000000000E+00  0.41490422051E+03  0.19438198672E+04  0.18990234764E+04 0.  0.
        4    1    3    3  502    0  0.62004747133E+03  0.50262176199E+03  0.73386305924E+03  0.10842712322E+04  0.12699999809E+01 0.  1.
       -4    1    3    3    0  502 -0.62004747133E+03 -0.50262176199E+03 -0.31895883872E+03  0.85954863506E+03  0.12699999809E+01 0. -1.
</event>
<event>
 5   0  0.2855141E-05  0.1900850E+04  0.7818609E-02  0.8654433E-01
       -2   -1    0    0    0  501  0.00000000000E+00  0.00000000000E+00  0.84641028960E+03  0.84641028961E+03  0.25500000920E-02 0.  1.
        2   -1    0    0  501    0  0.00000000000E+00  0.00000000000E+00 -0.10672219787E+04  0.10672219787E+04  0.25500000920E-02 0. -1.
    10030    2    1    2    0    0  0.00000000000E+00  0.00000000000E+00 -0.22081168909E+03  0.19136322683E+04  0.19008499826E+04 0.  0.
        1    1    3    3  502    0  0.14739687476E+02  0.26229910735E+03  0.80913082569E+03  0.85071192140E+03  0.50400001928E-02 0.  1.
       -1    1    3    3    0  502 -0.14739687476E+02 -0.26229910735E+03 -0.10299425148E+04  0.10629203469E+04  0.50400001928E-02 0. -1.
</event>
<event>
 5   0  0.1344119E-05  0.1898429E+04  0.7818609E-02  0.8655639E-01
        1   -1    0    0  501    0  0.00000000000E+00  0.00000000000E+00  0.13338680540E+04  0.13338680540E+04  0.50400001928E-02 0. -1.
       -1   -1    0    0    0  501  0.00000000000E+00  0.00000000000E+00 -0.67548497181E+03  0.67548497183E+03  0.50400001928E-02 0.  1.
    10030    2    1    2    0    0  0.00000000000E+00  0.00000000000E+00  0.65838308217E+03  0.20093530258E+04  0.18984286396E+04 0.  0.
        2    1    3    3  502    0 -0.82294977749E+03 -0.45178854862E+03  0.47755526616E+03  0.10532892581E+04  0.25500000920E-02 0.  1.
       -2    1    3    3    0  502  0.82294977749E+03  0.45178854862E+03  0.18082781601E+03  0.95606376774E+03  0.25500000920E-02 0. -1.
</event>
<event>
 5   0  0.2888776E-05  0.1899381E+04  0.7818609E-02  0.8655165E-01
        2   -1    0    0  501    0  0.00000000000E+00  0.00000000000E+00  0.66386620161E+03  0.66386620162E+03  0.25500000920E-02 0. -1.
       -2   -1    0    0    0  501  0.00000000000E+00  0.00000000000E+00 -0.13585751496E+04  0.13585751496E+04  0.25500000920E-02 0.  1.
    10030    2    1    2    0    0  0.00000000000E+00  0.00000000000E+00 -0.69470894802E+03  0.20224413512E+04  0.18993810826E+04 0.  0.
        3    1    3    3  502    0  0.57704971435E+03  0.35477485459E+03 -0.10561082183E+04  0.12546777073E+04  0.10100000352E+00 0.  1.
       -3    1    3    3    0  502 -0.57704971435E+03 -0.35477485459E+03  0.36139927023E+03  0.76776364397E+03  0.10100000352E+00 0. -1.
</event>
<event>
 5   0  0.1471485E-05  0.1931801E+04  0.7818609E-02  0.8639187E-01
        1   -1    0    0  501    0  0.00000000000E+00  0.00000000000E+00  0.13420270689E+04  0.13420270689E+04  0.50400001928E-02 0. -1.
       -1   -1    0    0    0  501  0.00000000000E+00  0.00000000000E+00 -0.69519011017E+03  0.69519011019E+03  0.50400001928E-02 0.  1.
    10030    2    1    2    0    0  0.00000000000E+00  0.00000000000E+00  0.64683695871E+03  0.20372171791E+04  0.19318011760E+04 0.  0.
        4    1    3    3  502    0  0.79656616560E+03  0.37377774241E+03 -0.96738016440E+02  0.88520467330E+03  0.12699999809E+01 0. -1.
       -4    1    3    3    0  502 -0.79656616560E+03 -0.37377774241E+03  0.74357497515E+03  0.11520125058E+04  0.12699999809E+01 0.  1.
</event>
<event>
 5   0  0.1413011E-05  0.1880238E+04  0.7818609E-02  0.8664756E-01
        1   -1    0    0  501    0  0.00000000000E+00  0.00000000000E+00  0.13200210206E+04  0.13200210206E+04  0.50400001928E-02 0. -1.
       -1   -1    0    0    0  501  0.00000000000E+00  0.00000000000E+00 -0.66955244065E+03  0.66955244067E+03  0.50400001928E-02 0.  1.
    10030    2    1    2    0    0  0.00000000000E+00  0.00000000000E+00  0.65046857992E+03  0.19895734612E+04  0.18802375340E+04 0.  0.
        1    1    3    3  502    0 -0.22696702218E+03 -0.55095425015E+03 -0.44420793690E+03  0.74322628193E+03  0.50400001928E-02 0.  1.
       -1    1    3    3    0  502  0.22696702218E+03  0.55095425015E+03  0.10946765168E+04  0.12463471793E+04  0.50400001928E-02 0. -1.
</event>
<event>
 5   0  0.2888776E-05  0.1900833E+04  0.7818609E-02  0.8654442E-01
       -2   -1    0    0    0  501  0.00000000000E+00  0.00000000000E+00  0.64464551339E+03  0.64464551339E+03  0.25500000920E-02 0. -1.
        2   -1    0    0  501    0  0.00000000000E+00  0.00000000000E+00 -0.14012217091E+04  0.14012217091E+04  0.25500000920E-02 0.  1.
    10030    2    1    2    0    0  0.00000000000E+00  0.00000000000E+00 -0.75657619576E+03  0.20458672225E+04  0.19008327523E+04 0.  0.
        3    1    3    3  502    0 -0.37648220587E+03 -0.84047470638E+03 -0.12551853379E+03  0.92945763536E+03  0.10100000352E+00 0.  1.
       -3    1    3    3    0  502  0.37648220587E+03  0.84047470638E+03 -0.63105766198E+03  0.11164095872E+04  0.10100000352E+00 0. -1.
</event>
<event>
 5   0  0.2879462E-05  0.1894365E+04  0.7818609E-02  0.8657666E-01
       -2   -1    0    0    0  501  0.00000000000E+00  0.00000000000E+00  0.14310138927E+04  0.14310138927E+04  0.25500000920E-02 0.  1.
        2   -1    0    0  501    0  0.00000000000E+00  0.00000000000E+00 -0.62693663465E+03  0.62693663465E+03  0.25500000920E-02 0. -1.
    10030    2    1    2    0    0  0.00000000000E+00  0.00000000000E+00  0.80407725801E+03  0.20579505273E+04  0.18943653650E+04 0.  0.
        4    1    3    3  502    0 -0.26201358803E+03  0.78485435210E+03 -0.98752617761E+02  0.83330736631E+03  0.12699999809E+01 0. -1.
       -4    1    3    3    0  502  0.26201358803E+03 -0.78485435210E+03  0.90282987577E+03  0.12246431610E+04  0.12699999809E+01 0.  1.
</event>
<event>
 5   0  0.1010725E-05  0.1904428E+04  0.7818609E-02  0.8652656E-01
        3   -1    0    0  501    0  0.00000000000E+00  0.00000000000E+00  0.15075452580E+04  0.15075452614E+04  0.10100000352E+00 0. -1.
       -3   -1    0    0    0  501  0.00000000000E+00  0.00000000000E+00 -0.60144870975E+03  0.60144871823E+03  0.10100000352E+00 0.  1.
    10030    2    1    2    0    0  0.00000000000E+00  0.00000000000E+00  0.90609654825E+03  0.21089939796E+04  0.19044276440E+04 0.  0.
        2    1    3    3  502    0 -0.67223892861E+03 -0.60042501072E+03  0.11298712364E+03  0.90839499159E+03  0.25500000920E-02 0. -1.
       -2    1    3    3    0  502  0.67223892861E+03  0.60042501072E+03  0.79310942460E+03  0.12005989880E+04  0.25500000920E-02 0.  1.
</event>
<event>
 5   0  0.2855141E-05  0.1900257E+04  0.7818609E-02  0.8654728E-01
        2   -1    0    0  501    0  0.00000000000E+00  0.00000000000E+00  0.57981918592E+03  0.57981918592E+03  0.25500000920E-02 0. -1.
       -2   -1    0    0    0  501  0.00000000000E+00  0.00000000000E+00 -0.15569412683E+04  0.15569412683E+04  0.25500000920E-02 0.  1.
    10030    2    1    2    0    0  0.00000000000E+00  0.00000000000E+00 -0.97712208236E+03  0.21367604542E+04  0.19002572654E+04 0.  0.
        1    1    3    3  502    0  0.83064607341E+03 -0.29660215707E+03 -0.91325195482E+02  0.88672770916E+03  0.50400001928E-02 0. -1.
       -1    1    3    3    0  502 -0.83064607341E+03  0.29660215707E+03 -0.88579688688E+03  0.12500327450E+04  0.50400001928E-02 0.  1.
</event>
<event>
 5   0  0.2888776E-05  0.1895753E+04  0.7818609E-02  0.8656973E-01
        2   -1    0    0  501    0  0.00000000000E+00  0.00000000000E+00  0.12279872570E+04  0.12279872570E+04  0.25500000920E-02 0. -1.
       -2   -1    0    0    0  501  0.00000000000E+00  0.00000000000E+00 -0.73166066487E+03  0.73166066487E+03  0.25500000920E-02 0.  1.
    10030    2    1    2    0    0  0.00000000000E+00  0.00000000000E+00  0.49632659214E+03  0.19596479219E+04  0.18957531199E+04 0.  0.
        3    1    3    3  502    0 -0.72666011385E+03  0.25272818322E+03 -0.32417986758E+03  0.83486469108E+03  0.10100000352E+00 0.  1.
       -3    1    3    3    0  502  0.72666011385E+03 -0.25272818322E+03  0.82050645972E+03  0.11247832308E+04  0.10100000352E+00 0. -1.
</event>
<event>
 5   0  0.1413011E-05  0.1899394E+04  0.7818609E-02  0.8655158E-01
        1   -1    0    0  501    0  0.00000000000E+00  0.00000000000E+00  0.14810783771E+04  0.14810783771E+04  0.50400001928E-02 0.  1.
       -1   -1    0    0    0  501  0.00000000000E+00  0.00000000000E+00 -0.60896464055E+03  0.60896464057E+03  0.50400001928E-02 0. -1.
    10030    2    1    2    0    0  0.00000000000E+00  0.00000000000E+00  0.87211373655E+03  0.20900430177E+04  0.18993939681E+04 0.  0.
        1    1    3    3  502    0  0.77090995106E+03  0.20964782855E+03 -0.12897185721E+03  0.80925157067E+03  0.50400001928E-02 0. -1.
       -1    1    3    3    0  502 -0.77090995106E+03 -0.20964782855E+03  0.10010855938E+04  0.12807914470E+04  0.50400001928E-02 0.  1.
</event>
<event>
 5   0  0.1413011E-05  0.1905022E+04  0.7818609E-02  0.8652360E-01
       -1   -1    0    0    0  501  0.00000000000E+00  0.00000000000E+00  0.90134156098E+03  0.90134156099E+03  0.50400001928E-02 0.  1.
        1   -1    0    0  501    0  0.00000000000E+00  0.00000000000E+00 -0.10065857782E+04  0.10065857782E+04  0.50400001928E-02 0. -1.
    10030    2    1    2    0    0  0.00000000000E+00  0.00000000000E+00 -0.10524421719E+03  0.19079273392E+04  0.19050224110E+04 0.  0.
        1    1    3    3  502    0 -0.90939776360E+02  0.93278205956E+03  0.11771128519E+03  0.94456781665E+03  0.50400001928E-02 0.  1.
       -1    1    3    3    0  502  0.90939776360E+02 -0.93278205956E+03 -0.22295550237E+03  0.96335952252E+03  0.50400001928E-02 0. -1.
</event>
<event>
 5   0  0.1429067E-05  0.1900535E+04  0.7818609E-02  0.8654590E-01
        1   -1    0    0  501    0  0.00000000000E+00  0.00000000000E+00  0.22933322191E+04  0.22933322191E+04  0.50400001928E-02 0.  1.
       -1   -1    0    0    0  501  0.00000000000E+00  0.00000000000E+00 -0.39375397405E+03  0.39375397408E+03  0.50400001928E-02 0. -1.
    10030    2    1    2    0    0  0.00000000000E+00  0.00000000000E+00  0.18995782451E+04  0.26870861932E+04  0.19005353721E+04 0.  0.
        3    1    3    3  502    0  0.84774012187E+03  0.37098522452E+03  0.64420184021E+03  0.11275146882E+04  0.10100000352E+00 0. -1.
       -3    1    3    3    0  502 -0.84774012187E+03 -0.37098522452E+03  0.12553764049E+04  0.15595715050E+04  0.10100000352E+00 0.  1.
</event>
<event>
 5   0  0.1327254E-05  0.1900514E+04  0.7818609E-02  0.8654601E-01
       -1   -1    0    0    0  501  0.00000000000E+00  0.00000000000E+00  0.34429817905E+03  0.34429817909E+03  0.50400001928E-02 0. -1.
        1   -1    0    0  501    0  0.00000000000E+00  0.00000000000E+00 -0.26226922412E+04  0.26226922412E+04  0.50400001928E-02 0.  1.
    10030    2    1    2    0    0  0.00000000000E+00  0.00000000000E+00 -0.22783940622E+04  0.29669904203E+04  0.19005137863E+04 0.  0.
        5    1    3    3  502    0 -0.17079130684E+03 -0.90635497471E+03 -0.14962780739E+04  0.17577028120E+04  0.46999998093E+01 0.  1.
       -5    1    3    3    0  502  0.17079130684E+03  0.90635497471E+03 -0.78211598825E+03  0.12092876084E+04  0.46999998093E+01 0. -1.
</event>
<event>
 5   0  0.1327254E-05  0.1899305E+04  0.7818609E-02  0.8655202E-01
        1   -1    0    0  501    0  0.00000000000E+00  0.00000000000E+00  0.47373957403E+03  0.47373957405E+03  0.50400001928E-02 0.  1.
       -1   -1    0    0    0  501  0.00000000000E+00  0.00000000000E+00 -0.19036613927E+04  0.19036613927E+04  0.50400001928E-02 0. -1.
    10030    2    1    2    0    0  0.00000000000E+00  0.00000000000E+00 -0.14299218186E+04  0.23774009667E+04  0.18993048595E+04 0.  0.
        5    1    3    3  502    0 -0.41687774647E+03  0.14759228704E+03  0.33696728868E+03  0.55600322151E+03  0.46999998093E+01 0.  1.
       -5    1    3    3    0  502  0.41687774647E+03 -0.14759228704E+03 -0.17668891073E+04  0.18213977452E+04  0.46999998093E+01 0. -1.
</event>
<event>
 5   0  0.2879462E-05  0.1898206E+04  0.7818609E-02  0.8655750E-01
       -2   -1    0    0    0  501  0.00000000000E+00  0.00000000000E+00  0.34914824511E+03  0.34914824512E+03  0.25500000920E-02 0.  1.
        2   -1    0    0  501    0  0.00000000000E+00  0.00000000000E+00 -0.25799836720E+04  0.25799836720E+04  0.25500000920E-02 0. -1.
    10030    2    1    2    0    0  0.00000000000E+00  0.00000000000E+00 -0.22308354269E+04  0.29291319171E+04  0.18982062812E+04 0.  0.
        4    1    3    3  502    0  0.82209842339E+03  0.31372040984E+03 -0.56652142098E+03  0.10465249384E+04  0.12699999809E+01 0.  1.
       -4    1    3    3    0  502 -0.82209842339E+03 -0.31372040984E+03 -0.16643140059E+04  0.18826069787E+04  0.12699999809E+01 0. -1.
</event>
<event>
 5   0  0.2855141E-05  0.1899211E+04  0.7818609E-02  0.8655249E-01
        2   -1    0    0  501    0  0.00000000000E+00  0.00000000000E+00  0.16270480772E+04  0.16270480772E+04  0.25500000920E-02 0. -1.
       -2   -1    0    0    0  501  0.00000000000E+00  0.00000000000E+00 -0.55422464071E+03  0.55422464071E+03  0.25500000920E-02 0.  1.
    10030    2    1    2    0    0  0.00000000000E+00  0.00000000000E+00  0.10728234365E+04  0.21812727180E+04  0.18992105055E+04 0.  0.
        1    1    3    3  502    0  0.91421999036E+03 -0.12790681306E+03  0.79217710273E+03  0.12164303949E+04  0.50400001928E-02 0. -1.
       -1    1    3    3    0  502 -0.91421999036E+03  0.12790681306E+03  0.28064633380E+03  0.96484232302E+03  0.50400001928E-02 0.  1.
</event>
<event>
 5   0  0.1344119E-05  0.1899110E+04  0.7818609E-02  0.8655300E-01
       -1   -1    0    0    0  501  0.00000000000E+00  0.00000000000E+00  0.62325048429E+03  0.62325048431E+03  0.50400001928E-02 0.  1.
        1   -1    0    0  501    0  0.00000000000E+00  0.00000000000E+00 -0.14466964129E+04  0.14466964129E+04  0.50400001928E-02 0. -1.
    10030    2    1    2    0    0  0.00000000000E+00  0.00000000000E+00 -0.82344592857E+03  0.20699468972E+04  0.18991095176E+04 0.  0.
        2    1    3    3  502    0 -0.81019430277E+03 -0.20810324645E+03 -0.90151562501E+03  0.12298179506E+04  0.25500000920E-02 0. -1.
       -2    1    3    3    0  502  0.81019430277E+03  0.20810324645E+03  0.78069696438E+02  0.84012894661E+03  0.25500000920E-02 0.  1.
</event>
<event>
 5   0  0.2789718E-05  0.1900458E+04  0.7818609E-02  0.8654628E-01
       -2   -1    0    0    0  501  0.00000000000E+00  0.00000000000E+00  0.60441203977E+03  0.60441203978E+03  0.25500000920E-02 0. -1.
        2   -1    0    0  501    0  0.00000000000E+00  0.00000000000E+00 -0.14939074115E+04  0.14939074115E+04  0.25500000920E-02 0.  1.
    10030    2    1    2    0    0  0.00000000000E+00  0.00000000000E+00 -0.88949537170E+03  0.20983194512E+04  0.19004584982E+04 0.  0.
        5    1    3    3  502    0  0.49310873890E+03 -0.56238389886E+03 -0.10918381377E+04  0.13234668440E+04  0.46999998093E+01 0.  1.
       -5    1    3    3    0  502 -0.49310873890E+03  0.56238389886E+03  0.20234276602E+03  0.77485260729E+03  0.46999998093E+01 0. -1.
</event>
<event>
 5   0  0.1344119E-05  0.1898044E+04  0.7818609E-02  0.8655830E-01
       -1   -1    0    0    0  501  0.00000000000E+00  0.00000000000E+00  0.12447817553E+04  0.12447817553E+04  0.50400001928E-02 0. -1.
        1   -1    0    0  501    0  0.00000000000E+00  0.00000000000E+00 -0.72353498345E+03  0.72353498346E+03  0.50400001928E-02 0.  1.
    10030    2    1    2    0    0  0.00000000000E+00  0.00000000000E+00  0.52124677188E+03  0.19683167388E+04  0.18980444112E+04 0.  0.
        2    1    3    3  502    0  0.73378805073E+03 -0.48336563656E+03 -0.11119822689E+03  0.88569311146E+03  0.25500000920E-02 0.  1.
       -2    1    3    3    0  502 -0.73378805073E+03  0.48336563656E+03  0.63244499878E+03  0.10826236273E+04  0.25500000920E-02 0. -1.
</event>
<event>
 5   0  0.2813537E-05  0.1899837E+04  0.7818609E-02  0.8654937E-01
        2   -1    0    0  501    0  0.00000000000E+00  0.00000000000E+00  0.47472956018E+03  0.47472956019E+03  0.25500000920E-02 0.  1.
       -2   -1    0    0    0  501  0.00000000000E+00  0.00000000000E+00 -0.19007571301E+04  0.19007571301E+04  0.25500000920E-02 0. -1.
    10030    2    1    2    0    0  0.00000000000E+00  0.00000000000E+00 -0.14260275699E+04  0.23754866903E+04  0.18998374629E+04 0.  0.
        2    1    3    3  502    0 -0.76268378209E+03 -0.54632460938E+03 -0.52676227835E+03  0.10759347695E+04  0.25500000920E-02 0. -1.
       -2    1    3    3    0  502  0.76268378209E+03  0.54632460938E+03 -0.89926529157E+03  0.12995519208E+04  0.25500000920E-02 0.  1.
</event>
<event>
 5   0  0.2888776E-05  0.1898844E+04  0.7818609E-02  0.8655432E-01
        2   -1    0    0  501    0  0.00000000000E+00  0.00000000000E+00  0.77120386515E+03  0.77120386515E+03  0.25500000920E-02 0. -1.
       -2   -1    0    0    0  501  0.00000000000E+00  0.00000000000E+00 -0.11688250616E+04  0.11688250616E+04  0.25500000920E-02 0.  1.
    10030    2    1    2    0    0  0.00000000000E+00  0.00000000000E+00 -0.39762119647E+03  0.19400289268E+04  0.18988442856E+04 0.  0.
        3    1    3    3  502    0 -0.87087015400E+03  0.26458638882E+03  0.77199887645E+02  0.91344436893E+03  0.10100000352E+00 0. -1.
       -3    1    3    3    0  502  0.87087015400E+03 -0.26458638882E+03 -0.47482108411E+03  0.10265845578E+04  0.10100000352E+00 0.  1.
</event>
<event>
 5   0  0.2855141E-05  0.1894226E+04  0.7818609E-02  0.8657736E-01
        2   -1    0    0  501    0  0.00000000000E+00  0.00000000000E+00  0.16517275275E+04  0.16517275275E+04  0.25500000920E-02 0. -1.
       -2   -1    0    0    0  501  0.00000000000E+00  0.00000000000E+00 -0.54308167036E+03  0.54308167036E+03  0.25500000920E-02 0.  1.
    10030    2    1    2    0    0  0.00000000000E+00  0.00000000000E+00  0.11086458571E+04  0.21948091979E+04  0.18942259048E+04 0.  0.
        1    1    3    3  502    0  0.45178127868E+03 -0.18416005504E+02  0.15185940939E+04  0.15844789349E+04  0.50400001928E-02 0. -1.
       -1    1    3    3    0  502 -0.45178127868E+03  0.18416005504E+02 -0.40994823678E+03  0.61033026296E+03  0.50400001928E-02 0.  1.
</event>
<event>
 5   0  0.2879462E-05  0.1892172E+04  0.7818609E-02  0.8658763E-01
        2   -1    0    0  501    0  0.00000000000E+00  0.00000000000E+00  0.13659120500E+04  0.13659120500E+04  0.25500000920E-02 0. -1.
       -2   -1    0    0    0  501  0.00000000000E+00  0.00000000000E+00 -0.65529766566E+03  0.65529766567E+03  0.25500000920E-02 0.  1.
    10030    2    1    2    0    0  0.00000000000E+00  0.00000000000E+00  0.71061438429E+03  0.20212097156E+04  0.18921722732E+04 0.  0.
        4    1    3    3  502    0  0.86053624782E+03 -0.35580657603E+03  0.17670309567E+03  0.94781145292E+03  0.12699999809E+01 0.  1.
       -4    1    3    3    0  502 -0.86053624782E+03  0.35580657603E+03  0.53391128862E+03  0.10733982627E+04  0.12699999809E+01 0. -1.
</event>
<event>
 5   0  0.1327254E-05  0.1897679E+04  0.7818609E-02  0.8656013E-01
        1   -1    0    0  501    0  0.00000000000E+00  0.00000000000E+00  0.17279540950E+04  0.17279540950E+04  0.50400001928E-02 0. -1.
       -1   -1    0    0    0  501  0.00000000000E+00  0.00000000000E+00 -0.52101844003E+03  0.52101844005E+03  0.50400001928E-02 0.  1.
    10030    2    1    2    0    0  0.00000000000E+00  0.00000000000E+00  0.12069356550E+04  0.22489725350E+04  0.18976785260E+04 0.  0.
        5    1    3    3  502    0 -0.44459934856E+03  0.79066409808E+03  0.27363960933E+03  0.94748035469E+03  0.46999998093E+01 0. -1.
       -5    1    3    3    0  502  0.44459934856E+03 -0.79066409808E+03  0.93329604563E+03  0.13014921804E+04  0.46999998093E+01 0.  1.
</event>
<event>
 5   0  0.1471485E-05  0.1898342E+04  0.7818609E-02  0.8655682E-01
        1   -1    0    0  501    0  0.00000000000E+00  0.00000000000E+00  0.10321716507E+04  0.10321716508E+04  0.50400001928E-02 0.  1.
       -1   -1    0    0    0  501  0.00000000000E+00  0.00000000000E+00 -0.87284444210E+03  0.87284444211E+03  0.50400001928E-02 0. -1.
    10030    2    1    2    0    0  0.00000000000E+00  0.00000000000E+00  0.15932720865E+03  0.19050160929E+04  0.18983416854E+04 0.  0.
        4    1    3    3  502    0 -0.47796698352E+03  0.74688590252E+03 -0.26010128732E+03  0.92409159789E+03  0.12699999809E+01 0. -1.
       -4    1    3    3    0  502  0.47796698352E+03 -0.74688590252E+03  0.41942849597E+03  0.98092449498E+03  0.12699999809E+01 0.  1.
</event>
<event>
 5   0  0.1010725E-05  0.1898416E+04  0.7818609E-02  0.8655645E-01
        3   -1    0    0  501    0  0.00000000000E+00  0.00000000000E+00  0.94364383180E+03  0.94364383720E+03  0.10100000352E+00 0.  1.
       -3   -1    0    0    0  501  0.00000000000E+00  0.00000000000E+00 -0.95480496495E+03  0.95480497029E+03  0.10100000352E+00 0. -1.
    10030    2    1    2    0    0  0.00000000000E+00  0.00000000000E+00 -0.11161133151E+02  0.18984488075E+04  0.18984159986E+04 0.  0.
        4    1    3    3  502    0 -0.37361574614E+03  0.23697522388E+03 -0.84538566736E+03  0.95416168545E+03  0.12699999809E+01 0. -1.
       -4    1    3    3    0  502  0.37361574614E+03 -0.23697522388E+03  0.83422453421E+03  0.94428712205E+03  0.12699999809E+01 0.  1.
</event>
<event>
 5   0  0.2888776E-05  0.1854356E+04  0.7818609E-02  0.8677916E-01
        2   -1    0    0  501    0  0.00000000000E+00  0.00000000000E+00  0.13844992464E+04  0.13844992464E+04  0.25500000920E-02 0.  1.
       -2   -1    0    0    0  501  0.00000000000E+00  0.00000000000E+00 -0.62091684137E+03  0.62091684138E+03  0.25500000920E-02 0. -1.
    10030    2    1    2    0    0  0.00000000000E+00  0.00000000000E+00  0.76358240501E+03  0.20054160878E+04  0.18543558439E+04 0.  0.
        3    1    3    3  502    0  0.77940620316E+03 -0.31531723045E+03 -0.40893085779E+02  0.84176673730E+03  0.10100000352E+00 0. -1.
       -3    1    3    3    0  502 -0.77940620316E+03  0.31531723045E+03  0.80447549079E+03  0.11636493505E+04  0.10100000352E+00 0.  1.
</event>
<event>
 5   0  0.2813537E-05  0.1906754E+04  0.7818609E-02  0.8651502E-01
       -2   -1    0    0    0  501  0.00000000000E+00  0.00000000000E+00  0.16153009598E+04  0.16153009598E+04  0.25500000920E-02 0. -1.
        2   -1    0    0  501    0  0.00000000000E+00  0.00000000000E+00 -0.56269888944E+03  0.56269888945E+03  0.25500000920E-02 0.  1.
    10030    2    1    2    0    0  0.00000000000E+00  0.00000000000E+00  0.10526020704E+04  0.21779998493E+04  0.19067543693E+04 0.  0.
        2    1    3    3  502    0  0.45320319061E+03  0.69426876718E+03 -0.11318764852E+02  0.82917450968E+03  0.25500000920E-02 0.  1.
       -2    1    3    3    0  502 -0.45320319061E+03 -0.69426876718E+03  0.10639208352E+04  0.13488253396E+04  0.25500000920E-02 0. -1.
</event>
<event>
 5   0  0.2789718E-05  0.1895581E+04  0.7818609E-02  0.8657059E-01
       -2   -1    0    0    0  501  0.00000000000E+00  0.00000000000E+00  0.16740308833E+04  0.16740308833E+04  0.25500000920E-02 0. -1.
        2   -1    0    0  501    0  0.00000000000E+00  0.00000000000E+00 -0.53661309142E+03  0.53661309143E+03  0.25500000920E-02 0.  1.
    10030    2    1    2    0    0  0.00000000000E+00  0.00000000000E+00  0.11374177919E+04  0.22106439748E+04  0.18955810586E+04 0.  0.
        5    1    3    3  502    0  0.83476094217E+03 -0.85591754068E+02  0.54870979368E+02  0.84094274081E+03  0.46999998093E+01 0.  1.
       -5    1    3    3    0  502 -0.83476094217E+03  0.85591754068E+02  0.10825468125E+04  0.13697012339E+04  0.46999998093E+01 0. -1.
</event>
<event>
 5   0  0.1471485E-05  0.1898024E+04  0.7818609E-02  0.8655841E-01
       -1   -1    0    0    0  501  0.00000000000E+00  0.00000000000E+00  0.55521705956E+03  0.55521705958E+03  0.50400001928E-02 0. -1.
        1   -1    0    0  501    0  0.00000000000E+00  0.00000000000E+00 -0.16221113579E+04  0.16221113579E+04  0.50400001928E-02 0.  1.
    10030    2    1    2    0    0  0.00000000000E+00  0.00000000000E+00 -0.10668942983E+04  0.21773284174E+04  0.18980241288E+04 0.  0.
        4    1    3    3  502    0  0.28990955476E+03 -0.57638506809E+03 -0.13318169489E+04  0.14798666476E+04  0.12699999809E+01 0.  1.
       -4    1    3    3    0  502 -0.28990955476E+03  0.57638506809E+03  0.26492265056E+03  0.69746176980E+03  0.12699999809E+01 0. -1.
</event>
<event>
 5   0  0.1413011E-05  0.1901432E+04  0.7818609E-02  0.8654144E-01
        1   -1    0    0  501    0  0.00000000000E+00  0.00000000000E+00  0.66858265223E+03  0.66858265225E+03  0.50400001928E-02 0.  1.
       -1   -1    0    0    0  501  0.00000000000E+00  0.00000000000E+00 -0.13519065132E+04  0.13519065132E+04  0.50400001928E-02 0. -1.
    10030    2    1    2    0    0  0.00000000000E+00  0.00000000000E+00 -0.68332386094E+03  0.20204891654E+04  0.19014323466E+04 0.  0.
        1    1    3    3  502    0  0.89679968080E+03  0.24291590007E+03 -0.12754201476E+03  0.93782981801E+03  0.50400001928E-02 0.  1.
       -1    1    3    3    0  502 -0.89679968080E+03 -0.24291590007E+03 -0.55578184618E+03  0.10826593474E+04  0.50400001928E-02 0. -1.
</event>
<event>
 5   0  0.2813537E-05  0.1898977E+04  0.7818609E-02  0.8655366E-01
        2   -1    0    0  501    0  0.00000000000E+00  0.00000000000E+00  0.22997428384E+04  0.22997428384E+04  0.25500000920E-02 0. -1.
       -2   -1    0    0    0  501  0.00000000000E+00  0.00000000000E+00 -0.39201258010E+03  0.39201258011E+03  0.25500000920E-02 0.  1.
    10030    2    1    2    0    0  0.00000000000E+00  0.00000000000E+00  0.19077302583E+04  0.26917554185E+04  0.18989766967E+04 0.  0.
        2    1    3    3  502    0  0.18016243237E+03 -0.92390295192E+03  0.11301855529E+04  0.14708414430E+04  0.25500000920E-02 0. -1.
       -2    1    3    3    0  502 -0.18016243237E+03  0.92390295192E+03  0.77754470545E+03  0.12209139755E+04  0.25500000920E-02 0.  1.
</event>
<event>
 5   0  0.1471485E-05  0.1901233E+04  0.7818609E-02  0.8654243E-01
       -1   -1    0    0    0  501  0.00000000000E+00  0.00000000000E+00  0.14371491026E+04  0.14371491027E+04  0.50400001928E-02 0. -1.
        1   -1    0    0  501    0  0.00000000000E+00  0.00000000000E+00 -0.62879457463E+03  0.62879457465E+03  0.50400001928E-02 0.  1.
    10030    2    1    2    0    0  0.00000000000E+00  0.00000000000E+00  0.80835452802E+03  0.20659436773E+04  0.19012328197E+04 0.  0.
        4    1    3    3  502    0  0.60795767762E+03  0.69613727043E+03  0.64581662500E+03  0.11275195622E+04  0.12699999809E+01 0. -1.
       -4    1    3    3    0  502 -0.60795767762E+03 -0.69613727043E+03  0.16253790302E+03  0.93842411514E+03  0.12699999809E+01 0.  1.
</event>
<event>
 5   0  0.2879462E-05  0.1899553E+04  0.7818609E-02  0.8655079E-01
        2   -1    0    0  501    0  0.00000000000E+00  0.00000000000E+00  0.97504321846E+03  0.97504321846E+03  0.25500000920E-02 0.  1.
       -2   -1    0    0    0  501  0.00000000000E+00  0.00000000000E+00 -0.92516473760E+03  0.92516473760E+03  0.25500000920E-02 0. -1.
    10030    2    1    2    0    0  0.00000000000E+00  0.00000000000E+00  0.49878480863E+02  0.19002079561E+04  0.18995532142E+04 0.  0.
        4    1    3    3  502    0 -0.23235279867E+03 -0.87896066029E+02  0.94196697347E+03  0.97417500146E+03  0.12699999809E+01 0.  1.
       -4    1    3    3    0  502  0.23235279867E+03  0.87896066029E+02 -0.89208849260E+03  0.92603295460E+03  0.12699999809E+01 0. -1.
</event>
<event>
 5   0  0.1327254E-05  0.1900405E+04  0.7818609E-02  0.8654655E-01
        1   -1    0    0  501    0  0.00000000000E+00  0.00000000000E+00  0.13356904135E+04  0.13356904135E+04  0.50400001928E-02 0. -1.
       -1   -1    0    0    0  501  0.00000000000E+00  0.00000000000E+00 -0.67596831022E+03  0.67596831023E+03  0.50400001928E-02 0.  1.
    10030    2    1    2    0    0  0.00000000000E+00  0.00000000000E+00  0.65972210331E+03  0.20116587238E+04  0.19004045799E+04 0.  0.
        5    1    3    3  502    0 -0.61359759602E+03  0.72377661811E+03  0.38286960433E+03  0.10232134805E+04  0.46999998093E+01 0. -1.
       -5    1    3    3    0  502  0.61359759602E+03 -0.72377661811E+03  0.27685249899E+03  0.98844524328E+03  0.46999998093E+01 0.  1.
</event>
<event>
 5   0  0.2789718E-05  0.1900939E+04  0.7818609E-02  0.8654389E-01
        2   -1    0    0  501    0  0.00000000000E+00  0.00000000000E+00  0.98066943068E+03  0.98066943069E+03  0.25500000920E-02 0. -1.
       -2   -1    0    0    0  501  0.00000000000E+00  0.00000000000E+00 -0.92119985379E+03  0.92119985379E+03  0.25500000920E-02 0.  1.
    10030    2    1    2    0    0  0.00000000000E+00  0.00000000000E+00  0.59469576896E+02  0.19018692845E+04  0.19009392796E+04 0.  0.
        5    1    3    3  502    0 -0.62088281598E+03  0.59227751936E+02 -0.68780995832E+03  0.92849772565E+03  0.46999998093E+01 0.  1.
       -5    1    3    3    0  502  0.62088281598E+03 -0.59227751936E+02  0.74727953522E+03  0.97337155883E+03  0.46999998093E+01 0. -1.
</event>
<event>
 5   0  0.2855141E-05  0.1902815E+04  0.7818609E-02  0.8653456E-01
        2   -1    0    0  501    0  0.00000000000E+00  0.00000000000E+00  0.18434054886E+04  0.18434054886E+04  0.25500000920E-02 0. -1.
       -2   -1    0    0    0  501  0.00000000000E+00  0.00000000000E+00 -0.49103479082E+03  0.49103479082E+03  0.25500000920E-02 0.  1.
    10030    2    1    2    0    0  0.00000000000E+00  0.00000000000E+00  0.13523706977E+04  0.23344402794E+04  0.19028149973E+04 0.  0.
        1    1    3    3  502    0 -0.33580654611E+02 -0.30111587836E+03  0.17826367898E+04  0.18082014149E+04  0.50400001928E-02 0. -1.
       -1    1    3    3    0  502  0.33580654611E+02  0.30111587836E+03 -0.43026609201E+03  0.52623886451E+03  0.50400001928E-02 0.  1.
</event>
<event>
 5   0  0.1429067E-05  0.1886828E+04  0.7818609E-02  0.8661441E-01
       -1   -1    0    0    0  501  0.00000000000E+00  0.00000000000E+00  0.48136041507E+03  0.48136041509E+03  0.50400001928E-02 0. -1.
        1   -1    0    0  501    0  0.00000000000E+00  0.00000000000E+00 -0.18489884505E+04  0.18489884505E+04  0.50400001928E-02 0.  1.
    10030    2    1    2    0    0  0.00000000000E+00  0.00000000000E+00 -0.13676280355E+04  0.23303488656E+04  0.18868278650E+04 0.  0.
        3    1    3    3  502    0 -0.60985426652E+03 -0.71650846935E+03 -0.59893351001E+03  0.11153600193E+04  0.10100000352E+00 0. -1.
       -3    1    3    3    0  502  0.60985426652E+03  0.71650846935E+03 -0.76869452546E+03  0.12149888463E+04  0.10100000352E+00 0.  1.
</event>
<event>
 5   0  0.1471485E-05  0.1896052E+04  0.7818609E-02  0.8656824E-01
       -1   -1    0    0    0  501  0.00000000000E+00  0.00000000000E+00  0.10511576958E+04  0.10511576958E+04  0.50400001928E-02 0.  1.
        1   -1    0    0  501    0  0.00000000000E+00  0.00000000000E+00 -0.85501297063E+03  0.85501297064E+03  0.50400001928E-02 0. -1.
    10030    2    1    2    0    0  0.00000000000E+00  0.00000000000E+00  0.19614472515E+03  0.19061706664E+04  0.18960521766E+04 0.  0.
        4    1    3    3  502    0  0.24657224739E+03  0.75299508568E+03 -0.42523636994E+03  0.89923692955E+03  0.12699999809E+01 0. -1.
       -4    1    3    3    0  502 -0.24657224739E+03 -0.75299508568E+03  0.62138109510E+03  0.10069337369E+04  0.12699999809E+01 0.  1.
</event>
<event>
 5   0  0.1471485E-05  0.1912626E+04  0.7818609E-02  0.8648597E-01
        1   -1    0    0  501    0  0.00000000000E+00  0.00000000000E+00  0.17922570667E+04  0.17922570667E+04  0.50400001928E-02 0. -1.
       -1   -1    0    0    0  501  0.00000000000E+00  0.00000000000E+00 -0.51026954605E+03  0.51026954607E+03  0.50400001928E-02 0.  1.
    10030    2    1    2    0    0  0.00000000000E+00  0.00000000000E+00  0.12819875206E+04  0.23025266127E+04  0.19126256297E+04 0.  0.
        4    1    3    3  502    0 -0.69868333177E+03  0.61039434289E+03  0.36177968486E+03  0.99580409981E+03  0.12699999809E+01 0.  1.
       -4    1    3    3    0  502  0.69868333177E+03 -0.61039434289E+03  0.92020783575E+03  0.13067225129E+04  0.12699999809E+01 0. -1.
</event>
<event>
 5   0  0.1471485E-05  0.1899736E+04  0.7818609E-02  0.8654988E-01
       -1   -1    0    0    0  501  0.00000000000E+00  0.00000000000E+00  0.52475075445E+03  0.52475075448E+03  0.50400001928E-02 0. -1.
        1   -1    0    0  501    0  0.00000000000E+00  0.00000000000E+00 -0.17193855691E+04  0.17193855691E+04  0.50400001928E-02 0.  1.
    10030    2    1    2    0    0  0.00000000000E+00  0.00000000000E+00 -0.11946348146E+04  0.22441363236E+04  0.18997356391E+04 0.  0.
        4    1    3    3  502    0  0.60234217437E+03  0.40006291106E+03 -0.13249191968E+04  0.15093968725E+04  0.12699999809E+01 0.  1.
       -4    1    3    3    0  502 -0.60234217437E+03 -0.40006291106E+03  0.13028438214E+03  0.73473945107E+03  0.12699999809E+01 0. -1.
</event>
<event>
 5   0  0.1429067E-05  0.1898294E+04  0.7818609E-02  0.8655706E-01
       -1   -1    0    0    0  501  0.00000000000E+00  0.00000000000E+00  0.54081825816E+03  0.54081825819E+03  0.50400001928E-02 0. -1.
        1   -1    0    0  501    0  0.00000000000E+00  0.00000000000E+00 -0.16657723470E+04  0.16657723470E+04  0.50400001928E-02 0.  1.
    10030    2    1    2    0    0  0.00000000000E+00  0.00000000000E+00 -0.11249540888E+04  0.22065906052E+04  0.18982940754E+04 0.  0.
        3    1    3    3  502    0  0.92449251690E+03  0.13440236473E+03 -0.75743486669E+03  0.12026878219E+04  0.10100000352E+00 0. -1.
       -3    1    3    3    0  502 -0.92449251690E+03 -0.13440236473E+03 -0.36751922212E+03  0.10039027833E+04  0.10100000352E+00 0.  1.
</event>
<event>
 5   0  0.2789718E-05  0.1899269E+04  0.7818609E-02  0.8655221E-01
       -2   -1    0    0    0  501  0.00000000000E+00  0.00000000000E+00  0.46069613706E+03  0.46069613707E+03  0.25500000920E-02 0.  1.
        2   -1    0    0  501    0  0.00000000000E+00  0.00000000000E+00 -0.19574838288E+04  0.19574838288E+04  0.25500000920E-02 0. -1.
    10030    2    1    2    0    0  0.00000000000E+00  0.00000000000E+00 -0.14967876917E+04  0.24181799659E+04  0.18992685311E+04 0.  0.
        5    1    3    3  502    0  0.48870794425E+03 -0.27020092428E+03  0.22953184800E+03  0.60378055077E+03  0.46999998093E+01 0.  1.
       -5    1    3    3    0  502 -0.48870794425E+03  0.27020092428E+03 -0.17263195397E+04  0.18143994151E+04  0.46999998093E+01 0. -1.
</event>
<event>
 5   0  0.2813537E-05  0.1898506E+04  0.7818609E-02  0.8655601E-01
       -2   -1    0    0    0  501  0.00000000000E+00  0.00000000000E+00  0.84602600155E+03  0.84602600155E+03  0.25500000920E-02 0.  1.
        2   -1    0    0  501    0  0.00000000000E+00  0.00000000000E+00 -0.10650748758E+04  0.10650748758E+04  0.25500000920E-02 0. -1.
    10030    2    1    2    0    0  0.00000000000E+00  0.00000000000E+00 -0.21904887427E+03  0.19111008774E+04  0.18985057688E+04 0.  0.
        2    1    3    3  502    0 -0.75048177132E+03  0.35698044546E+03 -0.57128666986E+03  0.10084772614E+04  0.25500000920E-02 0. -1.
       -2    1    3    3    0  502  0.75048177132E+03 -0.35698044546E+03  0.35223779559E+03  0.90262361601E+03  0.25500000920E-02 0.  1.
</event>
<event>
 5   0  0.1344119E-05  0.1897927E+04  0.7818609E-02  0.8655889E-01
       -1   -1    0    0    0  501  0.00000000000E+00  0.00000000000E+00  0.62584385377E+03  0.62584385379E+03  0.50400001928E-02 0. -1.
        1   -1    0    0  501    0  0.00000000000E+00  0.00000000000E+00 -0.14389085980E+04  0.14389085980E+04  0.50400001928E-02 0.  1.
    10030    2    1    2    0    0  0.00000000000E+00  0.00000000000E+00 -0.81306474420E+03  0.20647524518E+04  0.18979273982E+04 0.  0.
        2    1    3    3  502    0 -0.43218023297E+03  0.58278179486E+03 -0.10719472996E+04  0.12944054185E+04  0.25500000920E-02 0.  1.
       -2    1    3    3    0  502  0.43218023297E+03 -0.58278179486E+03  0.25888255543E+03  0.77034703329E+03  0.25500000920E-02 0. -1.
</event>
<event>
 5   0  0.1413011E-05  0.1907136E+04  0.7818609E-02  0.8651313E-01
       -1   -1    0    0    0  501  0.00000000000E+00  0.00000000000E+00  0.69011128729E+03  0.69011128731E+03  0.50400001928E-02 0. -1.
        1   -1    0    0  501    0  0.00000000000E+00  0.00000000000E+00 -0.13176012107E+04  0.13176012107E+04  0.50400001928E-02 0.  1.
    10030    2    1    2    0    0  0.00000000000E+00  0.00000000000E+00 -0.62748992338E+03  0.20077124980E+04  0.19071355145E+04 0.  0.
        1    1    3    3  502    0  0.79102203438E+03 -0.51658679587E+03 -0.44984434411E+03  0.10463927133E+04  0.50400001928E-02 0.  1.
       -1    1    3    3    0  502 -0.79102203438E+03  0.51658679587E+03 -0.17764557928E+03  0.96131978467E+03  0.50400001928E-02 0. -1.
</event>
<event>
 5   0  0.1429067E-05  0.1899539E+04  0.7818609E-02  0.8655086E-01
        1   -1    0    0  501    0  0.00000000000E+00  0.00000000000E+00  0.17721851358E+04  0.17721851358E+04  0.50400001928E-02 0. -1.
       -1   -1    0    0    0  501  0.00000000000E+00  0.00000000000E+00 -0.50901106280E+03  0.50901106282E+03  0.50400001928E-02 0.  1.
    10030    2    1    2    0    0  0.00000000000E+00  0.00000000000E+00  0.12631740730E+04  0.22811961986E+04  0.18995387224E+04 0.  0.
        3    1    3    3  502    0 -0.58725834640E+03 -0.40386772947E+03 -0.12230101848E+03  0.72314525349E+03  0.10100000352E+00 0.  1.
       -3    1    3    3    0  502  0.58725834640E+03  0.40386772947E+03  0.13854750915E+04  0.15580509452E+04  0.10100000352E+00 0. -1.
</event>
<event>
 5   0  0.1413011E-05  0.1903460E+04  0.7818609E-02  0.8653136E-01
       -1   -1    0    0    0  501  0.00000000000E+00  0.00000000000E+00  0.44653354754E+03  0.44653354757E+03  0.50400001928E-02 0.  1.
        1   -1    0    0  501    0  0.00000000000E+00  0.00000000000E+00 -0.20284917485E+04  0.20284917485E+04  0.50400001928E-02 0. -1.
    10030    2    1    2    0    0  0.00000000000E+00  0.00000000000E+00 -0.15819582010E+04  0.24750252961E+04  0.19034596047E+04 0.  0.
        1    1    3    3  502    0  0.10774370503E+03  0.51208952646E+03  0.24267610621E+03  0.57683280215E+03  0.50400001928E-02 0.  1.
       -1    1    3    3    0  502 -0.10774370503E+03 -0.51208952646E+03 -0.18246343072E+04  0.18981924940E+04  0.50400001928E-02 0. -1.
</event>
<event>
 5   0  0.1471485E-05  0.1879406E+04  0.7818609E-02  0.8665176E-01
       -1   -1    0    0    0  501  0.00000000000E+00  0.00000000000E+00  0.13863640288E+04  0.13863640289E+04  0.50400001928E-02 0.  1.
        1   -1    0    0  501    0  0.00000000000E+00  0.00000000000E+00 -0.63694805545E+03  0.63694805547E+03  0.50400001928E-02 0. -1.
    10030    2    1    2    0    0  0.00000000000E+00  0.00000000000E+00  0.74941597340E+03  0.20233120843E+04  0.18794061534E+04 0.  0.
        4    1    3    3  502    0 -0.13434836627E+03  0.44690948280E+03  0.12527975489E+04  0.13368922472E+04  0.12699999809E+01 0.  1.
       -4    1    3    3    0  502  0.13434836627E+03 -0.44690948280E+03 -0.50338157548E+03  0.68641983710E+03  0.12699999809E+01 0. -1.
</event>
<event>
 5   0  0.1471485E-05  0.1899404E+04  0.7818609E-02  0.8655153E-01
        1   -1    0    0  501    0  0.00000000000E+00  0.00000000000E+00  0.16507453765E+04  0.16507453765E+04  0.50400001928E-02 0. -1.
       -1   -1    0    0    0  501  0.00000000000E+00  0.00000000000E+00 -0.54638001567E+03  0.54638001570E+03  0.50400001928E-02 0.  1.
    10030    2    1    2    0    0  0.00000000000E+00  0.00000000000E+00  0.11043653608E+04  0.21971253922E+04  0.18994044169E+04 0.  0.
        4    1    3    3  502    0 -0.14148386963E+03  0.20518057608E+02 -0.53386046509E+03  0.55267285544E+03  0.12699999809E+01 0.  1.
       -4    1    3    3    0  502  0.14148386963E+03 -0.20518057608E+02  0.16382258259E+04  0.16444525367E+04  0.12699999809E+01 0. -1.
</event>
<event>
 5   0  0.1429067E-05  0.1895264E+04  0.7818609E-02  0.8657217E-01
       -1   -1    0    0    0  501  0.00000000000E+00  0.00000000000E+00  0.49083903356E+03  0.49083903359E+03  0.50400001928E-02 0. -1.
        1   -1    0    0  501    0  0.00000000000E+00  0.00000000000E+00 -0.18295332899E+04  0.18295332899E+04  0.50400001928E-02 0.  1.
    10030    2    1    2    0    0  0.00000000000E+00  0.00000000000E+00 -0.13386942563E+04  0.23203723235E+04  0.18952639414E+04 0.  0.
        3    1    3    3  502    0  0.37346572449E+03 -0.96146208144E+02 -0.17291172474E+04  0.17716001824E+04  0.10100000352E+00 0.  1.
       -3    1    3    3    0  502 -0.37346572449E+03  0.96146208144E+02  0.39042299108E+03  0.54877214112E+03  0.10100000352E+00 0. -1.
</event>
<event>
 5   0  0.2813537E-05  0.1894845E+04  0.7818609E-02  0.8657427E-01
        2   -1    0    0  501    0  0.00000000000E+00  0.00000000000E+00  0.14420085001E+04  0.14420085001E+04  0.25500000920E-02 0. -1.
       -2   -1    0    0    0  501  0.00000000000E+00  0.00000000000E+00 -0.62247140812E+03  0.62247140812E+03  0.25500000920E-02 0.  1.
    10030    2    1    2    0    0  0.00000000000E+00  0.00000000000E+00  0.81953709202E+03  0.20644799083E+04  0.18948446497E+04 0.  0.
        2    1    3    3  502    0  0.83375909689E+03 -0.38540709794E+03  0.66275465987E+03  0.11326679134E+04  0.25500000920E-02 0. -1.
       -2    1    3    3    0  502 -0.83375909689E+03  0.38540709794E+03  0.15678243215E+03  0.93181199490E+03  0.25500000920E-02 0.  1.
</event>
<event>
 5   0  0.1010725E-05  0.1895790E+04  0.7818609E-02  0.8656955E-01
       -3   -1    0    0    0  501  0.00000000000E+00  0.00000000000E+00  0.14827754538E+04  0.14827754573E+04  0.10100000352E+00 0.  1.
        3   -1    0    0  501    0  0.00000000000E+00  0.00000000000E+00 -0.60596159657E+03  0.60596160499E+03  0.10100000352E+00 0. -1.
    10030    2    1    2    0    0  0.00000000000E+00  0.00000000000E+00  0.87681385724E+03  0.20887370622E+04  0.18957900662E+04 0.  0.
        4    1    3    3  502    0 -0.15726022249E+03  0.64758795271E+03 -0.30429381749E+03  0.73259625602E+03  0.12699999809E+01 0. -1.
       -4    1    3    3    0  502  0.15726022249E+03 -0.64758795271E+03  0.11811076747E+04  0.13561408062E+04  0.12699999809E+01 0.  1.
</event>
<event>
 5   0  0.2855141E-05  0.1897409E+04  0.7818609E-02  0.8656147E-01
       -2   -1    0    0    0  501  0.00000000000E+00  0.00000000000E+00  0.85858423704E+03  0.85858423704E+03  0.25500000920E-02 0. -1.
        2   -1    0    0  501    0  0.00000000000E+00  0.00000000000E+00 -0.10482845693E+04  0.10482845693E+04  0.25500000920E-02 0.  1.
    10030    2    1    2    0    0  0.00000000000E+00  0.00000000000E+00 -0.18970033228E+03  0.19068688064E+04  0.18974093993E+04 0.  0.
        1    1    3    3  502    0  0.92109110329E+03 -0.13123334441E+02  0.13312777154E+03  0.93075455736E+03  0.50400001928E-02 0. -1.
       -1    1    3    3    0  502 -0.92109110329E+03  0.13123334441E+02 -0.32282810382E+03  0.97611424900E+03  0.50400001928E-02 0.  1.
</event>
<event>
 5   0  0.1429067E-05  0.1896069E+04  0.7818609E-02  0.8656816E-01
        1   -1    0    0  501    0  0.00000000000E+00  0.00000000000E+00  0.18571786758E+04  0.18571786758E+04  0.50400001928E-02 0. -1.
       -1   -1    0    0    0  501  0.00000000000E+00  0.00000000000E+00 -0.48394345044E+03  0.48394345047E+03  0.50400001928E-02 0.  1.
    10030    2    1    2    0    0  0.00000000000E+00  0.00000000000E+00  0.13732352254E+04  0.23411221263E+04  0.18960690457E+04 0.  0.
        3    1    3    3  502    0 -0.28913752867E+02  0.85890960740E+03  0.19240747313E+03  0.88067154190E+03  0.10100000352E+00 0. -1.
       -3    1    3    3    0  502  0.28913752867E+02 -0.85890960740E+03  0.11808277522E+04  0.14604505844E+04  0.10100000352E+00 0.  1.
</event>
<event>
 5   0  0.2855141E-05  0.1900894E+04  0.7818609E-02  0.8654412E-01
        2   -1    0    0  501    0  0.00000000000E+00  0.00000000000E+00  0.15863858679E+04  0.15863858679E+04  0.25500000920E-02 0.  1.
       -2   -1    0    0    0  501  0.00000000000E+00  0.00000000000E+00 -0.56943865271E+03  0.56943865272E+03  0.25500000920E-02 0. -1.
    10030    2    1    2    0    0  0.00000000000E+00  0.00000000000E+00  0.10169472152E+04  0.21558245206E+04  0.19008939279E+04 0.  0.
        1    1    3    3  502    0 -0.56315613351E+02 -0.78407886730E+03 -0.97398869965E+02  0.79210962521E+03  0.50400001928E-02 0. -1.
       -1    1    3    3    0  502  0.56315613351E+02  0.78407886730E+03  0.11143460851E+04  0.13637148954E+04  0.50400001928E-02 0.  1.
</event>
<event>
 5   0  0.1413011E-05  0.1924562E+04  0.7818609E-02  0.8642726E-01
        1   -1    0    0  501    0  0.00000000000E+00  0.00000000000E+00  0.15776563854E+04  0.15776563854E+04  0.50400001928E-02 0. -1.
       -1   -1    0    0    0  501  0.00000000000E+00  0.00000000000E+00 -0.58693683510E+03  0.58693683512E+03  0.50400001928E-02 0.  1.
    10030    2    1    2    0    0  0.00000000000E+00  0.00000000000E+00  0.99071955032E+03  0.21645932206E+04  0.19245619198E+04 0.  0.
        1    1    3    3  502    0 -0.80669280710E+03 -0.40343733154E+03  0.87255148216E+03  0.12549346814E+04  0.50400001928E-02 0. -1.
       -1    1    3    3    0  502  0.80669280710E+03  0.40343733154E+03  0.11816806816E+03  0.90965853916E+03  0.50400001928E-02 0.  1.
</event>
<event>
 5   0  0.2789718E-05  0.1864725E+04  0.7818609E-02  0.8672617E-01
       -2   -1    0    0    0  501  0.00000000000E+00  0.00000000000E+00  0.19530732582E+04  0.19530732582E+04  0.25500000920E-02 0. -1.
        2   -1    0    0  501    0  0.00000000000E+00  0.00000000000E+00 -0.44509331515E+03  0.44509331516E+03  0.25500000920E-02 0.  1.
    10030    2    1    2    0    0  0.00000000000E+00  0.00000000000E+00  0.15079799430E+04  0.23981665733E+04  0.18647250213E+04 0.  0.
        5    1    3    3  502    0  0.57468633115E+02  0.73877809425E+03  0.26272111066E+02  0.74149041137E+03  0.46999998093E+01 0.  1.
       -5    1    3    3    0  502 -0.57468633115E+02 -0.73877809425E+03  0.14817078320E+04  0.16566761620E+04  0.46999998093E+01 0. -1.
</event>
<event>
 5   0  0.1344119E-05  0.1897999E+04  0.7818609E-02  0.8655853E-01
       -1   -1    0    0    0  501  0.00000000000E+00  0.00000000000E+00  0.52009919513E+03  0.52009919515E+03  0.50400001928E-02 0.  1.
        1   -1    0    0  501    0  0.00000000000E+00  0.00000000000E+00 -0.17315924972E+04  0.17315924972E+04  0.50400001928E-02 0. -1.
    10030    2    1    2    0    0  0.00000000000E+00  0.00000000000E+00 -0.12114933020E+04  0.22516916923E+04  0.18979988031E+04 0.  0.
        2    1    3    3  502    0  0.65235839557E+03 -0.58145497220E+03 -0.16673526970E+03  0.88964150709E+03  0.25500000920E-02 0.  1.
       -2    1    3    3    0  502 -0.65235839557E+03  0.58145497220E+03 -0.10447580323E+04  0.13620501852E+04  0.25500000920E-02 0. -1.
</event>
<event>
 5   0  0.2888776E-05  0.1887669E+04  0.7818609E-02  0.8661019E-01
       -2   -1    0    0    0  501  0.00000000000E+00  0.00000000000E+00  0.52017468129E+03  0.52017468130E+03  0.25500000920E-02 0.  1.
        2   -1    0    0  501    0  0.00000000000E+00  0.00000000000E+00 -0.17125471583E+04  0.17125471583E+04  0.25500000920E-02 0. -1.
    10030    2    1    2    0    0  0.00000000000E+00  0.00000000000E+00 -0.11923724770E+04  0.22327218396E+04  0.18876691154E+04 0.  0.
        3    1    3    3  502    0 -0.50073958984E+02  0.35768389553E+03  0.43520553255E+03  0.56555197485E+03  0.10100000352E+00 0.  1.
       -3    1    3    3    0  502  0.50073958984E+02 -0.35768389553E+03 -0.16275780096E+04  0.16671698648E+04  0.10100000352E+00 0. -1.
</event>
<event>
 5   0  0.2813537E-05  0.1897744E+04  0.7818609E-02  0.8655980E-01
       -2   -1    0    0    0  501  0.00000000000E+00  0.00000000000E+00  0.73753864013E+03  0.73753864014E+03  0.25500000920E-02 0.  1.
        2   -1    0    0  501    0  0.00000000000E+00  0.00000000000E+00 -0.12207606599E+04  0.12207606599E+04  0.25500000920E-02 0. -1.
    10030    2    1    2    0    0  0.00000000000E+00  0.00000000000E+00 -0.48322201979E+03  0.19582993001E+04  0.18977440892E+04 0.  0.
        2    1    3    3  502    0 -0.50540477810E+03 -0.73537586538E+03 -0.57462598941E+03  0.10613230803E+04  0.25500000920E-02 0. -1.
       -2    1    3    3    0  502  0.50540477810E+03  0.73537586538E+03  0.91403969617E+02  0.89697621974E+03  0.25500000920E-02 0.  1.
</event>
<event>
 5   0  0.1344119E-05  0.1899589E+04  0.7818609E-02  0.8655061E-01
        1   -1    0    0  501    0  0.00000000000E+00  0.00000000000E+00  0.11012903678E+04  0.11012903678E+04  0.50400001928E-02 0.  1.
       -1   -1    0    0    0  501  0.00000000000E+00  0.00000000000E+00 -0.81913867339E+03  0.81913867341E+03  0.50400001928E-02 0. -1.
    10030    2    1    2    0    0  0.00000000000E+00  0.00000000000E+00  0.28215169443E+03  0.19204290412E+04  0.18995889355E+04 0.  0.
        2    1    3    3  502    0 -0.65500774356E+03  0.55124340773E+03 -0.27478242812E+03  0.89911613348E+03  0.25500000920E-02 0. -1.
       -2    1    3    3    0  502  0.65500774356E+03 -0.55124340773E+03  0.55693412255E+03  0.10213129078E+04  0.25500000920E-02 0.  1.
</event>
<event>
 5   0  0.1010725E-05  0.1899912E+04  0.7818609E-02  0.8654900E-01
       -4   -1    0    0    0  501  0.00000000000E+00  0.00000000000E+00  0.95195371561E+03  0.95195456277E+03  0.12699999809E+01 0.  1.
        4   -1    0    0  501    0  0.00000000000E+00  0.00000000000E+00 -0.94796123021E+03  0.94796208093E+03  0.12699999809E+01 0. -1.
    10030    2    1    2    0    0  0.00000000000E+00  0.00000000000E+00  0.39924854011E+01  0.18999166437E+04  0.18999124488E+04 0.  0.
        2    1    3    3  502    0  0.25037003602E+03 -0.75832007525E+03 -0.51247776599E+03  0.94887720602E+03  0.25500000920E-02 0. -1.
       -2    1    3    3    0  502 -0.25037003602E+03  0.75832007525E+03  0.51647025139E+03  0.95103943769E+03  0.25500000920E-02 0.  1.
</event>
<event>
 5   0  0.2789718E-05  0.1897361E+04  0.7818609E-02  0.8656171E-01
        2   -1    0    0  501    0  0.00000000000E+00  0.00000000000E+00  0.17199297238E+04  0.17199297238E+04  0.25500000920E-02 0. -1.
       -2   -1    0    0    0  501  0.00000000000E+00  0.00000000000E+00 -0.52327431662E+03  0.52327431663E+03  0.25500000920E-02 0.  1.
    10030    2    1    2    0    0  0.00000000000E+00  0.00000000000E+00  0.11966554072E+04  0.22432040404E+04  0.18973613792E+04 0.  0.
        5    1    3    3  502    0  0.21442488881E+03 -0.61798369158E+02 -0.49178930172E+03  0.54007025344E+03  0.46999998093E+01 0.  1.
       -5    1    3    3    0  502 -0.21442488881E+03  0.61798369158E+02  0.16884447089E+04  0.17031337870E+04  0.46999998093E+01 0. -1.
</event>
<event>
 5   0  0.2888776E-05  0.1901904E+04  0.7818609E-02  0.8653909E-01
        2   -1    0    0  501    0  0.00000000000E+00  0.00000000000E+00  0.24531034067E+04  0.24531034067E+04  0.25500000920E-02 0. -1.
       -2   -1    0    0    0  501  0.00000000000E+00  0.00000000000E+00 -0.36863892141E+03  0.36863892142E+03  0.25500000920E-02 0.  1.
    10030    2    1    2    0    0  0.00000000000E+00  0.00000000000E+00  0.20844644853E+04  0.28217423282E+04  0.19019036716E+04 0.  0.
        3    1    3    3  502    0 -0.13414271546E+03 -0.65178640222E+03  0.20501144908E+04  0.21554092924E+04  0.10100000352E+00 0. -1.
       -3    1    3    3    0  502  0.13414271546E+03  0.65178640222E+03  0.34349994559E+02  0.66633303577E+03  0.10100000352E+00 0.  1.
</event>
<event>
 5   0  0.2855141E-05  0.1899056E+04  0.7818609E-02  0.8655326E-01
       -2   -1    0    0    0  501  0.00000000000E+00  0.00000000000E+00  0.79259053861E+03  0.79259053861E+03  0.25500000920E-02 0. -1.
        2   -1    0    0  501    0  0.00000000000E+00  0.00000000000E+00 -0.11375400610E+04  0.11375400611E+04  0.25500000920E-02 0.  1.
    10030    2    1    2    0    0  0.00000000000E+00  0.00000000000E+00 -0.34494952244E+03  0.19301305997E+04  0.18990560705E+04 0.  0.
        1    1    3    3  502    0  0.68314922025E+03  0.59057180268E+03 -0.47076579241E+03  0.10183753446E+04  0.50400001928E-02 0.  1.
       -1    1    3    3    0  502 -0.68314922025E+03 -0.59057180268E+03  0.12581626997E+03  0.91175525502E+03  0.50400001928E-02 0. -1.
</event>
<event>
 5   0  0.1327254E-05  0.1892689E+04  0.7818609E-02  0.8658504E-01
       -1   -1    0    0    0  501  0.00000000000E+00  0.00000000000E+00  0.82053852342E+03  0.82053852344E+03  0.50400001928E-02 0.  1.
        1   -1    0    0  501    0  0.00000000000E+00  0.00000000000E+00 -0.10914391470E+04  0.10914391470E+04  0.50400001928E-02 0. -1.
    10030    2    1    2    0    0  0.00000000000E+00  0.00000000000E+00 -0.27090062353E+03  0.19119776704E+04  0.18926889507E+04 0.  0.
        5    1    3    3  502    0  0.79883231325E+03 -0.27611052368E+03 -0.56543553528E+03  0.10169117565E+04  0.46999998093E+01 0. -1.
       -5    1    3    3    0  502 -0.79883231325E+03  0.27611052368E+03  0.29453491175E+03  0.89506591389E+03  0.46999998093E+01 0.  1.
</event>
<event>
 5   0  0.1413011E-05  0.1909312E+04  0.7818609E-02  0.8650235E-01
       -1   -1    0    0    0  501  0.00000000000E+00  0.00000000000E+00  0.70283920944E+03  0.70283920946E+03  0.50400001928E-02 0. -1.
        1   -1    0    0  501    0  0.00000000000E+00  0.00000000000E+00 -0.12966952742E+04  0.12966952742E+04  0.50400001928E-02 0.  1.
    10030    2    1    2    0    0  0.00000000000E+00  0.00000000000E+00 -0.59385606473E+03  0.19995344836E+04  0.19093122127E+04 0.  0.
        1    1    3    3  502    0  0.27027106022E+03  0.70864683786E+03  0.31024575090E+03  0.81943835203E+03  0.50400001928E-02 0. -1.
       -1    1    3    3    0  502 -0.27027106022E+03 -0.70864683786E+03 -0.90410181563E+03  0.11800961316E+04  0.50400001928E-02 0.  1.
</event>
<event>
 5   0  0.2813537E-05  0.1904602E+04  0.7818609E-02  0.8652569E-01
        2   -1    0    0  501    0  0.00000000000E+00  0.00000000000E+00  0.16308416501E+04  0.16308416501E+04  0.25500000920E-02 0.  1.
       -2   -1    0    0    0  501  0.00000000000E+00  0.00000000000E+00 -0.55607905033E+03  0.55607905034E+03  0.25500000920E-02 0. -1.
    10030    2    1    2    0    0  0.00000000000E+00  0.00000000000E+00  0.10747625998E+04  0.21869207005E+04  0.19046016655E+04 0.  0.
        2    1    3    3  502    0 -0.16671836671E+03 -0.80247151074E+03 -0.19387508150E+02  0.81983621219E+03  0.25500000920E-02 0. -1.
       -2    1    3    3    0  502  0.16671836671E+03  0.80247151074E+03  0.10941501079E+04  0.13670844883E+04  0.25500000920E-02 0.  1.
</event>
<event>
 5   0  0.1344119E-05  0.1901021E+04  0.7818609E-02  0.8654348E-01
        1   -1    0    0  501    0  0.00000000000E+00  0.00000000000E+00  0.12996804679E+04  0.12996804679E+04  0.50400001928E-02 0.  1.
       -1   -1    0    0    0  501  0.00000000000E+00  0.00000000000E+00 -0.69514776240E+03  0.69514776242E+03  0.50400001928E-02 0. -1.
    10030    2    1    2    0    0  0.00000000000E+00  0.00000000000E+00  0.60453270547E+03  0.19948282303E+04  0.19010207459E+04 0.  0.
        2    1    3    3  502    0 -0.85727068243E+03 -0.32162136308E+03  0.34494664172E+02  0.91626590355E+03  0.25500000920E-02 0. -1.
       -2    1    3    3    0  502  0.85727068243E+03  0.32162136308E+03  0.57003804129E+03  0.10785623267E+04  0.25500000920E-02 0.  1.
</event>
<event>
 5   0  0.2888776E-05  0.1904113E+04  0.7818609E-02  0.8652812E-01
        2   -1    0    0  501    0  0.00000000000E+00  0.00000000000E+00  0.68376162005E+03  0.68376162005E+03  0.25500000920E-02 0. -1.
       -2   -1    0    0    0  501  0.00000000000E+00  0.00000000000E+00 -0.13256250889E+04  0.13256250889E+04  0.25500000920E-02 0.  1.
    10030    2    1    2    0    0  0.00000000000E+00  0.00000000000E+00 -0.64186346887E+03  0.20093867090E+04  0.19041129781E+04 0.  0.
        3    1    3    3  502    0 -0.17618056804E+03 -0.75668971862E+03 -0.90162054681E+03  0.11901842477E+04  0.10100000352E+00 0.  1.
       -3    1    3    3    0  502  0.17618056804E+03  0.75668971862E+03  0.25975707794E+03  0.81920246128E+03  0.10100000352E+00 0. -1.
</event>
<event>
 5   0  0.2789718E-05  0.1901021E+04  0.7818609E-02  0.8654348E-01
        2   -1    0    0  501    0  0.00000000000E+00  0.00000000000E+00  0.17903042205E+04  0.17903042205E+04  0.25500000920E-02 0.  1.
       -2   -1    0    0    0  501  0.00000000000E+00  0.00000000000E+00 -0.50464626902E+03  0.50464626903E+03  0.25500000920E-02 0. -1.
    10030    2    1    2    0    0  0.00000000000E+00  0.00000000000E+00  0.12856579514E+04  0.22949504895E+04  0.19010211417E+04 0.  0.
        5    1    3    3  502    0 -0.22986508155E+03 -0.39921997286E+02  0.17551866304E+04  0.17706309381E+04  0.46999998093E+01 0.  1.
       -5    1    3    3    0  502  0.22986508155E+03  0.39921997286E+02 -0.46952867895E+03  0.52431955136E+03  0.46999998093E+01 0. -1.
</event>
<event>
 5   0  0.1327254E-05  0.1899922E+04  0.7818609E-02  0.8654895E-01
       -1   -1    0    0    0  501  0.00000000000E+00  0.00000000000E+00  0.49048160764E+03  0.49048160766E+03  0.50400001928E-02 0.  1.
        1   -1    0    0  501    0  0.00000000000E+00  0.00000000000E+00 -0.18398764190E+04  0.18398764190E+04  0.50400001928E-02 0. -1.
    10030    2    1    2    0    0  0.00000000000E+00  0.00000000000E+00 -0.13493948114E+04  0.23303580267E+04  0.18999216235E+04 0.  0.
        5    1    3    3  502    0  0.67173940901E+03 -0.65697870981E+03 -0.84618975108E+03  0.12644817292E+04  0.46999998093E+01 0.  1.
       -5    1    3    3    0  502 -0.67173940901E+03  0.65697870981E+03 -0.50320506032E+03  0.10658762975E+04  0.46999998093E+01 0. -1.
</event>
<event>
 5   0  0.1327254E-05  0.1930678E+04  0.7818609E-02  0.8639735E-01
       -1   -1    0    0    0  501  0.00000000000E+00  0.00000000000E+00  0.13290788068E+04  0.13290788068E+04  0.50400001928E-02 0.  1.
        1   -1    0    0  501    0  0.00000000000E+00  0.00000000000E+00 -0.70114717317E+03  0.70114717319E+03  0.50400001928E-02 0. -1.
    10030    2    1    2    0    0  0.00000000000E+00  0.00000000000E+00  0.62793163360E+03  0.20302259800E+04  0.19306784800E+04 0.  0.
        5    1    3    3  502    0  0.81162991328E+03  0.27325757799E+03 -0.15447468557E+03  0.87022832552E+03  0.46999998093E+01 0.  1.
       -5    1    3    3    0  502 -0.81162991328E+03 -0.27325757799E+03  0.78240631917E+03  0.11599976545E+04  0.46999998093E+01 0. -1.
</event>
<event>
 5   0  0.2855141E-05  0.1902394E+04  0.7818609E-02  0.8653666E-01
        2   -1    0    0  501    0  0.00000000000E+00  0.00000000000E+00  0.19784901785E+04  0.19784901785E+04  0.25500000920E-02 0.  1.
       -2   -1    0    0    0  501  0.00000000000E+00  0.00000000000E+00 -0.45730603587E+03  0.45730603587E+03  0.25500000920E-02 0. -1.
    10030    2    1    2    0    0  0.00000000000E+00  0.00000000000E+00  0.15211841427E+04  0.24357962144E+04  0.19023937558E+04 0.  0.
        1    1    3    3  502    0  0.64023660843E+03 -0.63649472217E+03  0.37701676450E+03  0.97835069728E+03  0.50400001928E-02 0. -1.
       -1    1    3    3    0  502 -0.64023660843E+03  0.63649472217E+03  0.11441673782E+04  0.14574455171E+04  0.50400001928E-02 0.  1.
</event>
<event>
 5   0  0.2879462E-05  0.1899623E+04  0.7818609E-02  0.8655044E-01
        2   -1    0    0  501    0  0.00000000000E+00  0.00000000000E+00  0.14774911512E+04  0.14774911512E+04  0.25500000920E-02 0.  1.
       -2   -1    0    0    0  501  0.00000000000E+00  0.00000000000E+00 -0.61059020072E+03  0.61059020072E+03  0.25500000920E-02 0. -1.
    10030    2    1    2    0    0  0.00000000000E+00  0.00000000000E+00  0.86690095050E+03  0.20880813519E+04  0.18996227190E+04 0.  0.
        4    1    3    3  502    0 -0.63944361494E+03  0.69707415876E+03  0.33928040625E+03  0.10049444395E+04  0.12699999809E+01 0.  1.
       -4    1    3    3    0  502  0.63944361494E+03 -0.69707415876E+03  0.52762054426E+03  0.10831369125E+04  0.12699999809E+01 0. -1.
</event>
<event>
 5   0  0.1344119E-05  0.1904422E+04  0.7818609E-02  0.8652658E-01
       -1   -1    0    0    0  501  0.00000000000E+00  0.00000000000E+00  0.63543355665E+03  0.63543355667E+03  0.50400001928E-02 0. -1.
        1   -1    0    0  501    0  0.00000000000E+00  0.00000000000E+00 -0.14269085974E+04  0.14269085974E+04  0.50400001928E-02 0.  1.
    10030    2    1    2    0    0  0.00000000000E+00  0.00000000000E+00 -0.79147504073E+03  0.20623421541E+04  0.19044218073E+04 0.  0.
        2    1    3    3  502    0  0.16843660019E+03 -0.60886452710E+03  0.37581657547E+03  0.73506802341E+03  0.25500000920E-02 0. -1.
       -2    1    3    3    0  502 -0.16843660019E+03  0.60886452710E+03 -0.11672916162E+04  0.13272741306E+04  0.25500000920E-02 0.  1.
</event>
<event>
 5   0  0.1471485E-05  0.1897498E+04  0.7818609E-02  0.8656103E-01
       -1   -1    0    0    0  501  0.00000000000E+00  0.00000000000E+00  0.14333560198E+04  0.14333560198E+04  0.50400001928E-02 0.  1.
        1   -1    0    0  501    0  0.00000000000E+00  0.00000000000E+00 -0.62798388381E+03  0.62798388383E+03  0.50400001928E-02 0. -1.
    10030    2    1    2    0    0  0.00000000000E+00  0.00000000000E+00  0.80537213595E+03  0.20613399036E+04  0.18974978052E+04 0.  0.
        4    1    3    3  502    0 -0.60366990030E+02 -0.64672768841E+03 -0.34856153583E+03  0.73715509467E+03  0.12699999809E+01 0. -1.
       -4    1    3    3    0  502  0.60366990030E+02  0.64672768841E+03  0.11539336718E+04  0.13241848089E+04  0.12699999809E+01 0.  1.
</event>
<event>
 5   0  0.2789718E-05  0.1923790E+04  0.7818609E-02  0.8643104E-01
        2   -1    0    0  501    0  0.00000000000E+00  0.00000000000E+00  0.58555472518E+03  0.58555472518E+03  0.25500000920E-02 0.  1.
       -2   -1    0    0    0  501  0.00000000000E+00  0.00000000000E+00 -0.15801118194E+04  0.15801118194E+04  0.25500000920E-02 0. -1.
    10030    2    1    2    0    0  0.00000000000E+00  0.00000000000E+00 -0.99455709417E+03  0.21656665445E+04  0.19237899492E+04 0.  0.
        5    1    3    3  502    0  0.39143817351E+03  0.43108725259E+03 -0.13591489107E+04  0.14786371815E+04  0.46999998093E+01 0. -1.
       -5    1    3    3    0  502 -0.39143817351E+03 -0.43108725259E+03  0.36459181652E+03  0.68702936305E+03  0.46999998093E+01 0.  1.
</event>
<event>
 5   0  0.1413011E-05  0.1898529E+04  0.7818609E-02  0.8655589E-01
       -1   -1    0    0    0  501  0.00000000000E+00  0.00000000000E+00  0.60001098205E+03  0.60001098207E+03  0.50400001928E-02 0.  1.
        1   -1    0    0  501    0  0.00000000000E+00  0.00000000000E+00 -0.15018109397E+04  0.15018109397E+04  0.50400001928E-02 0. -1.
    10030    2    1    2    0    0  0.00000000000E+00  0.00000000000E+00 -0.90179995762E+03  0.21018219217E+04  0.18985289640E+04 0.  0.
        1    1    3    3  502    0  0.85131484668E+03  0.40166888238E+03 -0.31518363934E+03  0.99268100908E+03  0.50400001928E-02 0.  1.
       -1    1    3    3    0  502 -0.85131484668E+03 -0.40166888238E+03 -0.58661631828E+03  0.11091409127E+04  0.50400001928E-02 0. -1.
</event>
<event>
 5   0  0.2789718E-05  0.1897180E+04  0.7818609E-02  0.8656261E-01
        2   -1    0    0  501    0  0.00000000000E+00  0.00000000000E+00  0.13662103347E+04  0.13662103347E+04  0.25500000920E-02 0.  1.
       -2   -1    0    0    0  501  0.00000000000E+00  0.00000000000E+00 -0.65862730265E+03  0.65862730266E+03  0.25500000920E-02 0. -1.
    10030    2    1    2    0    0  0.00000000000E+00  0.00000000000E+00  0.70758303201E+03  0.20248376373E+04  0.18971804633E+04 0.  0.
        5    1    3    3  502    0 -0.58277419718E+03  0.58656513675E+03 -0.14237327084E+03  0.83903317145E+03  0.46999998093E+01 0. -1.
       -5    1    3    3    0  502  0.58277419718E+03 -0.58656513675E+03  0.84995630285E+03  0.11858044659E+04  0.46999998093E+01 0.  1.
</event>
<event>
 5   0  0.1344119E-05  0.1900040E+04  0.7818609E-02  0.8654837E-01
       -1   -1    0    0    0  501  0.00000000000E+00  0.00000000000E+00  0.31530742220E+03  0.31530742224E+03  0.50400001928E-02 0. -1.
        1   -1    0    0  501    0  0.00000000000E+00  0.00000000000E+00 -0.28624052175E+04  0.28624052175E+04  0.50400001928E-02 0.  1.
    10030    2    1    2    0    0  0.00000000000E+00  0.00000000000E+00 -0.25470977953E+04  0.31777126398E+04  0.19000395896E+04 0.  0.
        2    1    3    3  502    0  0.43662802143E+03  0.63393177351E+03 -0.22047633137E+04  0.23352718882E+04  0.25500000920E-02 0.  1.
       -2    1    3    3    0  502 -0.43662802143E+03 -0.63393177351E+03 -0.34233448167E+03  0.84244075157E+03  0.25500000920E-02 0. -1.
</event>
<event>
 5   0  0.2855141E-05  0.1900791E+04  0.7818609E-02  0.8654463E-01
        2   -1    0    0  501    0  0.00000000000E+00  0.00000000000E+00  0.16959443307E+04  0.16959443307E+04  0.25500000920E-02 0.  1.
       -2   -1    0    0    0  501  0.00000000000E+00  0.00000000000E+00 -0.53259506270E+03  0.53259506270E+03  0.25500000920E-02 0. -1.
    10030    2    1    2    0    0  0.00000000000E+00  0.00000000000E+00  0.11633492680E+04  0.22285393934E+04  0.19007909692E+04 0.  0.
        1    1    3    3  502    0 -0.52417183979E+03  0.36306683124E+03  0.14079473059E+04  0.15456032019E+04  0.50400001928E-02 0.  1.
       -1    1    3    3    0  502  0.52417183979E+03 -0.36306683124E+03 -0.24459803784E+03  0.68293619154E+03  0.50400001928E-02 0. -1.
</event>
<event>
 5   0  0.2813537E-05  0.1899370E+04  0.7818609E-02  0.8655170E-01
        2   -1    0    0  501    0  0.00000000000E+00  0.00000000000E+00  0.83035387091E+03  0.83035387092E+03  0.25500000920E-02 0. -1.
       -2   -1    0    0    0  501  0.00000000000E+00  0.00000000000E+00 -0.10861658919E+04  0.10861658919E+04  0.25500000920E-02 0.  1.
    10030    2    1    2    0    0  0.00000000000E+00  0.00000000000E+00 -0.25581202095E+03  0.19165197628E+04  0.18993704776E+04 0.  0.
        2    1    3    3  502    0 -0.42650318010E+03 -0.65546061328E+03 -0.67162981883E+03  0.10308347063E+04  0.25500000920E-02 0.  1.
       -2    1    3    3    0  502  0.42650318010E+03  0.65546061328E+03  0.41581779788E+03  0.88568505647E+03  0.25500000920E-02 0. -1.
</event>
<event>
 5   0  0.1010725E-05  0.1894108E+04  0.7818609E-02  0.8657795E-01
        3   -1    0    0  501    0  0.00000000000E+00  0.00000000000E+00  0.10676973842E+04  0.10676973889E+04  0.10100000352E+00 0.  1.
       -3   -1    0    0    0  501  0.00000000000E+00  0.00000000000E+00 -0.84004215234E+03  0.84004215841E+03  0.10100000352E+00 0. -1.
    10030    2    1    2    0    0  0.00000000000E+00  0.00000000000E+00  0.22765523182E+03  0.19077395473E+04  0.18941075143E+04 0.  0.
        5    1    3    3  502    0 -0.55892138656E+02  0.86918556225E+03 -0.26071057960E+03  0.90917521364E+03  0.46999998093E+01 0. -1.
       -5    1    3    3    0  502  0.55892138656E+02 -0.86918556225E+03  0.48836581141E+03  0.99856433370E+03  0.46999998093E+01 0.  1.
</event>
<event>
 5   0  0.1471485E-05  0.1899423E+04  0.7818609E-02  0.8655143E-01
        1   -1    0    0  501    0  0.00000000000E+00  0.00000000000E+00  0.72960223180E+03  0.72960223181E+03  0.50400001928E-02 0.  1.
       -1   -1    0    0    0  501  0.00000000000E+00  0.00000000000E+00 -0.12362247791E+04  0.12362247791E+04  0.50400001928E-02 0. -1.
    10030    2    1    2    0    0  0.00000000000E+00  0.00000000000E+00 -0.50662254726E+03  0.19658270109E+04  0.18994234471E+04 0.  0.
        4    1    3    3  502    0 -0.53495163320E+03 -0.67717772953E+03 -0.66366707047E+03  0.10886682325E+04  0.12699999809E+01 0.  1.
       -4    1    3    3    0  502  0.53495163320E+03  0.67717772953E+03  0.15704452322E+03  0.87715877833E+03  0.12699999809E+01 0. -1.
</event>
<event>
 5   0  0.2879462E-05  0.1899537E+04  0.7818609E-02  0.8655087E-01
       -2   -1    0    0    0  501  0.00000000000E+00  0.00000000000E+00  0.99369439055E+03  0.99369439056E+03  0.25500000920E-02 0.  1.
        2   -1    0    0  501    0  0.00000000000E+00  0.00000000000E+00 -0.90778467868E+03  0.90778467868E+03  0.25500000920E-02 0. -1.
    10030    2    1    2    0    0  0.00000000000E+00  0.00000000000E+00  0.85909711873E+02  0.19014790692E+04  0.18995373574E+04 0.  0.
        4    1    3    3  502    0  0.64832898656E+03  0.23331431965E+03  0.69729948207E+03  0.98030313025E+03  0.12699999809E+01 0.  1.
       -4    1    3    3    0  502 -0.64832898656E+03 -0.23331431965E+03 -0.61138977020E+03  0.92117593899E+03  0.12699999809E+01 0. -1.
</event>
<event>
 5   0  0.2789718E-05  0.1900291E+04  0.7818609E-02  0.8654711E-01
        2   -1    0    0  501    0  0.00000000000E+00  0.00000000000E+00  0.20590823089E+04  0.20590823089E+04  0.25500000920E-02 0. -1.
       -2   -1    0    0    0  501  0.00000000000E+00  0.00000000000E+00 -0.43843638841E+03  0.43843638841E+03  0.25500000920E-02 0.  1.
    10030    2    1    2    0    0  0.00000000000E+00  0.00000000000E+00  0.16206459205E+04  0.24975186973E+04  0.19002911471E+04 0.  0.
        5    1    3    3  502    0 -0.43457692286E+02  0.38311633702E+03  0.19516223020E+04  0.19893512506E+04  0.46999998093E+01 0. -1.
       -5    1    3    3    0  502  0.43457692286E+02 -0.38311633702E+03 -0.33097638153E+03  0.50816744666E+03  0.46999998093E+01 0.  1.
</event>
<event>
 5   0  0.1413011E-05  0.1902598E+04  0.7818609E-02  0.8653564E-01
        1   -1    0    0  501    0  0.00000000000E+00  0.00000000000E+00  0.14076766851E+04  0.14076766851E+04  0.50400001928E-02 0. -1.
       -1   -1    0    0    0  501  0.00000000000E+00  0.00000000000E+00 -0.64288167137E+03  0.64288167139E+03  0.50400001928E-02 0.  1.
    10030    2    1    2    0    0  0.00000000000E+00  0.00000000000E+00  0.76479501373E+03  0.20505583565E+04  0.19025977400E+04 0.  0.
        1    1    3    3  502    0  0.43702001493E+03  0.83361608095E+03  0.53122031179E+03  0.10807854938E+04  0.50400001928E-02 0. -1.
       -1    1    3    3    0  502 -0.43702001493E+03 -0.83361608095E+03  0.23357470194E+03  0.96977286272E+03  0.50400001928E-02 0.  1.
</event>
<event>
 5   0  0.2879462E-05  0.1896349E+04  0.7818609E-02  0.8656676E-01
        2   -1    0    0  501    0  0.00000000000E+00  0.00000000000E+00  0.80651988261E+03  0.80651988262E+03  0.25500000920E-02 0. -1.
       -2   -1    0    0    0  501  0.00000000000E+00  0.00000000000E+00 -0.11147087630E+04  0.11147087630E+04  0.25500000920E-02 0.  1.
    10030    2    1    2    0    0  0.00000000000E+00  0.00000000000E+00 -0.30818888043E+03  0.19212286457E+04  0.18963488927E+04 0.  0.
        4    1    3    3  502    0  0.52781757717E+03 -0.10643041456E+03 -0.94479168030E+03  0.10874519576E+04  0.12699999809E+01 0.  1.
       -4    1    3    3    0  502 -0.52781757717E+03  0.10643041456E+03  0.63660279988E+03  0.83377668810E+03  0.12699999809E+01 0. -1.
</event>
<event>
 5   0  0.1429067E-05  0.1899678E+04  0.7818609E-02  0.8655016E-01
       -1   -1    0    0    0  501  0.00000000000E+00  0.00000000000E+00  0.56245436680E+03  0.56245436682E+03  0.50400001928E-02 0.  1.
        1   -1    0    0  501    0  0.00000000000E+00  0.00000000000E+00 -0.16040314866E+04  0.16040314867E+04  0.50400001928E-02 0. -1.
    10030    2    1    2    0    0  0.00000000000E+00  0.00000000000E+00 -0.10415771198E+04  0.21664858535E+04  0.18996784088E+04 0.  0.
        3    1    3    3  502    0 -0.10881665913E+03 -0.68686056898E+03  0.21705268992E+03  0.72851244803E+03  0.10100000352E+00 0. -1.
       -3    1    3    3    0  502  0.10881665913E+03  0.68686056898E+03 -0.12586298098E+04  0.14379734054E+04  0.10100000352E+00 0.  1.
</event>
<event>
 5   0  0.1344119E-05  0.1903008E+04  0.7818609E-02  0.8653361E-01
        1   -1    0    0  501    0  0.00000000000E+00  0.00000000000E+00  0.61795548940E+03  0.61795548942E+03  0.50400001928E-02 0. -1.
       -1   -1    0    0    0  501  0.00000000000E+00  0.00000000000E+00 -0.14650887950E+04  0.14650887950E+04  0.50400001928E-02 0.  1.
    10030    2    1    2    0    0  0.00000000000E+00  0.00000000000E+00 -0.84713330559E+03  0.20830442844E+04  0.19030077912E+04 0.  0.
        2    1    3    3  502    0 -0.89207199196E+03  0.27614838501E+03 -0.22379187781E+03  0.96027765462E+03  0.25500000920E-02 0. -1.
       -2    1    3    3    0  502  0.89207199196E+03 -0.27614838501E+03 -0.62334142778E+03  0.11227666298E+04  0.25500000920E-02 0.  1.
</event>
<event>
 5   0  0.1344119E-05  0.1899322E+04  0.7818609E-02  0.8655194E-01
        1   -1    0    0  501    0  0.00000000000E+00  0.00000000000E+00  0.88133255538E+03  0.88133255540E+03  0.50400001928E-02 0.  1.
       -1   -1    0    0    0  501  0.00000000000E+00  0.00000000000E+00 -0.10232873128E+04  0.10232873129E+04  0.50400001928E-02 0. -1.
    10030    2    1    2    0    0  0.00000000000E+00  0.00000000000E+00 -0.14195475746E+03  0.19046198683E+04  0.18993224290E+04 0.  0.
        2    1    3    3  502    0 -0.17370920437E+03  0.90470828062E+03 -0.30223816467E+03  0.96954621803E+03  0.25500000920E-02 0. -1.
       -2    1    3    3    0  502  0.17370920437E+03 -0.90470828062E+03  0.16028340721E+03  0.93507365022E+03  0.25500000920E-02 0.  1.
</event>
<event>
 5   0  0.1413011E-05  0.1900783E+04  0.7818609E-02  0.8654467E-01
        1   -1    0    0  501    0  0.00000000000E+00  0.00000000000E+00  0.10749888409E+04  0.10749888409E+04  0.50400001928E-02 0.  1.
       -1   -1    0    0    0  501  0.00000000000E+00  0.00000000000E+00 -0.84023597909E+03  0.84023597911E+03  0.50400001928E-02 0. -1.
    10030    2    1    2    0    0  0.00000000000E+00  0.00000000000E+00  0.23475286178E+03  0.19152248200E+04  0.19007833135E+04 0.  0.
        1    1    3    3  502    0  0.92931227940E+03 -0.12386113262E+03  0.27438526448E+03  0.97685729061E+03  0.50400001928E-02 0.  1.
       -1    1    3    3    0  502 -0.92931227940E+03  0.12386113262E+03 -0.39632402706E+02  0.93836752938E+03  0.50400001928E-02 0. -1.
</event>
<event>
 5   0  0.1327254E-05  0.1900791E+04  0.7818609E-02  0.8654463E-01
        1   -1    0    0  501    0  0.00000000000E+00  0.00000000000E+00  0.89861179896E+03  0.89861179897E+03  0.50400001928E-02 0.  1.
       -1   -1    0    0    0  501  0.00000000000E+00  0.00000000000E+00 -0.10051629657E+04  0.10051629658E+04  0.50400001928E-02 0. -1.
    10030    2    1    2    0    0  0.00000000000E+00  0.00000000000E+00 -0.10655116679E+03  0.19037747647E+04  0.19007906786E+04 0.  0.
        5    1    3    3  502    0  0.49647856603E+03 -0.39696833887E+03  0.65434216357E+03  0.91228317184E+03  0.46999998093E+01 0.  1.
       -5    1    3    3    0  502 -0.49647856603E+03  0.39696833887E+03 -0.76089333037E+03  0.99149159289E+03  0.46999998093E+01 0. -1.
</event>
<event>
 5   0  0.1344119E-05  0.1901782E+04  0.7818609E-02  0.8653970E-01
       -1   -1    0    0    0  501  0.00000000000E+00  0.00000000000E+00  0.65948860267E+03  0.65948860268E+03  0.50400001928E-02 0. -1.
        1   -1    0    0  501    0  0.00000000000E+00  0.00000000000E+00 -0.13710532740E+04  0.13710532740E+04  0.50400001928E-02 0.  1.
    10030    2    1    2    0    0  0.00000000000E+00  0.00000000000E+00 -0.71156467129E+03  0.20305418767E+04  0.19017823302E+04 0.  0.
        2    1    3    3  502    0  0.67137248753E+03 -0.22191869495E+03 -0.10345982699E+04  0.12531490351E+04  0.25500000920E-02 0.  1.
       -2    1    3    3    0  502 -0.67137248753E+03  0.22191869495E+03  0.32303359862E+03  0.77739284150E+03  0.25500000920E-02 0. -1.
</event>
<event>
 5   0  0.2879462E-05  0.1895838E+04  0.7818609E-02  0.8656931E-01
       -2   -1    0    0    0  501  0.00000000000E+00  0.00000000000E+00  0.10672627467E+04  0.10672627467E+04  0.25500000920E-02 0. -1.
        2   -1    0    0  501    0  0.00000000000E+00  0.00000000000E+00 -0.84192097698E+03  0.84192097699E+03  0.25500000920E-02 0.  1.
    10030    2    1    2    0    0  0.00000000000E+00  0.00000000000E+00  0.22534176973E+03  0.19091837237E+04  0.18958384893E+04 0.  0.
        4    1    3    3  502    0  0.91584849576E+03 -0.99957848130E+02 -0.11201227905E+03  0.92807241212E+03  0.12699999809E+01 0. -1.
       -4    1    3    3    0  502 -0.91584849576E+03  0.99957848130E+02  0.33735404878E+03  0.98111131158E+03  0.12699999809E+01 0.  1.
</event>
<event>
 5   0  0.2879462E-05  0.1921108E+04  0.7818609E-02  0.8644420E-01
        2   -1    0    0  501    0  0.00000000000E+00  0.00000000000E+00  0.51365632954E+03  0.51365632955E+03  0.25500000920E-02 0. -1.
       -2   -1    0    0    0  501  0.00000000000E+00  0.00000000000E+00 -0.17962675631E+04  0.17962675631E+04  0.25500000920E-02 0.  1.
    10030    2    1    2    0    0  0.00000000000E+00  0.00000000000E+00 -0.12826112336E+04  0.23099238927E+04  0.19211082253E+04 0.  0.
        4    1    3    3  502    0  0.54832721072E+03  0.10438189433E+02  0.30690091381E+03  0.62845960063E+03  0.12699999809E+01 0. -1.
       -4    1    3    3    0  502 -0.54832721072E+03 -0.10438189433E+02 -0.15895121474E+04  0.16814642921E+04  0.12699999809E+01 0.  1.
</event>
<event>
 5   0  0.2855141E-05  0.1900354E+04  0.7818609E-02  0.8654680E-01
        2   -1    0    0  501    0  0.00000000000E+00  0.00000000000E+00  0.63024488286E+03  0.63024488286E+03  0.25500000920E-02 0.  1.
       -2   -1    0    0    0  501  0.00000000000E+00  0.00000000000E+00 -0.14325168255E+04  0.14325168255E+04  0.25500000920E-02 0. -1.
    10030    2    1    2    0    0  0.00000000000E+00  0.00000000000E+00 -0.80227194261E+03  0.20627617083E+04  0.19003540711E+04 0.  0.
        1    1    3    3  502    0  0.35714187620E+03 -0.96155748473E+01  0.55455972458E+03  0.65968118601E+03  0.50400001928E-02 0.  1.
       -1    1    3    3    0  502 -0.35714187620E+03  0.96155748473E+01 -0.13568316672E+04  0.14030805223E+04  0.50400001928E-02 0. -1.
</event>
<event>
 5   0  0.1471485E-05  0.1898386E+04  0.7818609E-02  0.8655660E-01
        1   -1    0    0  501    0  0.00000000000E+00  0.00000000000E+00  0.17512125201E+04  0.17512125201E+04  0.50400001928E-02 0.  1.
       -1   -1    0    0    0  501  0.00000000000E+00  0.00000000000E+00 -0.51448225145E+03  0.51448225148E+03  0.50400001928E-02 0. -1.
    10030    2    1    2    0    0  0.00000000000E+00  0.00000000000E+00  0.12367302686E+04  0.22656947716E+04  0.18983864308E+04 0.  0.
        4    1    3    3  502    0 -0.19208618634E+03 -0.36980554716E+03 -0.39946997452E+03  0.57726174231E+03  0.12699999809E+01 0. -1.
       -4    1    3    3    0  502  0.19208618634E+03  0.36980554716E+03  0.16362002431E+04  0.16884330292E+04  0.12699999809E+01 0.  1.
</event>
<event>
 5   0  0.1471485E-05  0.1899602E+04  0.7818609E-02  0.8655055E-01
       -1   -1    0    0    0  501  0.00000000000E+00  0.00000000000E+00  0.68025728049E+03  0.68025728051E+03  0.50400001928E-02 0.  1.
        1   -1    0    0  501    0  0.00000000000E+00  0.00000000000E+00 -0.13261478110E+04  0.13261478110E+04  0.50400001928E-02 0. -1.
    10030    2    1    2    0    0  0.00000000000E+00  0.00000000000E+00 -0.64589053053E+03  0.20064050915E+04  0.18996017514E+04 0.  0.
        4    1    3    3  502    0 -0.95451529658E+02 -0.43714318455E+03  0.56196310011E+03  0.71833787113E+03  0.12699999809E+01 0.  1.
       -4    1    3    3    0  502  0.95451529658E+02  0.43714318455E+03 -0.12078536306E+04  0.12880672204E+04  0.12699999809E+01 0. -1.
</event>
<event>
 5   0  0.2789718E-05  0.1897145E+04  0.7818609E-02  0.8656279E-01
       -2   -1    0    0    0  501  0.00000000000E+00  0.00000000000E+00  0.88845781812E+03  0.88845781812E+03  0.25500000920E-02 0.  1.
        2   -1    0    0  501    0  0.00000000000E+00  0.00000000000E+00 -0.10127545464E+04  0.10127545464E+04  0.25500000920E-02 0. -1.
    10030    2    1    2    0    0  0.00000000000E+00  0.00000000000E+00 -0.12429672829E+03  0.19012123645E+04  0.18971449018E+04 0.  0.
        5    1    3    3  502    0 -0.10281352024E+03 -0.63362973516E+03 -0.76200826370E+03  0.99636135271E+03  0.46999998093E+01 0. -1.
       -5    1    3    3    0  502  0.10281352024E+03  0.63362973516E+03  0.63771153541E+03  0.90485101183E+03  0.46999998093E+01 0.  1.
</event>
<event>
 5   0  0.1327254E-05  0.1899152E+04  0.7818609E-02  0.8655279E-01
       -1   -1    0    0    0  501  0.00000000000E+00  0.00000000000E+00  0.11372197956E+04  0.11372197956E+04  0.50400001928E-02 0.  1.
        1   -1    0    0  501    0  0.00000000000E+00  0.00000000000E+00 -0.79289365837E+03  0.79289365838E+03  0.50400001928E-02 0. -1.
    10030    2    1    2    0    0  0.00000000000E+00  0.00000000000E+00  0.34432613725E+03  0.19301134540E+04  0.18991517729E+04 0.  0.
        5    1    3    3  502    0  0.63023060058E+03 -0.47982710847E+02  0.89236217554E+03  0.10935379704E+04  0.46999998093E+01 0.  1.
       -5    1    3    3    0  502 -0.63023060058E+03  0.47982710847E+02 -0.54803603829E+03  0.83657548357E+03  0.46999998093E+01 0. -1.
</event>
<event>
 5   0  0.1010725E-05  0.1902949E+04  0.7818609E-02  0.8653390E-01
       -3   -1    0    0    0  501  0.00000000000E+00  0.00000000000E+00  0.71312294167E+03  0.71312294882E+03  0.10100000352E+00 0.  1.
        3   -1    0    0  501    0  0.00000000000E+00  0.00000000000E+00 -0.12694920693E+04  0.12694920733E+04  0.10100000352E+00 0. -1.
    10030    2    1    2    0    0  0.00000000000E+00  0.00000000000E+00 -0.55636912763E+03  0.19826150221E+04  0.19029492163E+04 0.  0.
        4    1    3    3  502    0 -0.55476081043E+03 -0.23270157174E+03 -0.10461967469E+04  0.12068300727E+04  0.12699999809E+01 0. -1.
       -4    1    3    3    0  502  0.55476081043E+03  0.23270157174E+03  0.48982761926E+03  0.77578494944E+03  0.12699999809E+01 0.  1.
</event>
<event>
 5   0  0.2813537E-05  0.1891884E+04  0.7818609E-02  0.8658907E-01
        2   -1    0    0  501    0  0.00000000000E+00  0.00000000000E+00  0.90852388395E+03  0.90852388395E+03  0.25500000920E-02 0. -1.
       -2   -1    0    0    0  501  0.00000000000E+00  0.00000000000E+00 -0.98490130518E+03  0.98490130518E+03  0.25500000920E-02 0.  1.
    10030    2    1    2    0    0  0.00000000000E+00  0.00000000000E+00 -0.76377421233E+02  0.18934251891E+04  0.18918840970E+04 0.  0.
        2    1    3    3  502    0 -0.87932356697E+03 -0.33233838371E+03 -0.14385701732E+03  0.95097506705E+03  0.25500000920E-02 0.  1.
       -2    1    3    3    0  502  0.87932356697E+03  0.33233838371E+03  0.67479596087E+02  0.94245012208E+03  0.25500000920E-02 0. -1.
</event>
<event>
 5   0  0.1429067E-05  0.1899267E+04  0.7818609E-02  0.8655221E-01
        1   -1    0    0  501    0  0.00000000000E+00  0.00000000000E+00  0.68707377921E+03  0.68707377923E+03  0.50400001928E-02 0.  1.
       -1   -1    0    0    0  501  0.00000000000E+00  0.00000000000E+00 -0.13125285639E+04  0.13125285639E+04  0.50400001928E-02 0. -1.
    10030    2    1    2    0    0  0.00000000000E+00  0.00000000000E+00 -0.62545478472E+03  0.19996023432E+04  0.18992671858E+04 0.  0.
        3    1    3    3  502    0  0.59377704140E+03  0.74082933973E+03 -0.29154839347E+03  0.99317660133E+03  0.10100000352E+00 0.  1.
       -3    1    3    3    0  502 -0.59377704140E+03 -0.74082933973E+03 -0.33390639125E+03  0.10064257418E+04  0.10100000352E+00 0. -1.
</event>
<event>
 5   0  0.2888776E-05  0.1911403E+04  0.7818609E-02  0.8649201E-01
       -2   -1    0    0    0  501  0.00000000000E+00  0.00000000000E+00  0.51945269925E+03  0.51945269926E+03  0.25500000920E-02 0. -1.
        2   -1    0    0  501    0  0.00000000000E+00  0.00000000000E+00 -0.17583232075E+04  0.17583232075E+04  0.25500000920E-02 0.  1.
    10030    2    1    2    0    0  0.00000000000E+00  0.00000000000E+00 -0.12388705083E+04  0.22777759068E+04  0.19114033968E+04 0.  0.
        3    1    3    3  502    0  0.52976835206E+03  0.74628659075E+03 -0.29141531359E+03  0.96047960810E+03  0.10100000352E+00 0. -1.
       -3    1    3    3    0  502 -0.52976835206E+03 -0.74628659075E+03 -0.94745519467E+03  0.13172962987E+04  0.10100000352E+00 0.  1.
</event>
<event>
 5   0  0.2879462E-05  0.1899468E+04  0.7818609E-02  0.8655121E-01
       -2   -1    0    0    0  501  0.00000000000E+00  0.00000000000E+00  0.85220729641E+03  0.85220729642E+03  0.25500000920E-02 0. -1.
        2   -1    0    0  501    0  0.00000000000E+00  0.00000000000E+00 -0.10584220136E+04  0.10584220136E+04  0.25500000920E-02 0.  1.
    10030    2    1    2    0    0  0.00000000000E+00  0.00000000000E+00 -0.20621471715E+03  0.19106293100E+04  0.18994683073E+04 0.  0.
        4    1    3    3  502    0  0.92279234914E+03 -0.10034964233E+03  0.99015077485E+02  0.93349952803E+03  0.12699999809E+01 0.  1.
       -4    1    3    3    0  502 -0.92279234914E+03  0.10034964233E+03 -0.30522979464E+03  0.97712978196E+03  0.12699999809E+01 0. -1.
</event>
<event>
 5   0  0.2879462E-05  0.1900105E+04  0.7818609E-02  0.8654804E-01
       -2   -1    0    0    0  501  0.00000000000E+00  0.00000000000E+00  0.46686223481E+03  0.46686223482E+03  0.25500000920E-02 0. -1.
        2   -1    0    0  501    0  0.00000000000E+00  0.00000000000E+00 -0.19333325236E+04  0.19333325237E+04  0.25500000920E-02 0.  1.
    10030    2    1    2    0    0  0.00000000000E+00  0.00000000000E+00 -0.14664702888E+04  0.24001947585E+04  0.19001051999E+04 0.  0.
        4    1    3    3  502    0 -0.84805193229E+02  0.93709866275E+03 -0.56731660344E+03  0.10987245178E+04  0.12699999809E+01 0. -1.
       -4    1    3    3    0  502  0.84805193229E+02 -0.93709866275E+03 -0.89915368540E+03  0.13014702407E+04  0.12699999809E+01 0.  1.
</event>
<event>
 5   0  0.1344119E-05  0.1905664E+04  0.7818609E-02  0.8652042E-01
       -1   -1    0    0    0  501  0.00000000000E+00  0.00000000000E+00  0.10550253919E+04  0.10550253919E+04  0.50400001928E-02 0.  1.
        1   -1    0    0  501    0  0.00000000000E+00  0.00000000000E+00 -0.86053749612E+03  0.86053749614E+03  0.50400001928E-02 0. -1.
    10030    2    1    2    0    0  0.00000000000E+00  0.00000000000E+00  0.19448789575E+03  0.19155628880E+04  0.19056640933E+04 0.  0.
        2    1    3    3  502    0 -0.31039139191E+02  0.43005886249E+02 -0.85905258622E+03  0.86068825966E+03  0.25500000920E-02 0. -1.
       -2    1    3    3    0  502  0.31039139191E+02 -0.43005886249E+02  0.10535404820E+04  0.10548746284E+04  0.25500000920E-02 0.  1.
</event>
<event>
 5   0  0.2855141E-05  0.1901839E+04  0.7818609E-02  0.8653941E-01
        2   -1    0    0  501    0  0.00000000000E+00  0.00000000000E+00  0.26248538404E+04  0.26248538404E+04  0.25500000920E-02 0.  1.
       -2   -1    0    0    0  501  0.00000000000E+00  0.00000000000E+00 -0.34449471678E+03  0.34449471679E+03  0.25500000920E-02 0. -1.
    10030    2    1    2    0    0  0.00000000000E+00  0.00000000000E+00  0.22803591237E+04  0.29693485572E+04  0.19018394047E+04 0.  0.
        1    1    3    3  502    0 -0.29102965680E+03 -0.87711102227E+03  0.79027241031E+03  0.12159574372E+04  0.50400001928E-02 0. -1.
       -1    1    3    3    0  502  0.29102965680E+03  0.87711102227E+03  0.14900867134E+04  0.17533911200E+04  0.50400001928E-02 0.  1.
</event>
<event>
 5   0  0.1413011E-05  0.1872949E+04  0.7818609E-02  0.8668440E-01
       -1   -1    0    0    0  501  0.00000000000E+00  0.00000000000E+00  0.75735889436E+03  0.75735889437E+03  0.50400001928E-02 0.  1.
        1   -1    0    0  501    0  0.00000000000E+00  0.00000000000E+00 -0.11579509045E+04  0.11579509045E+04  0.50400001928E-02 0. -1.
    10030    2    1    2    0    0  0.00000000000E+00  0.00000000000E+00 -0.40059201013E+03  0.19153097989E+04  0.18729489227E+04 0.  0.
        1    1    3    3  502    0  0.40066246613E+03  0.62871253750E+03 -0.77983632866E+03  0.10788672607E+04  0.50400001928E-02 0. -1.
       -1    1    3    3    0  502 -0.40066246613E+03 -0.62871253750E+03  0.37924431853E+03  0.83644253822E+03  0.50400001928E-02 0.  1.
</event>
<event>
 5   0  0.1327254E-05  0.1842140E+04  0.7818609E-02  0.8684205E-01
       -1   -1    0    0    0  501  0.00000000000E+00  0.00000000000E+00  0.40816660279E+03  0.40816660282E+03  0.50400001928E-02 0. -1.
        1   -1    0    0  501    0  0.00000000000E+00  0.00000000000E+00 -0.20784896359E+04  0.20784896359E+04  0.50400001928E-02 0.  1.
    10030    2    1    2    0    0  0.00000000000E+00  0.00000000000E+00 -0.16703230331E+04  0.24866562387E+04  0.18421401181E+04 0.  0.
        5    1    3    3  502    0 -0.84540127064E+03  0.14704680550E+03 -0.38336326798E+03  0.93984868817E+03  0.46999998093E+01 0. -1.
       -5    1    3    3    0  502  0.84540127064E+03 -0.14704680550E+03 -0.12869597651E+04  0.15468075506E+04  0.46999998093E+01 0.  1.
</event>
<event>
 5   0  0.2855141E-05  0.1845137E+04  0.7818609E-02  0.8682658E-01
        2   -1    0    0  501    0  0.00000000000E+00  0.00000000000E+00  0.23198169666E+04  0.23198169666E+04  0.25500000920E-02 0.  1.
       -2   -1    0    0    0  501  0.00000000000E+00  0.00000000000E+00 -0.36689639453E+03  0.36689639454E+03  0.25500000920E-02 0. -1.
    10030    2    1    2    0    0  0.00000000000E+00  0.00000000000E+00  0.19529205720E+04  0.26867133611E+04  0.18451368307E+04 0.  0.
        1    1    3    3  502    0 -0.90494648831E+02 -0.38918320379E+03  0.21872882817E+04  0.22234843995E+04  0.50400001928E-02 0.  1.
       -1    1    3    3    0  502  0.90494648831E+02  0.38918320379E+03 -0.23436770961E+03  0.46322896165E+03  0.50400001928E-02 0. -1.
</event>
<event>
 5   0  0.1327254E-05  0.1899058E+04  0.7818609E-02  0.8655325E-01
       -1   -1    0    0    0  501  0.00000000000E+00  0.00000000000E+00  0.76734836534E+03  0.76734836536E+03  0.50400001928E-02 0. -1.
        1   -1    0    0  501    0  0.00000000000E+00  0.00000000000E+00 -0.11749625137E+04  0.11749625137E+04  0.50400001928E-02 0.  1.
    10030    2    1    2    0    0  0.00000000000E+00  0.00000000000E+00 -0.40761414832E+03  0.19423108790E+04  0.18990582553E+04 0.  0.
        5    1    3    3  502    0  0.32402817063E+03 -0.74077966189E+03 -0.71297556706E+03  0.10780097458E+04  0.46999998093E+01 0.  1.
       -5    1    3    3    0  502 -0.32402817063E+03  0.74077966189E+03  0.30536141874E+03  0.86430113322E+03  0.46999998093E+01 0. -1.
</event>
<event>
 5   0  0.1327254E-05  0.1901690E+04  0.7818609E-02  0.8654016E-01
       -1   -1    0    0    0  501  0.00000000000E+00  0.00000000000E+00  0.77037578268E+03  0.77037578270E+03  0.50400001928E-02 0. -1.
        1   -1    0    0  501    0  0.00000000000E+00  0.00000000000E+00 -0.11735906407E+04  0.11735906407E+04  0.50400001928E-02 0.  1.
    10030    2    1    2    0    0  0.00000000000E+00  0.00000000000E+00 -0.40321485797E+03  0.19439664234E+04  0.19016895734E+04 0.  0.
        5    1    3    3  502    0 -0.27395539324E+03 -0.33049843956E+03 -0.10688806621E+04  0.11518718401E+04  0.46999998093E+01 0.  1.
       -5    1    3    3    0  502  0.27395539324E+03  0.33049843956E+03  0.66566580417E+03  0.79209458329E+03  0.46999998093E+01 0. -1.
</event>
<event>
 5   0  0.1471485E-05  0.1900169E+04  0.7818609E-02  0.8654772E-01
        1   -1    0    0  501    0  0.00000000000E+00  0.00000000000E+00  0.53449354201E+03  0.53449354203E+03  0.50400001928E-02 0. -1.
       -1   -1    0    0    0  501  0.00000000000E+00  0.00000000000E+00 -0.16888146430E+04  0.16888146430E+04  0.50400001928E-02 0.  1.
    10030    2    1    2    0    0  0.00000000000E+00  0.00000000000E+00 -0.11543211010E+04  0.22233081851E+04  0.19001689613E+04 0.  0.
        4    1    3    3  502    0 -0.53611140051E+03  0.52035201917E+03  0.10957213709E+03  0.75510881582E+03  0.12699999809E+01 0. -1.
       -4    1    3    3    0  502  0.53611140051E+03 -0.52035201917E+03 -0.12638932381E+04  0.14681993692E+04  0.12699999809E+01 0.  1.
</event>
<event>
 5   0  0.2789718E-05  0.1900474E+04  0.7818609E-02  0.8654620E-01
       -2   -1    0    0    0  501  0.00000000000E+00  0.00000000000E+00  0.60595129686E+03  0.60595129686E+03  0.25500000920E-02 0. -1.
        2   -1    0    0  501    0  0.00000000000E+00  0.00000000000E+00 -0.14901374483E+04  0.14901374483E+04  0.25500000920E-02 0.  1.
    10030    2    1    2    0    0  0.00000000000E+00  0.00000000000E+00 -0.88418615146E+03  0.20960887452E+04  0.19004743822E+04 0.  0.
        5    1    3    3  502    0  0.75918199418E+03  0.56263137187E+03 -0.55248118670E+03  0.10946090227E+04  0.46999998093E+01 0. -1.
       -5    1    3    3    0  502 -0.75918199418E+03 -0.56263137187E+03 -0.33170496476E+03  0.10014797225E+04  0.46999998093E+01 0.  1.
</event>
<event>
 5   0  0.2855141E-05  0.1899058E+04  0.7818609E-02  0.8655326E-01
       -2   -1    0    0    0  501  0.00000000000E+00  0.00000000000E+00  0.42595955403E+03  0.42595955404E+03  0.25500000920E-02 0. -1.
        2   -1    0    0  501    0  0.00000000000E+00  0.00000000000E+00 -0.21166447307E+04  0.21166447307E+04  0.25500000920E-02 0.  1.
    10030    2    1    2    0    0  0.00000000000E+00  0.00000000000E+00 -0.16906851767E+04  0.25426042847E+04  0.18990577090E+04 0.  0.
        1    1    3    3  502    0  0.42302735360E+03 -0.73681742026E+03 -0.27769515680E+03  0.89384934571E+03  0.50400001928E-02 0. -1.
       -1    1    3    3    0  502 -0.42302735360E+03  0.73681742026E+03 -0.14129900199E+04  0.16487549390E+04  0.50400001928E-02 0.  1.
</event>
<event>
 5   0  0.1344119E-05  0.1899607E+04  0.7818609E-02  0.8655052E-01
        1   -1    0    0  501    0  0.00000000000E+00  0.00000000000E+00  0.96260741038E+03  0.96260741039E+03  0.50400001928E-02 0. -1.
       -1   -1    0    0    0  501  0.00000000000E+00  0.00000000000E+00 -0.93716995908E+03  0.93716995910E+03  0.50400001928E-02 0.  1.
    10030    2    1    2    0    0  0.00000000000E+00  0.00000000000E+00  0.25437451292E+02  0.18997773695E+04  0.18996070619E+04 0.  0.
        2    1    3    3  502    0  0.20260514721E+03  0.92590777762E+03  0.74146452144E+02  0.95071118365E+03  0.25500000920E-02 0. -1.
       -2    1    3    3    0  502 -0.20260514721E+03 -0.92590777762E+03 -0.48709000852E+02  0.94906618584E+03  0.25500000920E-02 0.  1.
</event>
<event>
 5   0  0.1327254E-05  0.1899193E+04  0.7818609E-02  0.8655258E-01
       -1   -1    0    0    0  501  0.00000000000E+00  0.00000000000E+00  0.71690135133E+03  0.71690135135E+03  0.50400001928E-02 0. -1.
        1   -1    0    0  501    0  0.00000000000E+00  0.00000000000E+00 -0.12578215510E+04  0.12578215510E+04  0.50400001928E-02 0.  1.
    10030    2    1    2    0    0  0.00000000000E+00  0.00000000000E+00 -0.54092019966E+03  0.19747229024E+04  0.18991934811E+04 0.  0.
        5    1    3    3  502    0  0.87295992027E+03  0.32734865529E+03 -0.45789480256E+03  0.10387039543E+04  0.46999998093E+01 0.  1.
       -5    1    3    3    0  502 -0.87295992027E+03 -0.32734865529E+03 -0.83025397099E+02  0.93601894803E+03  0.46999998093E+01 0. -1.
</event>
<event>
 5   0  0.2888776E-05  0.1894710E+04  0.7818609E-02  0.8657494E-01
       -2   -1    0    0    0  501  0.00000000000E+00  0.00000000000E+00  0.13956164956E+04  0.13956164956E+04  0.25500000920E-02 0.  1.
        2   -1    0    0  501    0  0.00000000000E+00  0.00000000000E+00 -0.64307166962E+03  0.64307166962E+03  0.25500000920E-02 0. -1.
    10030    2    1    2    0    0  0.00000000000E+00  0.00000000000E+00  0.75254482593E+03  0.20386881652E+04  0.18947099303E+04 0.  0.
        3    1    3    3  502    0 -0.78556564182E+03 -0.49075992189E+03  0.16236216074E+03  0.94038298580E+03  0.10100000352E+00 0. -1.
       -3    1    3    3    0  502  0.78556564182E+03  0.49075992189E+03  0.59018266519E+03  0.10983051794E+04  0.10100000352E+00 0.  1.
</event>
<event>
 5   0  0.2855141E-05  0.1898883E+04  0.7818609E-02  0.8655412E-01
       -2   -1    0    0    0  501  0.00000000000E+00  0.00000000000E+00  0.13562904821E+04  0.13562904821E+04  0.25500000920E-02 0.  1.
        2   -1    0    0  501    0  0.00000000000E+00  0.00000000000E+00 -0.66463599058E+03  0.66463599058E+03  0.25500000920E-02 0. -1.
    10030    2    1    2    0    0  0.00000000000E+00  0.00000000000E+00  0.69165449156E+03  0.20209264727E+04  0.18988833225E+04 0.  0.
        1    1    3    3  502    0  0.31069673454E+03  0.16219681866E+03  0.12849215556E+04  0.13318647352E+04  0.50400001928E-02 0.  1.
       -1    1    3    3    0  502 -0.31069673454E+03 -0.16219681866E+03 -0.59326706402E+03  0.68906173752E+03  0.50400001928E-02 0. -1.
</event>
<event>
 5   0  0.1010725E-05  0.1899697E+04  0.7818609E-02  0.8655007E-01
       -3   -1    0    0    0  501  0.00000000000E+00  0.00000000000E+00  0.91351502302E+03  0.91351502860E+03  0.10100000352E+00 0.  1.
        3   -1    0    0  501    0  0.00000000000E+00  0.00000000000E+00 -0.98762723717E+03  0.98762724234E+03  0.10100000352E+00 0. -1.
    10030    2    1    2    0    0  0.00000000000E+00  0.00000000000E+00 -0.74112214156E+02  0.19011422709E+04  0.18996971638E+04 0.  0.
        3    1    3    3  502    0 -0.35340360966E+02  0.93571834303E+03  0.12242182213E+03  0.94435420861E+03  0.10100000352E+00 0.  1.
       -3    1    3    3    0  502  0.35340360966E+02 -0.93571834303E+03 -0.19653403629E+03  0.95678806233E+03  0.10100000352E+00 0. -1.
</event>
<event>
 5   0  0.1344119E-05  0.1893065E+04  0.7818609E-02  0.8658316E-01
        1   -1    0    0  501    0  0.00000000000E+00  0.00000000000E+00  0.14118908876E+04  0.14118908876E+04  0.50400001928E-02 0. -1.
       -1   -1    0    0    0  501  0.00000000000E+00  0.00000000000E+00 -0.63455622326E+03  0.63455622328E+03  0.50400001928E-02 0.  1.
    10030    2    1    2    0    0  0.00000000000E+00  0.00000000000E+00  0.77733466429E+03  0.20464471108E+04  0.18930653970E+04 0.  0.
        2    1    3    3  502    0 -0.64178084224E+03  0.31696183409E+03  0.10581834161E+04  0.12775365340E+04  0.25500000920E-02 0. -1.
       -2    1    3    3    0  502  0.64178084224E+03 -0.31696183409E+03 -0.28084875178E+03  0.76891057681E+03  0.25500000920E-02 0.  1.
</event>
<event>
 5   0  0.1327254E-05  0.1900280E+04  0.7818609E-02  0.8654717E-01
       -1   -1    0    0    0  501  0.00000000000E+00  0.00000000000E+00  0.13769408186E+04  0.13769408186E+04  0.50400001928E-02 0.  1.
        1   -1    0    0  501    0  0.00000000000E+00  0.00000000000E+00 -0.65563155532E+03  0.65563155534E+03  0.50400001928E-02 0. -1.
    10030    2    1    2    0    0  0.00000000000E+00  0.00000000000E+00  0.72130926328E+03  0.20325723739E+04  0.19002798220E+04 0.  0.
        5    1    3    3  502    0  0.56233730917E+03 -0.75627422656E+03  0.48976328110E+03  0.10621036280E+04  0.46999998093E+01 0.  1.
       -5    1    3    3    0  502 -0.56233730917E+03  0.75627422656E+03  0.23154598218E+03  0.97046874597E+03  0.46999998093E+01 0. -1.
</event>
<event>
 5   0  0.1344119E-05  0.1902687E+04  0.7818609E-02  0.8653520E-01
       -1   -1    0    0    0  501  0.00000000000E+00  0.00000000000E+00  0.77405369755E+03  0.77405369757E+03  0.50400001928E-02 0. -1.
        1   -1    0    0  501    0  0.00000000000E+00  0.00000000000E+00 -0.11692395080E+04  0.11692395081E+04  0.50400001928E-02 0.  1.
    10030    2    1    2    0    0  0.00000000000E+00  0.00000000000E+00 -0.39518581049E+03  0.19432932056E+04  0.19026866947E+04 0.  0.
        2    1    3    3  502    0  0.68567773746E+03  0.40831277226E+01 -0.87112381723E+03  0.11086150534E+04  0.25500000920E-02 0.  1.
       -2    1    3    3    0  502 -0.68567773746E+03 -0.40831277226E+01  0.47593800674E+03  0.83467815226E+03  0.25500000920E-02 0. -1.
</event>
<event>
 5   0  0.1327254E-05  0.1901436E+04  0.7818609E-02  0.8654142E-01
        1   -1    0    0  501    0  0.00000000000E+00  0.00000000000E+00  0.14381625837E+04  0.14381625837E+04  0.50400001928E-02 0. -1.
       -1   -1    0    0    0  501  0.00000000000E+00  0.00000000000E+00 -0.62848608034E+03  0.62848608036E+03  0.50400001928E-02 0.  1.
    10030    2    1    2    0    0  0.00000000000E+00  0.00000000000E+00  0.80967650338E+03  0.20666486641E+04  0.19014364730E+04 0.  0.
        5    1    3    3  502    0  0.85443750075E+03 -0.35334874190E+03  0.64524526754E+03  0.11275115615E+04  0.46999998093E+01 0.  1.
       -5    1    3    3    0  502 -0.85443750075E+03  0.35334874190E+03  0.16443123584E+03  0.93913710256E+03  0.46999998093E+01 0. -1.
</event>
<event>
 5   0  0.1344119E-05  0.1897356E+04  0.7818609E-02  0.8656174E-01
       -1   -1    0    0    0  501  0.00000000000E+00  0.00000000000E+00  0.79067764312E+03  0.79067764314E+03  0.50400001928E-02 0.  1.
        1   -1    0    0  501    0  0.00000000000E+00  0.00000000000E+00 -0.11382513278E+04  0.11382513278E+04  0.50400001928E-02 0. -1.
    10030    2    1    2    0    0  0.00000000000E+00  0.00000000000E+00 -0.34757368471E+03  0.19289289710E+04  0.18973559257E+04 0.  0.
        2    1    3    3  502    0 -0.51000620605E+02 -0.92829783904E+03 -0.36574606676E+03  0.99905361550E+03  0.25500000920E-02 0. -1.
       -2    1    3    3    0  502  0.51000620605E+02  0.92829783904E+03  0.18172382051E+02  0.92987535549E+03  0.25500000920E-02 0.  1.
</event>
<event>
 5   0  0.2888776E-05  0.1899903E+04  0.7818609E-02  0.8654905E-01
        2   -1    0    0  501    0  0.00000000000E+00  0.00000000000E+00  0.13169076038E+04  0.13169076038E+04  0.25500000920E-02 0. -1.
       -2   -1    0    0    0  501  0.00000000000E+00  0.00000000000E+00 -0.68524738318E+03  0.68524738318E+03  0.25500000920E-02 0.  1.
    10030    2    1    2    0    0  0.00000000000E+00  0.00000000000E+00  0.63166022058E+03  0.20021549869E+04  0.18999026179E+04 0.  0.
        3    1    3    3  502    0 -0.55412878015E+03 -0.17031684755E+03  0.11088888086E+04  0.12512797184E+04  0.10100000352E+00 0. -1.
       -3    1    3    3    0  502  0.55412878015E+03  0.17031684755E+03 -0.47722858801E+03  0.75087526858E+03  0.10100000352E+00 0.  1.
</event>
<event>
 5   0  0.2813537E-05  0.1902419E+04  0.7818609E-02  0.8653653E-01
        2   -1    0    0  501    0  0.00000000000E+00  0.00000000000E+00  0.12816046256E+04  0.12816046256E+04  0.25500000920E-02 0. -1.
       -2   -1    0    0    0  501  0.00000000000E+00  0.00000000000E+00 -0.70598938799E+03  0.70598938799E+03  0.25500000920E-02 0.  1.
    10030    2    1    2    0    0  0.00000000000E+00  0.00000000000E+00  0.57561523760E+03  0.19875940136E+04  0.19024187397E+04 0.  0.
        2    1    3    3  502    0 -0.37017669016E+03  0.12409279289E+03  0.11940349260E+04  0.12562440876E+04  0.25500000920E-02 0. -1.
       -2    1    3    3    0  502  0.37017669016E+03 -0.12409279289E+03 -0.61841968840E+03  0.73134992595E+03  0.25500000920E-02 0.  1.
</event>
<event>
 5   0  0.2855141E-05  0.1910008E+04  0.7818609E-02  0.8649891E-01
       -2   -1    0    0    0  501  0.00000000000E+00  0.00000000000E+00  0.49750022196E+03  0.49750022197E+03  0.25500000920E-02 0. -1.
        2   -1    0    0  501    0  0.00000000000E+00  0.00000000000E+00 -0.18332308119E+04  0.18332308119E+04  0.25500000920E-02 0.  1.
    10030    2    1    2    0    0  0.00000000000E+00  0.00000000000E+00 -0.13357305900E+04  0.23307310339E+04  0.19100081003E+04 0.  0.
        1    1    3    3  502    0  0.17214507093E+03  0.82684924478E+03 -0.12118376082E+04  0.14771133970E+04  0.50400001928E-02 0.  1.
       -1    1    3    3    0  502 -0.17214507093E+03 -0.82684924478E+03 -0.12389298179E+03  0.85361763688E+03  0.50400001928E-02 0. -1.
</event>
<event>
 5   0  0.1344119E-05  0.1895751E+04  0.7818609E-02  0.8656974E-01
       -1   -1    0    0    0  501  0.00000000000E+00  0.00000000000E+00  0.57170851064E+03  0.57170851066E+03  0.50400001928E-02 0. -1.
        1   -1    0    0  501    0  0.00000000000E+00  0.00000000000E+00 -0.15715494478E+04  0.15715494479E+04  0.50400001928E-02 0.  1.
    10030    2    1    2    0    0  0.00000000000E+00  0.00000000000E+00 -0.99984093721E+03  0.21432579585E+04  0.18957512434E+04 0.  0.
        2    1    3    3  502    0 -0.15606551798E+03 -0.23008488069E+03  0.52457571721E+03  0.59369620288E+03  0.25500000920E-02 0. -1.
       -2    1    3    3    0  502  0.15606551798E+03  0.23008488069E+03 -0.15244166544E+04  0.15495617556E+04  0.25500000920E-02 0.  1.
</event>
<event>
 5   0  0.2879462E-05  0.1891626E+04  0.7818609E-02  0.8659036E-01
        2   -1    0    0  501    0  0.00000000000E+00  0.00000000000E+00  0.17790855094E+04  0.17790855094E+04  0.25500000920E-02 0.  1.
       -2   -1    0    0    0  501  0.00000000000E+00  0.00000000000E+00 -0.50282120303E+03  0.50282120304E+03  0.25500000920E-02 0. -1.
    10030    2    1    2    0    0  0.00000000000E+00  0.00000000000E+00  0.12762643063E+04  0.22819067124E+04  0.18916256671E+04 0.  0.
        4    1    3    3  502    0 -0.47559883182E+03  0.75899866214E+03  0.10045977014E+04  0.13459165548E+04  0.12699999809E+01 0.  1.
       -4    1    3    3    0  502  0.47559883182E+03 -0.75899866214E+03  0.27166660490E+03  0.93599015757E+03  0.12699999809E+01 0. -1.
</event>
<event>
 5   0  0.1413011E-05  0.1896918E+04  0.7818609E-02  0.8656392E-01
       -1   -1    0    0    0  501  0.00000000000E+00  0.00000000000E+00  0.28884705855E+03  0.28884705860E+03  0.50400001928E-02 0.  1.
        1   -1    0    0  501    0  0.00000000000E+00  0.00000000000E+00 -0.31143631516E+04  0.31143631517E+04  0.50400001928E-02 0. -1.
    10030    2    1    2    0    0  0.00000000000E+00  0.00000000000E+00 -0.28255160931E+04  0.34032102103E+04  0.18969181698E+04 0.  0.
        1    1    3    3  502    0  0.43078034140E+03 -0.44041326305E+02 -0.29266660285E+04  0.29585275701E+04  0.50400001928E-02 0. -1.
       -1    1    3    3    0  502 -0.43078034140E+03  0.44041326305E+02  0.10114993539E+03  0.44468264011E+03  0.50400001928E-02 0.  1.
</event>
<event>
 5   0  0.1471485E-05  0.1905842E+04  0.7818609E-02  0.8651954E-01
       -1   -1    0    0    0  501  0.00000000000E+00  0.00000000000E+00  0.10545050043E+04  0.10545050043E+04  0.50400001928E-02 0.  1.
        1   -1    0    0  501    0  0.00000000000E+00  0.00000000000E+00 -0.86112289660E+03  0.86112289661E+03  0.50400001928E-02 0. -1.
    10030    2    1    2    0    0  0.00000000000E+00  0.00000000000E+00  0.19338210767E+03  0.19156279009E+04  0.19058419701E+04 0.  0.
        4    1    3    3  502    0  0.47783292137E+03  0.81139631024E+03 -0.50239280655E+02  0.94298137375E+03  0.12699999809E+01 0. -1.
       -4    1    3    3    0  502 -0.47783292137E+03 -0.81139631024E+03  0.24362138833E+03  0.97264652715E+03  0.12699999809E+01 0.  1.
</event>
<event>
 5   0  0.2888776E-05  0.1905961E+04  0.7818609E-02  0.8651895E-01
       -2   -1    0    0    0  501  0.00000000000E+00  0.00000000000E+00  0.96268594617E+03  0.96268594618E+03  0.25500000920E-02 0. -1.
        2   -1    0    0  501    0  0.00000000000E+00  0.00000000000E+00 -0.94337249569E+03  0.94337249570E+03  0.25500000920E-02 0.  1.
    10030    2    1    2    0    0  0.00000000000E+00  0.00000000000E+00  0.19313450481E+02  0.19060584419E+04  0.19059605910E+04 0.  0.
        3    1    3    3  502    0  0.23141651279E+03  0.70537168513E+03 -0.58792614027E+03  0.94697411432E+03  0.10100000352E+00 0.  1.
       -3    1    3    3    0  502 -0.23141651279E+03 -0.70537168513E+03  0.60723959075E+03  0.95908432755E+03  0.10100000352E+00 0. -1.
</event>
<event>
 5   0  0.1327254E-05  0.1899197E+04  0.7818609E-02  0.8655256E-01
       -1   -1    0    0    0  501  0.00000000000E+00  0.00000000000E+00  0.77688148424E+03  0.77688148425E+03  0.50400001928E-02 0.  1.
        1   -1    0    0  501    0  0.00000000000E+00  0.00000000000E+00 -0.11607142663E+04  0.11607142663E+04  0.50400001928E-02 0. -1.
    10030    2    1    2    0    0  0.00000000000E+00  0.00000000000E+00 -0.38383278206E+03  0.19375957506E+04  0.18991971167E+04 0.  0.
        5    1    3    3  502    0 -0.31116081384E+03 -0.14745698477E+03 -0.10947668146E+04  0.11476502441E+04  0.46999998093E+01 0. -1.
       -5    1    3    3    0  502  0.31116081384E+03  0.14745698477E+03  0.71093403259E+03  0.78994550642E+03  0.46999998093E+01 0.  1.
</event>
<event>
 5   0  0.2888776E-05  0.1859407E+04  0.7818609E-02  0.8675330E-01
        2   -1    0    0  501    0  0.00000000000E+00  0.00000000000E+00  0.18905733467E+04  0.18905733467E+04  0.25500000920E-02 0.  1.
       -2   -1    0    0    0  501  0.00000000000E+00  0.00000000000E+00 -0.45718855248E+03  0.45718855249E+03  0.25500000920E-02 0. -1.
    10030    2    1    2    0    0  0.00000000000E+00  0.00000000000E+00  0.14333847942E+04  0.23477618992E+04  0.18594068858E+04 0.  0.
        3    1    3    3  502    0 -0.92263864019E+03  0.77612914622E+02  0.82280419250E+03  0.12386656427E+04  0.10100000352E+00 0.  1.
       -3    1    3    3    0  502  0.92263864019E+03 -0.77612914622E+02  0.61058060175E+03  0.11090962566E+04  0.10100000352E+00 0. -1.
</event>
<event>
 5   0  0.1471485E-05  0.1896782E+04  0.7818609E-02  0.8656460E-01
       -1   -1    0    0    0  501  0.00000000000E+00  0.00000000000E+00  0.99207835866E+03  0.99207835867E+03  0.50400001928E-02 0. -1.
        1   -1    0    0  501    0  0.00000000000E+00  0.00000000000E+00 -0.90662783458E+03  0.90662783460E+03  0.50400001928E-02 0.  1.
    10030    2    1    2    0    0  0.00000000000E+00  0.00000000000E+00  0.85450524075E+02  0.18987061933E+04  0.18967823851E+04 0.  0.
        4    1    3    3  502    0  0.42104921367E+03  0.14897172288E+03  0.88021546007E+03  0.98704401300E+03  0.12699999809E+01 0. -1.
       -4    1    3    3    0  502 -0.42104921367E+03 -0.14897172288E+03 -0.79476493599E+03  0.91166218027E+03  0.12699999809E+01 0.  1.
</event>
<event>
 5   0  0.1327254E-05  0.1899751E+04  0.7818609E-02  0.8654980E-01
       -1   -1    0    0    0  501  0.00000000000E+00  0.00000000000E+00  0.45787008864E+03  0.45787008867E+03  0.50400001928E-02 0.  1.
        1   -1    0    0  501    0  0.00000000000E+00  0.00000000000E+00 -0.19705659278E+04  0.19705659278E+04  0.50400001928E-02 0. -1.
    10030    2    1    2    0    0  0.00000000000E+00  0.00000000000E+00 -0.15126958392E+04  0.24284360165E+04  0.18997507164E+04 0.  0.
        5    1    3    3  502    0  0.84948633453E+03 -0.82326339509E+01 -0.12995036195E+04  0.15525548480E+04  0.46999998093E+01 0.  1.
       -5    1    3    3    0  502 -0.84948633453E+03  0.82326339509E+01 -0.21319221964E+03  0.87588116850E+03  0.46999998093E+01 0. -1.
</event>
<event>
 5   0  0.2789718E-05  0.1902599E+04  0.7818609E-02  0.8653564E-01
        2   -1    0    0  501    0  0.00000000000E+00  0.00000000000E+00  0.10941563832E+04  0.10941563832E+04  0.25500000920E-02 0. -1.
       -2   -1    0    0    0  501  0.00000000000E+00  0.00000000000E+00 -0.82709491682E+03  0.82709491683E+03  0.25500000920E-02 0.  1.
    10030    2    1    2    0    0  0.00000000000E+00  0.00000000000E+00  0.26706146641E+03  0.19212513001E+04  0.19025994668E+04 0.  0.
        5    1    3    3  502    0  0.17878612175E+03 -0.37524334475E+03 -0.73053117310E+03  0.84051765595E+03  0.46999998093E+01 0.  1.
       -5    1    3    3    0  502 -0.17878612175E+03  0.37524334475E+03  0.99759263951E+03  0.10807336441E+04  0.46999998093E+01 0. -1.
</event>
<event>
 5   0  0.1413011E-05  0.1900363E+04  0.7818609E-02  0.8654676E-01
       -1   -1    0    0    0  501  0.00000000000E+00  0.00000000000E+00  0.53247410597E+03  0.53247410599E+03  0.50400001928E-02 0.  1.
        1   -1    0    0  501    0  0.00000000000E+00  0.00000000000E+00 -0.16955655616E+04  0.16955655616E+04  0.50400001928E-02 0. -1.
    10030    2    1    2    0    0  0.00000000000E+00  0.00000000000E+00 -0.11630914556E+04  0.22280396676E+04  0.19003628670E+04 0.  0.
        1    1    3    3  502    0 -0.77711855495E+03  0.89754156534E+02 -0.12138703646E+04  0.14441088322E+04  0.50400001928E-02 0. -1.
       -1    1    3    3    0  502  0.77711855495E+03 -0.89754156534E+02  0.50778909012E+02  0.78393083539E+03  0.50400001928E-02 0.  1.
</event>
<event>
 5   0  0.2789718E-05  0.1895424E+04  0.7818609E-02  0.8657137E-01
        2   -1    0    0  501    0  0.00000000000E+00  0.00000000000E+00  0.16100885781E+04  0.16100885781E+04  0.25500000920E-02 0. -1.
       -2   -1    0    0    0  501  0.00000000000E+00  0.00000000000E+00 -0.55783147224E+03  0.55783147224E+03  0.25500000920E-02 0.  1.
    10030    2    1    2    0    0  0.00000000000E+00  0.00000000000E+00  0.10522571058E+04  0.21679200503E+04  0.18954240496E+04 0.  0.
        5    1    3    3  502    0  0.28345203146E+03 -0.81757131423E+03  0.96817283804E+03  0.12985178637E+04  0.46999998093E+01 0. -1.
       -5    1    3    3    0  502 -0.28345203146E+03  0.81757131423E+03  0.84084267774E+02  0.86940218661E+03  0.46999998093E+01 0.  1.
</event>
<event>
 5   0  0.1344119E-05  0.1890206E+04  0.7818609E-02  0.8659747E-01
        1   -1    0    0  501    0  0.00000000000E+00  0.00000000000E+00  0.15182860043E+04  0.15182860043E+04  0.50400001928E-02 0. -1.
       -1   -1    0    0    0  501  0.00000000000E+00  0.00000000000E+00 -0.58830778805E+03  0.58830778808E+03  0.50400001928E-02 0.  1.
    10030    2    1    2    0    0  0.00000000000E+00  0.00000000000E+00  0.92997821627E+03  0.21065937924E+04  0.18902057887E+04 0.  0.
        2    1    3    3  502    0  0.40588707933E+03  0.57444542960E+03 -0.23853522233E+03  0.74271860422E+03  0.25500000920E-02 0.  1.
       -2    1    3    3    0  502 -0.40588707933E+03 -0.57444542960E+03  0.11685134386E+04  0.13638751882E+04  0.25500000920E-02 0. -1.
</event>
<event>
 5   0  0.1429067E-05  0.1896679E+04  0.7818609E-02  0.8656511E-01
       -1   -1    0    0    0  501  0.00000000000E+00  0.00000000000E+00  0.73288267637E+03  0.73288267639E+03  0.50400001928E-02 0. -1.
        1   -1    0    0  501    0  0.00000000000E+00  0.00000000000E+00 -0.12271380443E+04  0.12271380444E+04  0.50400001928E-02 0.  1.
    10030    2    1    2    0    0  0.00000000000E+00  0.00000000000E+00 -0.49425536797E+03  0.19600207207E+04  0.18966794292E+04 0.  0.
        3    1    3    3  502    0 -0.47535353513E+03 -0.81504014825E+03 -0.34568991215E+03  0.10048646437E+04  0.10100000352E+00 0. -1.
       -3    1    3    3    0  502  0.47535353513E+03  0.81504014825E+03 -0.14856545581E+03  0.95515607703E+03  0.10100000352E+00 0.  1.
</event>
<event>
 5   0  0.1327254E-05  0.1898196E+04  0.7818609E-02  0.8655755E-01
       -1   -1    0    0    0  501  0.00000000000E+00  0.00000000000E+00  0.41789195378E+03  0.41789195381E+03  0.50400001928E-02 0. -1.
        1   -1    0    0  501    0  0.00000000000E+00  0.00000000000E+00 -0.21555493432E+04  0.21555493433E+04  0.50400001928E-02 0.  1.
    10030    2    1    2    0    0  0.00000000000E+00  0.00000000000E+00 -0.17376573895E+04  0.25734412971E+04  0.18981956976E+04 0.  0.
        5    1    3    3  502    0 -0.55839488107E+03 -0.54176801101E+03 -0.16057366280E+04  0.17843008797E+04  0.46999998093E+01 0.  1.
       -5    1    3    3    0  502  0.55839488107E+03  0.54176801101E+03 -0.13192076148E+03  0.78914041733E+03  0.46999998093E+01 0. -1.
</event>
<event>
 5   0  0.2813537E-05  0.1898753E+04  0.7818609E-02  0.8655477E-01
       -2   -1    0    0    0  501  0.00000000000E+00  0.00000000000E+00  0.49984980293E+03  0.49984980294E+03  0.25500000920E-02 0.  1.
        2   -1    0    0  501    0  0.00000000000E+00  0.00000000000E+00 -0.18031736990E+04  0.18031736990E+04  0.25500000920E-02 0. -1.
    10030    2    1    2    0    0  0.00000000000E+00  0.00000000000E+00 -0.13033238960E+04  0.23030235019E+04  0.18987532942E+04 0.  0.
        2    1    3    3  502    0  0.65116489176E+02  0.40481965596E+03  0.38691849811E+03  0.56375973181E+03  0.25500000920E-02 0.  1.
       -2    1    3    3    0  502 -0.65116489176E+02 -0.40481965596E+03 -0.16902423941E+04  0.17392637701E+04  0.25500000920E-02 0. -1.
</event>
<event>
 5   0  0.2855141E-05  0.1898444E+04  0.7818609E-02  0.8655631E-01
        2   -1    0    0  501    0  0.00000000000E+00  0.00000000000E+00  0.90568955544E+03  0.90568955544E+03  0.25500000920E-02 0.  1.
       -2   -1    0    0    0  501  0.00000000000E+00  0.00000000000E+00 -0.99484731959E+03  0.99484731959E+03  0.25500000920E-02 0. -1.
    10030    2    1    2    0    0  0.00000000000E+00  0.00000000000E+00 -0.89157764150E+02  0.19005368750E+04  0.18984444439E+04 0.  0.
        1    1    3    3  502    0  0.35220958534E+03  0.39059814623E+03 -0.83564240392E+03  0.98737871716E+03  0.50400001928E-02 0. -1.
       -1    1    3    3    0  502 -0.35220958534E+03 -0.39059814623E+03  0.74648463977E+03  0.91315815787E+03  0.50400001928E-02 0.  1.
</event>
<event>
 5   0  0.1413011E-05  0.1906361E+04  0.7818609E-02  0.8651697E-01
        1   -1    0    0  501    0  0.00000000000E+00  0.00000000000E+00  0.78773074718E+03  0.78773074720E+03  0.50400001928E-02 0.  1.
       -1   -1    0    0    0  501  0.00000000000E+00  0.00000000000E+00 -0.11533801965E+04  0.11533801965E+04  0.50400001928E-02 0. -1.
    10030    2    1    2    0    0  0.00000000000E+00  0.00000000000E+00 -0.36564944934E+03  0.19411109437E+04  0.19063609774E+04 0.  0.
        1    1    3    3  502    0  0.88170733280E+02  0.45512753025E+03 -0.10308555229E+04  0.11303000735E+04  0.50400001928E-02 0. -1.
       -1    1    3    3    0  502 -0.88170733280E+02 -0.45512753025E+03  0.66520607355E+03  0.81081087025E+03  0.50400001928E-02 0.  1.
</event>
<event>
 5   0  0.1429067E-05  0.1889481E+04  0.7818609E-02  0.8660110E-01
        1   -1    0    0  501    0  0.00000000000E+00  0.00000000000E+00  0.10104191716E+04  0.10104191716E+04  0.50400001928E-02 0.  1.
       -1   -1    0    0    0  501  0.00000000000E+00  0.00000000000E+00 -0.88333082246E+03  0.88333082247E+03  0.50400001928E-02 0. -1.
    10030    2    1    2    0    0  0.00000000000E+00  0.00000000000E+00  0.12708834916E+03  0.18937499941E+04  0.18894807730E+04 0.  0.
        3    1    3    3  502    0  0.75732027783E+03 -0.59407650471E+02 -0.49939305087E+03  0.90909664041E+03  0.10100000352E+00 0. -1.
       -3    1    3    3    0  502 -0.75732027783E+03  0.59407650471E+02  0.62648140002E+03  0.98465335369E+03  0.10100000352E+00 0.  1.
</event>
<event>
 5   0  0.1429067E-05  0.1897393E+04  0.7818609E-02  0.8656155E-01
        1   -1    0    0  501    0  0.00000000000E+00  0.00000000000E+00  0.13895738365E+04  0.13895738365E+04  0.50400001928E-02 0. -1.
       -1   -1    0    0    0  501  0.00000000000E+00  0.00000000000E+00 -0.64769890769E+03  0.64769890771E+03  0.50400001928E-02 0.  1.
    10030    2    1    2    0    0  0.00000000000E+00  0.00000000000E+00  0.74187492882E+03  0.20372727442E+04  0.18973934290E+04 0.  0.
        3    1    3    3  502    0 -0.22333481798E+03  0.44586960950E+03  0.12374963706E+04  0.13341946736E+04  0.10100000352E+00 0. -1.
       -3    1    3    3    0  502  0.22333481798E+03 -0.44586960950E+03 -0.49562144181E+03  0.70307807061E+03  0.10100000352E+00 0.  1.
</event>
<event>
 5   0  0.1471485E-05  0.1904809E+04  0.7818609E-02  0.8652466E-01
        1   -1    0    0  501    0  0.00000000000E+00  0.00000000000E+00  0.13068382452E+04  0.13068382452E+04  0.50400001928E-02 0. -1.
       -1   -1    0    0    0  501  0.00000000000E+00  0.00000000000E+00 -0.69409867084E+03  0.69409867086E+03  0.50400001928E-02 0.  1.
    10030    2    1    2    0    0  0.00000000000E+00  0.00000000000E+00  0.61273957435E+03  0.20009369161E+04  0.19048093753E+04 0.  0.
        4    1    3    3  502    0  0.19044623403E+03 -0.18905080778E+03  0.12663041171E+04  0.12944256278E+04  0.12699999809E+01 0. -1.
       -4    1    3    3    0  502 -0.19044623403E+03  0.18905080778E+03 -0.65356454277E+03  0.70651128826E+03  0.12699999809E+01 0.  1.
</event>
<event>
 5   0  0.2855141E-05  0.1899664E+04  0.7818609E-02  0.8655024E-01
       -2   -1    0    0    0  501  0.00000000000E+00  0.00000000000E+00  0.84379979016E+03  0.84379979016E+03  0.25500000920E-02 0.  1.
        2   -1    0    0  501    0  0.00000000000E+00  0.00000000000E+00 -0.10691879776E+04  0.10691879776E+04  0.25500000920E-02 0. -1.
    10030    2    1    2    0    0  0.00000000000E+00  0.00000000000E+00 -0.22538818740E+03  0.19129877677E+04  0.18996637504E+04 0.  0.
        1    1    3    3  502    0  0.91081456160E+03 -0.26564545813E+03 -0.15806469082E+03  0.96183944687E+03  0.50400001928E-02 0. -1.
       -1    1    3    3    0  502 -0.91081456160E+03  0.26564545813E+03 -0.67323496580E+02  0.95114832085E+03  0.50400001928E-02 0.  1.
</event>
<event>
 5   0  0.2888776E-05  0.1900125E+04  0.7818609E-02  0.8654794E-01
       -2   -1    0    0    0  501  0.00000000000E+00  0.00000000000E+00  0.64048666052E+03  0.64048666053E+03  0.25500000920E-02 0. -1.
        2   -1    0    0  501    0  0.00000000000E+00  0.00000000000E+00 -0.14092703740E+04  0.14092703740E+04  0.25500000920E-02 0.  1.
    10030    2    1    2    0    0  0.00000000000E+00  0.00000000000E+00 -0.76878371343E+03  0.20497570345E+04  0.19001251281E+04 0.  0.
        3    1    3    3  502    0  0.44280387280E+03 -0.48001475817E+03  0.35996757620E+03  0.74569840012E+03  0.10100000352E+00 0. -1.
       -3    1    3    3    0  502 -0.44280387280E+03  0.48001475817E+03 -0.11287512896E+04  0.13040586344E+04  0.10100000352E+00 0.  1.
</event>
<event>
 5   0  0.1429067E-05  0.1898968E+04  0.7818609E-02  0.8655370E-01
       -1   -1    0    0    0  501  0.00000000000E+00  0.00000000000E+00  0.52923207214E+03  0.52923207216E+03  0.50400001928E-02 0.  1.
        1   -1    0    0  501    0  0.00000000000E+00  0.00000000000E+00 -0.17034493186E+04  0.17034493186E+04  0.50400001928E-02 0. -1.
    10030    2    1    2    0    0  0.00000000000E+00  0.00000000000E+00 -0.11742172464E+04  0.22326813907E+04  0.18989681542E+04 0.  0.
        3    1    3    3  502    0 -0.31324674043E+03 -0.65983478774E+03 -0.13003582561E+04  0.14914546832E+04  0.10100000352E+00 0. -1.
       -3    1    3    3    0  502  0.31324674043E+03  0.65983478774E+03  0.12614100968E+03  0.74122670757E+03  0.10100000352E+00 0.  1.
</event>
<event>
 5   0  0.2879462E-05  0.1901970E+04  0.7818609E-02  0.8653876E-01
       -2   -1    0    0    0  501  0.00000000000E+00  0.00000000000E+00  0.15780547641E+04  0.15780547641E+04  0.25500000920E-02 0.  1.
        2   -1    0    0  501    0  0.00000000000E+00  0.00000000000E+00 -0.57309310948E+03  0.57309310949E+03  0.25500000920E-02 0. -1.
    10030    2    1    2    0    0  0.00000000000E+00  0.00000000000E+00  0.10049616546E+04  0.21511478736E+04  0.19019698333E+04 0.  0.
        4    1    3    3  502    0  0.11943764259E+03 -0.20457340476E+03  0.15441501476E+04  0.15622153883E+04  0.12699999809E+01 0.  1.
       -4    1    3    3    0  502 -0.11943764259E+03  0.20457340476E+03 -0.53918849293E+03  0.58893248528E+03  0.12699999809E+01 0. -1.
</event>
<event>
 5   0  0.1429067E-05  0.1901159E+04  0.7818609E-02  0.8654280E-01
       -1   -1    0    0    0  501  0.00000000000E+00  0.00000000000E+00  0.80815718132E+03  0.80815718133E+03  0.50400001928E-02 0. -1.
        1   -1    0    0  501    0  0.00000000000E+00  0.00000000000E+00 -0.11181008764E+04  0.11181008764E+04  0.50400001928E-02 0.  1.
    10030    2    1    2    0    0  0.00000000000E+00  0.00000000000E+00 -0.30994369511E+03  0.19262580578E+04  0.19011588600E+04 0.  0.
        3    1    3    3  502    0  0.51844725839E+03 -0.73998086894E+03  0.14429517185E+03  0.91497560238E+03  0.10100000352E+00 0.  1.
       -3    1    3    3    0  502 -0.51844725839E+03  0.73998086894E+03 -0.45423886696E+03  0.10112824554E+04  0.10100000352E+00 0. -1.
</event>
<event>
 5   0  0.1429067E-05  0.1899183E+04  0.7818609E-02  0.8655263E-01
       -1   -1    0    0    0  501  0.00000000000E+00  0.00000000000E+00  0.38946377455E+03  0.38946377458E+03  0.50400001928E-02 0. -1.
        1   -1    0    0  501    0  0.00000000000E+00  0.00000000000E+00 -0.23152950590E+04  0.23152950590E+04  0.50400001928E-02 0.  1.
    10030    2    1    2    0    0  0.00000000000E+00  0.00000000000E+00 -0.19258312844E+04  0.27047588336E+04  0.18991825114E+04 0.  0.
        3    1    3    3  502    0  0.29081718203E+03 -0.43604946385E+03 -0.20906297174E+04  0.21553297645E+04  0.10100000352E+00 0.  1.
       -3    1    3    3    0  502 -0.29081718203E+03  0.43604946385E+03  0.16479843292E+03  0.54942906911E+03  0.10100000352E+00 0. -1.
</event>
<event>
 5   0  0.2789718E-05  0.1899658E+04  0.7818609E-02  0.8655027E-01
        2   -1    0    0  501    0  0.00000000000E+00  0.00000000000E+00  0.91287900183E+03  0.91287900183E+03  0.25500000920E-02 0.  1.
       -2   -1    0    0    0  501  0.00000000000E+00  0.00000000000E+00 -0.98827483926E+03  0.98827483926E+03  0.25500000920E-02 0. -1.
    10030    2    1    2    0    0  0.00000000000E+00  0.00000000000E+00 -0.75395837433E+02  0.19011538411E+04  0.18996582312E+04 0.  0.
        5    1    3    3  502    0  0.53426658927E+03  0.40330909784E+03  0.63666806616E+03  0.92383295745E+03  0.46999998093E+01 0.  1.
       -5    1    3    3    0  502 -0.53426658927E+03 -0.40330909784E+03 -0.71206390359E+03  0.97732088364E+03  0.46999998093E+01 0. -1.
</event>
<event>
 5   0  0.1471485E-05  0.1855146E+04  0.7818609E-02  0.8677511E-01
       -1   -1    0    0    0  501  0.00000000000E+00  0.00000000000E+00  0.60340973705E+03  0.60340973707E+03  0.50400001928E-02 0. -1.
        1   -1    0    0  501    0  0.00000000000E+00  0.00000000000E+00 -0.14258822647E+04  0.14258822647E+04  0.50400001928E-02 0.  1.
    10030    2    1    2    0    0  0.00000000000E+00  0.00000000000E+00 -0.82247252762E+03  0.20292920017E+04  0.18551455387E+04 0.  0.
        4    1    3    3  502    0 -0.36862026352E+03 -0.82539643376E+03 -0.18380170718E+03  0.92246672135E+03  0.12699999809E+01 0.  1.
       -4    1    3    3    0  502  0.36862026352E+03  0.82539643376E+03 -0.63867082044E+03  0.11068252804E+04  0.12699999809E+01 0. -1.
</event>
<event>
 5   0  0.1429067E-05  0.1938023E+04  0.7818609E-02  0.8636158E-01
        1   -1    0    0  501    0  0.00000000000E+00  0.00000000000E+00  0.12895698414E+04  0.12895698414E+04  0.50400001928E-02 0. -1.
       -1   -1    0    0    0  501  0.00000000000E+00  0.00000000000E+00 -0.72813695363E+03  0.72813695365E+03  0.50400001928E-02 0.  1.
    10030    2    1    2    0    0  0.00000000000E+00  0.00000000000E+00  0.56143288773E+03  0.20177067950E+04  0.19380231741E+04 0.  0.
        3    1    3    3  502    0  0.22260047099E+03 -0.94154281233E+03  0.22436515133E+03  0.99317348357E+03  0.10100000352E+00 0.  1.
       -3    1    3    3    0  502 -0.22260047099E+03  0.94154281233E+03  0.33706773640E+03  0.10245333114E+04  0.10100000352E+00 0. -1.
</event>
<event>
 5   0  0.2813537E-05  0.1898476E+04  0.7818609E-02  0.8655616E-01
       -2   -1    0    0    0  501  0.00000000000E+00  0.00000000000E+00  0.45937237716E+03  0.45937237717E+03  0.25500000920E-02 0. -1.
        2   -1    0    0  501    0  0.00000000000E+00  0.00000000000E+00 -0.19614858767E+04  0.19614858767E+04  0.25500000920E-02 0.  1.
    10030    2    1    2    0    0  0.00000000000E+00  0.00000000000E+00 -0.15021134996E+04  0.24208582539E+04  0.18984756306E+04 0.  0.
        2    1    3    3  502    0 -0.98669351062E+02  0.87694522893E+03 -0.11969684774E+04  0.14871120036E+04  0.25500000920E-02 0. -1.
       -2    1    3    3    0  502  0.98669351062E+02 -0.87694522893E+03 -0.30514502218E+03  0.93374625030E+03  0.25500000920E-02 0.  1.
</event>
<event>
 5   0  0.1413011E-05  0.1901171E+04  0.7818609E-02  0.8654274E-01
       -1   -1    0    0    0  501  0.00000000000E+00  0.00000000000E+00  0.62926172346E+03  0.62926172348E+03  0.50400001928E-02 0.  1.
        1   -1    0    0  501    0  0.00000000000E+00  0.00000000000E+00 -0.14359891449E+04  0.14359891449E+04  0.50400001928E-02 0. -1.
    10030    2    1    2    0    0  0.00000000000E+00  0.00000000000E+00 -0.80672742140E+03  0.20652508684E+04  0.19011712224E+04 0.  0.
        1    1    3    3  502    0  0.73540689053E+03 -0.59724262760E+03 -0.31858355366E+03  0.99950864506E+03  0.50400001928E-02 0.  1.
       -1    1    3    3    0  502 -0.73540689053E+03  0.59724262760E+03 -0.48814386774E+03  0.10657422233E+04  0.50400001928E-02 0. -1.
</event>
<event>
 5   0  0.2855141E-05  0.1935816E+04  0.7818609E-02  0.8637231E-01
       -2   -1    0    0    0  501  0.00000000000E+00  0.00000000000E+00  0.41980546257E+03  0.41980546258E+03  0.25500000920E-02 0.  1.
        2   -1    0    0  501    0  0.00000000000E+00  0.00000000000E+00 -0.22316184416E+04  0.22316184416E+04  0.25500000920E-02 0. -1.
    10030    2    1    2    0    0  0.00000000000E+00  0.00000000000E+00 -0.18118129790E+04  0.26514239041E+04  0.19358157063E+04 0.  0.
        1    1    3    3  502    0  0.20044706566E+02  0.87038394612E+03 -0.32662357446E+03  0.92986717511E+03  0.50400001928E-02 0.  1.
       -1    1    3    3    0  502 -0.20044706566E+02 -0.87038394612E+03 -0.14851894045E+04  0.17215567290E+04  0.50400001928E-02 0. -1.
</event>
<event>
 5   0  0.1344119E-05  0.1913248E+04  0.7818609E-02  0.8648290E-01
       -1   -1    0    0    0  501  0.00000000000E+00  0.00000000000E+00  0.53491502068E+03  0.53491502070E+03  0.50400001928E-02 0.  1.
        1   -1    0    0  501    0  0.00000000000E+00  0.00000000000E+00 -0.17107946679E+04  0.17107946679E+04  0.50400001928E-02 0. -1.
    10030    2    1    2    0    0  0.00000000000E+00  0.00000000000E+00 -0.11758796472E+04  0.22457096886E+04  0.19132483009E+04 0.  0.
        2    1    3    3  502    0  0.80850463429E+03 -0.18276013093E+03 -0.27413348640E+02  0.82935667889E+03  0.25500000920E-02 0.  1.
       -2    1    3    3    0  502 -0.80850463429E+03  0.18276013093E+03 -0.11484662986E+04  0.14163530097E+04  0.25500000920E-02 0. -1.
</event>
<event>
 5   0  0.1471485E-05  0.1902677E+04  0.7818609E-02  0.8653525E-01
       -1   -1    0    0    0  501  0.00000000000E+00  0.00000000000E+00  0.81582827185E+03  0.81582827187E+03  0.50400001928E-02 0.  1.
        1   -1    0    0  501    0  0.00000000000E+00  0.00000000000E+00 -0.11093571943E+04  0.11093571944E+04  0.50400001928E-02 0. -1.
    10030    2    1    2    0    0  0.00000000000E+00  0.00000000000E+00 -0.29352892249E+03  0.19251854662E+04  0.19026770223E+04 0.  0.
        4    1    3    3  502    0  0.40196332312E+03  0.55340352084E+03  0.52227883423E+03  0.86058512861E+03  0.12699999809E+01 0.  1.
       -4    1    3    3    0  502 -0.40196332312E+03 -0.55340352084E+03 -0.81580775672E+03  0.10646003376E+04  0.12699999809E+01 0. -1.
</event>
<event>
 5   0  0.2888776E-05  0.1902596E+04  0.7818609E-02  0.8653565E-01
        2   -1    0    0  501    0  0.00000000000E+00  0.00000000000E+00  0.23508333615E+04  0.23508333615E+04  0.25500000920E-02 0.  1.
       -2   -1    0    0    0  501  0.00000000000E+00  0.00000000000E+00 -0.38495619853E+03  0.38495619853E+03  0.25500000920E-02 0. -1.
    10030    2    1    2    0    0  0.00000000000E+00  0.00000000000E+00  0.19658771630E+04  0.27357895601E+04  0.19025959889E+04 0.  0.
        3    1    3    3  502    0 -0.69308025324E+03  0.19486859334E+03  0.88838668551E+02  0.72541458859E+03  0.10100000352E+00 0. -1.
       -3    1    3    3    0  502  0.69308025324E+03 -0.19486859334E+03  0.18770384945E+04  0.20103749715E+04  0.10100000352E+00 0.  1.
</event>
<event>
 5   0  0.1429067E-05  0.1898740E+04  0.7818609E-02  0.8655484E-01
        1   -1    0    0  501    0  0.00000000000E+00  0.00000000000E+00  0.11795613210E+04  0.11795613211E+04  0.50400001928E-02 0.  1.
       -1   -1    0    0    0  501  0.00000000000E+00  0.00000000000E+00 -0.76410081436E+03  0.76410081438E+03  0.50400001928E-02 0. -1.
    10030    2    1    2    0    0  0.00000000000E+00  0.00000000000E+00  0.41546050668E+03  0.19436621354E+04  0.18987403888E+04 0.  0.
        3    1    3    3  502    0 -0.50047842530E+03  0.80672120371E+03  0.21295002135E+03  0.97294680045E+03  0.10100000352E+00 0.  1.
       -3    1    3    3    0  502  0.50047842530E+03 -0.80672120371E+03  0.20251048532E+03  0.97071533498E+03  0.10100000352E+00 0. -1.
</event>
<event>
 5   0  0.2813537E-05  0.1900982E+04  0.7818609E-02  0.8654368E-01
       -2   -1    0    0    0  501  0.00000000000E+00  0.00000000000E+00  0.11306738870E+04  0.11306738870E+04  0.25500000920E-02 0. -1.
        2   -1    0    0  501    0  0.00000000000E+00  0.00000000000E+00 -0.79902170156E+03  0.79902170156E+03  0.25500000920E-02 0.  1.
    10030    2    1    2    0    0  0.00000000000E+00  0.00000000000E+00  0.33165218543E+03  0.19296955885E+04  0.19009818233E+04 0.  0.
        2    1    3    3  502    0 -0.19446022525E+03  0.34790194828E+03 -0.71009953124E+03  0.81430454321E+03  0.25500000920E-02 0.  1.
       -2    1    3    3    0  502  0.19446022525E+03 -0.34790194828E+03  0.10417517167E+04  0.11153910453E+04  0.25500000920E-02 0. -1.
</event>
<event>
 5   0  0.2888776E-05  0.1901530E+04  0.7818609E-02  0.8654095E-01
        2   -1    0    0  501    0  0.00000000000E+00  0.00000000000E+00  0.11264867533E+04  0.11264867533E+04  0.25500000920E-02 0.  1.
       -2   -1    0    0    0  501  0.00000000000E+00  0.00000000000E+00 -0.80245454648E+03  0.80245454649E+03  0.25500000920E-02 0. -1.
    10030    2    1    2    0    0  0.00000000000E+00  0.00000000000E+00  0.32403220680E+03  0.19289412998E+04  0.19015303487E+04 0.  0.
        3    1    3    3  502    0  0.47588748925E+03 -0.63521294077E+03 -0.36896996395E+03  0.87527322993E+03  0.10100000352E+00 0. -1.
       -3    1    3    3    0  502 -0.47588748925E+03  0.63521294077E+03  0.69300217075E+03  0.10536680698E+04  0.10100000352E+00 0.  1.
</event>
<event>
 5   0  0.2813537E-05  0.1899725E+04  0.7818609E-02  0.8654994E-01
       -2   -1    0    0    0  501  0.00000000000E+00  0.00000000000E+00  0.32512877088E+03  0.32512877089E+03  0.25500000920E-02 0. -1.
        2   -1    0    0  501    0  0.00000000000E+00  0.00000000000E+00 -0.27750183985E+04  0.27750183985E+04  0.25500000920E-02 0.  1.
    10030    2    1    2    0    0  0.00000000000E+00  0.00000000000E+00 -0.24498896276E+04  0.31001471694E+04  0.18997245285E+04 0.  0.
        2    1    3    3  502    0 -0.99911526292E+02 -0.22098606512E+02  0.31610806114E+03  0.33225738189E+03  0.25500000920E-02 0. -1.
       -2    1    3    3    0  502  0.99911526292E+02  0.22098606512E+02 -0.27659976887E+04  0.27678897875E+04  0.25500000920E-02 0.  1.
</event>
<event>
 5   0  0.2813537E-05  0.1898394E+04  0.7818609E-02  0.8655656E-01
       -2   -1    0    0    0  501  0.00000000000E+00  0.00000000000E+00  0.10528994299E+04  0.10528994299E+04  0.25500000920E-02 0. -1.
        2   -1    0    0  501    0  0.00000000000E+00  0.00000000000E+00 -0.85570808597E+03  0.85570808597E+03  0.25500000920E-02 0.  1.
    10030    2    1    2    0    0  0.00000000000E+00  0.00000000000E+00  0.19719134394E+03  0.19086075159E+04  0.18983935903E+04 0.  0.
        2    1    3    3  502    0 -0.11786663130E+03  0.68988252458E+03  0.74325075321E+03  0.10209074996E+04  0.25500000920E-02 0. -1.
       -2    1    3    3    0  502  0.11786663130E+03 -0.68988252458E+03 -0.54605940928E+03  0.88770001632E+03  0.25500000920E-02 0.  1.
</event>
<event>
 5   0  0.1327254E-05  0.1914659E+04  0.7818609E-02  0.8647594E-01
        1   -1    0    0  501    0  0.00000000000E+00  0.00000000000E+00  0.21570164813E+04  0.21570164813E+04  0.50400001928E-02 0.  1.
       -1   -1    0    0    0  501  0.00000000000E+00  0.00000000000E+00 -0.42488307730E+03  0.42488307733E+03  0.50400001928E-02 0. -1.
    10030    2    1    2    0    0  0.00000000000E+00  0.00000000000E+00  0.17321334040E+04  0.25818995586E+04  0.19146590301E+04 0.  0.
        5    1    3    3  502    0  0.42888907710E+03 -0.70960600319E+03  0.15113320150E+04  0.17238425304E+04  0.46999998093E+01 0.  1.
       -5    1    3    3    0  502 -0.42888907710E+03  0.70960600319E+03  0.22080138899E+03  0.85805702817E+03  0.46999998093E+01 0. -1.
</event>
<event>
 5   0  0.1413011E-05  0.1898682E+04  0.7818609E-02  0.8655512E-01
       -1   -1    0    0    0  501  0.00000000000E+00  0.00000000000E+00  0.76449828309E+03  0.76449828310E+03  0.50400001928E-02 0.  1.
        1   -1    0    0  501    0  0.00000000000E+00  0.00000000000E+00 -0.11788761503E+04  0.11788761503E+04  0.50400001928E-02 0. -1.
    10030    2    1    2    0    0  0.00000000000E+00  0.00000000000E+00 -0.41437786718E+03  0.19433744334E+04  0.18986824831E+04 0.  0.
        1    1    3    3  502    0 -0.57349984323E+03  0.32230542371E+03 -0.90774540633E+03  0.11210640388E+04  0.50400001928E-02 0. -1.
       -1    1    3    3    0  502  0.57349984323E+03 -0.32230542371E+03  0.49336753915E+03  0.82231039459E+03  0.50400001928E-02 0.  1.
</event>
<event>
 5   0  0.2813537E-05  0.1898945E+04  0.7818609E-02  0.8655382E-01
        2   -1    0    0  501    0  0.00000000000E+00  0.00000000000E+00  0.11310268890E+04  0.11310268890E+04  0.25500000920E-02 0.  1.
       -2   -1    0    0    0  501  0.00000000000E+00  0.00000000000E+00 -0.79706159436E+03  0.79706159437E+03  0.25500000920E-02 0. -1.
    10030    2    1    2    0    0  0.00000000000E+00  0.00000000000E+00  0.33396529467E+03  0.19280884834E+04  0.18989450708E+04 0.  0.
        2    1    3    3  502    0 -0.24293970592E+03  0.91179547028E+03  0.27399183302E+03  0.98257936316E+03  0.25500000920E-02 0.  1.
       -2    1    3    3    0  502  0.24293970592E+03 -0.91179547028E+03  0.59973461647E+02  0.94550912024E+03  0.25500000920E-02 0. -1.
</event>
<event>
 5   0  0.2813537E-05  0.1891464E+04  0.7818609E-02  0.8659117E-01
        2   -1    0    0  501    0  0.00000000000E+00  0.00000000000E+00  0.21927681170E+04  0.21927681170E+04  0.25500000920E-02 0.  1.
       -2   -1    0    0    0  501  0.00000000000E+00  0.00000000000E+00 -0.40789037224E+03  0.40789037225E+03  0.25500000920E-02 0. -1.
    10030    2    1    2    0    0  0.00000000000E+00  0.00000000000E+00  0.17848777447E+04  0.26006584892E+04  0.18914639870E+04 0.  0.
        2    1    3    3  502    0  0.64192230089E+03  0.21564914546E+03  0.18001525844E+04  0.19233091591E+04  0.25500000920E-02 0.  1.
       -2    1    3    3    0  502 -0.64192230089E+03 -0.21564914546E+03 -0.15274839659E+02  0.67734933015E+03  0.25500000920E-02 0. -1.
</event>
<event>
 5   0  0.2888776E-05  0.1896807E+04  0.7818609E-02  0.8656447E-01
        2   -1    0    0  501    0  0.00000000000E+00  0.00000000000E+00  0.20114445875E+04  0.20114445875E+04  0.25500000920E-02 0. -1.
       -2   -1    0    0    0  501  0.00000000000E+00  0.00000000000E+00 -0.44717573173E+03  0.44717573174E+03  0.25500000920E-02 0.  1.
    10030    2    1    2    0    0  0.00000000000E+00  0.00000000000E+00  0.15642688558E+04  0.24586203193E+04  0.18968070068E+04 0.  0.
        3    1    3    3  502    0  0.85083915523E+03 -0.40712320122E+03  0.91040230477E+03  0.13109191187E+04  0.10100000352E+00 0. -1.
       -3    1    3    3    0  502 -0.85083915523E+03  0.40712320122E+03  0.65386655105E+03  0.11477012006E+04  0.10100000352E+00 0.  1.
</event>
<event>
 5   0  0.1344119E-05  0.1898465E+04  0.7818609E-02  0.8655621E-01
       -1   -1    0    0    0  501  0.00000000000E+00  0.00000000000E+00  0.12198697803E+04  0.12198697803E+04  0.50400001928E-02 0.  1.
        1   -1    0    0  501    0  0.00000000000E+00  0.00000000000E+00 -0.73863816581E+03  0.73863816582E+03  0.50400001928E-02 0. -1.
    10030    2    1    2    0    0  0.00000000000E+00  0.00000000000E+00  0.48123161452E+03  0.19585079462E+04  0.18984650401E+04 0.  0.
        2    1    3    3  502    0 -0.57494841086E+03 -0.65089715533E+03 -0.15465974518E+03  0.88212947958E+03  0.25500000920E-02 0.  1.
       -2    1    3    3    0  502  0.57494841086E+03  0.65089715533E+03  0.63589135969E+03  0.10763784666E+04  0.25500000920E-02 0. -1.
</event>
<event>
 5   0  0.1413011E-05  0.1895994E+04  0.7818609E-02  0.8656853E-01
       -1   -1    0    0    0  501  0.00000000000E+00  0.00000000000E+00  0.77658207331E+03  0.77658207332E+03  0.50400001928E-02 0.  1.
        1   -1    0    0  501    0  0.00000000000E+00  0.00000000000E+00 -0.11572486913E+04  0.11572486913E+04  0.50400001928E-02 0. -1.
    10030    2    1    2    0    0  0.00000000000E+00  0.00000000000E+00 -0.38066661803E+03  0.19338307647E+04  0.18959942912E+04 0.  0.
        1    1    3    3  502    0  0.28620477892E+03  0.38557054876E+03  0.64336500713E+03  0.80280530390E+03  0.50400001928E-02 0.  1.
       -1    1    3    3    0  502 -0.28620477892E+03 -0.38557054876E+03 -0.10240316252E+04  0.11310254608E+04  0.50400001928E-02 0. -1.
</event>
<event>
 5   0  0.2813537E-05  0.1900755E+04  0.7818609E-02  0.8654481E-01
       -2   -1    0    0    0  501  0.00000000000E+00  0.00000000000E+00  0.37419295819E+03  0.37419295820E+03  0.25500000920E-02 0.  1.
        2   -1    0    0  501    0  0.00000000000E+00  0.00000000000E+00 -0.24137746884E+04  0.24137746884E+04  0.25500000920E-02 0. -1.
    10030    2    1    2    0    0  0.00000000000E+00  0.00000000000E+00 -0.20395817302E+04  0.27879676466E+04  0.19007551037E+04 0.  0.
        2    1    3    3  502    0 -0.59319624282E+03 -0.36962069928E+03 -0.75214468007E+02  0.70296405317E+03  0.25500000920E-02 0.  1.
       -2    1    3    3    0  502  0.59319624282E+03  0.36962069928E+03 -0.19643672622E+04  0.20850035934E+04  0.25500000920E-02 0. -1.
</event>
<event>
 5   0  0.2789718E-05  0.1901645E+04  0.7818609E-02  0.8654038E-01
       -2   -1    0    0    0  501  0.00000000000E+00  0.00000000000E+00  0.54373610709E+03  0.54373610710E+03  0.25500000920E-02 0. -1.
        2   -1    0    0  501    0  0.00000000000E+00  0.00000000000E+00 -0.16626874186E+04  0.16626874186E+04  0.25500000920E-02 0.  1.
    10030    2    1    2    0    0  0.00000000000E+00  0.00000000000E+00 -0.11189513115E+04  0.22064235257E+04  0.19016447453E+04 0.  0.
        5    1    3    3  502    0  0.15083097057E+03  0.81282583707E+03 -0.11044391795E+04  0.13795810285E+04  0.46999998093E+01 0.  1.
       -5    1    3    3    0  502 -0.15083097057E+03 -0.81282583707E+03 -0.14512131982E+02  0.82684249713E+03  0.46999998093E+01 0. -1.
</event>
<event>
 5   0  0.1344119E-05  0.1929885E+04  0.7818609E-02  0.8640122E-01
        1   -1    0    0  501    0  0.00000000000E+00  0.00000000000E+00  0.85106562601E+03  0.85106562602E+03  0.50400001928E-02 0. -1.
       -1   -1    0    0    0  501  0.00000000000E+00  0.00000000000E+00 -0.10940562434E+04  0.10940562434E+04  0.50400001928E-02 0.  1.
    10030    2    1    2    0    0  0.00000000000E+00  0.00000000000E+00 -0.24299061742E+03  0.19451218695E+04  0.19298846201E+04 0.  0.
        2    1    3    3  502    0  0.28687684561E+03  0.15496881544E+03  0.79386019827E+03  0.85821190432E+03  0.25500000920E-02 0. -1.
       -2    1    3    3    0  502 -0.28687684561E+03 -0.15496881544E+03 -0.10368508157E+04  0.10869099651E+04  0.25500000920E-02 0.  1.
</event>
<event>
 5   0  0.1327254E-05  0.1889127E+04  0.7818609E-02  0.8660287E-01
       -1   -1    0    0    0  501  0.00000000000E+00  0.00000000000E+00  0.89655606670E+03  0.89655606672E+03  0.50400001928E-02 0.  1.
        1   -1    0    0  501    0  0.00000000000E+00  0.00000000000E+00 -0.99514174530E+03  0.99514174532E+03  0.50400001928E-02 0. -1.
    10030    2    1    2    0    0  0.00000000000E+00  0.00000000000E+00 -0.98585678598E+02  0.18916978120E+04  0.18891271731E+04 0.  0.
        5    1    3    3  502    0  0.35528022728E+02  0.62721145965E+03 -0.75560491990E+03  0.98265830302E+03  0.46999998093E+01 0. -1.
       -5    1    3    3    0  502 -0.35528022728E+02 -0.62721145965E+03  0.65701924130E+03  0.90903950902E+03  0.46999998093E+01 0.  1.
</event>
<event>
 5   0  0.2879462E-05  0.1922145E+04  0.7818609E-02  0.8643911E-01
        2   -1    0    0  501    0  0.00000000000E+00  0.00000000000E+00  0.13028826391E+04  0.13028826391E+04  0.25500000920E-02 0. -1.
       -2   -1    0    0    0  501  0.00000000000E+00  0.00000000000E+00 -0.70893592943E+03  0.70893592943E+03  0.25500000920E-02 0.  1.
    10030    2    1    2    0    0  0.00000000000E+00  0.00000000000E+00  0.59394670969E+03  0.20118185686E+04  0.19221449630E+04 0.  0.
        4    1    3    3  502    0  0.57185296009E+03 -0.74580231742E+03  0.50740472534E+03  0.10680346777E+04  0.12699999809E+01 0.  1.
       -4    1    3    3    0  502 -0.57185296009E+03  0.74580231742E+03  0.86541984351E+02  0.94378389083E+03  0.12699999809E+01 0. -1.
</event>
<event>
 5   0  0.1429067E-05  0.1900300E+04  0.7818609E-02  0.8654707E-01
       -1   -1    0    0    0  501  0.00000000000E+00  0.00000000000E+00  0.10941794727E+04  0.10941794727E+04  0.50400001928E-02 0.  1.
        1   -1    0    0  501    0  0.00000000000E+00  0.00000000000E+00 -0.82507971331E+03  0.82507971333E+03  0.50400001928E-02 0. -1.
    10030    2    1    2    0    0  0.00000000000E+00  0.00000000000E+00  0.26909975941E+03  0.19192591861E+04  0.19003002770E+04 0.  0.
        3    1    3    3  502    0  0.53738473309E+03 -0.44324119977E+03 -0.51807033900E+03  0.86812556631E+03  0.10100000352E+00 0. -1.
       -3    1    3    3    0  502 -0.53738473309E+03  0.44324119977E+03  0.78717009841E+03  0.10511336197E+04  0.10100000352E+00 0.  1.
</event>
<event>
 5   0  0.1344119E-05  0.1899626E+04  0.7818609E-02  0.8655043E-01
       -1   -1    0    0    0  501  0.00000000000E+00  0.00000000000E+00  0.73603082866E+03  0.73603082868E+03  0.50400001928E-02 0.  1.
        1   -1    0    0  501    0  0.00000000000E+00  0.00000000000E+00 -0.12256887140E+04  0.12256887140E+04  0.50400001928E-02 0. -1.
    10030    2    1    2    0    0  0.00000000000E+00  0.00000000000E+00 -0.48965788530E+03  0.19617195427E+04  0.18996259420E+04 0.  0.
        2    1    3    3  502    0  0.70339905654E+03  0.26966855178E+03  0.35257267627E+03  0.83174446354E+03  0.25500000920E-02 0.  1.
       -2    1    3    3    0  502 -0.70339905654E+03 -0.26966855178E+03 -0.84223056157E+03  0.11299750791E+04  0.25500000920E-02 0. -1.
</event>
<event>
 5   0  0.2813537E-05  0.1901461E+04  0.7818609E-02  0.8654129E-01
       -2   -1    0    0    0  501  0.00000000000E+00  0.00000000000E+00  0.52790132581E+03  0.52790132581E+03  0.25500000920E-02 0.  1.
        2   -1    0    0  501    0  0.00000000000E+00  0.00000000000E+00 -0.17122304749E+04  0.17122304749E+04  0.25500000920E-02 0. -1.
    10030    2    1    2    0    0  0.00000000000E+00  0.00000000000E+00 -0.11843291491E+04  0.22401318007E+04  0.19014612673E+04 0.  0.
        2    1    3    3  502    0 -0.94855771973E+03 -0.64227841844E+02 -0.59059522700E+03  0.11192362063E+04  0.25500000920E-02 0.  1.
       -2    1    3    3    0  502  0.94855771973E+03  0.64227841844E+02 -0.59373392208E+03  0.11208955944E+04  0.25500000920E-02 0. -1.
</event>
<event>
 5   0  0.2789718E-05  0.1902388E+04  0.7818609E-02  0.8653669E-01
        2   -1    0    0  501    0  0.00000000000E+00  0.00000000000E+00  0.12844780531E+04  0.12844780531E+04  0.25500000920E-02 0. -1.
       -2   -1    0    0    0  501  0.00000000000E+00  0.00000000000E+00 -0.70438712332E+03  0.70438712332E+03  0.25500000920E-02 0.  1.
    10030    2    1    2    0    0  0.00000000000E+00  0.00000000000E+00  0.58009092981E+03  0.19888651764E+04  0.19023877636E+04 0.  0.
        5    1    3    3  502    0 -0.23254227842E+03 -0.92226452200E+03  0.27959345285E+03  0.99138405710E+03  0.46999998093E+01 0.  1.
       -5    1    3    3    0  502  0.23254227842E+03  0.92226452200E+03  0.30049747696E+03  0.99748111935E+03  0.46999998093E+01 0. -1.
</event>
<event>
 5   0  0.1471485E-05  0.1899958E+04  0.7818609E-02  0.8654877E-01
       -1   -1    0    0    0  501  0.00000000000E+00  0.00000000000E+00  0.62079057810E+03  0.62079057812E+03  0.50400001928E-02 0.  1.
        1   -1    0    0  501    0  0.00000000000E+00  0.00000000000E+00 -0.14537265799E+04  0.14537265799E+04  0.50400001928E-02 0. -1.
    10030    2    1    2    0    0  0.00000000000E+00  0.00000000000E+00 -0.83293600179E+03  0.20745171580E+04  0.18999576458E+04 0.  0.
        4    1    3    3  502    0 -0.20486008973E+03  0.80168040332E+03  0.93098744240E+02  0.83266326598E+03  0.12699999809E+01 0.  1.
       -4    1    3    3    0  502  0.20486008973E+03 -0.80168040332E+03 -0.92603474603E+03  0.12418538920E+04  0.12699999809E+01 0. -1.
</event>
<event>
 5   0  0.2789718E-05  0.1902036E+04  0.7818609E-02  0.8653843E-01
       -2   -1    0    0    0  501  0.00000000000E+00  0.00000000000E+00  0.85241645217E+03  0.85241645217E+03  0.25500000920E-02 0. -1.
        2   -1    0    0  501    0  0.00000000000E+00  0.00000000000E+00 -0.10610255556E+04  0.10610255556E+04  0.25500000920E-02 0.  1.
    10030    2    1    2    0    0  0.00000000000E+00  0.00000000000E+00 -0.20860910341E+03  0.19134420077E+04  0.19020364242E+04 0.  0.
        5    1    3    3  502    0 -0.47679043928E+03  0.63169151888E+03  0.42616214193E+03  0.89888795699E+03  0.46999998093E+01 0. -1.
       -5    1    3    3    0  502  0.47679043928E+03 -0.63169151888E+03 -0.63477124533E+03  0.10145540508E+04  0.46999998093E+01 0.  1.
</event>
<event>
 5   0  0.1429067E-05  0.1913153E+04  0.7818609E-02  0.8648337E-01
       -1   -1    0    0    0  501  0.00000000000E+00  0.00000000000E+00  0.58203125746E+03  0.58203125749E+03  0.50400001928E-02 0.  1.
        1   -1    0    0  501    0  0.00000000000E+00  0.00000000000E+00 -0.15721460988E+04  0.15721460988E+04  0.50400001928E-02 0. -1.
    10030    2    1    2    0    0  0.00000000000E+00  0.00000000000E+00 -0.99011484134E+03  0.21541773563E+04  0.19131525510E+04 0.  0.
        3    1    3    3  502    0  0.20484674081E+03  0.55756641498E+03  0.34920139083E+03  0.68904580101E+03  0.10100000352E+00 0.  1.
       -3    1    3    3    0  502 -0.20484674081E+03 -0.55756641498E+03 -0.13393162322E+04  0.14651315553E+04  0.10100000352E+00 0. -1.
</event>
<event>
 5   0  0.2813537E-05  0.1896777E+04  0.7818609E-02  0.8656463E-01
       -2   -1    0    0    0  501  0.00000000000E+00  0.00000000000E+00  0.54169883235E+03  0.54169883236E+03  0.25500000920E-02 0.  1.
        2   -1    0    0  501    0  0.00000000000E+00  0.00000000000E+00 -0.16604065303E+04  0.16604065303E+04  0.25500000920E-02 0. -1.
    10030    2    1    2    0    0  0.00000000000E+00  0.00000000000E+00 -0.11187076979E+04  0.22021053626E+04  0.18967765063E+04 0.  0.
        2    1    3    3  502    0  0.65019332556E+03  0.26565568914E+03 -0.12992094539E+04  0.14769121541E+04  0.25500000920E-02 0. -1.
       -2    1    3    3    0  502 -0.65019332556E+03 -0.26565568914E+03  0.18050175599E+03  0.72519320853E+03  0.25500000920E-02 0.  1.
</event>
<event>
 5   0  0.2888776E-05  0.1900803E+04  0.7818609E-02  0.8654457E-01
       -2   -1    0    0    0  501  0.00000000000E+00  0.00000000000E+00  0.11548612617E+04  0.11548612617E+04  0.25500000920E-02 0. -1.
        2   -1    0    0  501    0  0.00000000000E+00  0.00000000000E+00 -0.78213957243E+03  0.78213957243E+03  0.25500000920E-02 0.  1.
    10030    2    1    2    0    0  0.00000000000E+00  0.00000000000E+00  0.37272168925E+03  0.19370008341E+04  0.19008026656E+04 0.  0.
        3    1    3    3  502    0 -0.30645406422E+02 -0.63137031741E+03 -0.53686947262E+03  0.82933495011E+03  0.10100000352E+00 0.  1.
       -3    1    3    3    0  502  0.30645406422E+02  0.63137031741E+03  0.90959116187E+03  0.11076658840E+04  0.10100000352E+00 0. -1.
</event>
<event>
 5   0  0.2855141E-05  0.1901538E+04  0.7818609E-02  0.8654091E-01
       -2   -1    0    0    0  501  0.00000000000E+00  0.00000000000E+00  0.56009197742E+03  0.56009197742E+03  0.25500000920E-02 0. -1.
        2   -1    0    0  501    0  0.00000000000E+00  0.00000000000E+00 -0.16139514295E+04  0.16139514295E+04  0.25500000920E-02 0.  1.
    10030    2    1    2    0    0  0.00000000000E+00  0.00000000000E+00 -0.10538594521E+04  0.21740434069E+04  0.19015375333E+04 0.  0.
        1    1    3    3  502    0 -0.37160502661E+03 -0.27031820680E+03  0.42469767997E+03  0.62572385932E+03  0.50400001928E-02 0. -1.
       -1    1    3    3    0  502  0.37160502661E+03  0.27031820680E+03 -0.14785571321E+04  0.15483195476E+04  0.50400001928E-02 0.  1.
</event>
<event>
 5   0  0.1413011E-05  0.1900248E+04  0.7818609E-02  0.8654733E-01
        1   -1    0    0  501    0  0.00000000000E+00  0.00000000000E+00  0.12349951175E+04  0.12349951175E+04  0.50400001928E-02 0. -1.
       -1   -1    0    0    0  501  0.00000000000E+00  0.00000000000E+00 -0.73096267250E+03  0.73096267252E+03  0.50400001928E-02 0.  1.
    10030    2    1    2    0    0  0.00000000000E+00  0.00000000000E+00  0.50403244500E+03  0.19659577900E+04  0.19002477014E+04 0.  0.
        1    1    3    3  502    0 -0.31407277325E+03  0.26011633707E+03 -0.63581543787E+03  0.75535652957E+03  0.50400001928E-02 0.  1.
       -1    1    3    3    0  502  0.31407277325E+03 -0.26011633707E+03  0.11398478829E+04  0.12106012605E+04  0.50400001928E-02 0. -1.
</event>
<event>
 5   0  0.2888776E-05  0.1902276E+04  0.7818609E-02  0.8653724E-01
        2   -1    0    0  501    0  0.00000000000E+00  0.00000000000E+00  0.17758530157E+04  0.17758530157E+04  0.25500000920E-02 0. -1.
       -2   -1    0    0    0  501  0.00000000000E+00  0.00000000000E+00 -0.50942474904E+03  0.50942474905E+03  0.25500000920E-02 0.  1.
    10030    2    1    2    0    0  0.00000000000E+00  0.00000000000E+00  0.12664282667E+04  0.22852777648E+04  0.19022759809E+04 0.  0.
        3    1    3    3  502    0 -0.27007468932E+03  0.18780472100E+03 -0.43891084404E+03  0.54850131290E+03  0.10100000352E+00 0.  1.
       -3    1    3    3    0  502  0.27007468932E+03 -0.18780472100E+03  0.17053391107E+04  0.17367764519E+04  0.10100000352E+00 0. -1.
</event>
<event>
 5   0  0.1471485E-05  0.1900667E+04  0.7818609E-02  0.8654525E-01
       -1   -1    0    0    0  501  0.00000000000E+00  0.00000000000E+00  0.12465094435E+04  0.12465094435E+04  0.50400001928E-02 0.  1.
        1   -1    0    0  501    0  0.00000000000E+00  0.00000000000E+00 -0.72452996437E+03  0.72452996439E+03  0.50400001928E-02 0. -1.
    10030    2    1    2    0    0  0.00000000000E+00  0.00000000000E+00  0.52197947914E+03  0.19710394079E+04  0.19006666649E+04 0.  0.
        4    1    3    3  502    0 -0.89071968616E+03 -0.15219821147E+03 -0.44160085435E+02  0.90470856133E+03  0.12699999809E+01 0. -1.
       -4    1    3    3    0  502  0.89071968616E+03  0.15219821147E+03  0.56613956458E+03  0.10663308466E+04  0.12699999809E+01 0.  1.
</event>
<event>
 5   0  0.2789718E-05  0.1889414E+04  0.7818609E-02  0.8660144E-01
       -2   -1    0    0    0  501  0.00000000000E+00  0.00000000000E+00  0.41092286910E+03  0.41092286911E+03  0.25500000920E-02 0. -1.
        2   -1    0    0  501    0  0.00000000000E+00  0.00000000000E+00 -0.21718702327E+04  0.21718702327E+04  0.25500000920E-02 0.  1.
    10030    2    1    2    0    0  0.00000000000E+00  0.00000000000E+00 -0.17609473636E+04  0.25827931018E+04  0.18894138216E+04 0.  0.
        5    1    3    3  502    0 -0.47964069426E+03 -0.11849389408E+03  0.22022465906E+03  0.54094083686E+03  0.46999998093E+01 0. -1.
       -5    1    3    3    0  502  0.47964069426E+03  0.11849389408E+03 -0.19811720226E+04  0.20418522649E+04  0.46999998093E+01 0.  1.
</event>
<event>
 5   0  0.1471485E-05  0.1884937E+04  0.7818609E-02  0.8662391E-01
        1   -1    0    0  501    0  0.00000000000E+00  0.00000000000E+00  0.17764174993E+04  0.17764174994E+04  0.50400001928E-02 0. -1.
       -1   -1    0    0    0  501  0.00000000000E+00  0.00000000000E+00 -0.50002130798E+03  0.50002130801E+03  0.50400001928E-02 0.  1.
    10030    2    1    2    0    0  0.00000000000E+00  0.00000000000E+00  0.12763961914E+04  0.22764388074E+04  0.18849367115E+04 0.  0.
        4    1    3    3  502    0  0.55464134958E+03 -0.40090878545E+02  0.15571705549E+04  0.16534860312E+04  0.12699999809E+01 0. -1.
       -4    1    3    3    0  502 -0.55464134958E+03  0.40090878545E+02 -0.28077436358E+03  0.62295277618E+03  0.12699999809E+01 0.  1.
</event>
<event>
 5   0  0.1327254E-05  0.1899740E+04  0.7818609E-02  0.8654986E-01
        1   -1    0    0  501    0  0.00000000000E+00  0.00000000000E+00  0.16297598672E+04  0.16297598672E+04  0.50400001928E-02 0.  1.
       -1   -1    0    0    0  501  0.00000000000E+00  0.00000000000E+00 -0.55361080826E+03  0.55361080828E+03  0.50400001928E-02 0. -1.
    10030    2    1    2    0    0  0.00000000000E+00  0.00000000000E+00  0.10761490590E+04  0.21833706755E+04  0.18997396426E+04 0.  0.
        5    1    3    3  502    0  0.59151062678E+03 -0.71724937403E+03  0.31433236082E+03  0.98140634255E+03  0.46999998093E+01 0. -1.
       -5    1    3    3    0  502 -0.59151062678E+03  0.71724937403E+03  0.76181669815E+03  0.12019643330E+04  0.46999998093E+01 0.  1.
</event>
<event>
 5   0  0.2855141E-05  0.1901758E+04  0.7818609E-02  0.8653982E-01
        2   -1    0    0  501    0  0.00000000000E+00  0.00000000000E+00  0.20233954593E+04  0.20233954593E+04  0.25500000920E-02 0.  1.
       -2   -1    0    0    0  501  0.00000000000E+00  0.00000000000E+00 -0.44685818039E+03  0.44685818040E+03  0.25500000920E-02 0. -1.
    10030    2    1    2    0    0  0.00000000000E+00  0.00000000000E+00  0.15765372789E+04  0.24702536397E+04  0.19017579374E+04 0.  0.
        1    1    3    3  502    0  0.10557047415E+03  0.93571409674E+03  0.95992833322E+03  0.13446815239E+04  0.50400001928E-02 0.  1.
       -1    1    3    3    0  502 -0.10557047415E+03 -0.93571409674E+03  0.61660894566E+03  0.11255721157E+04  0.50400001928E-02 0. -1.
</event>
<event>
 5   0  0.2879462E-05  0.1898998E+04  0.7818609E-02  0.8655355E-01
        2   -1    0    0  501    0  0.00000000000E+00  0.00000000000E+00  0.10592079702E+04  0.10592079702E+04  0.25500000920E-02 0. -1.
       -2   -1    0    0    0  501  0.00000000000E+00  0.00000000000E+00 -0.85115358194E+03  0.85115358195E+03  0.25500000920E-02 0.  1.
    10030    2    1    2    0    0  0.00000000000E+00  0.00000000000E+00  0.20805438829E+03  0.19103615522E+04  0.18989983232E+04 0.  0.
        4    1    3    3  502    0  0.20051236103E+03  0.71118893607E+03  0.70387715281E+03  0.10205094653E+04  0.12699999809E+01 0. -1.
       -4    1    3    3    0  502 -0.20051236103E+03 -0.71118893607E+03 -0.49582276453E+03  0.88985208683E+03  0.12699999809E+01 0.  1.
</event>
<event>
 5   0  0.2888776E-05  0.1926115E+04  0.7818609E-02  0.8641965E-01
        2   -1    0    0  501    0  0.00000000000E+00  0.00000000000E+00  0.73718394089E+03  0.73718394089E+03  0.25500000920E-02 0.  1.
       -2   -1    0    0    0  501  0.00000000000E+00  0.00000000000E+00 -0.12581394440E+04  0.12581394440E+04  0.25500000920E-02 0. -1.
    10030    2    1    2    0    0  0.00000000000E+00  0.00000000000E+00 -0.52095550314E+03  0.19953233849E+04  0.19261154623E+04 0.  0.
        3    1    3    3  502    0 -0.50982367619E+03  0.41832460680E+03 -0.98752484128E+03  0.11874851493E+04  0.10100000352E+00 0. -1.
       -3    1    3    3    0  502  0.50982367619E+03 -0.41832460680E+03  0.46656933814E+03  0.80783823563E+03  0.10100000352E+00 0.  1.
</event>
<event>
 5   0  0.1471485E-05  0.1900057E+04  0.7818609E-02  0.8654828E-01
       -1   -1    0    0    0  501  0.00000000000E+00  0.00000000000E+00  0.90150495257E+03  0.90150495258E+03  0.50400001928E-02 0. -1.
        1   -1    0    0  501    0  0.00000000000E+00  0.00000000000E+00 -0.10011641809E+04  0.10011641809E+04  0.50400001928E-02 0.  1.
    10030    2    1    2    0    0  0.00000000000E+00  0.00000000000E+00 -0.99659228288E+02  0.19026691334E+04  0.19000573332E+04 0.  0.
        4    1    3    3  502    0 -0.38258734990E+03  0.70528408288E+03 -0.55920765386E+03  0.97801509749E+03  0.12699999809E+01 0.  1.
       -4    1    3    3    0  502  0.38258734990E+03 -0.70528408288E+03  0.45954842557E+03  0.92465403596E+03  0.12699999809E+01 0. -1.
</event>
<event>
 5   0  0.1344119E-05  0.1901438E+04  0.7818609E-02  0.8654141E-01
       -1   -1    0    0    0  501  0.00000000000E+00  0.00000000000E+00  0.63252998380E+03  0.63252998382E+03  0.50400001928E-02 0. -1.
        1   -1    0    0  501    0  0.00000000000E+00  0.00000000000E+00 -0.14289711295E+04  0.14289711295E+04  0.50400001928E-02 0.  1.
    10030    2    1    2    0    0  0.00000000000E+00  0.00000000000E+00 -0.79644114566E+03  0.20615011133E+04  0.19014384927E+04 0.  0.
        2    1    3    3  502    0  0.52970309173E+03  0.73972272682E+03 -0.99151976083E+02  0.91520827812E+03  0.25500000920E-02 0. -1.
       -2    1    3    3    0  502 -0.52970309173E+03 -0.73972272682E+03 -0.69728916958E+03  0.11462928352E+04  0.25500000920E-02 0.  1.
</event>
<event>
 5   0  0.2789718E-05  0.1896312E+04  0.7818609E-02  0.8656694E-01
       -2   -1    0    0    0  501  0.00000000000E+00  0.00000000000E+00  0.59412830183E+03  0.59412830183E+03  0.25500000920E-02 0. -1.
        2   -1    0    0  501    0  0.00000000000E+00  0.00000000000E+00 -0.15131412408E+04  0.15131412408E+04  0.25500000920E-02 0.  1.
    10030    2    1    2    0    0  0.00000000000E+00  0.00000000000E+00 -0.91901293898E+03  0.21072695427E+04  0.18963122484E+04 0.  0.
        5    1    3    3  502    0 -0.59453818593E+02 -0.91375955178E+03 -0.18620618685E+03  0.93444427818E+03  0.46999998093E+01 0. -1.
       -5    1    3    3    0  502  0.59453818593E+02  0.91375955178E+03 -0.73280675213E+03  0.11728252645E+04  0.46999998093E+01 0.  1.
</event>
<event>
 5   0  0.1413011E-05  0.1902544E+04  0.7818609E-02  0.8653591E-01
       -1   -1    0    0    0  501  0.00000000000E+00  0.00000000000E+00  0.83323006203E+03  0.83323006205E+03  0.50400001928E-02 0. -1.
        1   -1    0    0  501    0  0.00000000000E+00  0.00000000000E+00 -0.10860361800E+04  0.10860361801E+04  0.50400001928E-02 0.  1.
    10030    2    1    2    0    0  0.00000000000E+00  0.00000000000E+00 -0.25280611801E+03  0.19192662421E+04  0.19025435540E+04 0.  0.
        1    1    3    3  502    0 -0.78609510912E+03  0.14119385875E+03  0.39489504804E+03  0.89096763428E+03  0.50400001928E-02 0. -1.
       -1    1    3    3    0  502  0.78609510912E+03 -0.14119385875E+03 -0.64770116605E+03  0.10282986078E+04  0.50400001928E-02 0.  1.
</event>
<event>
 5   0  0.2888776E-05  0.1913120E+04  0.7818609E-02  0.8648353E-01
       -2   -1    0    0    0  501  0.00000000000E+00  0.00000000000E+00  0.90904322784E+03  0.90904322784E+03  0.25500000920E-02 0. -1.
        2   -1    0    0  501    0  0.00000000000E+00  0.00000000000E+00 -0.10065606299E+04  0.10065606299E+04  0.25500000920E-02 0.  1.
    10030    2    1    2    0    0  0.00000000000E+00  0.00000000000E+00 -0.97517402062E+02  0.19156038577E+04  0.19131200945E+04 0.  0.
        3    1    3    3  502    0 -0.90986390528E+02 -0.60324189338E+03 -0.78648372246E+03  0.99535720276E+03  0.10100000352E+00 0.  1.
       -3    1    3    3    0  502  0.90986390528E+02  0.60324189338E+03  0.68896632040E+03  0.92024665499E+03  0.10100000352E+00 0. -1.
</event>
<event>
 5   0  0.1344119E-05  0.1895009E+04  0.7818609E-02  0.8657345E-01
       -1   -1    0    0    0  501  0.00000000000E+00  0.00000000000E+00  0.60262798086E+03  0.60262798088E+03  0.50400001928E-02 0.  1.
        1   -1    0    0  501    0  0.00000000000E+00  0.00000000000E+00 -0.14897501593E+04  0.14897501593E+04  0.50400001928E-02 0. -1.
    10030    2    1    2    0    0  0.00000000000E+00  0.00000000000E+00 -0.88712217841E+03  0.20923781402E+04  0.18950093725E+04 0.  0.
        2    1    3    3  502    0  0.46836324909E+03 -0.43609475415E+03  0.32794195839E+03  0.71908879548E+03  0.25500000920E-02 0.  1.
       -2    1    3    3    0  502 -0.46836324909E+03  0.43609475415E+03 -0.12150641368E+04  0.13732893447E+04  0.25500000920E-02 0. -1.
</event>
<event>
 5   0  0.1471485E-05  0.1905375E+04  0.7818609E-02  0.8652186E-01
       -1   -1    0    0    0  501  0.00000000000E+00  0.00000000000E+00  0.66132306744E+03  0.66132306746E+03  0.50400001928E-02 0. -1.
        1   -1    0    0  501    0  0.00000000000E+00  0.00000000000E+00 -0.13724202892E+04  0.13724202892E+04  0.50400001928E-02 0.  1.
    10030    2    1    2    0    0  0.00000000000E+00  0.00000000000E+00 -0.71109722176E+03  0.20337433567E+04  0.19053747091E+04 0.  0.
        4    1    3    3  502    0 -0.89579315097E+03 -0.28767768062E+03 -0.19577133039E+03  0.96100564200E+03  0.12699999809E+01 0. -1.
       -4    1    3    3    0  502  0.89579315097E+03  0.28767768062E+03 -0.51532589136E+03  0.10727377147E+04  0.12699999809E+01 0.  1.
</event>
<event>
 5   0  0.1010725E-05  0.1901902E+04  0.7818609E-02  0.8653910E-01
        3   -1    0    0  501    0  0.00000000000E+00  0.00000000000E+00  0.10213433205E+04  0.10213433255E+04  0.10100000352E+00 0. -1.
       -3   -1    0    0    0  501  0.00000000000E+00  0.00000000000E+00 -0.88540980596E+03  0.88540981172E+03  0.10100000352E+00 0.  1.
    10030    2    1    2    0    0  0.00000000000E+00  0.00000000000E+00  0.13593351453E+03  0.19067531372E+04  0.19019015763E+04 0.  0.
        3    1    3    3  502    0 -0.52856176076E+02  0.85886230829E+03 -0.33787341483E+03  0.92444399214E+03  0.10100000352E+00 0.  1.
       -3    1    3    3    0  502  0.52856176076E+02 -0.85886230829E+03  0.47380692936E+03  0.98230914506E+03  0.10100000352E+00 0. -1.
</event>
<event>
 5   0  0.2879462E-05  0.1898749E+04  0.7818609E-02  0.8655480E-01
       -2   -1    0    0    0  501  0.00000000000E+00  0.00000000000E+00  0.73968592340E+03  0.73968592341E+03  0.25500000920E-02 0. -1.
        2   -1    0    0  501    0  0.00000000000E+00  0.00000000000E+00 -0.12185056408E+04  0.12185056408E+04  0.25500000920E-02 0.  1.
    10030    2    1    2    0    0  0.00000000000E+00  0.00000000000E+00 -0.47881971739E+03  0.19581915642E+04  0.18987485037E+04 0.  0.
        4    1    3    3  502    0  0.41775701919E+03 -0.20450399132E+03  0.61412756989E+03  0.77038762616E+03  0.12699999809E+01 0. -1.
       -4    1    3    3    0  502 -0.41775701919E+03  0.20450399132E+03 -0.10929472873E+04  0.11878039380E+04  0.12699999809E+01 0.  1.
</event>
<event>
 5   0  0.1327254E-05  0.1900679E+04  0.7818609E-02  0.8654518E-01
       -1   -1    0    0    0  501  0.00000000000E+00  0.00000000000E+00  0.67209174196E+03  0.67209174198E+03  0.50400001928E-02 0.  1.
        1   -1    0    0  501    0  0.00000000000E+00  0.00000000000E+00 -0.13437828349E+04  0.13437828349E+04  0.50400001928E-02 0. -1.
    10030    2    1    2    0    0  0.00000000000E+00  0.00000000000E+00 -0.67169109292E+03  0.20158745769E+04  0.19006791905E+04 0.  0.
        5    1    3    3  502    0  0.67540969681E+03 -0.42759983537E+03  0.20921113337E+03  0.82632394742E+03  0.46999998093E+01 0.  1.
       -5    1    3    3    0  502 -0.67540969681E+03  0.42759983537E+03 -0.88090222629E+03  0.11895506295E+04  0.46999998093E+01 0. -1.
</event>
<event>
 5   0  0.2813537E-05  0.1900506E+04  0.7818609E-02  0.8654605E-01
       -2   -1    0    0    0  501  0.00000000000E+00  0.00000000000E+00  0.55600506808E+03  0.55600506808E+03  0.25500000920E-02 0. -1.
        2   -1    0    0  501    0  0.00000000000E+00  0.00000000000E+00 -0.16240514908E+04  0.16240514908E+04  0.25500000920E-02 0.  1.
    10030    2    1    2    0    0  0.00000000000E+00  0.00000000000E+00 -0.10680464227E+04  0.21800565589E+04  0.19005061007E+04 0.  0.
        2    1    3    3  502    0 -0.33622984988E+03  0.27425075971E+02  0.48500459887E+03  0.59078939367E+03  0.25500000920E-02 0. -1.
       -2    1    3    3    0  502  0.33622984988E+03 -0.27425075971E+02 -0.15530510216E+04  0.15892671652E+04  0.25500000920E-02 0.  1.
</event>
<event>
 5   0  0.1471485E-05  0.1905509E+04  0.7818609E-02  0.8652119E-01
       -1   -1    0    0    0  501  0.00000000000E+00  0.00000000000E+00  0.55219511616E+03  0.55219511619E+03  0.50400001928E-02 0.  1.
        1   -1    0    0  501    0  0.00000000000E+00  0.00000000000E+00 -0.16438778009E+04  0.16438778009E+04  0.50400001928E-02 0. -1.
    10030    2    1    2    0    0  0.00000000000E+00  0.00000000000E+00 -0.10916826847E+04  0.21960729171E+04  0.19055091637E+04 0.  0.
        4    1    3    3  502    0 -0.21714198741E+03 -0.31084733178E+03  0.46148889325E+03  0.59728579245E+03  0.12699999809E+01 0.  1.
       -4    1    3    3    0  502  0.21714198741E+03  0.31084733178E+03 -0.15531715780E+04  0.15987871246E+04  0.12699999809E+01 0. -1.
</event>
<event>
 5   0  0.1413011E-05  0.1900805E+04  0.7818609E-02  0.8654456E-01
        1   -1    0    0  501    0  0.00000000000E+00  0.00000000000E+00  0.11694782456E+04  0.11694782456E+04  0.50400001928E-02 0. -1.
       -1   -1    0    0    0  501  0.00000000000E+00  0.00000000000E+00 -0.77236542736E+03  0.77236542738E+03  0.50400001928E-02 0.  1.
    10030    2    1    2    0    0  0.00000000000E+00  0.00000000000E+00  0.39711281827E+03  0.19418436730E+04  0.19008046349E+04 0.  0.
        1    1    3    3  502    0 -0.42041596510E+03 -0.26467772744E+02 -0.67178487328E+03  0.79293445044E+03  0.50400001928E-02 0.  1.
       -1    1    3    3    0  502  0.42041596510E+03  0.26467772744E+02  0.10688976915E+04  0.11489092226E+04  0.50400001928E-02 0. -1.
</event>
<event>
 5   0  0.2813537E-05  0.1902013E+04  0.7818609E-02  0.8653855E-01
        2   -1    0    0  501    0  0.00000000000E+00  0.00000000000E+00  0.19479258311E+04  0.19479258311E+04  0.25500000920E-02 0. -1.
       -2   -1    0    0    0  501  0.00000000000E+00  0.00000000000E+00 -0.46429564927E+03  0.46429564927E+03  0.25500000920E-02 0.  1.
    10030    2    1    2    0    0  0.00000000000E+00  0.00000000000E+00  0.14836301819E+04  0.24122214804E+04  0.19020131319E+04 0.  0.
        2    1    3    3  502    0  0.83946710108E+03  0.44181858986E+03  0.65669308900E+03  0.11537566872E+04  0.25500000920E-02 0.  1.
       -2    1    3    3    0  502 -0.83946710108E+03 -0.44181858986E+03  0.82693709286E+03  0.12584647932E+04  0.25500000920E-02 0. -1.
</event>
<event>
 5   0  0.2855141E-05  0.1893640E+04  0.7818609E-02  0.8658029E-01
        2   -1    0    0  501    0  0.00000000000E+00  0.00000000000E+00  0.14207042880E+04  0.14207042880E+04  0.25500000920E-02 0.  1.
       -2   -1    0    0    0  501  0.00000000000E+00  0.00000000000E+00 -0.63100274486E+03  0.63100274487E+03  0.25500000920E-02 0. -1.
    10030    2    1    2    0    0  0.00000000000E+00  0.00000000000E+00  0.78970154312E+03  0.20517070328E+04  0.18936402038E+04 0.  0.
        1    1    3    3  502    0 -0.80540690765E+03 -0.41109798609E+03  0.69896986491E+03  0.11429088823E+04  0.50400001928E-02 0.  1.
       -1    1    3    3    0  502  0.80540690765E+03  0.41109798609E+03  0.90731678209E+02  0.90879815059E+03  0.50400001928E-02 0. -1.
</event>
<event>
 5   0  0.1344119E-05  0.1899940E+04  0.7818609E-02  0.8654886E-01
        1   -1    0    0  501    0  0.00000000000E+00  0.00000000000E+00  0.14469596425E+04  0.14469596425E+04  0.50400001928E-02 0. -1.
       -1   -1    0    0    0  501  0.00000000000E+00  0.00000000000E+00 -0.62368219869E+03  0.62368219871E+03  0.50400001928E-02 0.  1.
    10030    2    1    2    0    0  0.00000000000E+00  0.00000000000E+00  0.82327744376E+03  0.20706418412E+04  0.18999399688E+04 0.  0.
        2    1    3    3  502    0  0.36528388305E+03 -0.68092843985E+03  0.10138682109E+04  0.12747645291E+04  0.25500000920E-02 0. -1.
       -2    1    3    3    0  502 -0.36528388305E+03  0.68092843985E+03 -0.19059076716E+03  0.79587731212E+03  0.25500000920E-02 0.  1.
</event>
<event>
 5   0  0.1413011E-05  0.1899900E+04  0.7818609E-02  0.8654906E-01
        1   -1    0    0  501    0  0.00000000000E+00  0.00000000000E+00  0.17114055665E+04  0.17114055665E+04  0.50400001928E-02 0.  1.
       -1   -1    0    0    0  501  0.00000000000E+00  0.00000000000E+00 -0.52728896607E+03  0.52728896610E+03  0.50400001928E-02 0. -1.
    10030    2    1    2    0    0  0.00000000000E+00  0.00000000000E+00  0.11841166004E+04  0.22386945326E+04  0.18999002834E+04 0.  0.
        1    1    3    3  502    0  0.35258982196E+03 -0.30119516448E+03  0.15689769968E+04  0.16360705749E+04  0.50400001928E-02 0.  1.
       -1    1    3    3    0  502 -0.35258982196E+03  0.30119516448E+03 -0.38486039636E+03  0.60262395768E+03  0.50400001928E-02 0. -1.
</event>
<event>
 5   0  0.1413011E-05  0.1892535E+04  0.7818609E-02  0.8658581E-01
        1   -1    0    0  501    0  0.00000000000E+00  0.00000000000E+00  0.91760842616E+03  0.91760842618E+03  0.50400001928E-02 0. -1.
       -1   -1    0    0    0  501  0.00000000000E+00  0.00000000000E+00 -0.97582212728E+03  0.97582212729E+03  0.50400001928E-02 0.  1.
    10030    2    1    2    0    0  0.00000000000E+00  0.00000000000E+00 -0.58213701116E+02  0.18934305535E+04  0.18925354490E+04 0.  0.
        1    1    3    3  502    0  0.41055374987E+03 -0.19909299958E+03  0.80027872252E+03  0.92121573899E+03  0.50400001928E-02 0. -1.
       -1    1    3    3    0  502 -0.41055374987E+03  0.19909299958E+03 -0.85849242364E+03  0.97221481448E+03  0.50400001928E-02 0.  1.
</event>
<event>
 5   0  0.2879462E-05  0.1908429E+04  0.7818609E-02  0.8650672E-01
       -2   -1    0    0    0  501  0.00000000000E+00  0.00000000000E+00  0.11353444177E+04  0.11353444177E+04  0.25500000920E-02 0.  1.
        2   -1    0    0  501    0  0.00000000000E+00  0.00000000000E+00 -0.80198141624E+03  0.80198141625E+03  0.25500000920E-02 0. -1.
    10030    2    1    2    0    0  0.00000000000E+00  0.00000000000E+00  0.33336300141E+03  0.19373258339E+04  0.19084288030E+04 0.  0.
        4    1    3    3  502    0  0.26345575898E+02  0.48930768784E+02  0.11336994126E+04  0.11350613554E+04  0.12699999809E+01 0.  1.
       -4    1    3    3    0  502 -0.26345575898E+02 -0.48930768784E+02 -0.80033641118E+03  0.80226447850E+03  0.12699999809E+01 0. -1.
</event>
<event>
 5   0  0.1429067E-05  0.1894501E+04  0.7818609E-02  0.8657598E-01
        1   -1    0    0  501    0  0.00000000000E+00  0.00000000000E+00  0.11697554990E+04  0.11697554990E+04  0.50400001928E-02 0. -1.
       -1   -1    0    0    0  501  0.00000000000E+00  0.00000000000E+00 -0.76706949592E+03  0.76706949594E+03  0.50400001928E-02 0.  1.
    10030    2    1    2    0    0  0.00000000000E+00  0.00000000000E+00  0.40268600310E+03  0.19368249950E+04  0.18945012652E+04 0.  0.
        3    1    3    3  502    0  0.47545815230E+03  0.78097764859E+03 -0.51770802195E+02  0.91578751266E+03  0.10100000352E+00 0.  1.
       -3    1    3    3    0  502 -0.47545815230E+03 -0.78097764859E+03  0.45445680529E+03  0.10210374823E+04  0.10100000352E+00 0. -1.
</event>
<event>
 5   0  0.1413011E-05  0.1917959E+04  0.7818609E-02  0.8645969E-01
       -1   -1    0    0    0  501  0.00000000000E+00  0.00000000000E+00  0.75159394737E+03  0.75159394738E+03  0.50400001928E-02 0.  1.
        1   -1    0    0  501    0  0.00000000000E+00  0.00000000000E+00 -0.12235880189E+04  0.12235880189E+04  0.50400001928E-02 0. -1.
    10030    2    1    2    0    0  0.00000000000E+00  0.00000000000E+00 -0.47199407150E+03  0.19751819663E+04  0.19179586534E+04 0.  0.
        1    1    3    3  502    0 -0.68960398555E+03 -0.17454630010E+03 -0.89831923088E+03  0.11458610336E+04  0.50400001928E-02 0. -1.
       -1    1    3    3    0  502  0.68960398555E+03  0.17454630010E+03  0.42632515938E+03  0.82932093264E+03  0.50400001928E-02 0.  1.
</event>
<event>
 5   0  0.1413011E-05  0.1898195E+04  0.7818609E-02  0.8655755E-01
        1   -1    0    0  501    0  0.00000000000E+00  0.00000000000E+00  0.15504310874E+04  0.15504310874E+04  0.50400001928E-02 0. -1.
       -1   -1    0    0    0  501  0.00000000000E+00  0.00000000000E+00 -0.58099098618E+03  0.58099098620E+03  0.50400001928E-02 0.  1.
    10030    2    1    2    0    0  0.00000000000E+00  0.00000000000E+00  0.96944010125E+03  0.21314220736E+04  0.18981954446E+04 0.  0.
        1    1    3    3  502    0 -0.70073757943E+03  0.63035436693E+03  0.35964901913E+03  0.10088246627E+04  0.50400001928E-02 0. -1.
       -1    1    3    3    0  502  0.70073757943E+03 -0.63035436693E+03  0.60979108212E+03  0.11225974109E+04  0.50400001928E-02 0.  1.
</event>
<event>
 5   0  0.2879462E-05  0.1909832E+04  0.7818609E-02  0.8649978E-01
       -2   -1    0    0    0  501  0.00000000000E+00  0.00000000000E+00  0.64688481389E+03  0.64688481389E+03  0.25500000920E-02 0.  1.
        2   -1    0    0  501    0  0.00000000000E+00  0.00000000000E+00 -0.14096239828E+04  0.14096239828E+04  0.25500000920E-02 0. -1.
    10030    2    1    2    0    0  0.00000000000E+00  0.00000000000E+00 -0.76273916891E+03  0.20565087967E+04  0.19098317704E+04 0.  0.
        4    1    3    3  502    0 -0.29949915105E+03 -0.76418095355E+03 -0.90689974167E+03  0.12231684371E+04  0.12699999809E+01 0. -1.
       -4    1    3    3    0  502  0.29949915105E+03  0.76418095355E+03  0.14416057276E+03  0.83334035957E+03  0.12699999809E+01 0.  1.
</event>
<event>
 5   0  0.2888776E-05  0.1898292E+04  0.7818609E-02  0.8655707E-01
       -2   -1    0    0    0  501  0.00000000000E+00  0.00000000000E+00  0.39514849660E+03  0.39514849660E+03  0.25500000920E-02 0.  1.
        2   -1    0    0  501    0  0.00000000000E+00  0.00000000000E+00 -0.22798480441E+04  0.22798480441E+04  0.25500000920E-02 0. -1.
    10030    2    1    2    0    0  0.00000000000E+00  0.00000000000E+00 -0.18846995475E+04  0.26749965407E+04  0.18982924191E+04 0.  0.
        3    1    3    3  502    0  0.44011999878E+03  0.47861155736E+03  0.32014262496E+02  0.65099889352E+03  0.10100000352E+00 0.  1.
       -3    1    3    3    0  502 -0.44011999878E+03 -0.47861155736E+03 -0.19167138100E+04  0.20239976472E+04  0.10100000352E+00 0. -1.
</event>
<event>
 5   0  0.2789718E-05  0.1900529E+04  0.7818609E-02  0.8654593E-01
       -2   -1    0    0    0  501  0.00000000000E+00  0.00000000000E+00  0.79178906200E+03  0.79178906201E+03  0.25500000920E-02 0.  1.
        2   -1    0    0  501    0  0.00000000000E+00  0.00000000000E+00 -0.11404586701E+04  0.11404586701E+04  0.25500000920E-02 0. -1.
    10030    2    1    2    0    0  0.00000000000E+00  0.00000000000E+00 -0.34866960809E+03  0.19322477321E+04  0.19005290849E+04 0.  0.
        5    1    3    3  502    0 -0.26913931100E+03  0.60416058288E+03 -0.86802296613E+03  0.10912982811E+04  0.46999998093E+01 0. -1.
       -5    1    3    3    0  502  0.26913931100E+03 -0.60416058288E+03  0.51935335803E+03  0.84094945099E+03  0.46999998093E+01 0.  1.
</event>
<event>
 5   0  0.2888776E-05  0.1901148E+04  0.7818609E-02  0.8654285E-01
        2   -1    0    0  501    0  0.00000000000E+00  0.00000000000E+00  0.12514553873E+04  0.12514553873E+04  0.25500000920E-02 0.  1.
       -2   -1    0    0    0  501  0.00000000000E+00  0.00000000000E+00 -0.72203208534E+03  0.72203208534E+03  0.25500000920E-02 0. -1.
    10030    2    1    2    0    0  0.00000000000E+00  0.00000000000E+00  0.52942330200E+03  0.19734874727E+04  0.19011480143E+04 0.  0.
        3    1    3    3  502    0 -0.89986510229E+03 -0.31651349425E+02  0.58098829084E+03  0.10715906002E+04  0.10100000352E+00 0.  1.
       -3    1    3    3    0  502  0.89986510229E+03  0.31651349425E+02 -0.51564988847E+02  0.90189687243E+03  0.10100000352E+00 0. -1.
</event>
<event>
 5   0  0.1327254E-05  0.1900764E+04  0.7818609E-02  0.8654476E-01
       -1   -1    0    0    0  501  0.00000000000E+00  0.00000000000E+00  0.16272369676E+04  0.16272369676E+04  0.50400001928E-02 0.  1.
        1   -1    0    0  501    0  0.00000000000E+00  0.00000000000E+00 -0.55506717674E+03  0.55506717677E+03  0.50400001928E-02 0. -1.
    10030    2    1    2    0    0  0.00000000000E+00  0.00000000000E+00  0.10721697908E+04  0.21823041444E+04  0.19007638775E+04 0.  0.
        5    1    3    3  502    0  0.88030542454E+03 -0.23509326805E+03  0.84628387881E+03  0.12435533678E+04  0.46999998093E+01 0.  1.
       -5    1    3    3    0  502 -0.88030542454E+03  0.23509326805E+03  0.22588591203E+03  0.93875077651E+03  0.46999998093E+01 0. -1.
</event>
<event>
 5   0  0.2789718E-05  0.1898509E+04  0.7818609E-02  0.8655599E-01
       -2   -1    0    0    0  501  0.00000000000E+00  0.00000000000E+00  0.60165050858E+03  0.60165050858E+03  0.25500000920E-02 0.  1.
        2   -1    0    0  501    0  0.00000000000E+00  0.00000000000E+00 -0.14976870112E+04  0.14976870112E+04  0.25500000920E-02 0. -1.
    10030    2    1    2    0    0  0.00000000000E+00  0.00000000000E+00 -0.89603650262E+03  0.20993375198E+04  0.18985090487E+04 0.  0.
        5    1    3    3  502    0 -0.54946490863E+03 -0.66498129462E+02 -0.13007823847E+04  0.14136444353E+04  0.46999998093E+01 0. -1.
       -5    1    3    3    0  502  0.54946490863E+03  0.66498129462E+02  0.40474588211E+03  0.68569308449E+03  0.46999998093E+01 0.  1.
</event>
<event>
 5   0  0.2813537E-05  0.1898953E+04  0.7818609E-02  0.8655378E-01
        2   -1    0    0  501    0  0.00000000000E+00  0.00000000000E+00  0.17854194081E+04  0.17854194081E+04  0.25500000920E-02 0. -1.
       -2   -1    0    0    0  501  0.00000000000E+00  0.00000000000E+00 -0.50492667719E+03  0.50492667720E+03  0.25500000920E-02 0.  1.
    10030    2    1    2    0    0  0.00000000000E+00  0.00000000000E+00  0.12804927309E+04  0.22903460853E+04  0.18989532792E+04 0.  0.
        2    1    3    3  502    0  0.60809183968E+03  0.62686867120E+03  0.19095490124E+03  0.89398198569E+03  0.25500000920E-02 0.  1.
       -2    1    3    3    0  502 -0.60809183968E+03 -0.62686867120E+03  0.10895378297E+04  0.13963640996E+04  0.25500000920E-02 0. -1.
</event>
<event>
 5   0  0.2789718E-05  0.1897782E+04  0.7818609E-02  0.8655961E-01
       -2   -1    0    0    0  501  0.00000000000E+00  0.00000000000E+00  0.43728280243E+03  0.43728280244E+03  0.25500000920E-02 0.  1.
        2   -1    0    0  501    0  0.00000000000E+00  0.00000000000E+00 -0.20590649802E+04  0.20590649802E+04  0.25500000920E-02 0. -1.
    10030    2    1    2    0    0  0.00000000000E+00  0.00000000000E+00 -0.16217821778E+04  0.24963477826E+04  0.18977815522E+04 0.  0.
        5    1    3    3  502    0  0.34525433316E+03  0.10628877809E+03 -0.19650580195E+04  0.19979922344E+04  0.46999998093E+01 0. -1.
       -5    1    3    3    0  502 -0.34525433316E+03 -0.10628877809E+03  0.34327584172E+03  0.49835554820E+03  0.46999998093E+01 0.  1.
</event>
<event>
 5   0  0.1413011E-05  0.1900883E+04  0.7818609E-02  0.8654417E-01
        1   -1    0    0  501    0  0.00000000000E+00  0.00000000000E+00  0.21266106971E+04  0.21266106971E+04  0.50400001928E-02 0. -1.
       -1   -1    0    0    0  501  0.00000000000E+00  0.00000000000E+00 -0.42477880365E+03  0.42477880368E+03  0.50400001928E-02 0.  1.
    10030    2    1    2    0    0  0.00000000000E+00  0.00000000000E+00  0.17018318934E+04  0.25513895008E+04  0.19008831082E+04 0.  0.
        1    1    3    3  502    0 -0.92031055151E+03  0.20876368928E+03  0.10026831073E+04  0.13769267238E+04  0.50400001928E-02 0.  1.
       -1    1    3    3    0  502  0.92031055151E+03 -0.20876368928E+03  0.69914878617E+03  0.11744627769E+04  0.50400001928E-02 0. -1.
</event>
<event>
 5   0  0.2813537E-05  0.1902320E+04  0.7818609E-02  0.8653702E-01
        2   -1    0    0  501    0  0.00000000000E+00  0.00000000000E+00  0.12663030325E+04  0.12663030325E+04  0.25500000920E-02 0.  1.
       -2   -1    0    0    0  501  0.00000000000E+00  0.00000000000E+00 -0.71444632401E+03  0.71444632402E+03  0.25500000920E-02 0. -1.
    10030    2    1    2    0    0  0.00000000000E+00  0.00000000000E+00  0.55185670849E+03  0.19807493565E+04  0.19023202114E+04 0.  0.
        2    1    3    3  502    0 -0.81931901326E+03 -0.39434893528E+02  0.77730624216E+03  0.11300636046E+04  0.25500000920E-02 0.  1.
       -2    1    3    3    0  502  0.81931901326E+03  0.39434893528E+02 -0.22544953367E+03  0.85068575194E+03  0.25500000920E-02 0. -1.
</event>
<event>
 5   0  0.1327254E-05  0.1895465E+04  0.7818609E-02  0.8657117E-01
        1   -1    0    0  501    0  0.00000000000E+00  0.00000000000E+00  0.21354231119E+04  0.21354231119E+04  0.50400001928E-02 0.  1.
       -1   -1    0    0    0  501  0.00000000000E+00  0.00000000000E+00 -0.42061781386E+03  0.42061781389E+03  0.50400001928E-02 0. -1.
    10030    2    1    2    0    0  0.00000000000E+00  0.00000000000E+00  0.17148052981E+04  0.25560409258E+04  0.18954651155E+04 0.  0.
        5    1    3    3  502    0  0.22090307052E+03 -0.20689737611E+03 -0.35367809447E+03  0.46552655705E+03  0.46999998093E+01 0. -1.
       -5    1    3    3    0  502 -0.22090307052E+03  0.20689737611E+03  0.20684833925E+04  0.20905143688E+04  0.46999998093E+01 0.  1.
</event>
<event>
 5   0  0.1429067E-05  0.1905566E+04  0.7818609E-02  0.8652091E-01
        1   -1    0    0  501    0  0.00000000000E+00  0.00000000000E+00  0.16725197925E+04  0.16725197925E+04  0.50400001928E-02 0.  1.
       -1   -1    0    0    0  501  0.00000000000E+00  0.00000000000E+00 -0.54277130170E+03  0.54277130173E+03  0.50400001928E-02 0. -1.
    10030    2    1    2    0    0  0.00000000000E+00  0.00000000000E+00  0.11297484908E+04  0.22152910942E+04  0.19055663147E+04 0.  0.
        3    1    3    3  502    0 -0.13338418383E+01  0.19943806468E+03  0.16479808490E+04  0.16600054848E+04  0.10100000352E+00 0.  1.
       -3    1    3    3    0  502  0.13338418383E+01 -0.19943806468E+03 -0.51823235818E+03  0.55528560943E+03  0.10100000352E+00 0. -1.
</event>
<event>
 5   0  0.2879462E-05  0.1899469E+04  0.7818609E-02  0.8655121E-01
       -2   -1    0    0    0  501  0.00000000000E+00  0.00000000000E+00  0.76038566070E+03  0.76038566071E+03  0.25500000920E-02 0. -1.
        2   -1    0    0  501    0  0.00000000000E+00  0.00000000000E+00 -0.11862340075E+04  0.11862340075E+04  0.25500000920E-02 0.  1.
    10030    2    1    2    0    0  0.00000000000E+00  0.00000000000E+00 -0.42584834681E+03  0.19466196682E+04  0.18994686937E+04 0.  0.
        4    1    3    3  502    0 -0.47120692266E+03  0.69650901167E+03 -0.66527998001E+03  0.10722685447E+04  0.12699999809E+01 0.  1.
       -4    1    3    3    0  502  0.47120692266E+03 -0.69650901167E+03  0.23943163320E+03  0.87435112350E+03  0.12699999809E+01 0. -1.
</event>
<event>
 5   0  0.1327254E-05  0.1900227E+04  0.7818609E-02  0.8654744E-01
       -1   -1    0    0    0  501  0.00000000000E+00  0.00000000000E+00  0.98430728833E+03  0.98430728835E+03  0.50400001928E-02 0.  1.
        1   -1    0    0  501    0  0.00000000000E+00  0.00000000000E+00 -0.91710723136E+03  0.91710723137E+03  0.50400001928E-02 0. -1.
    10030    2    1    2    0    0  0.00000000000E+00  0.00000000000E+00  0.67200056974E+02  0.19014145197E+04  0.19002266518E+04 0.  0.
        5    1    3    3  502    0 -0.36645432992E+03 -0.45397320402E+03 -0.71674391985E+03  0.92418849946E+03  0.46999998093E+01 0. -1.
       -5    1    3    3    0  502  0.36645432992E+03  0.45397320402E+03  0.78394397682E+03  0.97722602026E+03  0.46999998093E+01 0.  1.
</event>
<event>
 5   0  0.1413011E-05  0.1902876E+04  0.7818609E-02  0.8653426E-01
        1   -1    0    0  501    0  0.00000000000E+00  0.00000000000E+00  0.15019317989E+04  0.15019317989E+04  0.50400001928E-02 0. -1.
       -1   -1    0    0    0  501  0.00000000000E+00  0.00000000000E+00 -0.60271310574E+03  0.60271310576E+03  0.50400001928E-02 0.  1.
    10030    2    1    2    0    0  0.00000000000E+00  0.00000000000E+00  0.89921869313E+03  0.21046449046E+04  0.19028756965E+04 0.  0.
        1    1    3    3  502    0 -0.98689248009E+02  0.53612597789E+03 -0.41285832643E+03  0.68382938630E+03  0.50400001928E-02 0.  1.
       -1    1    3    3    0  502  0.98689248009E+02 -0.53612597789E+03  0.13120770196E+04  0.14208155183E+04  0.50400001928E-02 0. -1.
</event>
<event>
 5   0  0.1327254E-05  0.1896196E+04  0.7818609E-02  0.8656752E-01
        1   -1    0    0  501    0  0.00000000000E+00  0.00000000000E+00  0.62325419149E+03  0.62325419151E+03  0.50400001928E-02 0. -1.
       -1   -1    0    0    0  501  0.00000000000E+00  0.00000000000E+00 -0.14422527755E+04  0.14422527755E+04  0.50400001928E-02 0.  1.
    10030    2    1    2    0    0  0.00000000000E+00  0.00000000000E+00 -0.81899858397E+03  0.20655069670E+04  0.18961962847E+04 0.  0.
        5    1    3    3  502    0  0.89646716333E+03 -0.13956902122E+03 -0.10972664291E+03  0.91388998943E+03  0.46999998093E+01 0.  1.
       -5    1    3    3    0  502 -0.89646716333E+03  0.13956902122E+03 -0.70927194106E+03  0.11516169776E+04  0.46999998093E+01 0. -1.
</event>
<event>
 5   0  0.2789718E-05  0.1901072E+04  0.7818609E-02  0.8654323E-01
        2   -1    0    0  501    0  0.00000000000E+00  0.00000000000E+00  0.17299101541E+04  0.17299101541E+04  0.25500000920E-02 0.  1.
       -2   -1    0    0    0  501  0.00000000000E+00  0.00000000000E+00 -0.52229228835E+03  0.52229228836E+03  0.25500000920E-02 0. -1.
    10030    2    1    2    0    0  0.00000000000E+00  0.00000000000E+00  0.12076178658E+04  0.22522024425E+04  0.19010720481E+04 0.  0.
        5    1    3    3  502    0 -0.77974296023E+03  0.52373473788E+03  0.77630193754E+03  0.12185909683E+04  0.46999998093E+01 0.  1.
       -5    1    3    3    0  502  0.77974296023E+03 -0.52373473788E+03  0.43131592822E+03  0.10336114742E+04  0.46999998093E+01 0. -1.
</event>
<event>
 5   0  0.1413011E-05  0.1901417E+04  0.7818609E-02  0.8654152E-01
       -1   -1    0    0    0  501  0.00000000000E+00  0.00000000000E+00  0.50381886998E+03  0.50381887001E+03  0.50400001928E-02 0. -1.
        1   -1    0    0  501    0  0.00000000000E+00  0.00000000000E+00 -0.17939907544E+04  0.17939907544E+04  0.50400001928E-02 0.  1.
    10030    2    1    2    0    0  0.00000000000E+00  0.00000000000E+00 -0.12901718844E+04  0.22978096244E+04  0.19014167294E+04 0.  0.
        1    1    3    3  502    0 -0.70076421862E+03  0.29775088250E+03  0.42916311173E+02  0.76260598471E+03  0.50400001928E-02 0. -1.
       -1    1    3    3    0  502  0.70076421862E+03 -0.29775088250E+03 -0.13330881956E+04  0.15352036397E+04  0.50400001928E-02 0.  1.
</event>
<event>
 5   0  0.1010725E-05  0.1902665E+04  0.7818609E-02  0.8653531E-01
       -3   -1    0    0    0  501  0.00000000000E+00  0.00000000000E+00  0.69389260888E+03  0.69389261623E+03  0.10100000352E+00 0.  1.
        3   -1    0    0  501    0  0.00000000000E+00  0.00000000000E+00 -0.13042853691E+04  0.13042853731E+04  0.10100000352E+00 0. -1.
    10030    2    1    2    0    0  0.00000000000E+00  0.00000000000E+00 -0.61039276027E+03  0.19981779893E+04  0.19026654869E+04 0.  0.
        1    1    3    3  502    0 -0.25963527295E+03  0.59802475233E+03  0.42239540001E+03  0.77682813630E+03  0.50400001928E-02 0.  1.
       -1    1    3    3    0  502  0.25963527295E+03 -0.59802475233E+03 -0.10327881603E+04  0.12213498530E+04  0.50400001928E-02 0. -1.
</event>
<event>
 5   0  0.2789718E-05  0.1907864E+04  0.7818609E-02  0.8650952E-01
       -2   -1    0    0    0  501  0.00000000000E+00  0.00000000000E+00  0.95049139155E+03  0.95049139155E+03  0.25500000920E-02 0.  1.
        2   -1    0    0  501    0  0.00000000000E+00  0.00000000000E+00 -0.95738470370E+03  0.95738470370E+03  0.25500000920E-02 0. -1.
    10030    2    1    2    0    0  0.00000000000E+00  0.00000000000E+00 -0.68933121453E+01  0.19078760953E+04  0.19078636422E+04 0.  0.
        5    1    3    3  502    0 -0.34166385914E+03  0.27987910609E+03 -0.84896818463E+03  0.95699298596E+03  0.46999998093E+01 0. -1.
       -5    1    3    3    0  502  0.34166385914E+03 -0.27987910609E+03  0.84207487249E+03  0.95088310929E+03  0.46999998093E+01 0.  1.
</event>
<event>
 5   0  0.1327254E-05  0.1901121E+04  0.7818609E-02  0.8654298E-01
        1   -1    0    0  501    0  0.00000000000E+00  0.00000000000E+00  0.13295896509E+04  0.13295896510E+04  0.50400001928E-02 0.  1.
       -1   -1    0    0    0  501  0.00000000000E+00  0.00000000000E+00 -0.67958240497E+03  0.67958240499E+03  0.50400001928E-02 0. -1.
    10030    2    1    2    0    0  0.00000000000E+00  0.00000000000E+00  0.65000724598E+03  0.20091720559E+04  0.19011214929E+04 0.  0.
        5    1    3    3  502    0 -0.57532229386E+03 -0.73068746090E+02 -0.47093349874E+03  0.74708448900E+03  0.46999998093E+01 0. -1.
       -5    1    3    3    0  502  0.57532229386E+03  0.73068746090E+02  0.11209407447E+04  0.12620875669E+04  0.46999998093E+01 0.  1.
</event>
<event>
 5   0  0.2879462E-05  0.1895018E+04  0.7818609E-02  0.8657340E-01
        2   -1    0    0  501    0  0.00000000000E+00  0.00000000000E+00  0.71095398087E+03  0.71095398088E+03  0.25500000920E-02 0.  1.
       -2   -1    0    0    0  501  0.00000000000E+00  0.00000000000E+00 -0.12627725011E+04  0.12627725011E+04  0.25500000920E-02 0. -1.
    10030    2    1    2    0    0  0.00000000000E+00  0.00000000000E+00 -0.55181852023E+03  0.19737264820E+04  0.18950178222E+04 0.  0.
        4    1    3    3  502    0 -0.22217234547E+03 -0.37971566108E+03 -0.11499466312E+04  0.12312284117E+04  0.12699999809E+01 0. -1.
       -4    1    3    3    0  502  0.22217234547E+03  0.37971566108E+03  0.59812811094E+03  0.74249807027E+03  0.12699999809E+01 0.  1.
</event>
<event>
 5   0  0.1471485E-05  0.1901531E+04  0.7818609E-02  0.8654095E-01
       -1   -1    0    0    0  501  0.00000000000E+00  0.00000000000E+00  0.15905609320E+04  0.15905609320E+04  0.50400001928E-02 0.  1.
        1   -1    0    0  501    0  0.00000000000E+00  0.00000000000E+00 -0.56832486188E+03  0.56832486190E+03  0.50400001928E-02 0. -1.
    10030    2    1    2    0    0  0.00000000000E+00  0.00000000000E+00  0.10222360701E+04  0.21588857939E+04  0.19015313009E+04 0.  0.
        4    1    3    3  502    0  0.18174835263E+03  0.24473170168E+03 -0.51133652797E+03  0.59530893427E+03  0.12699999809E+01 0. -1.
       -4    1    3    3    0  502 -0.18174835263E+03 -0.24473170168E+03  0.15335725981E+04  0.15635768597E+04  0.12699999809E+01 0.  1.
</event>
<event>
 5   0  0.1344119E-05  0.1901648E+04  0.7818609E-02  0.8654036E-01
       -1   -1    0    0    0  501  0.00000000000E+00  0.00000000000E+00  0.50748483028E+03  0.50748483031E+03  0.50400001928E-02 0. -1.
        1   -1    0    0  501    0  0.00000000000E+00  0.00000000000E+00 -0.17814652837E+04  0.17814652837E+04  0.50400001928E-02 0.  1.
    10030    2    1    2    0    0  0.00000000000E+00  0.00000000000E+00 -0.12739804534E+04  0.22889501140E+04  0.19016483452E+04 0.  0.
        2    1    3    3  502    0  0.55597143279E+03 -0.44027324144E+03  0.12534199297E+03  0.72017732289E+03  0.25500000920E-02 0. -1.
       -2    1    3    3    0  502 -0.55597143279E+03  0.44027324144E+03 -0.13993224464E+04  0.15687727911E+04  0.25500000920E-02 0.  1.
</event>
<event>
 5   0  0.1429067E-05  0.1904598E+04  0.7818609E-02  0.8652571E-01
        1   -1    0    0  501    0  0.00000000000E+00  0.00000000000E+00  0.10755177237E+04  0.10755177237E+04  0.50400001928E-02 0.  1.
       -1   -1    0    0    0  501  0.00000000000E+00  0.00000000000E+00 -0.84319675176E+03  0.84319675177E+03  0.50400001928E-02 0. -1.
    10030    2    1    2    0    0  0.00000000000E+00  0.00000000000E+00  0.23232097196E+03  0.19187144755E+04  0.19045976490E+04 0.  0.
        3    1    3    3  502    0 -0.13604336505E+03 -0.86587124136E+03 -0.25893274249E+03  0.91394035862E+03  0.10100000352E+00 0. -1.
       -3    1    3    3    0  502  0.13604336505E+03  0.86587124136E+03  0.49125371445E+03  0.10047741169E+04  0.10100000352E+00 0.  1.
</event>
<event>
 5   0  0.2888776E-05  0.1908242E+04  0.7818609E-02  0.8650764E-01
        2   -1    0    0  501    0  0.00000000000E+00  0.00000000000E+00  0.98022840060E+03  0.98022840061E+03  0.25500000920E-02 0. -1.
       -2   -1    0    0    0  501  0.00000000000E+00  0.00000000000E+00 -0.92870940567E+03  0.92870940568E+03  0.25500000920E-02 0.  1.
    10030    2    1    2    0    0  0.00000000000E+00  0.00000000000E+00  0.51518994930E+02  0.19089378063E+04  0.19082424745E+04 0.  0.
        3    1    3    3  502    0  0.58108650169E+03 -0.71182065907E+03  0.28275221588E+03  0.96140470090E+03  0.10100000352E+00 0.  1.
       -3    1    3    3    0  502 -0.58108650169E+03  0.71182065907E+03 -0.23123322096E+03  0.94753310538E+03  0.10100000352E+00 0. -1.
</event>
<event>
 5   0  0.1344119E-05  0.1900725E+04  0.7818609E-02  0.8654496E-01
        1   -1    0    0  501    0  0.00000000000E+00  0.00000000000E+00  0.86339578776E+03  0.86339578777E+03  0.50400001928E-02 0. -1.
       -1   -1    0    0    0  501  0.00000000000E+00  0.00000000000E+00 -0.10460888390E+04  0.10460888391E+04  0.50400001928E-02 0.  1.
    10030    2    1    2    0    0  0.00000000000E+00  0.00000000000E+00 -0.18269305128E+03  0.19094846268E+04  0.19007248063E+04 0.  0.
        2    1    3    3  502    0 -0.97427780400E+02 -0.64305950808E+02  0.85616577461E+03  0.86408753106E+03  0.25500000920E-02 0. -1.
       -2    1    3    3    0  502  0.97427780400E+02  0.64305950808E+02 -0.10388588259E+04  0.10453970958E+04  0.25500000920E-02 0.  1.
</event>
<event>
 5   0  0.1344119E-05  0.1899879E+04  0.7818609E-02  0.8654916E-01
       -1   -1    0    0    0  501  0.00000000000E+00  0.00000000000E+00  0.14653531830E+04  0.14653531830E+04  0.50400001928E-02 0. -1.
        1   -1    0    0  501    0  0.00000000000E+00  0.00000000000E+00 -0.61581423327E+03  0.61581423329E+03  0.50400001928E-02 0.  1.
    10030    2    1    2    0    0  0.00000000000E+00  0.00000000000E+00  0.84953894976E+03  0.20811674163E+04  0.18998793087E+04 0.  0.
        2    1    3    3  502    0  0.26906016823E+03  0.62859081590E+03  0.11471374955E+04  0.13354565592E+04  0.25500000920E-02 0. -1.
       -2    1    3    3    0  502 -0.26906016823E+03 -0.62859081590E+03 -0.29759854576E+03  0.74571085710E+03  0.25500000920E-02 0.  1.
</event>
<event>
 5   0  0.2789718E-05  0.1899632E+04  0.7818609E-02  0.8655039E-01
        2   -1    0    0  501    0  0.00000000000E+00  0.00000000000E+00  0.17142606148E+04  0.17142606148E+04  0.25500000920E-02 0.  1.
       -2   -1    0    0    0  501  0.00000000000E+00  0.00000000000E+00 -0.52626228199E+03  0.52626228200E+03  0.25500000920E-02 0. -1.
    10030    2    1    2    0    0  0.00000000000E+00  0.00000000000E+00  0.11879983328E+04  0.22405228968E+04  0.18996322835E+04 0.  0.
        5    1    3    3  502    0  0.85180475997E+03  0.26082162691E+03  0.20544333453E+03  0.91423647043E+03  0.46999998093E+01 0. -1.
       -5    1    3    3    0  502 -0.85180475997E+03 -0.26082162691E+03  0.98255499831E+03  0.13262864264E+04  0.46999998093E+01 0.  1.
</event>
<event>
 5   0  0.2879462E-05  0.1898220E+04  0.7818609E-02  0.8655743E-01
       -2   -1    0    0    0  501  0.00000000000E+00  0.00000000000E+00  0.84950142116E+03  0.84950142116E+03  0.25500000920E-02 0.  1.
        2   -1    0    0  501    0  0.00000000000E+00  0.00000000000E+00 -0.10603979285E+04  0.10603979285E+04  0.25500000920E-02 0. -1.
    10030    2    1    2    0    0  0.00000000000E+00  0.00000000000E+00 -0.21089650730E+03  0.19098993496E+04  0.18982197420E+04 0.  0.
        4    1    3    3  502    0  0.18834228780E+03 -0.81687912275E+03  0.34231084369E+03  0.90550684435E+03  0.12699999809E+01 0.  1.
       -4    1    3    3    0  502 -0.18834228780E+03  0.81687912275E+03 -0.55320735098E+03  0.10043925053E+04  0.12699999809E+01 0. -1.
</event>
<event>
 5   0  0.1344119E-05  0.1896820E+04  0.7818609E-02  0.8656441E-01
        1   -1    0    0  501    0  0.00000000000E+00  0.00000000000E+00  0.16747204535E+04  0.16747204535E+04  0.50400001928E-02 0. -1.
       -1   -1    0    0    0  501  0.00000000000E+00  0.00000000000E+00 -0.53709376597E+03  0.53709376600E+03  0.50400001928E-02 0.  1.
    10030    2    1    2    0    0  0.00000000000E+00  0.00000000000E+00  0.11376266875E+04  0.22118142195E+04  0.18968204083E+04 0.  0.
        2    1    3    3  502    0  0.76390469021E+02  0.72857390584E+02  0.16678485482E+04  0.16711859510E+04  0.25500000920E-02 0. -1.
       -2    1    3    3    0  502 -0.76390469021E+02 -0.72857390584E+02 -0.53022186069E+03  0.54062826848E+03  0.25500000920E-02 0.  1.
</event>
<event>
 5   0  0.1429067E-05  0.1901748E+04  0.7818609E-02  0.8653987E-01
        1   -1    0    0  501    0  0.00000000000E+00  0.00000000000E+00  0.74212535797E+03  0.74212535799E+03  0.50400001928E-02 0.  1.
       -1   -1    0    0    0  501  0.00000000000E+00  0.00000000000E+00 -0.12183402613E+04  0.12183402613E+04  0.50400001928E-02 0. -1.
    10030    2    1    2    0    0  0.00000000000E+00  0.00000000000E+00 -0.47621490329E+03  0.19604656193E+04  0.19017478303E+04 0.  0.
        3    1    3    3  502    0  0.95252784007E+02  0.31097049329E+03 -0.11592198082E+04  0.12039793663E+04  0.10100000352E+00 0. -1.
       -3    1    3    3    0  502 -0.95252784007E+02 -0.31097049329E+03  0.68300490492E+03  0.75648625295E+03  0.10100000352E+00 0.  1.
</event>
<event>
 5   0  0.1327254E-05  0.1901088E+04  0.7818609E-02  0.8654315E-01
       -1   -1    0    0    0  501  0.00000000000E+00  0.00000000000E+00  0.95874434543E+03  0.95874434544E+03  0.50400001928E-02 0. -1.
        1   -1    0    0  501    0  0.00000000000E+00  0.00000000000E+00 -0.94241409414E+03  0.94241409416E+03  0.50400001928E-02 0.  1.
    10030    2    1    2    0    0  0.00000000000E+00  0.00000000000E+00  0.16330251282E+02  0.19011584396E+04  0.19010883029E+04 0.  0.
        5    1    3    3  502    0  0.20716907041E+03  0.70617477606E+03  0.60977709371E+03  0.95574684518E+03  0.46999998093E+01 0. -1.
       -5    1    3    3    0  502 -0.20716907041E+03 -0.70617477606E+03 -0.59344684242E+03  0.94541159441E+03  0.46999998093E+01 0.  1.
</event>
<event>
 5   0  0.2813537E-05  0.1901027E+04  0.7818609E-02  0.8654345E-01
       -2   -1    0    0    0  501  0.00000000000E+00  0.00000000000E+00  0.60254995369E+03  0.60254995370E+03  0.25500000920E-02 0.  1.
        2   -1    0    0  501    0  0.00000000000E+00  0.00000000000E+00 -0.14994203495E+04  0.14994203495E+04  0.25500000920E-02 0. -1.
    10030    2    1    2    0    0  0.00000000000E+00  0.00000000000E+00 -0.89687039576E+03  0.21019703032E+04  0.19010267354E+04 0.  0.
        2    1    3    3  502    0  0.64195210537E+03 -0.20862340913E+02  0.32629706154E+03  0.72042176204E+03  0.25500000920E-02 0.  1.
       -2    1    3    3    0  502 -0.64195210537E+03  0.20862340913E+02 -0.12231674573E+04  0.13815485411E+04  0.25500000920E-02 0. -1.
</event>
<event>
 5   0  0.1413011E-05  0.1902178E+04  0.7818609E-02  0.8653773E-01
        1   -1    0    0  501    0  0.00000000000E+00  0.00000000000E+00  0.85227256783E+03  0.85227256784E+03  0.50400001928E-02 0.  1.
       -1   -1    0    0    0  501  0.00000000000E+00  0.00000000000E+00 -0.10613626540E+04  0.10613626540E+04  0.50400001928E-02 0. -1.
    10030    2    1    2    0    0  0.00000000000E+00  0.00000000000E+00 -0.20909008614E+03  0.19136352218E+04  0.19021779880E+04 0.  0.
        1    1    3    3  502    0 -0.78348028439E+03  0.19183280982E+02  0.43755205970E+03  0.89758629628E+03  0.50400001928E-02 0.  1.
       -1    1    3    3    0  502  0.78348028439E+03 -0.19183280982E+02 -0.64664214583E+03  0.10160489255E+04  0.50400001928E-02 0. -1.
</event>
<event>
 5   0  0.2789718E-05  0.1905005E+04  0.7818609E-02  0.8652369E-01
        2   -1    0    0  501    0  0.00000000000E+00  0.00000000000E+00  0.14572144407E+04  0.14572144408E+04  0.25500000920E-02 0. -1.
       -2   -1    0    0    0  501  0.00000000000E+00  0.00000000000E+00 -0.62259929716E+03  0.62259929717E+03  0.25500000920E-02 0.  1.
    10030    2    1    2    0    0  0.00000000000E+00  0.00000000000E+00  0.83461514359E+03  0.20798137379E+04  0.19050046579E+04 0.  0.
        5    1    3    3  502    0 -0.46793105607E+03 -0.24966072155E+03  0.12810768499E+04  0.13865316205E+04  0.46999998093E+01 0. -1.
       -5    1    3    3    0  502  0.46793105607E+03  0.24966072155E+03 -0.44646170636E+03  0.69328211744E+03  0.46999998093E+01 0.  1.
</event>
<event>
 5   0  0.1429067E-05  0.1900383E+04  0.7818609E-02  0.8654666E-01
       -1   -1    0    0    0  501  0.00000000000E+00  0.00000000000E+00  0.75878238080E+03  0.75878238081E+03  0.50400001928E-02 0.  1.
        1   -1    0    0  501    0  0.00000000000E+00  0.00000000000E+00 -0.11898856438E+04  0.11898856438E+04  0.50400001928E-02 0. -1.
    10030    2    1    2    0    0  0.00000000000E+00  0.00000000000E+00 -0.43110326296E+03  0.19486680246E+04  0.19003833947E+04 0.  0.
        3    1    3    3  502    0 -0.53431134125E+03 -0.63490979450E+03 -0.69020049697E+03  0.10793404434E+04  0.10100000352E+00 0. -1.
       -3    1    3    3    0  502  0.53431134125E+03  0.63490979450E+03  0.25909723401E+03  0.86932758118E+03  0.10100000352E+00 0.  1.
</event>
<event>
 5   0  0.2813537E-05  0.1899137E+04  0.7818609E-02  0.8655286E-01
       -2   -1    0    0    0  501  0.00000000000E+00  0.00000000000E+00  0.18350719191E+04  0.18350719191E+04  0.25500000920E-02 0. -1.
        2   -1    0    0  501    0  0.00000000000E+00  0.00000000000E+00 -0.49135945266E+03  0.49135945266E+03  0.25500000920E-02 0.  1.
    10030    2    1    2    0    0  0.00000000000E+00  0.00000000000E+00  0.13437124664E+04  0.23264313717E+04  0.18991365762E+04 0.  0.
        2    1    3    3  502    0 -0.14736477205E+03  0.30697446586E+03  0.17577085946E+04  0.17903880033E+04  0.25500000920E-02 0. -1.
       -2    1    3    3    0  502  0.14736477205E+03 -0.30697446586E+03 -0.41399612817E+03  0.53604336847E+03  0.25500000920E-02 0.  1.
</event>
<event>
 5   0  0.2789718E-05  0.1899812E+04  0.7818609E-02  0.8654950E-01
        2   -1    0    0  501    0  0.00000000000E+00  0.00000000000E+00  0.11051393148E+04  0.11051393148E+04  0.25500000920E-02 0. -1.
       -2   -1    0    0    0  501  0.00000000000E+00  0.00000000000E+00 -0.81647772903E+03  0.81647772904E+03  0.25500000920E-02 0.  1.
    10030    2    1    2    0    0  0.00000000000E+00  0.00000000000E+00  0.28866158579E+03  0.19216170439E+04  0.18998122413E+04 0.  0.
        5    1    3    3  502    0  0.85379163223E+03 -0.33750775940E+03 -0.10224553785E+03  0.92376830370E+03  0.46999998093E+01 0.  1.
       -5    1    3    3    0  502 -0.85379163223E+03  0.33750775940E+03  0.39090712364E+03  0.99784874016E+03  0.46999998093E+01 0. -1.
</event>
<event>
 5   0  0.1413011E-05  0.1910787E+04  0.7818609E-02  0.8649505E-01
       -1   -1    0    0    0  501  0.00000000000E+00  0.00000000000E+00  0.58396630629E+03  0.58396630631E+03  0.50400001928E-02 0.  1.
        1   -1    0    0  501    0  0.00000000000E+00  0.00000000000E+00 -0.15630644748E+04  0.15630644748E+04  0.50400001928E-02 0. -1.
    10030    2    1    2    0    0  0.00000000000E+00  0.00000000000E+00 -0.97909816854E+03  0.21470307811E+04  0.19107872596E+04 0.  0.
        1    1    3    3  502    0 -0.80288845676E+03 -0.58785895854E+02  0.88541364300E+02  0.80989210933E+03  0.50400001928E-02 0.  1.
       -1    1    3    3    0  502  0.80288845676E+03  0.58785895854E+02 -0.10676395328E+04  0.13371386718E+04  0.50400001928E-02 0. -1.
</event>
<event>
 5   0  0.1471485E-05  0.1909435E+04  0.7818609E-02  0.8650174E-01
       -1   -1    0    0    0  501  0.00000000000E+00  0.00000000000E+00  0.16481422703E+04  0.16481422703E+04  0.50400001928E-02 0. -1.
        1   -1    0    0  501    0  0.00000000000E+00  0.00000000000E+00 -0.55303840967E+03  0.55303840969E+03  0.50400001928E-02 0.  1.
    10030    2    1    2    0    0  0.00000000000E+00  0.00000000000E+00  0.10951038607E+04  0.22011806800E+04  0.19094354979E+04 0.  0.
        4    1    3    3  502    0  0.82295797756E+03  0.31760803934E+03  0.96851758948E+03  0.13100239057E+04  0.12699999809E+01 0. -1.
       -4    1    3    3    0  502 -0.82295797756E+03 -0.31760803934E+03  0.12658627118E+03  0.89115677433E+03  0.12699999809E+01 0.  1.
</event>
<event>
 5   0  0.2888776E-05  0.1899535E+04  0.7818609E-02  0.8655088E-01
       -2   -1    0    0    0  501  0.00000000000E+00  0.00000000000E+00  0.58004902593E+03  0.58004902593E+03  0.25500000920E-02 0. -1.
        2   -1    0    0  501    0  0.00000000000E+00  0.00000000000E+00 -0.15551412730E+04  0.15551412730E+04  0.25500000920E-02 0.  1.
    10030    2    1    2    0    0  0.00000000000E+00  0.00000000000E+00 -0.97509224711E+03  0.21351902990E+04  0.18995348700E+04 0.  0.
        3    1    3    3  502    0  0.46606280467E+02 -0.62370788374E+03  0.31588089097E+03  0.70068853074E+03  0.10100000352E+00 0. -1.
       -3    1    3    3    0  502 -0.46606280467E+02  0.62370788374E+03 -0.12909731381E+04  0.14345017682E+04  0.10100000352E+00 0.  1.
</event>
<event>
 5   0  0.1327254E-05  0.1906377E+04  0.7818609E-02  0.8651689E-01
       -1   -1    0    0    0  501  0.00000000000E+00  0.00000000000E+00  0.57255410592E+03  0.57255410594E+03  0.50400001928E-02 0.  1.
        1   -1    0    0  501    0  0.00000000000E+00  0.00000000000E+00 -0.15868682754E+04  0.15868682754E+04  0.50400001928E-02 0. -1.
    10030    2    1    2    0    0  0.00000000000E+00  0.00000000000E+00 -0.10143141694E+04  0.21594223813E+04  0.19063766119E+04 0.  0.
        5    1    3    3  502    0 -0.21503405241E+03  0.67347634044E+03  0.21702912894E+03  0.73954969924E+03  0.46999998093E+01 0.  1.
       -5    1    3    3    0  502  0.21503405241E+03 -0.67347634044E+03 -0.12313432984E+04  0.14198726821E+04  0.46999998093E+01 0. -1.
</event>
<event>
 5   0  0.2855141E-05  0.1897724E+04  0.7818609E-02  0.8655990E-01
       -2   -1    0    0    0  501  0.00000000000E+00  0.00000000000E+00  0.47003362348E+03  0.47003362348E+03  0.25500000920E-02 0.  1.
        2   -1    0    0  501    0  0.00000000000E+00  0.00000000000E+00 -0.19154776814E+04  0.19154776815E+04  0.25500000920E-02 0. -1.
    10030    2    1    2    0    0  0.00000000000E+00  0.00000000000E+00 -0.14454440580E+04  0.23855113049E+04  0.18977238106E+04 0.  0.
        1    1    3    3  502    0 -0.89666974705E+02  0.74945889376E+03  0.58660472042E-01  0.75480381772E+03  0.50400001928E-02 0.  1.
       -1    1    3    3    0  502  0.89666974705E+02 -0.74945889376E+03 -0.14455027184E+04  0.16307074872E+04  0.50400001928E-02 0. -1.
</event>
<event>
 5   0  0.1413011E-05  0.1899668E+04  0.7818609E-02  0.8655022E-01
       -1   -1    0    0    0  501  0.00000000000E+00  0.00000000000E+00  0.83349363699E+03  0.83349363701E+03  0.50400001928E-02 0. -1.
        1   -1    0    0  501    0  0.00000000000E+00  0.00000000000E+00 -0.10824135016E+04  0.10824135016E+04  0.50400001928E-02 0.  1.
    10030    2    1    2    0    0  0.00000000000E+00  0.00000000000E+00 -0.24891986462E+03  0.19159071386E+04  0.18996681460E+04 0.  0.
        1    1    3    3  502    0 -0.16058604120E+01 -0.81875725478E+03 -0.61005133661E+03  0.10210429248E+04  0.50400001928E-02 0.  1.
       -1    1    3    3    0  502  0.16058604120E+01  0.81875725478E+03  0.36113147199E+03  0.89486421379E+03  0.50400001928E-02 0. -1.
</event>
<event>
 5   0  0.2813537E-05  0.1899965E+04  0.7818609E-02  0.8654874E-01
       -2   -1    0    0    0  501  0.00000000000E+00  0.00000000000E+00  0.42572840356E+03  0.42572840356E+03  0.25500000920E-02 0. -1.
        2   -1    0    0  501    0  0.00000000000E+00  0.00000000000E+00 -0.21198176962E+04  0.21198176962E+04  0.25500000920E-02 0.  1.
    10030    2    1    2    0    0  0.00000000000E+00  0.00000000000E+00 -0.16940892926E+04  0.25455460997E+04  0.18999648456E+04 0.  0.
        2    1    3    3  502    0 -0.30671805943E+03  0.85283655033E+03 -0.12284966646E+04  0.15266336183E+04  0.25500000920E-02 0.  1.
       -2    1    3    3    0  502  0.30671805943E+03 -0.85283655033E+03 -0.46559262798E+03  0.10189124814E+04  0.25500000920E-02 0. -1.
</event>
<event>
 5   0  0.1429067E-05  0.1900744E+04  0.7818609E-02  0.8654486E-01
        1   -1    0    0  501    0  0.00000000000E+00  0.00000000000E+00  0.10452708626E+04  0.10452708626E+04  0.50400001928E-02 0.  1.
       -1   -1    0    0    0  501  0.00000000000E+00  0.00000000000E+00 -0.86408910156E+03  0.86408910158E+03  0.50400001928E-02 0. -1.
    10030    2    1    2    0    0  0.00000000000E+00  0.00000000000E+00  0.18118176104E+03  0.19093599642E+04  0.19007442338E+04 0.  0.
        3    1    3    3  502    0 -0.30745893973E+03 -0.29007774039E+03  0.94564308870E+03  0.10358170478E+04  0.10100000352E+00 0.  1.
       -3    1    3    3    0  502  0.30745893973E+03  0.29007774039E+03 -0.76446132766E+03  0.87354291639E+03  0.10100000352E+00 0. -1.
</event>
<event>
 5   0  0.2879462E-05  0.1906650E+04  0.7818609E-02  0.8651553E-01
       -2   -1    0    0    0  501  0.00000000000E+00  0.00000000000E+00  0.17403095350E+04  0.17403095350E+04  0.25500000920E-02 0.  1.
        2   -1    0    0  501    0  0.00000000000E+00  0.00000000000E+00 -0.52222238262E+03  0.52222238263E+03  0.25500000920E-02 0. -1.
    10030    2    1    2    0    0  0.00000000000E+00  0.00000000000E+00  0.12180871524E+04  0.22625319176E+04  0.19066500380E+04 0.  0.
        4    1    3    3  502    0  0.44878823615E+03  0.28121807481E+03  0.15496728433E+04  0.16376757984E+04  0.12699999809E+01 0.  1.
       -4    1    3    3    0  502 -0.44878823615E+03 -0.28121807481E+03 -0.33158569087E+03  0.62485611928E+03  0.12699999809E+01 0. -1.
</event>
<event>
 5   0  0.2855141E-05  0.1898798E+04  0.7818609E-02  0.8655455E-01
        2   -1    0    0  501    0  0.00000000000E+00  0.00000000000E+00  0.17556047184E+04  0.17556047184E+04  0.25500000920E-02 0. -1.
       -2   -1    0    0    0  501  0.00000000000E+00  0.00000000000E+00 -0.51341748129E+03  0.51341748129E+03  0.25500000920E-02 0.  1.
    10030    2    1    2    0    0  0.00000000000E+00  0.00000000000E+00  0.12421872371E+04  0.22690221997E+04  0.18987976750E+04 0.  0.
        1    1    3    3  502    0 -0.11110638503E+03  0.53234160259E+03  0.15510493784E+04  0.16436199028E+04  0.50400001928E-02 0. -1.
       -1    1    3    3    0  502  0.11110638503E+03 -0.53234160259E+03 -0.30886214127E+03  0.62540229691E+03  0.50400001928E-02 0.  1.
</event>
<event>
 5   0  0.1429067E-05  0.1909309E+04  0.7818609E-02  0.8650237E-01
       -1   -1    0    0    0  501  0.00000000000E+00  0.00000000000E+00  0.80726765046E+03  0.80726765047E+03  0.50400001928E-02 0.  1.
        1   -1    0    0  501    0  0.00000000000E+00  0.00000000000E+00 -0.11289500623E+04  0.11289500624E+04  0.50400001928E-02 0. -1.
    10030    2    1    2    0    0  0.00000000000E+00  0.00000000000E+00 -0.32168241189E+03  0.19362177128E+04  0.19093086333E+04 0.  0.
        3    1    3    3  502    0 -0.54088888547E+03 -0.77979786617E+03 -0.55847711059E+02  0.95066528050E+03  0.10100000352E+00 0. -1.
       -3    1    3    3    0  502  0.54088888547E+03  0.77979786617E+03 -0.26583470083E+03  0.98555243233E+03  0.10100000352E+00 0.  1.
</event>
<event>
 5   0  0.1327254E-05  0.1900078E+04  0.7818609E-02  0.8654817E-01
       -1   -1    0    0    0  501  0.00000000000E+00  0.00000000000E+00  0.83982160778E+03  0.83982160780E+03  0.50400001928E-02 0.  1.
        1   -1    0    0  501    0  0.00000000000E+00  0.00000000000E+00 -0.10747214319E+04  0.10747214319E+04  0.50400001928E-02 0. -1.
    10030    2    1    2    0    0  0.00000000000E+00  0.00000000000E+00 -0.23489982407E+03  0.19145430397E+04  0.19000781888E+04 0.  0.
        5    1    3    3  502    0  0.68278039811E+03 -0.46539723616E+03  0.35491367754E+03  0.89931611126E+03  0.46999998093E+01 0.  1.
       -5    1    3    3    0  502 -0.68278039811E+03  0.46539723616E+03 -0.58981350160E+03  0.10152269284E+04  0.46999998093E+01 0. -1.
</event>
<event>
 5   0  0.1429067E-05  0.1899380E+04  0.7818609E-02  0.8655165E-01
       -1   -1    0    0    0  501  0.00000000000E+00  0.00000000000E+00  0.13007416832E+04  0.13007416833E+04  0.50400001928E-02 0.  1.
        1   -1    0    0  501    0  0.00000000000E+00  0.00000000000E+00 -0.69338235860E+03  0.69338235862E+03  0.50400001928E-02 0. -1.
    10030    2    1    2    0    0  0.00000000000E+00  0.00000000000E+00  0.60735932464E+03  0.19941240419E+04  0.18993802529E+04 0.  0.
        3    1    3    3  502    0 -0.92363237378E+03 -0.21717068043E+03  0.34634490774E+03  0.10100567665E+04  0.10100000352E+00 0. -1.
       -3    1    3    3    0  502  0.92363237378E+03  0.21717068043E+03  0.26101441690E+03  0.98406727532E+03  0.10100000352E+00 0.  1.
</event>
<event>
 5   0  0.1010725E-05  0.1903098E+04  0.7818609E-02  0.8653316E-01
        3   -1    0    0  501    0  0.00000000000E+00  0.00000000000E+00  0.76915921551E+03  0.76915922214E+03  0.10100000352E+00 0.  1.
       -3   -1    0    0    0  501  0.00000000000E+00  0.00000000000E+00 -0.11771882033E+04  0.11771882077E+04  0.10100000352E+00 0. -1.
    10030    2    1    2    0    0  0.00000000000E+00  0.00000000000E+00 -0.40802898783E+03  0.19463474298E+04  0.19030976493E+04 0.  0.
        4    1    3    3  502    0  0.89661078005E+03  0.18876476854E+03  0.58530491118E+02  0.91813422767E+03  0.12699999809E+01 0.  1.
       -4    1    3    3    0  502 -0.89661078005E+03 -0.18876476854E+03 -0.46655947894E+03  0.10282132021E+04  0.12699999809E+01 0. -1.
</event>
<event>
 5   0  0.2813537E-05  0.1897960E+04  0.7818609E-02  0.8655872E-01
       -2   -1    0    0    0  501  0.00000000000E+00  0.00000000000E+00  0.76910913221E+03  0.76910913221E+03  0.25500000920E-02 0.  1.
        2   -1    0    0  501    0  0.00000000000E+00  0.00000000000E+00 -0.11709177201E+04  0.11709177201E+04  0.25500000920E-02 0. -1.
    10030    2    1    2    0    0  0.00000000000E+00  0.00000000000E+00 -0.40180858786E+03  0.19400268523E+04  0.18979604965E+04 0.  0.
        2    1    3    3  502    0  0.71051892629E+03 -0.52929216363E+03  0.14659563982E+03  0.89804099055E+03  0.25500000920E-02 0.  1.
       -2    1    3    3    0  502 -0.71051892629E+03  0.52929216363E+03 -0.54840422768E+03  0.10419858617E+04  0.25500000920E-02 0. -1.
</event>
<event>
 5   0  0.1429067E-05  0.1895462E+04  0.7818609E-02  0.8657118E-01
       -1   -1    0    0    0  501  0.00000000000E+00  0.00000000000E+00  0.54592100024E+03  0.54592100026E+03  0.50400001928E-02 0. -1.
        1   -1    0    0  501    0  0.00000000000E+00  0.00000000000E+00 -0.16452828478E+04  0.16452828478E+04  0.50400001928E-02 0.  1.
    10030    2    1    2    0    0  0.00000000000E+00  0.00000000000E+00 -0.10993618475E+04  0.21912038480E+04  0.18954624322E+04 0.  0.
        3    1    3    3  502    0  0.96007550458E+02  0.34724214992E+03  0.46367321827E+03  0.58718602160E+03  0.10100000352E+00 0. -1.
       -3    1    3    3    0  502 -0.96007550458E+02 -0.34724214992E+03 -0.15630350658E+04  0.16040178264E+04  0.10100000352E+00 0.  1.
</event>
<event>
 5   0  0.2855141E-05  0.1904069E+04  0.7818609E-02  0.8652834E-01
        2   -1    0    0  501    0  0.00000000000E+00  0.00000000000E+00  0.19390896597E+04  0.19390896597E+04  0.25500000920E-02 0.  1.
       -2   -1    0    0    0  501  0.00000000000E+00  0.00000000000E+00 -0.46742009363E+03  0.46742009363E+03  0.25500000920E-02 0. -1.
    10030    2    1    2    0    0  0.00000000000E+00  0.00000000000E+00  0.14716695661E+04  0.24065097534E+04  0.19040687701E+04 0.  0.
        1    1    3    3  502    0 -0.12548133281E+03 -0.22690850555E+02  0.19282475021E+04  0.19324592801E+04  0.50400001928E-02 0.  1.
       -1    1    3    3    0  502  0.12548133281E+03  0.22690850555E+02 -0.45657793601E+03  0.47405047332E+03  0.50400001928E-02 0. -1.
</event>
<event>
 5   0  0.2879462E-05  0.1899425E+04  0.7818609E-02  0.8655143E-01
       -2   -1    0    0    0  501  0.00000000000E+00  0.00000000000E+00  0.86500508358E+03  0.86500508359E+03  0.25500000920E-02 0.  1.
        2   -1    0    0  501    0  0.00000000000E+00  0.00000000000E+00 -0.10427149039E+04  0.10427149039E+04  0.25500000920E-02 0. -1.
    10030    2    1    2    0    0  0.00000000000E+00  0.00000000000E+00 -0.17770982032E+03  0.19077199875E+04  0.18994248525E+04 0.  0.
        4    1    3    3  502    0  0.55558816970E+03  0.12160973968E+03 -0.85275848275E+03  0.10250198954E+04  0.12699999809E+01 0. -1.
       -4    1    3    3    0  502 -0.55558816970E+03 -0.12160973968E+03  0.67504866243E+03  0.88270009213E+03  0.12699999809E+01 0.  1.
</event>
<event>
 5   0  0.1327254E-05  0.1899818E+04  0.7818609E-02  0.8654947E-01
        1   -1    0    0  501    0  0.00000000000E+00  0.00000000000E+00  0.12684585542E+04  0.12684585542E+04  0.50400001928E-02 0. -1.
       -1   -1    0    0    0  501  0.00000000000E+00  0.00000000000E+00 -0.71135701426E+03  0.71135701428E+03  0.50400001928E-02 0.  1.
    10030    2    1    2    0    0  0.00000000000E+00  0.00000000000E+00  0.55710153989E+03  0.19798155684E+04  0.18998177700E+04 0.  0.
        5    1    3    3  502    0 -0.27322963367E+03 -0.63697415949E+03 -0.39834984018E+03  0.79943429858E+03  0.46999998093E+01 0.  1.
       -5    1    3    3    0  502  0.27322963367E+03  0.63697415949E+03  0.95545138006E+03  0.11803812699E+04  0.46999998093E+01 0. -1.
</event>
<event>
 5   0  0.2888776E-05  0.1912849E+04  0.7818609E-02  0.8648487E-01
       -2   -1    0    0    0  501  0.00000000000E+00  0.00000000000E+00  0.19652871296E+04  0.19652871296E+04  0.25500000920E-02 0. -1.
        2   -1    0    0  501    0  0.00000000000E+00  0.00000000000E+00 -0.46545230287E+03  0.46545230288E+03  0.25500000920E-02 0.  1.
    10030    2    1    2    0    0  0.00000000000E+00  0.00000000000E+00  0.14998348267E+04  0.24307394325E+04  0.19128485777E+04 0.  0.
        3    1    3    3  502    0  0.44538797183E+03  0.21368041478E+02 -0.32528486057E+03  0.55193957039E+03  0.10100000352E+00 0.  1.
       -3    1    3    3    0  502 -0.44538797183E+03 -0.21368041478E+02  0.18251196873E+04  0.18787998621E+04  0.10100000352E+00 0. -1.
</event>
<event>
 5   0  0.2888776E-05  0.1899639E+04  0.7818609E-02  0.8655036E-01
        2   -1    0    0  501    0  0.00000000000E+00  0.00000000000E+00  0.10316510957E+04  0.10316510957E+04  0.25500000920E-02 0. -1.
       -2   -1    0    0    0  501  0.00000000000E+00  0.00000000000E+00 -0.87447900734E+03  0.87447900734E+03  0.25500000920E-02 0.  1.
    10030    2    1    2    0    0  0.00000000000E+00  0.00000000000E+00  0.15717208832E+03  0.19061301030E+04  0.18996391510E+04 0.  0.
        3    1    3    3  502    0  0.48712612002E+03  0.80582209619E+03 -0.46403254167E+02  0.94275891919E+03  0.10100000352E+00 0. -1.
       -3    1    3    3    0  502 -0.48712612002E+03 -0.80582209619E+03  0.20357534249E+03  0.96337118380E+03  0.10100000352E+00 0.  1.
</event>
<event>
 5   0  0.1344119E-05  0.1898681E+04  0.7818609E-02  0.8655513E-01
       -1   -1    0    0    0  501  0.00000000000E+00  0.00000000000E+00  0.73665724560E+03  0.73665724562E+03  0.50400001928E-02 0. -1.
        1   -1    0    0  501    0  0.00000000000E+00  0.00000000000E+00 -0.12234281219E+04  0.12234281219E+04  0.50400001928E-02 0.  1.
    10030    2    1    2    0    0  0.00000000000E+00  0.00000000000E+00 -0.48677087629E+03  0.19600853675E+04  0.18986807952E+04 0.  0.
        2    1    3    3  502    0  0.39690898985E+03 -0.47500800427E+03  0.49966883700E+03  0.79551134311E+03  0.25500000920E-02 0. -1.
       -2    1    3    3    0  502 -0.39690898985E+03  0.47500800427E+03 -0.98643971329E+03  0.11645740244E+04  0.25500000920E-02 0.  1.
</event>
<event>
 5   0  0.1327254E-05  0.1902640E+04  0.7818609E-02  0.8653544E-01
        1   -1    0    0  501    0  0.00000000000E+00  0.00000000000E+00  0.19563684208E+04  0.19563684208E+04  0.50400001928E-02 0.  1.
       -1   -1    0    0    0  501  0.00000000000E+00  0.00000000000E+00 -0.46259655156E+03  0.46259655158E+03  0.50400001928E-02 0. -1.
    10030    2    1    2    0    0  0.00000000000E+00  0.00000000000E+00  0.14937718693E+04  0.24189649724E+04  0.19026395193E+04 0.  0.
        5    1    3    3  502    0 -0.33427995358E+03 -0.54095215265E+03 -0.15266330747E+03  0.65398814536E+03  0.46999998093E+01 0. -1.
       -5    1    3    3    0  502  0.33427995358E+03  0.54095215265E+03  0.16464351767E+04  0.17649768270E+04  0.46999998093E+01 0.  1.
</event>
<event>
 5   0  0.1413011E-05  0.1901173E+04  0.7818609E-02  0.8654273E-01
        1   -1    0    0  501    0  0.00000000000E+00  0.00000000000E+00  0.13274926528E+04  0.13274926528E+04  0.50400001928E-02 0.  1.
       -1   -1    0    0    0  501  0.00000000000E+00  0.00000000000E+00 -0.68069299515E+03  0.68069299517E+03  0.50400001928E-02 0. -1.
    10030    2    1    2    0    0  0.00000000000E+00  0.00000000000E+00  0.64679965760E+03  0.20081856479E+04  0.19011732692E+04 0.  0.
        1    1    3    3  502    0  0.22314732975E+03 -0.63431391836E+03  0.10331323711E+04  0.12326846206E+04  0.50400001928E-02 0.  1.
       -1    1    3    3    0  502 -0.22314732975E+03  0.63431391836E+03 -0.38633271347E+03  0.77550102728E+03  0.50400001928E-02 0. -1.
</event>
<event>
 5   0  0.2789718E-05  0.1902343E+04  0.7818609E-02  0.8653691E-01
       -2   -1    0    0    0  501  0.00000000000E+00  0.00000000000E+00  0.11099407257E+04  0.11099407257E+04  0.25500000920E-02 0. -1.
        2   -1    0    0  501    0  0.00000000000E+00  0.00000000000E+00 -0.81511308312E+03  0.81511308313E+03  0.25500000920E-02 0.  1.
    10030    2    1    2    0    0  0.00000000000E+00  0.00000000000E+00  0.29482764257E+03  0.19250538088E+04  0.19023429838E+04 0.  0.
        5    1    3    3  502    0 -0.81212717444E+02  0.81502492655E+03  0.63676106897E+03  0.10374718721E+04  0.46999998093E+01 0.  1.
       -5    1    3    3    0  502  0.81212717444E+02 -0.81502492655E+03 -0.34193342640E+03  0.88758193676E+03  0.46999998093E+01 0. -1.
</event>
<event>
 5   0  0.2888776E-05  0.1901482E+04  0.7818609E-02  0.8654119E-01
       -2   -1    0    0    0  501  0.00000000000E+00  0.00000000000E+00  0.12256100800E+04  0.12256100800E+04  0.25500000920E-02 0.  1.
        2   -1    0    0  501    0  0.00000000000E+00  0.00000000000E+00 -0.73751731480E+03  0.73751731480E+03  0.25500000920E-02 0. -1.
    10030    2    1    2    0    0  0.00000000000E+00  0.00000000000E+00  0.48809276522E+03  0.19631273948E+04  0.19014822168E+04 0.  0.
        3    1    3    3  502    0 -0.13163126483E+03  0.94063044682E+03  0.20029057593E+03  0.97068468226E+03  0.10100000352E+00 0. -1.
       -3    1    3    3    0  502  0.13163126483E+03 -0.94063044682E+03  0.28780218929E+03  0.99244271257E+03  0.10100000352E+00 0.  1.
</event>
<event>
 5   0  0.2879462E-05  0.1900145E+04  0.7818609E-02  0.8654784E-01
       -2   -1    0    0    0  501  0.00000000000E+00  0.00000000000E+00  0.92968660107E+03  0.92968660107E+03  0.25500000920E-02 0. -1.
        2   -1    0    0  501    0  0.00000000000E+00  0.00000000000E+00 -0.97090522933E+03  0.97090522933E+03  0.25500000920E-02 0.  1.
    10030    2    1    2    0    0  0.00000000000E+00  0.00000000000E+00 -0.41218628256E+02  0.19005918304E+04  0.19001448183E+04 0.  0.
        4    1    3    3  502    0  0.37174232284E+03 -0.79276780745E+03  0.34820879424E+03  0.94229726117E+03  0.12699999809E+01 0. -1.
       -4    1    3    3    0  502 -0.37174232284E+03  0.79276780745E+03 -0.38942742250E+03  0.95829456923E+03  0.12699999809E+01 0.  1.
</event>
<event>
 5   0  0.2888776E-05  0.1905748E+04  0.7818609E-02  0.8652001E-01
       -2   -1    0    0    0  501  0.00000000000E+00  0.00000000000E+00  0.72663163157E+03  0.72663163157E+03  0.25500000920E-02 0.  1.
        2   -1    0    0  501    0  0.00000000000E+00  0.00000000000E+00 -0.12495582645E+04  0.12495582645E+04  0.25500000920E-02 0. -1.
    10030    2    1    2    0    0  0.00000000000E+00  0.00000000000E+00 -0.52292663296E+03  0.19761898961E+04  0.19057476858E+04 0.  0.
        3    1    3    3  502    0  0.47363411472E+03  0.68437712856E+03 -0.74258200417E+03  0.11154054742E+04  0.10100000352E+00 0.  1.
       -3    1    3    3    0  502 -0.47363411472E+03 -0.68437712856E+03  0.21965537121E+03  0.86078442192E+03  0.10100000352E+00 0. -1.
</event>
<event>
 5   0  0.1327254E-05  0.1906848E+04  0.7818609E-02  0.8651455E-01
       -1   -1    0    0    0  501  0.00000000000E+00  0.00000000000E+00  0.81401592173E+03  0.81401592175E+03  0.50400001928E-02 0.  1.
        1   -1    0    0  501    0  0.00000000000E+00  0.00000000000E+00 -0.11167074212E+04  0.11167074212E+04  0.50400001928E-02 0. -1.
    10030    2    1    2    0    0  0.00000000000E+00  0.00000000000E+00 -0.30269149949E+03  0.19307233430E+04  0.19068483116E+04 0.  0.
        5    1    3    3  502    0 -0.61607999847E+02 -0.24925502944E+03 -0.10810315803E+04  0.11111142979E+04  0.46999998093E+01 0. -1.
       -5    1    3    3    0  502  0.61607999847E+02  0.24925502944E+03  0.77834008083E+03  0.81960904508E+03  0.46999998093E+01 0.  1.
</event>
<event>
 5   0  0.1471485E-05  0.1900878E+04  0.7818609E-02  0.8654419E-01
        1   -1    0    0  501    0  0.00000000000E+00  0.00000000000E+00  0.13107019130E+04  0.13107019130E+04  0.50400001928E-02 0.  1.
       -1   -1    0    0    0  501  0.00000000000E+00  0.00000000000E+00 -0.68919884777E+03  0.68919884779E+03  0.50400001928E-02 0. -1.
    10030    2    1    2    0    0  0.00000000000E+00  0.00000000000E+00  0.62150306521E+03  0.19999007608E+04  0.19008779532E+04 0.  0.
        4    1    3    3  502    0  0.47893614516E+03 -0.79718442909E+03  0.10445059621E+03  0.93583886704E+03  0.12699999809E+01 0.  1.
       -4    1    3    3    0  502 -0.47893614516E+03  0.79718442909E+03  0.51705246900E+03  0.10640618937E+04  0.12699999809E+01 0. -1.
</event>
<event>
 5   0  0.1327254E-05  0.1896464E+04  0.7818609E-02  0.8656619E-01
        1   -1    0    0  501    0  0.00000000000E+00  0.00000000000E+00  0.72258770616E+03  0.72258770617E+03  0.50400001928E-02 0.  1.
       -1   -1    0    0    0  501  0.00000000000E+00  0.00000000000E+00 -0.12443384808E+04  0.12443384808E+04  0.50400001928E-02 0. -1.
    10030    2    1    2    0    0  0.00000000000E+00  0.00000000000E+00 -0.52175077468E+03  0.19669261870E+04  0.18964637498E+04 0.  0.
        5    1    3    3  502    0  0.17565834174E+03  0.38981119930E+02 -0.12264581279E+04  0.12395955027E+04  0.46999998093E+01 0. -1.
       -5    1    3    3    0  502 -0.17565834174E+03 -0.38981119930E+02  0.70470735322E+03  0.72733068436E+03  0.46999998093E+01 0.  1.
</event>
<event>
 5   0  0.1471485E-05  0.1899932E+04  0.7818609E-02  0.8654890E-01
       -1   -1    0    0    0  501  0.00000000000E+00  0.00000000000E+00  0.11052070419E+04  0.11052070419E+04  0.50400001928E-02 0.  1.
        1   -1    0    0  501    0  0.00000000000E+00  0.00000000000E+00 -0.81653039804E+03  0.81653039806E+03  0.50400001928E-02 0. -1.
    10030    2    1    2    0    0  0.00000000000E+00  0.00000000000E+00  0.28867664386E+03  0.19217374400E+04  0.18999317313E+04 0.  0.
        4    1    3    3  502    0 -0.27877452962E+03 -0.14027140714E+03 -0.76320086311E+03  0.82454137336E+03  0.12699999809E+01 0. -1.
       -4    1    3    3    0  502  0.27877452962E+03  0.14027140714E+03  0.10518775070E+04  0.10971960666E+04  0.12699999809E+01 0.  1.
</event>
<event>
 5   0  0.2888776E-05  0.1909011E+04  0.7818609E-02  0.8650384E-01
       -2   -1    0    0    0  501  0.00000000000E+00  0.00000000000E+00  0.21167576527E+04  0.21167576527E+04  0.25500000920E-02 0.  1.
        2   -1    0    0  501    0  0.00000000000E+00  0.00000000000E+00 -0.43041341810E+03  0.43041341811E+03  0.25500000920E-02 0. -1.
    10030    2    1    2    0    0  0.00000000000E+00  0.00000000000E+00  0.16863442346E+04  0.25471710709E+04  0.19090111541E+04 0.  0.
        3    1    3    3  502    0  0.26103850456E+03 -0.17188275137E+03  0.20465463060E+04  0.20702745166E+04  0.10100000352E+00 0.  1.
       -3    1    3    3    0  502 -0.26103850456E+03  0.17188275137E+03 -0.36020207137E+03  0.47689655430E+03  0.10100000352E+00 0. -1.
</event>
<event>
 5   0  0.1429067E-05  0.1884517E+04  0.7818609E-02  0.8662602E-01
       -1   -1    0    0    0  501  0.00000000000E+00  0.00000000000E+00  0.48135963832E+03  0.48135963834E+03  0.50400001928E-02 0. -1.
        1   -1    0    0  501    0  0.00000000000E+00  0.00000000000E+00 -0.18444660333E+04  0.18444660333E+04  0.50400001928E-02 0.  1.
    10030    2    1    2    0    0  0.00000000000E+00  0.00000000000E+00 -0.13631063950E+04  0.23258256717E+04  0.18845174478E+04 0.  0.
        3    1    3    3  502    0 -0.48260585926E+03  0.42329112094E+03 -0.15328372078E+04  0.16618284221E+04  0.10100000352E+00 0.  1.
       -3    1    3    3    0  502  0.48260585926E+03 -0.42329112094E+03  0.16973081284E+03  0.66399724960E+03  0.10100000352E+00 0. -1.
</event>
<event>
 5   0  0.1010725E-05  0.1899656E+04  0.7818609E-02  0.8655028E-01
       -4   -1    0    0    0  501  0.00000000000E+00  0.00000000000E+00  0.60176567053E+03  0.60176701067E+03  0.12699999809E+01 0. -1.
        4   -1    0    0  501    0  0.00000000000E+00  0.00000000000E+00 -0.14992067802E+04  0.14992073181E+04  0.12699999809E+01 0.  1.
    10030    2    1    2    0    0  0.00000000000E+00  0.00000000000E+00 -0.89744110963E+03  0.21009743287E+04  0.18996559122E+04 0.  0.
        1    1    3    3  502    0  0.13127087187E+03 -0.87520012152E+03 -0.67253565884E+02  0.88754173798E+03  0.50400001928E-02 0. -1.
       -1    1    3    3    0  502 -0.13127087187E+03  0.87520012152E+03 -0.83018754374E+03  0.12134325908E+04  0.50400001928E-02 0.  1.
</event>
<event>
 5   0  0.2888776E-05  0.1912210E+04  0.7818609E-02  0.8648803E-01
        2   -1    0    0  501    0  0.00000000000E+00  0.00000000000E+00  0.12376035336E+04  0.12376035336E+04  0.25500000920E-02 0.  1.
       -2   -1    0    0    0  501  0.00000000000E+00  0.00000000000E+00 -0.73863440923E+03  0.73863440924E+03  0.25500000920E-02 0. -1.
    10030    2    1    2    0    0  0.00000000000E+00  0.00000000000E+00  0.49896912439E+03  0.19762379429E+04  0.19122097740E+04 0.  0.
        3    1    3    3  502    0  0.94061280611E+03  0.17025186980E+03  0.22885640722E+03  0.98291068542E+03  0.10100000352E+00 0. -1.
       -3    1    3    3    0  502 -0.94061280611E+03 -0.17025186980E+03  0.27011271717E+03  0.99332725744E+03  0.10100000352E+00 0.  1.
</event>
<event>
 5   0  0.1429067E-05  0.1901360E+04  0.7818609E-02  0.8654180E-01
       -1   -1    0    0    0  501  0.00000000000E+00  0.00000000000E+00  0.45802622587E+03  0.45802622590E+03  0.50400001928E-02 0. -1.
        1   -1    0    0  501    0  0.00000000000E+00  0.00000000000E+00 -0.19732334001E+04  0.19732334001E+04  0.50400001928E-02 0.  1.
    10030    2    1    2    0    0  0.00000000000E+00  0.00000000000E+00 -0.15152071742E+04  0.24312596260E+04  0.19013601942E+04 0.  0.
        3    1    3    3  502    0 -0.11886694797E+03  0.65019172676E+03  0.11614279503E+03  0.67109447316E+03  0.10100000352E+00 0. -1.
       -3    1    3    3    0  502  0.11886694797E+03 -0.65019172676E+03 -0.16313499693E+04  0.17601651528E+04  0.10100000352E+00 0.  1.
</event>
<event>
 5   0  0.2879462E-05  0.1901517E+04  0.7818609E-02  0.8654102E-01
        2   -1    0    0  501    0  0.00000000000E+00  0.00000000000E+00  0.11237841498E+04  0.11237841498E+04  0.25500000920E-02 0.  1.
       -2   -1    0    0    0  501  0.00000000000E+00  0.00000000000E+00 -0.80437268732E+03  0.80437268733E+03  0.25500000920E-02 0. -1.
    10030    2    1    2    0    0  0.00000000000E+00  0.00000000000E+00  0.31941146249E+03  0.19281568371E+04  0.19015165280E+04 0.  0.
        4    1    3    3  502    0  0.40299605341E+03  0.86056871000E+03  0.12836412668E+03  0.95888648213E+03  0.12699999809E+01 0.  1.
       -4    1    3    3    0  502 -0.40299605341E+03 -0.86056871000E+03  0.19104733581E+03  0.96927035501E+03  0.12699999809E+01 0. -1.
</event>
<event>
 5   0  0.1010725E-05  0.1895411E+04  0.7818609E-02  0.8657144E-01
        4   -1    0    0  501    0  0.00000000000E+00  0.00000000000E+00  0.84042350056E+03  0.84042446014E+03  0.12699999809E+01 0. -1.
       -4   -1    0    0    0  501  0.00000000000E+00  0.00000000000E+00 -0.10686805287E+04  0.10686812833E+04  0.12699999809E+01 0.  1.
    10030    2    1    2    0    0  0.00000000000E+00  0.00000000000E+00 -0.22825702810E+03  0.19091057434E+04  0.18954111609E+04 0.  0.
        5    1    3    3  502    0 -0.58597996256E+03 -0.33265075214E+02 -0.86357757923E+03  0.10441587078E+04  0.46999998093E+01 0.  1.
       -5    1    3    3    0  502  0.58597996256E+03  0.33265075214E+02  0.63532055112E+03  0.86494703562E+03  0.46999998093E+01 0. -1.
</event>
<event>
 5   0  0.1344119E-05  0.1899542E+04  0.7818609E-02  0.8655084E-01
        1   -1    0    0  501    0  0.00000000000E+00  0.00000000000E+00  0.89129215545E+03  0.89129215547E+03  0.50400001928E-02 0. -1.
       -1   -1    0    0    0  501  0.00000000000E+00  0.00000000000E+00 -0.10120868254E+04  0.10120868254E+04  0.50400001928E-02 0.  1.
    10030    2    1    2    0    0  0.00000000000E+00  0.00000000000E+00 -0.12079466997E+03  0.19033789809E+04  0.18995421008E+04 0.  0.
        2    1    3    3  502    0 -0.84352075154E+03  0.75375026443E+02 -0.49121508227E+03  0.97903059704E+03  0.25500000920E-02 0. -1.
       -2    1    3    3    0  502  0.84352075154E+03 -0.75375026443E+02  0.37042041230E+03  0.92434838386E+03  0.25500000920E-02 0.  1.
</event>
<event>
 5   0  0.1471485E-05  0.1900369E+04  0.7818609E-02  0.8654673E-01
       -1   -1    0    0    0  501  0.00000000000E+00  0.00000000000E+00  0.12382342677E+04  0.12382342677E+04  0.50400001928E-02 0. -1.
        1   -1    0    0  501    0  0.00000000000E+00  0.00000000000E+00 -0.72914365164E+03  0.72914365166E+03  0.50400001928E-02 0.  1.
    10030    2    1    2    0    0  0.00000000000E+00  0.00000000000E+00  0.50909061606E+03  0.19673779194E+04  0.19003690753E+04 0.  0.
        4    1    3    3  502    0  0.41527539770E+01  0.24383778768E+03 -0.69619122406E+03  0.73767062123E+03  0.12699999809E+01 0.  1.
       -4    1    3    3    0  502 -0.41527539770E+01 -0.24383778768E+03  0.12052818401E+04  0.12297072981E+04  0.12699999809E+01 0. -1.
</event>
<event>
 5   0  0.1429067E-05  0.1899598E+04  0.7818609E-02  0.8655057E-01
        1   -1    0    0  501    0  0.00000000000E+00  0.00000000000E+00  0.83936037399E+03  0.83936037400E+03  0.50400001928E-02 0. -1.
       -1   -1    0    0    0  501  0.00000000000E+00  0.00000000000E+00 -0.10747684653E+04  0.10747684653E+04  0.50400001928E-02 0.  1.
    10030    2    1    2    0    0  0.00000000000E+00  0.00000000000E+00 -0.23540809130E+03  0.19141288393E+04  0.18995979164E+04 0.  0.
        3    1    3    3  502    0 -0.18099929310E+03  0.35206481756E+03  0.75227022965E+03  0.85007110790E+03  0.10100000352E+00 0. -1.
       -3    1    3    3    0  502  0.18099929310E+03 -0.35206481756E+03 -0.98767832095E+03  0.10640577314E+04  0.10100000352E+00 0.  1.
</event>
<event>
 5   0  0.1327254E-05  0.1896708E+04  0.7818609E-02  0.8656497E-01
       -1   -1    0    0    0  501  0.00000000000E+00  0.00000000000E+00  0.70566636176E+03  0.70566636177E+03  0.50400001928E-02 0. -1.
        1   -1    0    0  501    0  0.00000000000E+00  0.00000000000E+00 -0.12745054432E+04  0.12745054432E+04  0.50400001928E-02 0.  1.
    10030    2    1    2    0    0  0.00000000000E+00  0.00000000000E+00 -0.56883908140E+03  0.19801718049E+04  0.18967083267E+04 0.  0.
        5    1    3    3  502    0  0.31744533389E+03  0.78798426897E+03  0.15562896401E+03  0.86367425144E+03  0.46999998093E+01 0. -1.
       -5    1    3    3    0  502 -0.31744533389E+03 -0.78798426897E+03 -0.72446804540E+03  0.11164975535E+04  0.46999998093E+01 0.  1.
</event>
<event>
 5   0  0.2888776E-05  0.1897621E+04  0.7818609E-02  0.8656042E-01
       -2   -1    0    0    0  501  0.00000000000E+00  0.00000000000E+00  0.12748218697E+04  0.12748218697E+04  0.25500000920E-02 0.  1.
        2   -1    0    0  501    0  0.00000000000E+00  0.00000000000E+00 -0.70616996346E+03  0.70616996346E+03  0.25500000920E-02 0. -1.
    10030    2    1    2    0    0  0.00000000000E+00  0.00000000000E+00  0.56865190627E+03  0.19809918332E+04  0.18976205239E+04 0.  0.
        3    1    3    3  502    0  0.26891453442E+03 -0.53412547689E+03 -0.48467620396E+03  0.76975066403E+03  0.10100000352E+00 0. -1.
       -3    1    3    3    0  502 -0.26891453442E+03  0.53412547689E+03  0.10533281102E+04  0.12112411692E+04  0.10100000352E+00 0.  1.
</event>
<event>
 5   0  0.1413011E-05  0.1900240E+04  0.7818609E-02  0.8654737E-01
       -1   -1    0    0    0  501  0.00000000000E+00  0.00000000000E+00  0.67499366265E+03  0.67499366267E+03  0.50400001928E-02 0.  1.
        1   -1    0    0  501    0  0.00000000000E+00  0.00000000000E+00 -0.13373872500E+04  0.13373872500E+04  0.50400001928E-02 0. -1.
    10030    2    1    2    0    0  0.00000000000E+00  0.00000000000E+00 -0.66239358730E+03  0.20123809126E+04  0.19002398988E+04 0.  0.
        1    1    3    3  502    0  0.54913141791E+03  0.44935306799E+03  0.33796642941E+03  0.78592925972E+03  0.50400001928E-02 0.  1.
       -1    1    3    3    0  502 -0.54913141791E+03 -0.44935306799E+03 -0.10003600167E+04  0.12264516529E+04  0.50400001928E-02 0. -1.
</event>
<event>
 5   0  0.2855141E-05  0.1905340E+04  0.7818609E-02  0.8652203E-01
       -2   -1    0    0    0  501  0.00000000000E+00  0.00000000000E+00  0.10923243828E+04  0.10923243828E+04  0.25500000920E-02 0. -1.
        2   -1    0    0  501    0  0.00000000000E+00  0.00000000000E+00 -0.83087068214E+03  0.83087068214E+03  0.25500000920E-02 0.  1.
    10030    2    1    2    0    0  0.00000000000E+00  0.00000000000E+00  0.26145370071E+03  0.19231950650E+04  0.19053401850E+04 0.  0.
        1    1    3    3  502    0 -0.97634082152E+01  0.94129142500E+03  0.27857621487E+03  0.98169729471E+03  0.50400001928E-02 0. -1.
       -1    1    3    3    0  502  0.97634082152E+01 -0.94129142500E+03 -0.17122514160E+02  0.94149777028E+03  0.50400001928E-02 0.  1.
</event>
<event>
 5   0  0.1429067E-05  0.1898922E+04  0.7818609E-02  0.8655393E-01
        1   -1    0    0  501    0  0.00000000000E+00  0.00000000000E+00  0.12466334099E+04  0.12466334099E+04  0.50400001928E-02 0.  1.
       -1   -1    0    0    0  501  0.00000000000E+00  0.00000000000E+00 -0.72312826400E+03  0.72312826401E+03  0.50400001928E-02 0. -1.
    10030    2    1    2    0    0  0.00000000000E+00  0.00000000000E+00  0.52350514590E+03  0.19697616739E+04  0.18989216451E+04 0.  0.
        3    1    3    3  502    0 -0.12557836211E+03  0.56741618763E+03 -0.51708681738E+03  0.77788806516E+03  0.10100000352E+00 0. -1.
       -3    1    3    3    0  502  0.12557836211E+03 -0.56741618763E+03  0.10405919633E+04  0.11918736088E+04  0.10100000352E+00 0.  1.
</event>
<event>
 5   0  0.1344119E-05  0.1908418E+04  0.7818609E-02  0.8650678E-01
       -1   -1    0    0    0  501  0.00000000000E+00  0.00000000000E+00  0.13209819208E+04  0.13209819208E+04  0.50400001928E-02 0. -1.
        1   -1    0    0  501    0  0.00000000000E+00  0.00000000000E+00 -0.68927123773E+03  0.68927123775E+03  0.50400001928E-02 0.  1.
    10030    2    1    2    0    0  0.00000000000E+00  0.00000000000E+00  0.63171068307E+03  0.20102531586E+04  0.19084180293E+04 0.  0.
        2    1    3    3  502    0  0.88184434519E+03  0.62995999916E+02 -0.62324587540E+02  0.88628567593E+03  0.25500000920E-02 0.  1.
       -2    1    3    3    0  502 -0.88184434519E+03 -0.62995999916E+02  0.69403527061E+03  0.11239674826E+04  0.25500000920E-02 0. -1.
</event>
<event>
 5   0  0.1327254E-05  0.1897895E+04  0.7818609E-02  0.8655905E-01
       -1   -1    0    0    0  501  0.00000000000E+00  0.00000000000E+00  0.96874567981E+03  0.96874567983E+03  0.50400001928E-02 0. -1.
        1   -1    0    0  501    0  0.00000000000E+00  0.00000000000E+00 -0.92955349654E+03  0.92955349656E+03  0.50400001928E-02 0.  1.
    10030    2    1    2    0    0  0.00000000000E+00  0.00000000000E+00  0.39192183272E+02  0.18982991764E+04  0.18978945534E+04 0.  0.
        5    1    3    3  502    0  0.68768625012E+03 -0.28744931094E+03 -0.56784450439E+03  0.93702132106E+03  0.46999998093E+01 0.  1.
       -5    1    3    3    0  502 -0.68768625012E+03  0.28744931094E+03  0.60703668766E+03  0.96127785532E+03  0.46999998093E+01 0. -1.
</event>
<event>
 5   0  0.2789718E-05  0.1900345E+04  0.7818609E-02  0.8654685E-01
       -2   -1    0    0    0  501  0.00000000000E+00  0.00000000000E+00  0.78367110553E+03  0.78367110553E+03  0.25500000920E-02 0.  1.
        2   -1    0    0  501    0  0.00000000000E+00  0.00000000000E+00 -0.11520497035E+04  0.11520497035E+04  0.25500000920E-02 0. -1.
    10030    2    1    2    0    0  0.00000000000E+00  0.00000000000E+00 -0.36837859801E+03  0.19357208091E+04  0.19003453000E+04 0.  0.
        5    1    3    3  502    0  0.45303947833E+03  0.78663469862E+03 -0.47006846515E+03  0.10222648238E+04  0.46999998093E+01 0. -1.
       -5    1    3    3    0  502 -0.45303947833E+03 -0.78663469862E+03  0.10168986715E+03  0.91345598530E+03  0.46999998093E+01 0.  1.
</event>
<event>
 5   0  0.2789718E-05  0.1894222E+04  0.7818609E-02  0.8657738E-01
        2   -1    0    0  501    0  0.00000000000E+00  0.00000000000E+00  0.22983015784E+04  0.22983015784E+04  0.25500000920E-02 0.  1.
       -2   -1    0    0    0  501  0.00000000000E+00  0.00000000000E+00 -0.39029655539E+03  0.39029655540E+03  0.25500000920E-02 0. -1.
    10030    2    1    2    0    0  0.00000000000E+00  0.00000000000E+00  0.19080050230E+04  0.26885981338E+04  0.18942219398E+04 0.  0.
        5    1    3    3  502    0 -0.59830478433E+03 -0.23521112902E+03  0.19411566342E+04  0.20448481750E+04  0.46999998093E+01 0.  1.
       -5    1    3    3    0  502  0.59830478433E+03  0.23521112902E+03 -0.33151611204E+02  0.64374995883E+03  0.46999998093E+01 0. -1.
</event>
<event>
 5   0  0.2789718E-05  0.1893873E+04  0.7818609E-02  0.8657912E-01
        2   -1    0    0  501    0  0.00000000000E+00  0.00000000000E+00  0.90191479684E+03  0.90191479684E+03  0.25500000920E-02 0.  1.
       -2   -1    0    0    0  501  0.00000000000E+00  0.00000000000E+00 -0.99420563412E+03  0.99420563413E+03  0.25500000920E-02 0. -1.
    10030    2    1    2    0    0  0.00000000000E+00  0.00000000000E+00 -0.92290837289E+02  0.18961204310E+04  0.18938730396E+04 0.  0.
        5    1    3    3  502    0  0.13866320201E+03  0.72385642591E+03 -0.64138526467E+03  0.97703262825E+03  0.46999998093E+01 0. -1.
       -5    1    3    3    0  502 -0.13866320201E+03 -0.72385642591E+03  0.54909442738E+03  0.91908780272E+03  0.46999998093E+01 0.  1.
</event>
<event>
 5   0  0.1471485E-05  0.1897144E+04  0.7818609E-02  0.8656279E-01
       -1   -1    0    0    0  501  0.00000000000E+00  0.00000000000E+00  0.50257891157E+03  0.50257891159E+03  0.50400001928E-02 0.  1.
        1   -1    0    0  501    0  0.00000000000E+00  0.00000000000E+00 -0.17903441032E+04  0.17903441032E+04  0.50400001928E-02 0. -1.
    10030    2    1    2    0    0  0.00000000000E+00  0.00000000000E+00 -0.12877651916E+04  0.22929230148E+04  0.18971443706E+04 0.  0.
        4    1    3    3  502    0 -0.76859258351E+03 -0.45758994548E+03 -0.10254394429E+04  0.13607537550E+04  0.12699999809E+01 0. -1.
       -4    1    3    3    0  502  0.76859258351E+03  0.45758994548E+03 -0.26232574868E+03  0.93216925981E+03  0.12699999809E+01 0.  1.
</event>
<event>
 5   0  0.2813537E-05  0.1899390E+04  0.7818609E-02  0.8655160E-01
        2   -1    0    0  501    0  0.00000000000E+00  0.00000000000E+00  0.13555659304E+04  0.13555659304E+04  0.25500000920E-02 0.  1.
       -2   -1    0    0    0  501  0.00000000000E+00  0.00000000000E+00 -0.66534605298E+03  0.66534605298E+03  0.25500000920E-02 0. -1.
    10030    2    1    2    0    0  0.00000000000E+00  0.00000000000E+00  0.69021987741E+03  0.20209119834E+04  0.18993898403E+04 0.  0.
        2    1    3    3  502    0 -0.78235870699E+03 -0.10382530720E+03 -0.21694485988E+03  0.81849246365E+03  0.25500000920E-02 0. -1.
       -2    1    3    3    0  502  0.78235870699E+03  0.10382530720E+03  0.90716473729E+03  0.12024195197E+04  0.25500000920E-02 0.  1.
</event>
<event>
 5   0  0.2888776E-05  0.1899487E+04  0.7818609E-02  0.8655112E-01
       -2   -1    0    0    0  501  0.00000000000E+00  0.00000000000E+00  0.34107540454E+03  0.34107540455E+03  0.25500000920E-02 0.  1.
        2   -1    0    0  501    0  0.00000000000E+00  0.00000000000E+00 -0.26446145655E+04  0.26446145655E+04  0.25500000920E-02 0. -1.
    10030    2    1    2    0    0  0.00000000000E+00  0.00000000000E+00 -0.23035391609E+04  0.29856899700E+04  0.18994872811E+04 0.  0.
        3    1    3    3  502    0  0.50875642045E+03  0.41251902531E+03 -0.70727671563E+02  0.65879242203E+03  0.10100000352E+00 0.  1.
       -3    1    3    3    0  502 -0.50875642045E+03 -0.41251902531E+03 -0.22328114894E+04  0.23268975480E+04  0.10100000352E+00 0. -1.
</event>
<event>
 5   0  0.1429067E-05  0.1903872E+04  0.7818609E-02  0.8652931E-01
        1   -1    0    0  501    0  0.00000000000E+00  0.00000000000E+00  0.15764340550E+04  0.15764340550E+04  0.50400001928E-02 0.  1.
       -1   -1    0    0    0  501  0.00000000000E+00  0.00000000000E+00 -0.57483031963E+03  0.57483031966E+03  0.50400001928E-02 0. -1.
    10030    2    1    2    0    0  0.00000000000E+00  0.00000000000E+00  0.10016037354E+04  0.21512643747E+04  0.19038719408E+04 0.  0.
        3    1    3    3  502    0 -0.10159500264E+01  0.63545176949E+03 -0.30008860918E+03  0.70274687268E+03  0.10100000352E+00 0. -1.
       -3    1    3    3    0  502  0.10159500264E+01 -0.63545176949E+03  0.13016923446E+04  0.14485175020E+04  0.10100000352E+00 0.  1.
</event>
<event>
 5   0  0.2888776E-05  0.1901296E+04  0.7818609E-02  0.8654212E-01
       -2   -1    0    0    0  501  0.00000000000E+00  0.00000000000E+00  0.99419295050E+03  0.99419295050E+03  0.25500000920E-02 0.  1.
        2   -1    0    0  501    0  0.00000000000E+00  0.00000000000E+00 -0.90900989977E+03  0.90900989977E+03  0.25500000920E-02 0. -1.
    10030    2    1    2    0    0  0.00000000000E+00  0.00000000000E+00  0.85183050728E+02  0.19032028503E+04  0.19012955944E+04 0.  0.
        3    1    3    3  502    0  0.72118752870E+03 -0.58305487787E+03  0.25176712914E+03  0.96096365159E+03  0.10100000352E+00 0.  1.
       -3    1    3    3    0  502 -0.72118752870E+03  0.58305487787E+03 -0.16658407841E+03  0.94223919869E+03  0.10100000352E+00 0. -1.
</event>
<event>
 5   0  0.1413011E-05  0.1890540E+04  0.7818609E-02  0.8659579E-01
        1   -1    0    0  501    0  0.00000000000E+00  0.00000000000E+00  0.16122527141E+04  0.16122527141E+04  0.50400001928E-02 0. -1.
       -1   -1    0    0    0  501  0.00000000000E+00  0.00000000000E+00 -0.55421572972E+03  0.55421572974E+03  0.50400001928E-02 0.  1.
    10030    2    1    2    0    0  0.00000000000E+00  0.00000000000E+00  0.10580369844E+04  0.21664684438E+04  0.18905404671E+04 0.  0.
        1    1    3    3  502    0 -0.11135585613E+03 -0.77839430590E+03  0.11302207187E+04  0.13768430176E+04  0.50400001928E-02 0. -1.
       -1    1    3    3    0  502  0.11135585613E+03  0.77839430590E+03 -0.72183734368E+02  0.78962542619E+03  0.50400001928E-02 0.  1.
</event>
<event>
 5   0  0.2789718E-05  0.1898339E+04  0.7818609E-02  0.8655683E-01
        2   -1    0    0  501    0  0.00000000000E+00  0.00000000000E+00  0.13932904901E+04  0.13932904901E+04  0.25500000920E-02 0. -1.
       -2   -1    0    0    0  501  0.00000000000E+00  0.00000000000E+00 -0.64661539861E+03  0.64661539861E+03  0.25500000920E-02 0.  1.
    10030    2    1    2    0    0  0.00000000000E+00  0.00000000000E+00  0.74667509148E+03  0.20399058887E+04  0.18983393644E+04 0.  0.
        5    1    3    3  502    0 -0.47517655353E+03 -0.30712661419E+03  0.11922597718E+04  0.13197063945E+04  0.46999998093E+01 0. -1.
       -5    1    3    3    0  502  0.47517655353E+03  0.30712661419E+03 -0.44558468031E+03  0.72019949423E+03  0.46999998093E+01 0.  1.
</event>
<event>
 5   0  0.1429067E-05  0.1900715E+04  0.7818609E-02  0.8654501E-01
        1   -1    0    0  501    0  0.00000000000E+00  0.00000000000E+00  0.11938718441E+04  0.11938718441E+04  0.50400001928E-02 0.  1.
       -1   -1    0    0    0  501  0.00000000000E+00  0.00000000000E+00 -0.75651262229E+03  0.75651262231E+03  0.50400001928E-02 0. -1.
    10030    2    1    2    0    0  0.00000000000E+00  0.00000000000E+00  0.43735922181E+03  0.19503844664E+04  0.19007147282E+04 0.  0.
        3    1    3    3  502    0 -0.70111101051E+03  0.16581922710E+03  0.85465512118E+03  0.11178050150E+04  0.10100000352E+00 0.  1.
       -3    1    3    3    0  502  0.70111101051E+03 -0.16581922710E+03 -0.41729589937E+03  0.83257945144E+03  0.10100000352E+00 0. -1.
</event>
<event>
 5   0  0.2813537E-05  0.1900533E+04  0.7818609E-02  0.8654591E-01
       -2   -1    0    0    0  501  0.00000000000E+00  0.00000000000E+00  0.74126247448E+03  0.74126247449E+03  0.25500000920E-02 0. -1.
        2   -1    0    0  501    0  0.00000000000E+00  0.00000000000E+00 -0.12182001777E+04  0.12182001777E+04  0.25500000920E-02 0.  1.
    10030    2    1    2    0    0  0.00000000000E+00  0.00000000000E+00 -0.47693770320E+03  0.19594626522E+04  0.19005326392E+04 0.  0.
        2    1    3    3  502    0  0.65640142651E+03 -0.67060833081E+03 -0.39287128601E+03  0.10173132327E+04  0.25500000920E-02 0.  1.
       -2    1    3    3    0  502 -0.65640142651E+03  0.67060833081E+03 -0.84066417191E+02  0.94214941946E+03  0.25500000920E-02 0. -1.
</event>
<event>
 5   0  0.1327254E-05  0.1901092E+04  0.7818609E-02  0.8654313E-01
        1   -1    0    0  501    0  0.00000000000E+00  0.00000000000E+00  0.13239252718E+04  0.13239252718E+04  0.50400001928E-02 0. -1.
       -1   -1    0    0    0  501  0.00000000000E+00  0.00000000000E+00 -0.68246859340E+03  0.68246859342E+03  0.50400001928E-02 0.  1.
    10030    2    1    2    0    0  0.00000000000E+00  0.00000000000E+00  0.64145667837E+03  0.20063938652E+04  0.19010917053E+04 0.  0.
        5    1    3    3  502    0  0.76540843623E+03 -0.27297774553E+03  0.84114217717E+03  0.11695764943E+04  0.46999998093E+01 0. -1.
       -5    1    3    3    0  502 -0.76540843623E+03  0.27297774553E+03 -0.19968549880E+03  0.83681737090E+03  0.46999998093E+01 0.  1.
</event>
<event>
 5   0  0.1344119E-05  0.1899834E+04  0.7818609E-02  0.8654939E-01
       -1   -1    0    0    0  501  0.00000000000E+00  0.00000000000E+00  0.13137539087E+04  0.13137539087E+04  0.50400001928E-02 0. -1.
        1   -1    0    0  501    0  0.00000000000E+00  0.00000000000E+00 -0.68684291108E+03  0.68684291109E+03  0.50400001928E-02 0.  1.
    10030    2    1    2    0    0  0.00000000000E+00  0.00000000000E+00  0.62691099763E+03  0.20005968198E+04  0.18998342655E+04 0.  0.
        2    1    3    3  502    0 -0.82903173232E+03  0.32634300883E+03 -0.33486714143E+02  0.89157990816E+03  0.25500000920E-02 0. -1.
       -2    1    3    3    0  502  0.82903173232E+03 -0.32634300883E+03  0.66039771178E+03  0.11090169117E+04  0.25500000920E-02 0.  1.
</event>
<event>
 5   0  0.1010725E-05  0.1899596E+04  0.7818609E-02  0.8655058E-01
       -3   -1    0    0    0  501  0.00000000000E+00  0.00000000000E+00  0.15544869757E+04  0.15544869789E+04  0.10100000352E+00 0.  1.
        3   -1    0    0  501    0  0.00000000000E+00  0.00000000000E+00 -0.58033034487E+03  0.58033035366E+03  0.10100000352E+00 0. -1.
    10030    2    1    2    0    0  0.00000000000E+00  0.00000000000E+00  0.97415663079E+03  0.21348173326E+04  0.18995957208E+04 0.  0.
        2    1    3    3  502    0 -0.37398154078E+03 -0.10563831047E+03 -0.48689437434E+03  0.62296691505E+03  0.25500000920E-02 0. -1.
       -2    1    3    3    0  502  0.37398154078E+03  0.10563831047E+03  0.14610510051E+04  0.15118504176E+04  0.25500000920E-02 0.  1.
</event>
<event>
 5   0  0.2789718E-05  0.1902255E+04  0.7818609E-02  0.8653735E-01
       -2   -1    0    0    0  501  0.00000000000E+00  0.00000000000E+00  0.53157659912E+03  0.53157659913E+03  0.25500000920E-02 0. -1.
        2   -1    0    0  501    0  0.00000000000E+00  0.00000000000E+00 -0.17018113644E+04  0.17018113644E+04  0.25500000920E-02 0.  1.
    10030    2    1    2    0    0  0.00000000000E+00  0.00000000000E+00 -0.11702347653E+04  0.22333879635E+04  0.19022545544E+04 0.  0.
        5    1    3    3  502    0 -0.41067602658E+03  0.77397391658E+03 -0.15066141140E+03  0.88905082714E+03  0.46999998093E+01 0. -1.
       -5    1    3    3    0  502  0.41067602658E+03 -0.77397391658E+03 -0.10195733539E+04  0.13443371364E+04  0.46999998093E+01 0.  1.
</event>
<event>
 5   0  0.1327254E-05  0.1888341E+04  0.7818609E-02  0.8660682E-01
       -1   -1    0    0    0  501  0.00000000000E+00  0.00000000000E+00  0.46499830617E+03  0.46499830620E+03  0.50400001928E-02 0. -1.
        1   -1    0    0  501    0  0.00000000000E+00  0.00000000000E+00 -0.19171212032E+04  0.19171212033E+04  0.50400001928E-02 0.  1.
    10030    2    1    2    0    0  0.00000000000E+00  0.00000000000E+00 -0.14521228971E+04  0.23821195095E+04  0.18883411898E+04 0.  0.
        5    1    3    3  502    0 -0.20626952032E+03  0.22785573647E+03 -0.18522322140E+04  0.18775653427E+04  0.46999998093E+01 0.  1.
       -5    1    3    3    0  502  0.20626952032E+03 -0.22785573647E+03  0.40010931693E+03  0.50455416671E+03  0.46999998093E+01 0. -1.
</event>
<event>
 5   0  0.2855141E-05  0.1905243E+04  0.7818609E-02  0.8652251E-01
       -2   -1    0    0    0  501  0.00000000000E+00  0.00000000000E+00  0.11681027010E+04  0.11681027010E+04  0.25500000920E-02 0.  1.
        2   -1    0    0  501    0  0.00000000000E+00  0.00000000000E+00 -0.77689011445E+03  0.77689011445E+03  0.25500000920E-02 0. -1.
    10030    2    1    2    0    0  0.00000000000E+00  0.00000000000E+00  0.39121258655E+03  0.19449928155E+04  0.19052427048E+04 0.  0.
        1    1    3    3  502    0 -0.94335322026E+03  0.12924934352E+03  0.22566114834E+03  0.97854159077E+03  0.50400001928E-02 0. -1.
       -1    1    3    3    0  502  0.94335322026E+03 -0.12924934352E+03  0.16555143821E+03  0.96645122468E+03  0.50400001928E-02 0.  1.
</event>
<event>
 5   0  0.2789718E-05  0.1902050E+04  0.7818609E-02  0.8653836E-01
        2   -1    0    0  501    0  0.00000000000E+00  0.00000000000E+00  0.21303355917E+04  0.21303355917E+04  0.25500000920E-02 0. -1.
       -2   -1    0    0    0  501  0.00000000000E+00  0.00000000000E+00 -0.42455699445E+03  0.42455699446E+03  0.25500000920E-02 0.  1.
    10030    2    1    2    0    0  0.00000000000E+00  0.00000000000E+00  0.17057785972E+04  0.25548925862E+04  0.19020503421E+04 0.  0.
        5    1    3    3  502    0  0.31845858005E+03 -0.28144669879E+03 -0.28988254248E+03  0.51447263280E+03  0.46999998093E+01 0.  1.
       -5    1    3    3    0  502 -0.31845858005E+03  0.28144669879E+03  0.19956611397E+04  0.20404199534E+04  0.46999998093E+01 0. -1.
</event>
<event>
 5   0  0.2789718E-05  0.1896582E+04  0.7818609E-02  0.8656560E-01
       -2   -1    0    0    0  501  0.00000000000E+00  0.00000000000E+00  0.46640470608E+03  0.46640470609E+03  0.25500000920E-02 0. -1.
        2   -1    0    0  501    0  0.00000000000E+00  0.00000000000E+00 -0.19280584863E+04  0.19280584863E+04  0.25500000920E-02 0.  1.
    10030    2    1    2    0    0  0.00000000000E+00  0.00000000000E+00 -0.14616537802E+04  0.23944631924E+04  0.18965817163E+04 0.  0.
        5    1    3    3  502    0 -0.69961053390E+03 -0.63487013376E+03 -0.83431059823E+03  0.12604012259E+04  0.46999998093E+01 0. -1.
       -5    1    3    3    0  502  0.69961053390E+03  0.63487013376E+03 -0.62734318195E+03  0.11340619665E+04  0.46999998093E+01 0.  1.
</event>
<event>
 5   0  0.1327254E-05  0.1898447E+04  0.7818609E-02  0.8655630E-01
       -1   -1    0    0    0  501  0.00000000000E+00  0.00000000000E+00  0.66723728932E+03  0.66723728934E+03  0.50400001928E-02 0.  1.
        1   -1    0    0  501    0  0.00000000000E+00  0.00000000000E+00 -0.13503826394E+04  0.13503826394E+04  0.50400001928E-02 0. -1.
    10030    2    1    2    0    0  0.00000000000E+00  0.00000000000E+00 -0.68314535006E+03  0.20176199287E+04  0.18984474203E+04 0.  0.
        5    1    3    3  502    0  0.35417106969E+03  0.33926016279E+03 -0.12052807713E+04  0.13012526397E+04  0.46999998093E+01 0. -1.
       -5    1    3    3    0  502 -0.35417106969E+03 -0.33926016279E+03  0.52213542125E+03  0.71636728902E+03  0.46999998093E+01 0.  1.
</event>
<event>
 5   0  0.1327254E-05  0.1899289E+04  0.7818609E-02  0.8655210E-01
        1   -1    0    0  501    0  0.00000000000E+00  0.00000000000E+00  0.10700681470E+04  0.10700681470E+04  0.50400001928E-02 0.  1.
       -1   -1    0    0    0  501  0.00000000000E+00  0.00000000000E+00 -0.84277332257E+03  0.84277332259E+03  0.50400001928E-02 0. -1.
    10030    2    1    2    0    0  0.00000000000E+00  0.00000000000E+00  0.22729482441E+03  0.19128414696E+04  0.18992892225E+04 0.  0.
        5    1    3    3  502    0  0.43379275499E+03 -0.23923711188E+03 -0.70231395366E+03  0.85946351260E+03  0.46999998093E+01 0. -1.
       -5    1    3    3    0  502 -0.43379275499E+03  0.23923711188E+03  0.92960877807E+03  0.10533779570E+04  0.46999998093E+01 0.  1.
</event>
<event>
 5   0  0.2789718E-05  0.1908621E+04  0.7818609E-02  0.8650577E-01
       -2   -1    0    0    0  501  0.00000000000E+00  0.00000000000E+00  0.59443848464E+03  0.59443848464E+03  0.25500000920E-02 0.  1.
        2   -1    0    0  501    0  0.00000000000E+00  0.00000000000E+00 -0.15320486022E+04  0.15320486022E+04  0.25500000920E-02 0. -1.
    10030    2    1    2    0    0  0.00000000000E+00  0.00000000000E+00 -0.93761011757E+03  0.21264870869E+04  0.19086211248E+04 0.  0.
        5    1    3    3  502    0 -0.88999426014E+03  0.13568071648E+03 -0.82145988832E+03  0.12187360165E+04  0.46999998093E+01 0. -1.
       -5    1    3    3    0  502  0.88999426014E+03 -0.13568071648E+03 -0.11615022926E+03  0.90775107032E+03  0.46999998093E+01 0.  1.
</event>
<event>
 5   0  0.1471485E-05  0.1900299E+04  0.7818609E-02  0.8654707E-01
       -1   -1    0    0    0  501  0.00000000000E+00  0.00000000000E+00  0.96394374428E+03  0.96394374429E+03  0.50400001928E-02 0.  1.
        1   -1    0    0  501    0  0.00000000000E+00  0.00000000000E+00 -0.93655288395E+03  0.93655288397E+03  0.50400001928E-02 0. -1.
    10030    2    1    2    0    0  0.00000000000E+00  0.00000000000E+00  0.27390860325E+02  0.19004966283E+04  0.19002992330E+04 0.  0.
        4    1    3    3  502    0  0.21211630645E+03  0.13557224832E+03 -0.90259268867E+03  0.93704233443E+03  0.12699999809E+01 0. -1.
       -4    1    3    3    0  502 -0.21211630645E+03 -0.13557224832E+03  0.92998354900E+03  0.96345429382E+03  0.12699999809E+01 0.  1.
</event>
<event>
 5   0  0.2855141E-05  0.1896808E+04  0.7818609E-02  0.8656447E-01
        2   -1    0    0  501    0  0.00000000000E+00  0.00000000000E+00  0.90075745519E+03  0.90075745519E+03  0.25500000920E-02 0.  1.
       -2   -1    0    0    0  501  0.00000000000E+00  0.00000000000E+00 -0.99857124520E+03  0.99857124521E+03  0.25500000920E-02 0. -1.
    10030    2    1    2    0    0  0.00000000000E+00  0.00000000000E+00 -0.97813790018E+02  0.18993287004E+04  0.18968083653E+04 0.  0.
        1    1    3    3  502    0 -0.70565053936E+03 -0.58388242506E+03 -0.29542321550E+03  0.96235972810E+03  0.50400001928E-02 0. -1.
       -1    1    3    3    0  502  0.70565053936E+03  0.58388242506E+03  0.19760942548E+03  0.93696897230E+03  0.50400001928E-02 0.  1.
</event>
<event>
 5   0  0.1327254E-05  0.1900785E+04  0.7818609E-02  0.8654466E-01
       -1   -1    0    0    0  501  0.00000000000E+00  0.00000000000E+00  0.67908361286E+03  0.67908361288E+03  0.50400001928E-02 0.  1.
        1   -1    0    0  501    0  0.00000000000E+00  0.00000000000E+00 -0.13300955133E+04  0.13300955133E+04  0.50400001928E-02 0. -1.
    10030    2    1    2    0    0  0.00000000000E+00  0.00000000000E+00 -0.65101190045E+03  0.20091791262E+04  0.19007851711E+04 0.  0.
        5    1    3    3  502    0  0.47113881664E+03  0.75201865207E+03  0.34069552029E+02  0.88808032406E+03  0.46999998093E+01 0. -1.
       -5    1    3    3    0  502 -0.47113881664E+03 -0.75201865207E+03 -0.68508145247E+03  0.11210988021E+04  0.46999998093E+01 0.  1.
</event>
<event>
 5   0  0.1413011E-05  0.1898372E+04  0.7818609E-02  0.8655667E-01
       -1   -1    0    0    0  501  0.00000000000E+00  0.00000000000E+00  0.79406877206E+03  0.79406877208E+03  0.50400001928E-02 0.  1.
        1   -1    0    0  501    0  0.00000000000E+00  0.00000000000E+00 -0.11346051480E+04  0.11346051481E+04  0.50400001928E-02 0. -1.
    10030    2    1    2    0    0  0.00000000000E+00  0.00000000000E+00 -0.34053637598E+03  0.19286739201E+04  0.18983724784E+04 0.  0.
        1    1    3    3  502    0 -0.69222550254E+03 -0.16046469125E+03  0.46908542231E+03  0.85144946823E+03  0.50400001928E-02 0.  1.
       -1    1    3    3    0  502  0.69222550254E+03  0.16046469125E+03 -0.80962179829E+03  0.10772244519E+04  0.50400001928E-02 0. -1.
</event>
<event>
 5   0  0.1413011E-05  0.1900828E+04  0.7818609E-02  0.8654444E-01
        1   -1    0    0  501    0  0.00000000000E+00  0.00000000000E+00  0.17025486250E+04  0.17025486250E+04  0.50400001928E-02 0.  1.
       -1   -1    0    0    0  501  0.00000000000E+00  0.00000000000E+00 -0.53054965266E+03  0.53054965268E+03  0.50400001928E-02 0. -1.
    10030    2    1    2    0    0  0.00000000000E+00  0.00000000000E+00  0.11719989724E+04  0.22330982777E+04  0.19008278004E+04 0.  0.
        1    1    3    3  502    0  0.46298621648E+03  0.57954289896E+03  0.12840543373E+04  0.14829098926E+04  0.50400001928E-02 0.  1.
       -1    1    3    3    0  502 -0.46298621648E+03 -0.57954289896E+03 -0.11205536491E+03  0.75018838515E+03  0.50400001928E-02 0. -1.
</event>
<event>
 5   0  0.1471485E-05  0.1900636E+04  0.7818609E-02  0.8654540E-01
        1   -1    0    0  501    0  0.00000000000E+00  0.00000000000E+00  0.19843569127E+04  0.19843569127E+04  0.50400001928E-02 0. -1.
       -1   -1    0    0    0  501  0.00000000000E+00  0.00000000000E+00 -0.45511201327E+03  0.45511201330E+03  0.50400001928E-02 0.  1.
    10030    2    1    2    0    0  0.00000000000E+00  0.00000000000E+00  0.15292448994E+04  0.24394689260E+04  0.19006363878E+04 0.  0.
        4    1    3    3  502    0  0.16454423910E+03  0.87561518337E+03  0.34023886444E+03  0.95369851302E+03  0.12699999809E+01 0.  1.
       -4    1    3    3    0  502 -0.16454423910E+03 -0.87561518337E+03  0.11890060350E+04  0.14857704130E+04  0.12699999809E+01 0. -1.
</event>
<event>
 5   0  0.2879462E-05  0.1895204E+04  0.7818609E-02  0.8657248E-01
        2   -1    0    0  501    0  0.00000000000E+00  0.00000000000E+00  0.27008790046E+04  0.27008790046E+04  0.25500000920E-02 0. -1.
       -2   -1    0    0    0  501  0.00000000000E+00  0.00000000000E+00 -0.33246552536E+03  0.33246552537E+03  0.25500000920E-02 0.  1.
    10030    2    1    2    0    0  0.00000000000E+00  0.00000000000E+00  0.23684134792E+04  0.30333445299E+04  0.18952035851E+04 0.  0.
        4    1    3    3  502    0 -0.39731429490E+03  0.77007552298E+03  0.17980135931E+04  0.19959282186E+04  0.12699999809E+01 0. -1.
       -4    1    3    3    0  502  0.39731429490E+03 -0.77007552298E+03  0.57039988612E+03  0.10374163113E+04  0.12699999809E+01 0.  1.
</event>
<event>
 5   0  0.2888776E-05  0.1904448E+04  0.7818609E-02  0.8652646E-01
        2   -1    0    0  501    0  0.00000000000E+00  0.00000000000E+00  0.13853317493E+04  0.13853317493E+04  0.25500000920E-02 0.  1.
       -2   -1    0    0    0  501  0.00000000000E+00  0.00000000000E+00 -0.65452221328E+03  0.65452221328E+03  0.25500000920E-02 0. -1.
    10030    2    1    2    0    0  0.00000000000E+00  0.00000000000E+00  0.73080953600E+03  0.20398539626E+04  0.19044478493E+04 0.  0.
        3    1    3    3  502    0 -0.21909772836E+03 -0.41645908893E+03  0.12520843008E+04  0.13375937701E+04  0.10100000352E+00 0.  1.
       -3    1    3    3    0  502  0.21909772836E+03  0.41645908893E+03 -0.52127476478E+03  0.70226019247E+03  0.10100000352E+00 0. -1.
</event>
<event>
 5   0  0.1413011E-05  0.1906027E+04  0.7818609E-02  0.8651862E-01
        1   -1    0    0  501    0  0.00000000000E+00  0.00000000000E+00  0.60971452776E+03  0.60971452778E+03  0.50400001928E-02 0. -1.
       -1   -1    0    0    0  501  0.00000000000E+00  0.00000000000E+00 -0.14896072258E+04  0.14896072258E+04  0.50400001928E-02 0.  1.
    10030    2    1    2    0    0  0.00000000000E+00  0.00000000000E+00 -0.87989269804E+03  0.20993217536E+04  0.19060274565E+04 0.  0.
        1    1    3    3  502    0 -0.69191478470E+02 -0.93032509649E+03 -0.22540291344E+03  0.95973888078E+03  0.50400001928E-02 0. -1.
       -1    1    3    3    0  502  0.69191478470E+02  0.93032509649E+03 -0.65448978459E+03  0.11395828728E+04  0.50400001928E-02 0.  1.
</event>
<event>
 5   0  0.2789718E-05  0.1899737E+04  0.7818609E-02  0.8654987E-01
        2   -1    0    0  501    0  0.00000000000E+00  0.00000000000E+00  0.20237978735E+04  0.20237978735E+04  0.25500000920E-02 0.  1.
       -2   -1    0    0    0  501  0.00000000000E+00  0.00000000000E+00 -0.44582022992E+03  0.44582022993E+03  0.25500000920E-02 0. -1.
    10030    2    1    2    0    0  0.00000000000E+00  0.00000000000E+00  0.15779776436E+04  0.24696181035E+04  0.18997368589E+04 0.  0.
        5    1    3    3  502    0  0.60551255134E+02  0.72955382055E+02 -0.43963855893E+03  0.44977004654E+03  0.46999998093E+01 0. -1.
       -5    1    3    3    0  502 -0.60551255134E+02 -0.72955382055E+02  0.20176162025E+04  0.20198480569E+04  0.46999998093E+01 0.  1.
</event>
<event>
 5   0  0.2888776E-05  0.1900819E+04  0.7818609E-02  0.8654449E-01
       -2   -1    0    0    0  501  0.00000000000E+00  0.00000000000E+00  0.48775539174E+03  0.48775539175E+03  0.25500000920E-02 0. -1.
        2   -1    0    0  501    0  0.00000000000E+00  0.00000000000E+00 -0.18519088779E+04  0.18519088779E+04  0.25500000920E-02 0.  1.
    10030    2    1    2    0    0  0.00000000000E+00  0.00000000000E+00 -0.13641534861E+04  0.23396642696E+04  0.19008193393E+04 0.  0.
        3    1    3    3  502    0 -0.62710938330E+03 -0.63177091711E+03 -0.10919363486E+04  0.14088029209E+04  0.10100000352E+00 0.  1.
       -3    1    3    3    0  502  0.62710938330E+03  0.63177091711E+03 -0.27221713748E+03  0.93086134868E+03  0.10100000352E+00 0. -1.
</event>
<event>
 5   0  0.2879462E-05  0.1896897E+04  0.7818609E-02  0.8656403E-01
       -2   -1    0    0    0  501  0.00000000000E+00  0.00000000000E+00  0.44754852016E+03  0.44754852017E+03  0.25500000920E-02 0.  1.
        2   -1    0    0  501    0  0.00000000000E+00  0.00000000000E+00 -0.20099594099E+04  0.20099594099E+04  0.25500000920E-02 0. -1.
    10030    2    1    2    0    0  0.00000000000E+00  0.00000000000E+00 -0.15624108897E+04  0.24575079300E+04  0.18968967916E+04 0.  0.
        4    1    3    3  502    0  0.33863171781E+03  0.68475735996E+03 -0.15094663180E+04  0.16917606983E+04  0.12699999809E+01 0. -1.
       -4    1    3    3    0  502 -0.33863171781E+03 -0.68475735996E+03 -0.52944571736E+02  0.76574723174E+03  0.12699999809E+01 0.  1.
</event>
<event>
 5   0  0.2813537E-05  0.1883416E+04  0.7818609E-02  0.8663155E-01
        2   -1    0    0  501    0  0.00000000000E+00  0.00000000000E+00  0.19106656115E+04  0.19106656115E+04  0.25500000920E-02 0. -1.
       -2   -1    0    0    0  501  0.00000000000E+00  0.00000000000E+00 -0.46413894963E+03  0.46413894963E+03  0.25500000920E-02 0.  1.
    10030    2    1    2    0    0  0.00000000000E+00  0.00000000000E+00  0.14465266618E+04  0.23748045611E+04  0.18834163958E+04 0.  0.
        2    1    3    3  502    0 -0.30656812676E+03 -0.46793025514E+03 -0.23192474026E+03  0.60558387129E+03  0.25500000920E-02 0.  1.
       -2    1    3    3    0  502  0.30656812676E+03  0.46793025514E+03  0.16784514021E+04  0.17692206898E+04  0.25500000920E-02 0. -1.
</event>
<event>
 5   0  0.2813537E-05  0.1901184E+04  0.7818609E-02  0.8654267E-01
        2   -1    0    0  501    0  0.00000000000E+00  0.00000000000E+00  0.10259574250E+04  0.10259574250E+04  0.25500000920E-02 0. -1.
       -2   -1    0    0    0  501  0.00000000000E+00  0.00000000000E+00 -0.88076293789E+03  0.88076293790E+03  0.25500000920E-02 0.  1.
    10030    2    1    2    0    0  0.00000000000E+00  0.00000000000E+00  0.14519448708E+03  0.19067203629E+04  0.19011841318E+04 0.  0.
        2    1    3    3  502    0  0.70976388697E+03 -0.15036023899E+03 -0.54340000372E+03  0.90645272395E+03  0.25500000920E-02 0.  1.
       -2    1    3    3    0  502 -0.70976388697E+03  0.15036023899E+03  0.68859449080E+03  0.10002676389E+04  0.25500000920E-02 0. -1.
</event>
<event>
 5   0  0.2813537E-05  0.1896885E+04  0.7818609E-02  0.8656409E-01
       -2   -1    0    0    0  501  0.00000000000E+00  0.00000000000E+00  0.61652577810E+03  0.61652577811E+03  0.25500000920E-02 0.  1.
        2   -1    0    0  501    0  0.00000000000E+00  0.00000000000E+00 -0.14590513220E+04  0.14590513220E+04  0.25500000920E-02 0. -1.
    10030    2    1    2    0    0  0.00000000000E+00  0.00000000000E+00 -0.84252554386E+03  0.20755771001E+04  0.18968845527E+04 0.  0.
        2    1    3    3  502    0  0.92185747493E+02  0.37181690966E+03 -0.13706356733E+04  0.14231613314E+04  0.25500000920E-02 0. -1.
       -2    1    3    3    0  502 -0.92185747493E+02 -0.37181690966E+03  0.52811012944E+03  0.65241576865E+03  0.25500000920E-02 0.  1.
</event>
<event>
 5   0  0.2888776E-05  0.1900681E+04  0.7818609E-02  0.8654517E-01
       -2   -1    0    0    0  501  0.00000000000E+00  0.00000000000E+00  0.99526438939E+03  0.99526438939E+03  0.25500000920E-02 0.  1.
        2   -1    0    0  501    0  0.00000000000E+00  0.00000000000E+00 -0.90744445093E+03  0.90744445094E+03  0.25500000920E-02 0. -1.
    10030    2    1    2    0    0  0.00000000000E+00  0.00000000000E+00  0.87819938452E+02  0.19027088403E+04  0.19006810857E+04 0.  0.
        3    1    3    3  502    0  0.20600948506E+03  0.75945249578E+02  0.96952582778E+03  0.99407642051E+03  0.10100000352E+00 0.  1.
       -3    1    3    3    0  502 -0.20600948506E+03 -0.75945249578E+02 -0.88170588933E+03  0.90863241982E+03  0.10100000352E+00 0. -1.
</event>
<event>
 5   0  0.2879462E-05  0.1899011E+04  0.7818609E-02  0.8655349E-01
        2   -1    0    0  501    0  0.00000000000E+00  0.00000000000E+00  0.98866747981E+03  0.98866747981E+03  0.25500000920E-02 0.  1.
       -2   -1    0    0    0  501  0.00000000000E+00  0.00000000000E+00 -0.91189428283E+03  0.91189428283E+03  0.25500000920E-02 0. -1.
    10030    2    1    2    0    0  0.00000000000E+00  0.00000000000E+00  0.76773196982E+02  0.19005617626E+04  0.18990105028E+04 0.  0.
        4    1    3    3  502    0 -0.92582733781E+03  0.14934128549E+03  0.18716714345E+03  0.95629087179E+03  0.12699999809E+01 0.  1.
       -4    1    3    3    0  502  0.92582733781E+03 -0.14934128549E+03 -0.11039394647E+03  0.94427089085E+03  0.12699999809E+01 0. -1.
</event>
<event>
 5   0  0.2855141E-05  0.1902550E+04  0.7818609E-02  0.8653588E-01
        2   -1    0    0  501    0  0.00000000000E+00  0.00000000000E+00  0.18566437040E+04  0.18566437040E+04  0.25500000920E-02 0.  1.
       -2   -1    0    0    0  501  0.00000000000E+00  0.00000000000E+00 -0.48739798880E+03  0.48739798880E+03  0.25500000920E-02 0. -1.
    10030    2    1    2    0    0  0.00000000000E+00  0.00000000000E+00  0.13692457152E+04  0.23440416928E+04  0.19025502960E+04 0.  0.
        1    1    3    3  502    0  0.90085090441E+03 -0.29599150265E+03  0.59094566107E+03  0.11173003607E+04  0.50400001928E-02 0.  1.
       -1    1    3    3    0  502 -0.90085090441E+03  0.29599150265E+03  0.77830005412E+03  0.12267413321E+04  0.50400001928E-02 0. -1.
</event>
<event>
 5   0  0.1413011E-05  0.1893091E+04  0.7818609E-02  0.8658303E-01
       -1   -1    0    0    0  501  0.00000000000E+00  0.00000000000E+00  0.15642287360E+04  0.15642287360E+04  0.50400001928E-02 0. -1.
        1   -1    0    0  501    0  0.00000000000E+00  0.00000000000E+00 -0.57277323647E+03  0.57277323649E+03  0.50400001928E-02 0.  1.
    10030    2    1    2    0    0  0.00000000000E+00  0.00000000000E+00  0.99145549955E+03  0.21370019725E+04  0.18930909706E+04 0.  0.
        1    1    3    3  502    0 -0.46424801339E+03 -0.29933116463E+03 -0.37195733607E+03  0.66594115651E+03  0.50400001928E-02 0.  1.
       -1    1    3    3    0  502  0.46424801339E+03  0.29933116463E+03  0.13634128356E+04  0.14710608160E+04  0.50400001928E-02 0. -1.
</event>
<event>
 5   0  0.1429067E-05  0.1898532E+04  0.7818609E-02  0.8655587E-01
        1   -1    0    0  501    0  0.00000000000E+00  0.00000000000E+00  0.19434432096E+04  0.19434432096E+04  0.50400001928E-02 0. -1.
       -1   -1    0    0    0  501  0.00000000000E+00  0.00000000000E+00 -0.46366475008E+03  0.46366475010E+03  0.50400001928E-02 0.  1.
    10030    2    1    2    0    0  0.00000000000E+00  0.00000000000E+00  0.14797784595E+04  0.24071079597E+04  0.18985321805E+04 0.  0.
        3    1    3    3  502    0 -0.59260311447E+03  0.39606287782E+03 -0.55002631750E+02  0.71489128836E+03  0.10100000352E+00 0.  1.
       -3    1    3    3    0  502  0.59260311447E+03 -0.39606287782E+03  0.15347810913E+04  0.16922166713E+04  0.10100000352E+00 0. -1.
</event>
<event>
 5   0  0.1413011E-05  0.1897251E+04  0.7818609E-02  0.8656226E-01
        1   -1    0    0  501    0  0.00000000000E+00  0.00000000000E+00  0.14373559118E+04  0.14373559118E+04  0.50400001928E-02 0. -1.
       -1   -1    0    0    0  501  0.00000000000E+00  0.00000000000E+00 -0.62607319608E+03  0.62607319610E+03  0.50400001928E-02 0.  1.
    10030    2    1    2    0    0  0.00000000000E+00  0.00000000000E+00  0.81128271571E+03  0.20634291079E+04  0.18972506525E+04 0.  0.
        1    1    3    3  502    0  0.41371767656E+02 -0.93649660273E+03  0.24746350036E+03  0.96952343660E+03  0.50400001928E-02 0. -1.
       -1    1    3    3    0  502 -0.41371767656E+02  0.93649660273E+03  0.56381921536E+03  0.10939056713E+04  0.50400001928E-02 0.  1.
</event>
<event>
 5   0  0.2879462E-05  0.1900182E+04  0.7818609E-02  0.8654766E-01
       -2   -1    0    0    0  501  0.00000000000E+00  0.00000000000E+00  0.16539246121E+04  0.16539246121E+04  0.25500000920E-02 0.  1.
        2   -1    0    0  501    0  0.00000000000E+00  0.00000000000E+00 -0.54577639848E+03  0.54577639848E+03  0.25500000920E-02 0. -1.
    10030    2    1    2    0    0  0.00000000000E+00  0.00000000000E+00  0.11081482136E+04  0.21997010106E+04  0.19001821156E+04 0.  0.
        4    1    3    3  502    0  0.69690626767E+03  0.44225749643E+03  0.93726004538E+01  0.82544503003E+03  0.12699999809E+01 0. -1.
       -4    1    3    3    0  502 -0.69690626767E+03 -0.44225749643E+03  0.10987756131E+04  0.13742559805E+04  0.12699999809E+01 0.  1.
</event>
<event>
 5   0  0.2813537E-05  0.1896206E+04  0.7818609E-02  0.8656747E-01
       -2   -1    0    0    0  501  0.00000000000E+00  0.00000000000E+00  0.12339149179E+04  0.12339149179E+04  0.25500000920E-02 0.  1.
        2   -1    0    0  501    0  0.00000000000E+00  0.00000000000E+00 -0.72849347057E+03  0.72849347058E+03  0.25500000920E-02 0. -1.
    10030    2    1    2    0    0  0.00000000000E+00  0.00000000000E+00  0.50542144737E+03  0.19624083885E+04  0.18962056439E+04 0.  0.
        2    1    3    3  502    0  0.62704920193E+03  0.18960404968E+02 -0.48298725016E+03  0.79172399384E+03  0.25500000920E-02 0. -1.
       -2    1    3    3    0  502 -0.62704920193E+03 -0.18960404968E+02  0.98840869754E+03  0.11706843947E+04  0.25500000920E-02 0.  1.
</event>
<event>
 5   0  0.2813537E-05  0.1904924E+04  0.7818609E-02  0.8652409E-01
       -2   -1    0    0    0  501  0.00000000000E+00  0.00000000000E+00  0.86453161821E+03  0.86453161822E+03  0.25500000920E-02 0.  1.
        2   -1    0    0  501    0  0.00000000000E+00  0.00000000000E+00 -0.10493355783E+04  0.10493355783E+04  0.25500000920E-02 0. -1.
    10030    2    1    2    0    0  0.00000000000E+00  0.00000000000E+00 -0.18480396010E+03  0.19138671965E+04  0.19049239203E+04 0.  0.
        2    1    3    3  502    0  0.85271437978E+03 -0.31892808032E+03  0.18881720024E+03  0.92977893557E+03  0.25500000920E-02 0.  1.
       -2    1    3    3    0  502 -0.85271437978E+03  0.31892808032E+03 -0.37362116034E+03  0.98408826097E+03  0.25500000920E-02 0. -1.
</event>
<event>
 5   0  0.2855141E-05  0.1899760E+04  0.7818609E-02  0.8654976E-01
       -2   -1    0    0    0  501  0.00000000000E+00  0.00000000000E+00  0.11916200172E+04  0.11916200172E+04  0.25500000920E-02 0. -1.
        2   -1    0    0  501    0  0.00000000000E+00  0.00000000000E+00 -0.75718079246E+03  0.75718079246E+03  0.25500000920E-02 0.  1.
    10030    2    1    2    0    0  0.00000000000E+00  0.00000000000E+00  0.43443922475E+03  0.19488008097E+04  0.18997597626E+04 0.  0.
        1    1    3    3  502    0  0.39780324893E+03 -0.19785389945E+03 -0.64402358690E+03  0.78240652534E+03  0.50400001928E-02 0.  1.
       -1    1    3    3    0  502 -0.39780324893E+03  0.19785389945E+03  0.10784628116E+04  0.11663942843E+04  0.50400001928E-02 0. -1.
</event>
<event>
 5   0  0.2789718E-05  0.1915162E+04  0.7818609E-02  0.8647346E-01
       -2   -1    0    0    0  501  0.00000000000E+00  0.00000000000E+00  0.17185406026E+04  0.17185406026E+04  0.25500000920E-02 0. -1.
        2   -1    0    0  501    0  0.00000000000E+00  0.00000000000E+00 -0.53356978266E+03  0.53356978267E+03  0.25500000920E-02 0.  1.
    10030    2    1    2    0    0  0.00000000000E+00  0.00000000000E+00  0.11849708200E+04  0.22521103853E+04  0.19151619627E+04 0.  0.
        5    1    3    3  502    0 -0.63906754426E+03  0.68239503083E+03  0.83596106703E+03  0.12541623897E+04  0.46999998093E+01 0. -1.
       -5    1    3    3    0  502  0.63906754426E+03 -0.68239503083E+03  0.34900975296E+03  0.99794799558E+03  0.46999998093E+01 0.  1.
</event>
<event>
 5   0  0.1344119E-05  0.1899932E+04  0.7818609E-02  0.8654890E-01
       -1   -1    0    0    0  501  0.00000000000E+00  0.00000000000E+00  0.10307243454E+04  0.10307243454E+04  0.50400001928E-02 0.  1.
        1   -1    0    0  501    0  0.00000000000E+00  0.00000000000E+00 -0.87553515295E+03  0.87553515297E+03  0.50400001928E-02 0. -1.
    10030    2    1    2    0    0  0.00000000000E+00  0.00000000000E+00  0.15518919242E+03  0.19062594984E+04  0.18999319961E+04 0.  0.
        2    1    3    3  502    0 -0.14160199865E+03 -0.89664615766E+03  0.35854491095E+03  0.97600200371E+03  0.25500000920E-02 0. -1.
       -2    1    3    3    0  502  0.14160199865E+03  0.89664615766E+03 -0.20335571853E+03  0.93025749464E+03  0.25500000920E-02 0.  1.
</event>
<event>
 5   0  0.1429067E-05  0.1899537E+04  0.7818609E-02  0.8655087E-01
        1   -1    0    0  501    0  0.00000000000E+00  0.00000000000E+00  0.11875714397E+04  0.11875714397E+04  0.50400001928E-02 0. -1.
       -1   -1    0    0    0  501  0.00000000000E+00  0.00000000000E+00 -0.75958379079E+03  0.75958379080E+03  0.50400001928E-02 0.  1.
    10030    2    1    2    0    0  0.00000000000E+00  0.00000000000E+00  0.42798764893E+03  0.19471552305E+04  0.18995368025E+04 0.  0.
        3    1    3    3  502    0 -0.50240711944E+03 -0.71471036262E+03 -0.16795414585E+03  0.88962487679E+03  0.10100000352E+00 0.  1.
       -3    1    3    3    0  502  0.50240711944E+03  0.71471036262E+03  0.59594179479E+03  0.10575303537E+04  0.10100000352E+00 0. -1.
</event>
<event>
 5   0  0.1413011E-05  0.1903236E+04  0.7818609E-02  0.8653247E-01
       -1   -1    0    0    0  501  0.00000000000E+00  0.00000000000E+00  0.13704611404E+04  0.13704611404E+04  0.50400001928E-02 0. -1.
        1   -1    0    0  501    0  0.00000000000E+00  0.00000000000E+00 -0.66078248246E+03  0.66078248248E+03  0.50400001928E-02 0.  1.
    10030    2    1    2    0    0  0.00000000000E+00  0.00000000000E+00  0.70967865794E+03  0.20312436229E+04  0.19032358913E+04 0.  0.
        1    1    3    3  502    0  0.45680906409E+02  0.85508911255E+03 -0.88185316691E+02  0.86083725856E+03  0.50400001928E-02 0.  1.
       -1    1    3    3    0  502 -0.45680906409E+02 -0.85508911255E+03  0.79786397463E+03  0.11704063643E+04  0.50400001928E-02 0. -1.
</event>
<event>
 5   0  0.1344119E-05  0.1904255E+04  0.7818609E-02  0.8652741E-01
       -1   -1    0    0    0  501  0.00000000000E+00  0.00000000000E+00  0.12627746938E+04  0.12627746938E+04  0.50400001928E-02 0.  1.
        1   -1    0    0  501    0  0.00000000000E+00  0.00000000000E+00 -0.71790057691E+03  0.71790057693E+03  0.50400001928E-02 0. -1.
    10030    2    1    2    0    0  0.00000000000E+00  0.00000000000E+00  0.54487411688E+03  0.19806752707E+04  0.19042549002E+04 0.  0.
        2    1    3    3  502    0  0.61214086397E+03 -0.40760086435E+03 -0.35655591838E+03  0.81730473197E+03  0.25500000920E-02 0. -1.
       -2    1    3    3    0  502 -0.61214086397E+03  0.40760086435E+03  0.90143003527E+03  0.11633705388E+04  0.25500000920E-02 0.  1.
</event>
<event>
 5   0  0.2888776E-05  0.1900835E+04  0.7818609E-02  0.8654441E-01
       -2   -1    0    0    0  501  0.00000000000E+00  0.00000000000E+00  0.72096853601E+03  0.72096853601E+03  0.25500000920E-02 0.  1.
        2   -1    0    0  501    0  0.00000000000E+00  0.00000000000E+00 -0.12528892094E+04  0.12528892094E+04  0.25500000920E-02 0. -1.
    10030    2    1    2    0    0  0.00000000000E+00  0.00000000000E+00 -0.53192067339E+03  0.19738577454E+04  0.19008352891E+04 0.  0.
        3    1    3    3  502    0 -0.24151898372E+03 -0.53645288115E+03 -0.10410810596E+04  0.11958105603E+04  0.10100000352E+00 0. -1.
       -3    1    3    3    0  502  0.24151898372E+03  0.53645288115E+03  0.50916038622E+03  0.77804718513E+03  0.10100000352E+00 0.  1.
</event>
<event>
 5   0  0.1344119E-05  0.1899359E+04  0.7818609E-02  0.8655175E-01
        1   -1    0    0  501    0  0.00000000000E+00  0.00000000000E+00  0.99228353387E+03  0.99228353388E+03  0.50400001928E-02 0.  1.
       -1   -1    0    0    0  501  0.00000000000E+00  0.00000000000E+00 -0.90890511249E+03  0.90890511250E+03  0.50400001928E-02 0. -1.
    10030    2    1    2    0    0  0.00000000000E+00  0.00000000000E+00  0.83378421380E+02  0.19011886464E+04  0.18993594468E+04 0.  0.
        2    1    3    3  502    0 -0.66745399347E+02  0.78664689882E+03 -0.48666692513E+03  0.92742276648E+03  0.25500000920E-02 0. -1.
       -2    1    3    3    0  502  0.66745399347E+02 -0.78664689882E+03  0.57004534651E+03  0.97376587990E+03  0.25500000920E-02 0.  1.
</event>
<event>
 5   0  0.2789718E-05  0.1886832E+04  0.7818609E-02  0.8661439E-01
        2   -1    0    0  501    0  0.00000000000E+00  0.00000000000E+00  0.80703493003E+03  0.80703493003E+03  0.25500000920E-02 0. -1.
       -2   -1    0    0    0  501  0.00000000000E+00  0.00000000000E+00 -0.11028438189E+04  0.11028438189E+04  0.25500000920E-02 0.  1.
    10030    2    1    2    0    0  0.00000000000E+00  0.00000000000E+00 -0.29580888889E+03  0.19098787490E+04  0.18868317193E+04 0.  0.
        5    1    3    3  502    0 -0.61198225792E+03 -0.13261940853E+03  0.56633563281E+03  0.84431530278E+03  0.46999998093E+01 0. -1.
       -5    1    3    3    0  502  0.61198225792E+03  0.13261940853E+03 -0.86214452170E+03  0.10655634462E+04  0.46999998093E+01 0.  1.
</event>
<event>
 5   0  0.2855141E-05  0.1901556E+04  0.7818609E-02  0.8654082E-01
        2   -1    0    0  501    0  0.00000000000E+00  0.00000000000E+00  0.11306490717E+04  0.11306490717E+04  0.25500000920E-02 0. -1.
       -2   -1    0    0    0  501  0.00000000000E+00  0.00000000000E+00 -0.79952233367E+03  0.79952233367E+03  0.25500000920E-02 0.  1.
    10030    2    1    2    0    0  0.00000000000E+00  0.00000000000E+00  0.33112673805E+03  0.19301714054E+04  0.19015563987E+04 0.  0.
        1    1    3    3  502    0  0.14185768059E+03  0.21703509104E+03  0.10940697187E+04  0.11243737732E+04  0.50400001928E-02 0. -1.
       -1    1    3    3    0  502 -0.14185768059E+03 -0.21703509104E+03 -0.76294298069E+03  0.80579763222E+03  0.50400001928E-02 0.  1.
</event>
<event>
 5   0  0.1327254E-05  0.1899111E+04  0.7818609E-02  0.8655299E-01
       -1   -1    0    0    0  501  0.00000000000E+00  0.00000000000E+00  0.12669315222E+04  0.12669315223E+04  0.50400001928E-02 0. -1.
        1   -1    0    0  501    0  0.00000000000E+00  0.00000000000E+00 -0.71168461172E+03  0.71168461174E+03  0.50400001928E-02 0.  1.
    10030    2    1    2    0    0  0.00000000000E+00  0.00000000000E+00  0.55524691052E+03  0.19786161340E+04  0.18991110220E+04 0.  0.
        5    1    3    3  502    0 -0.41199751470E+03 -0.12319847869E+03 -0.60440797968E+03  0.74178899504E+03  0.46999998093E+01 0.  1.
       -5    1    3    3    0  502  0.41199751470E+03  0.12319847869E+03  0.11596548902E+04  0.12368271389E+04  0.46999998093E+01 0. -1.
</event>
<event>
 5   0  0.1429067E-05  0.1900303E+04  0.7818609E-02  0.8654705E-01
       -1   -1    0    0    0  501  0.00000000000E+00  0.00000000000E+00  0.64496810198E+03  0.64496810200E+03  0.50400001928E-02 0.  1.
        1   -1    0    0  501    0  0.00000000000E+00  0.00000000000E+00 -0.13997410587E+04  0.13997410587E+04  0.50400001928E-02 0. -1.
    10030    2    1    2    0    0  0.00000000000E+00  0.00000000000E+00 -0.75477295673E+03  0.20447091607E+04  0.19003034852E+04 0.  0.
        3    1    3    3  502    0  0.85043259808E+03  0.42242225681E+03 -0.34150324343E+03  0.10091088358E+04  0.10100000352E+00 0. -1.
       -3    1    3    3    0  502 -0.85043259808E+03 -0.42242225681E+03 -0.41326971329E+03  0.10356003250E+04  0.10100000352E+00 0.  1.
</event>
<event>
 5   0  0.1413011E-05  0.1903902E+04  0.7818609E-02  0.8652917E-01
        1   -1    0    0  501    0  0.00000000000E+00  0.00000000000E+00  0.15882645222E+04  0.15882645222E+04  0.50400001928E-02 0. -1.
       -1   -1    0    0    0  501  0.00000000000E+00  0.00000000000E+00 -0.57056635344E+03  0.57056635346E+03  0.50400001928E-02 0.  1.
    10030    2    1    2    0    0  0.00000000000E+00  0.00000000000E+00  0.10176981688E+04  0.21588308757E+04  0.19039015697E+04 0.  0.
        1    1    3    3  502    0 -0.81182594371E+03  0.19776095813E+03 -0.83372826393E+01  0.83560772480E+03  0.50400001928E-02 0.  1.
       -1    1    3    3    0  502  0.81182594371E+03 -0.19776095813E+03  0.10260354514E+04  0.13232231509E+04  0.50400001928E-02 0. -1.
</event>
<event>
 5   0  0.1327254E-05  0.1946486E+04  0.7818609E-02  0.8632057E-01
       -1   -1    0    0    0  501  0.00000000000E+00  0.00000000000E+00  0.45676089888E+03  0.45676089891E+03  0.50400001928E-02 0.  1.
        1   -1    0    0  501    0  0.00000000000E+00  0.00000000000E+00 -0.20737376476E+04  0.20737376476E+04  0.50400001928E-02 0. -1.
    10030    2    1    2    0    0  0.00000000000E+00  0.00000000000E+00 -0.16169767487E+04  0.25304985465E+04  0.19464863442E+04 0.  0.
        5    1    3    3  502    0 -0.86106783698E+03 -0.37233214803E+03 -0.11452728147E+04  0.14804529572E+04  0.46999998093E+01 0. -1.
       -5    1    3    3    0  502  0.86106783698E+03  0.37233214803E+03 -0.47170393402E+03  0.10500455893E+04  0.46999998093E+01 0.  1.
</event>
<event>
 5   0  0.2813537E-05  0.1902724E+04  0.7818609E-02  0.8653502E-01
       -2   -1    0    0    0  501  0.00000000000E+00  0.00000000000E+00  0.82532883456E+03  0.82532883456E+03  0.25500000920E-02 0. -1.
        2   -1    0    0  501    0  0.00000000000E+00  0.00000000000E+00 -0.10966408305E+04  0.10966408305E+04  0.25500000920E-02 0.  1.
    10030    2    1    2    0    0  0.00000000000E+00  0.00000000000E+00 -0.27131199589E+03  0.19219696650E+04  0.19027236253E+04 0.  0.
        2    1    3    3  502    0  0.57228394608E+03 -0.22737656558E+03  0.59685518845E+03  0.85758097780E+03  0.25500000920E-02 0. -1.
       -2    1    3    3    0  502 -0.57228394608E+03  0.22737656558E+03 -0.86816718434E+03  0.10643886872E+04  0.25500000920E-02 0.  1.
</event>
<event>
 5   0  0.1344119E-05  0.1908810E+04  0.7818609E-02  0.8650484E-01
        1   -1    0    0  501    0  0.00000000000E+00  0.00000000000E+00  0.83843902769E+03  0.83843902770E+03  0.50400001928E-02 0.  1.
       -1   -1    0    0    0  501  0.00000000000E+00  0.00000000000E+00 -0.10864101315E+04  0.10864101315E+04  0.50400001928E-02 0. -1.
    10030    2    1    2    0    0  0.00000000000E+00  0.00000000000E+00 -0.24797110382E+03  0.19248491592E+04  0.19088097384E+04 0.  0.
        2    1    3    3  502    0  0.78236991821E+03 -0.53792070345E+03 -0.26075492499E+02  0.94981119357E+03  0.25500000920E-02 0.  1.
       -2    1    3    3    0  502 -0.78236991821E+03  0.53792070345E+03 -0.22189561132E+03  0.97503796565E+03  0.25500000920E-02 0. -1.
</event>
<event>
 5   0  0.2789718E-05  0.1900750E+04  0.7818609E-02  0.8654483E-01
        2   -1    0    0  501    0  0.00000000000E+00  0.00000000000E+00  0.11591482798E+04  0.11591482798E+04  0.25500000920E-02 0.  1.
       -2   -1    0    0    0  501  0.00000000000E+00  0.00000000000E+00 -0.77920340318E+03  0.77920340319E+03  0.25500000920E-02 0. -1.
    10030    2    1    2    0    0  0.00000000000E+00  0.00000000000E+00  0.37994487658E+03  0.19383516830E+04  0.19007496252E+04 0.  0.
        5    1    3    3  502    0 -0.40868011905E+03  0.68759273023E+03  0.71333761610E+03  0.10717629621E+04  0.46999998093E+01 0.  1.
       -5    1    3    3    0  502  0.40868011905E+03 -0.68759273023E+03 -0.33339273952E+03  0.86658872086E+03  0.46999998093E+01 0. -1.
</event>
<event>
 5   0  0.1413011E-05  0.1879078E+04  0.7818609E-02  0.8665341E-01
        1   -1    0    0  501    0  0.00000000000E+00  0.00000000000E+00  0.16244258200E+04  0.16244258200E+04  0.50400001928E-02 0.  1.
       -1   -1    0    0    0  501  0.00000000000E+00  0.00000000000E+00 -0.54341288541E+03  0.54341288543E+03  0.50400001928E-02 0. -1.
    10030    2    1    2    0    0  0.00000000000E+00  0.00000000000E+00  0.10810129346E+04  0.21678387054E+04  0.18790784145E+04 0.  0.
        1    1    3    3  502    0 -0.16793722598E+03  0.80324123366E+03  0.12666223402E+02  0.82070690540E+03  0.50400001928E-02 0. -1.
       -1    1    3    3    0  502  0.16793722598E+03 -0.80324123366E+03  0.10683467112E+04  0.13471318000E+04  0.50400001928E-02 0.  1.
</event>
<event>
 5   0  0.2789718E-05  0.1889124E+04  0.7818609E-02  0.8660289E-01
        2   -1    0    0  501    0  0.00000000000E+00  0.00000000000E+00  0.10163909093E+04  0.10163909094E+04  0.25500000920E-02 0. -1.
       -2   -1    0    0    0  501  0.00000000000E+00  0.00000000000E+00 -0.87780882764E+03  0.87780882765E+03  0.25500000920E-02 0.  1.
    10030    2    1    2    0    0  0.00000000000E+00  0.00000000000E+00  0.13858208171E+03  0.18941997370E+04  0.18891235138E+04 0.  0.
        5    1    3    3  502    0 -0.48031796417E+03  0.50981078131E+03 -0.56610128063E+03  0.90061375149E+03  0.46999998093E+01 0.  1.
       -5    1    3    3    0  502  0.48031796417E+03 -0.50981078131E+03  0.70468336234E+03  0.99358598551E+03  0.46999998093E+01 0. -1.
</event>
<event>
 5   0  0.2789718E-05  0.1904789E+04  0.7818609E-02  0.8652476E-01
       -2   -1    0    0    0  501  0.00000000000E+00  0.00000000000E+00  0.46326534830E+03  0.46326534831E+03  0.25500000920E-02 0. -1.
        2   -1    0    0  501    0  0.00000000000E+00  0.00000000000E+00 -0.19579614643E+04  0.19579614643E+04  0.25500000920E-02 0.  1.
    10030    2    1    2    0    0  0.00000000000E+00  0.00000000000E+00 -0.14946961160E+04  0.24212268126E+04  0.19047894369E+04 0.  0.
        5    1    3    3  502    0  0.57777974062E+03  0.68934849812E+03 -0.11452790892E+04  0.14562681974E+04  0.46999998093E+01 0.  1.
       -5    1    3    3    0  502 -0.57777974062E+03 -0.68934849812E+03 -0.34941702683E+03  0.96495861526E+03  0.46999998093E+01 0. -1.
</event>
<event>
 5   0  0.2789718E-05  0.1900354E+04  0.7818609E-02  0.8654680E-01
       -2   -1    0    0    0  501  0.00000000000E+00  0.00000000000E+00  0.59575409030E+03  0.59575409030E+03  0.25500000920E-02 0. -1.
        2   -1    0    0  501    0  0.00000000000E+00  0.00000000000E+00 -0.15154515446E+04  0.15154515446E+04  0.25500000920E-02 0.  1.
    10030    2    1    2    0    0  0.00000000000E+00  0.00000000000E+00 -0.91969745429E+03  0.21112056349E+04  0.19003541316E+04 0.  0.
        5    1    3    3  502    0  0.17404617768E+03  0.65768225028E+03 -0.11967523035E+04  0.13766176594E+04  0.46999998093E+01 0.  1.
       -5    1    3    3    0  502 -0.17404617768E+03 -0.65768225028E+03  0.27705484917E+03  0.73458797550E+03  0.46999998093E+01 0. -1.
</event>
<event>
 5   0  0.2888776E-05  0.1902688E+04  0.7818609E-02  0.8653520E-01
        2   -1    0    0  501    0  0.00000000000E+00  0.00000000000E+00  0.60324939760E+03  0.60324939761E+03  0.25500000920E-02 0.  1.
       -2   -1    0    0    0  501  0.00000000000E+00  0.00000000000E+00 -0.15002999762E+04  0.15002999762E+04  0.25500000920E-02 0. -1.
    10030    2    1    2    0    0  0.00000000000E+00  0.00000000000E+00 -0.89705057855E+03  0.21035493738E+04  0.19026876326E+04 0.  0.
        3    1    3    3  502    0  0.38743250292E+03  0.41811917493E+03 -0.12905928273E+04  0.14108711652E+04  0.10100000352E+00 0. -1.
       -3    1    3    3    0  502 -0.38743250292E+03 -0.41811917493E+03  0.39354224878E+03  0.69267820851E+03  0.10100000352E+00 0.  1.
</event>
<event>
 5   0  0.1413011E-05  0.1900008E+04  0.7818609E-02  0.8654852E-01
       -1   -1    0    0    0  501  0.00000000000E+00  0.00000000000E+00  0.10468284375E+04  0.10468284375E+04  0.50400001928E-02 0. -1.
        1   -1    0    0  501    0  0.00000000000E+00  0.00000000000E+00 -0.86213522290E+03  0.86213522292E+03  0.50400001928E-02 0.  1.
    10030    2    1    2    0    0  0.00000000000E+00  0.00000000000E+00  0.18469321461E+03  0.19089636604E+04  0.19000080719E+04 0.  0.
        1    1    3    3  502    0  0.54509286679E+03 -0.71591035298E+02 -0.68606719404E+03  0.87916989514E+03  0.50400001928E-02 0.  1.
       -1    1    3    3    0  502 -0.54509286679E+03  0.71591035298E+02  0.87076040865E+03  0.10297937653E+04  0.50400001928E-02 0. -1.
</event>
<event>
 5   0  0.1471485E-05  0.1901776E+04  0.7818609E-02  0.8653973E-01
       -1   -1    0    0    0  501  0.00000000000E+00  0.00000000000E+00  0.79941030043E+03  0.79941030044E+03  0.50400001928E-02 0.  1.
        1   -1    0    0  501    0  0.00000000000E+00  0.00000000000E+00 -0.11310686317E+04  0.11310686317E+04  0.50400001928E-02 0. -1.
    10030    2    1    2    0    0  0.00000000000E+00  0.00000000000E+00 -0.33165833123E+03  0.19304789321E+04  0.19017759223E+04 0.  0.
        4    1    3    3  502    0  0.36792412547E+03 -0.83232690494E+03 -0.44576307594E+03  0.10133324092E+04  0.12699999809E+01 0. -1.
       -4    1    3    3    0  502 -0.36792412547E+03  0.83232690494E+03  0.11410474471E+03  0.91714652290E+03  0.12699999809E+01 0.  1.
</event>
<event>
 5   0  0.1327254E-05  0.1900409E+04  0.7818609E-02  0.8654653E-01
       -1   -1    0    0    0  501  0.00000000000E+00  0.00000000000E+00  0.66274990592E+03  0.66274990594E+03  0.50400001928E-02 0. -1.
        1   -1    0    0  501    0  0.00000000000E+00  0.00000000000E+00 -0.13623366800E+04  0.13623366801E+04  0.50400001928E-02 0.  1.
    10030    2    1    2    0    0  0.00000000000E+00  0.00000000000E+00 -0.69958677412E+03  0.20250865860E+04  0.19004089103E+04 0.  0.
        5    1    3    3  502    0 -0.59701143344E+03 -0.62719216531E+03  0.67121020538E+02  0.86851596720E+03  0.46999998093E+01 0. -1.
       -5    1    3    3    0  502  0.59701143344E+03  0.62719216531E+03 -0.76670779466E+03  0.11565706188E+04  0.46999998093E+01 0.  1.
</event>
<event>
 5   0  0.2813537E-05  0.1906324E+04  0.7818609E-02  0.8651715E-01
       -2   -1    0    0    0  501  0.00000000000E+00  0.00000000000E+00  0.14443386473E+04  0.14443386473E+04  0.25500000920E-02 0. -1.
        2   -1    0    0  501    0  0.00000000000E+00  0.00000000000E+00 -0.62902019869E+03  0.62902019870E+03  0.25500000920E-02 0.  1.
    10030    2    1    2    0    0  0.00000000000E+00  0.00000000000E+00  0.81531844863E+03  0.20733588460E+04  0.19063244036E+04 0.  0.
        2    1    3    3  502    0 -0.19098433946E+03  0.90959093776E+03  0.63757599566E+03  0.11270908758E+04  0.25500000920E-02 0. -1.
       -2    1    3    3    0  502  0.19098433946E+03 -0.90959093776E+03  0.17774245297E+03  0.94626797027E+03  0.25500000920E-02 0.  1.
</event>
<event>
 5   0  0.1429067E-05  0.1900715E+04  0.7818609E-02  0.8654501E-01
       -1   -1    0    0    0  501  0.00000000000E+00  0.00000000000E+00  0.10458834240E+04  0.10458834240E+04  0.50400001928E-02 0. -1.
        1   -1    0    0  501    0  0.00000000000E+00  0.00000000000E+00 -0.86355611243E+03  0.86355611244E+03  0.50400001928E-02 0.  1.
    10030    2    1    2    0    0  0.00000000000E+00  0.00000000000E+00  0.18232731154E+03  0.19094395364E+04  0.19007146274E+04 0.  0.
        3    1    3    3  502    0  0.57612697631E+03 -0.23028379458E+03  0.81434736182E+03  0.10237746602E+04  0.10100000352E+00 0. -1.
       -3    1    3    3    0  502 -0.57612697631E+03  0.23028379458E+03 -0.63202005028E+03  0.88566487626E+03  0.10100000352E+00 0.  1.
</event>
<event>
 5   0  0.1471485E-05  0.1901128E+04  0.7818609E-02  0.8654295E-01
       -1   -1    0    0    0  501  0.00000000000E+00  0.00000000000E+00  0.59453167439E+03  0.59453167441E+03  0.50400001928E-02 0. -1.
        1   -1    0    0  501    0  0.00000000000E+00  0.00000000000E+00 -0.15198037517E+04  0.15198037517E+04  0.50400001928E-02 0.  1.
    10030    2    1    2    0    0  0.00000000000E+00  0.00000000000E+00 -0.92527207734E+03  0.21143354262E+04  0.19011275279E+04 0.  0.
        4    1    3    3  502    0  0.38503385176E+03  0.46569956144E+03 -0.12787153838E+04  0.14142990469E+04  0.12699999809E+01 0. -1.
       -4    1    3    3    0  502 -0.38503385176E+03 -0.46569956144E+03  0.35344330642E+03  0.70003637925E+03  0.12699999809E+01 0.  1.
</event>
<event>
 5   0  0.2879462E-05  0.1909488E+04  0.7818609E-02  0.8650148E-01
       -2   -1    0    0    0  501  0.00000000000E+00  0.00000000000E+00  0.62239645847E+03  0.62239645847E+03  0.25500000920E-02 0. -1.
        2   -1    0    0  501    0  0.00000000000E+00  0.00000000000E+00 -0.14645581843E+04  0.14645581843E+04  0.25500000920E-02 0.  1.
    10030    2    1    2    0    0  0.00000000000E+00  0.00000000000E+00 -0.84216172585E+03  0.20869546428E+04  0.19094877084E+04 0.  0.
        4    1    3    3  502    0 -0.46868778984E+03 -0.64339336275E+03 -0.99724864929E+03  0.12759818749E+04  0.12699999809E+01 0.  1.
       -4    1    3    3    0  502  0.46868778984E+03  0.64339336275E+03  0.15508692345E+03  0.81097276792E+03  0.12699999809E+01 0. -1.
</event>
<event>
 5   0  0.1471485E-05  0.1899625E+04  0.7818609E-02  0.8655043E-01
       -1   -1    0    0    0  501  0.00000000000E+00  0.00000000000E+00  0.98796435553E+03  0.98796435554E+03  0.50400001928E-02 0.  1.
        1   -1    0    0  501    0  0.00000000000E+00  0.00000000000E+00 -0.91313352607E+03  0.91313352609E+03  0.50400001928E-02 0. -1.
    10030    2    1    2    0    0  0.00000000000E+00  0.00000000000E+00  0.74830829456E+02  0.19010978816E+04  0.18996245688E+04 0.  0.
        4    1    3    3  502    0  0.69849827281E+03  0.55990727490E+03  0.35506632807E+03  0.96305228509E+03  0.12699999809E+01 0.  1.
       -4    1    3    3    0  502 -0.69849827281E+03 -0.55990727490E+03 -0.28023549861E+03  0.93804559654E+03  0.12699999809E+01 0. -1.
</event>
<event>
 5   0  0.1471485E-05  0.1904713E+04  0.7818609E-02  0.8652514E-01
        1   -1    0    0  501    0  0.00000000000E+00  0.00000000000E+00  0.11959794869E+04  0.11959794869E+04  0.50400001928E-02 0. -1.
       -1   -1    0    0    0  501  0.00000000000E+00  0.00000000000E+00 -0.75836023730E+03  0.75836023731E+03  0.50400001928E-02 0.  1.
    10030    2    1    2    0    0  0.00000000000E+00  0.00000000000E+00  0.43761924961E+03  0.19543397242E+04  0.19047134037E+04 0.  0.
        4    1    3    3  502    0  0.26185822690E+03 -0.90102904791E+03  0.51595485415E+02  0.93972697268E+03  0.12699999809E+01 0. -1.
       -4    1    3    3    0  502 -0.26185822690E+03  0.90102904791E+03  0.38602376419E+03  0.10146127515E+04  0.12699999809E+01 0.  1.
</event>
<event>
 5   0  0.1413011E-05  0.1902094E+04  0.7818609E-02  0.8653815E-01
       -1   -1    0    0    0  501  0.00000000000E+00  0.00000000000E+00  0.84082360658E+03  0.84082360660E+03  0.50400001928E-02 0. -1.
        1   -1    0    0  501    0  0.00000000000E+00  0.00000000000E+00 -0.10757190434E+04  0.10757190434E+04  0.50400001928E-02 0.  1.
    10030    2    1    2    0    0  0.00000000000E+00  0.00000000000E+00 -0.23489543679E+03  0.19165426500E+04  0.19020935474E+04 0.  0.
        1    1    3    3  502    0  0.78279969764E+03 -0.13216322526E+03 -0.64511229464E+03  0.10229429884E+04  0.50400001928E-02 0.  1.
       -1    1    3    3    0  502 -0.78279969764E+03  0.13216322526E+03  0.41021685785E+03  0.89359966161E+03  0.50400001928E-02 0. -1.
</event>
<event>
 5   0  0.2855141E-05  0.1898256E+04  0.7818609E-02  0.8655725E-01
        2   -1    0    0  501    0  0.00000000000E+00  0.00000000000E+00  0.10297365358E+04  0.10297365358E+04  0.25500000920E-02 0.  1.
       -2   -1    0    0    0  501  0.00000000000E+00  0.00000000000E+00 -0.87482961429E+03  0.87482961430E+03  0.25500000920E-02 0. -1.
    10030    2    1    2    0    0  0.00000000000E+00  0.00000000000E+00  0.15490692155E+03  0.19045661501E+04  0.18982560591E+04 0.  0.
        1    1    3    3  502    0  0.21058953328E+02 -0.49290801901E+02  0.10282167645E+04  0.10296129260E+04  0.50400001928E-02 0.  1.
       -1    1    3    3    0  502 -0.21058953328E+02  0.49290801901E+02 -0.87330984291E+03  0.87495322413E+03  0.50400001928E-02 0. -1.
</event>
<event>
 5   0  0.1429067E-05  0.1901732E+04  0.7818609E-02  0.8653995E-01
        1   -1    0    0  501    0  0.00000000000E+00  0.00000000000E+00  0.15946311749E+04  0.15946311749E+04  0.50400001928E-02 0.  1.
       -1   -1    0    0    0  501  0.00000000000E+00  0.00000000000E+00 -0.56699366803E+03  0.56699366805E+03  0.50400001928E-02 0. -1.
    10030    2    1    2    0    0  0.00000000000E+00  0.00000000000E+00  0.10276375068E+04  0.21616248429E+04  0.19017316099E+04 0.  0.
        3    1    3    3  502    0  0.86250029172E+03 -0.21304372451E+03  0.89903023211E+03  0.12639421467E+04  0.10100000352E+00 0.  1.
       -3    1    3    3    0  502 -0.86250029172E+03  0.21304372451E+03  0.12860727472E+03  0.89768269621E+03  0.10100000352E+00 0. -1.
</event>
<event>
 5   0  0.2813537E-05  0.1899967E+04  0.7818609E-02  0.8654873E-01
        2   -1    0    0  501    0  0.00000000000E+00  0.00000000000E+00  0.18209370303E+04  0.18209370303E+04  0.25500000920E-02 0.  1.
       -2   -1    0    0    0  501  0.00000000000E+00  0.00000000000E+00 -0.49560687294E+03  0.49560687295E+03  0.25500000920E-02 0. -1.
    10030    2    1    2    0    0  0.00000000000E+00  0.00000000000E+00  0.13253301573E+04  0.23165439032E+04  0.18999672707E+04 0.  0.
        2    1    3    3  502    0 -0.29809408178E+03 -0.58507499230E+03 -0.17436550957E+03  0.67939396460E+03  0.25500000920E-02 0. -1.
       -2    1    3    3    0  502  0.29809408178E+03  0.58507499230E+03  0.14996956669E+04  0.16371499386E+04  0.25500000920E-02 0.  1.
</event>
<event>
 5   0  0.2888776E-05  0.1900763E+04  0.7818609E-02  0.8654477E-01
        2   -1    0    0  501    0  0.00000000000E+00  0.00000000000E+00  0.15167256873E+04  0.15167256873E+04  0.25500000920E-02 0. -1.
       -2   -1    0    0    0  501  0.00000000000E+00  0.00000000000E+00 -0.59550974537E+03  0.59550974538E+03  0.25500000920E-02 0.  1.
    10030    2    1    2    0    0  0.00000000000E+00  0.00000000000E+00  0.92121594188E+03  0.21122354326E+04  0.19007629287E+04 0.  0.
        3    1    3    3  502    0  0.12056367703E+03  0.64200723865E+03 -0.30649404602E+03  0.72155907946E+03  0.10100000352E+00 0.  1.
       -3    1    3    3    0  502 -0.12056367703E+03 -0.64200723865E+03  0.12277099879E+04  0.13906763532E+04  0.10100000352E+00 0. -1.
</event>
<event>
 5   0  0.1327254E-05  0.1903757E+04  0.7818609E-02  0.8652988E-01
       -1   -1    0    0    0  501  0.00000000000E+00  0.00000000000E+00  0.77100550679E+03  0.77100550681E+03  0.50400001928E-02 0. -1.
        1   -1    0    0  501    0  0.00000000000E+00  0.00000000000E+00 -0.11751835340E+04  0.11751835340E+04  0.50400001928E-02 0.  1.
    10030    2    1    2    0    0  0.00000000000E+00  0.00000000000E+00 -0.40417802720E+03  0.19461890408E+04  0.19037573125E+04 0.  0.
        5    1    3    3  502    0  0.78226397688E+03 -0.55787219582E+01 -0.75646993511E+03  0.10882264950E+04  0.46999998093E+01 0.  1.
       -5    1    3    3    0  502 -0.78226397688E+03  0.55787219582E+01  0.35229190791E+03  0.85796254583E+03  0.46999998093E+01 0. -1.
</event>
<event>
 5   0  0.2879462E-05  0.1901466E+04  0.7818609E-02  0.8654127E-01
       -2   -1    0    0    0  501  0.00000000000E+00  0.00000000000E+00  0.45673687179E+03  0.45673687179E+03  0.25500000920E-02 0.  1.
        2   -1    0    0  501    0  0.00000000000E+00  0.00000000000E+00 -0.19790247871E+04  0.19790247871E+04  0.25500000920E-02 0. -1.
    10030    2    1    2    0    0  0.00000000000E+00  0.00000000000E+00 -0.15222879153E+04  0.24357616588E+04  0.19014663714E+04 0.  0.
        4    1    3    3  502    0 -0.67272899388E+03  0.66210293310E+03 -0.61538436012E+03  0.11267848583E+04  0.12699999809E+01 0.  1.
       -4    1    3    3    0  502  0.67272899388E+03 -0.66210293310E+03 -0.90690355515E+03  0.13089768006E+04  0.12699999809E+01 0. -1.
</event>
<event>
 5   0  0.2879462E-05  0.1895986E+04  0.7818609E-02  0.8656857E-01
       -2   -1    0    0    0  501  0.00000000000E+00  0.00000000000E+00  0.40175646787E+03  0.40175646788E+03  0.25500000920E-02 0.  1.
        2   -1    0    0  501    0  0.00000000000E+00  0.00000000000E+00 -0.22369045745E+04  0.22369045745E+04  0.25500000920E-02 0. -1.
    10030    2    1    2    0    0  0.00000000000E+00  0.00000000000E+00 -0.18351481066E+04  0.26386610423E+04  0.18959861611E+04 0.  0.
        4    1    3    3  502    0 -0.11865095979E+03  0.93053898827E+03 -0.72721792212E+03  0.11869407644E+04  0.12699999809E+01 0. -1.
       -4    1    3    3    0  502  0.11865095979E+03 -0.93053898827E+03 -0.11079301845E+04  0.14517202780E+04  0.12699999809E+01 0.  1.
</event>
<event>
 5   0  0.2813537E-05  0.1899731E+04  0.7818609E-02  0.8654990E-01
       -2   -1    0    0    0  501  0.00000000000E+00  0.00000000000E+00  0.52680926227E+03  0.52680926228E+03  0.25500000920E-02 0.  1.
        2   -1    0    0  501    0  0.00000000000E+00  0.00000000000E+00 -0.17126592492E+04  0.17126592492E+04  0.25500000920E-02 0. -1.
    10030    2    1    2    0    0  0.00000000000E+00  0.00000000000E+00 -0.11858499869E+04  0.22394685115E+04  0.18997313027E+04 0.  0.
        2    1    3    3  502    0 -0.53484988677E+03 -0.53483090104E+03  0.84403578526E+02  0.76107322785E+03  0.25500000920E-02 0.  1.
       -2    1    3    3    0  502  0.53484988677E+03  0.53483090104E+03 -0.12702535655E+04  0.14783952836E+04  0.25500000920E-02 0. -1.
</event>
<event>
 5   0  0.1327254E-05  0.1899497E+04  0.7818609E-02  0.8655107E-01
       -1   -1    0    0    0  501  0.00000000000E+00  0.00000000000E+00  0.59242667736E+03  0.59242667738E+03  0.50400001928E-02 0. -1.
        1   -1    0    0  501    0  0.00000000000E+00  0.00000000000E+00 -0.15225879812E+04  0.15225879812E+04  0.50400001928E-02 0.  1.
    10030    2    1    2    0    0  0.00000000000E+00  0.00000000000E+00 -0.93016130386E+03  0.21150146586E+04  0.18994965004E+04 0.  0.
        5    1    3    3  502    0 -0.43037371400E+03  0.69447662116E+03  0.74092302595E+02  0.82038470874E+03  0.46999998093E+01 0. -1.
       -5    1    3    3    0  502  0.43037371400E+03 -0.69447662116E+03 -0.10042536065E+04  0.12946299499E+04  0.46999998093E+01 0.  1.
</event>
<event>
 5   0  0.2888776E-05  0.1898869E+04  0.7818609E-02  0.8655420E-01
       -2   -1    0    0    0  501  0.00000000000E+00  0.00000000000E+00  0.97323390255E+03  0.97323390255E+03  0.25500000920E-02 0. -1.
        2   -1    0    0  501    0  0.00000000000E+00  0.00000000000E+00 -0.92621692654E+03  0.92621692654E+03  0.25500000920E-02 0.  1.
    10030    2    1    2    0    0  0.00000000000E+00  0.00000000000E+00  0.47016976011E+02  0.18994508291E+04  0.18988688359E+04 0.  0.
        3    1    3    3  502    0 -0.98582254063E+02 -0.64068439479E+03 -0.67041210096E+03  0.93254884583E+03  0.10100000352E+00 0.  1.
       -3    1    3    3    0  502  0.98582254063E+02  0.64068439479E+03  0.71742907697E+03  0.96690198326E+03  0.10100000352E+00 0. -1.
</event>
<event>
 5   0  0.1010725E-05  0.1898340E+04  0.7818609E-02  0.8655683E-01
       -3   -1    0    0    0  501  0.00000000000E+00  0.00000000000E+00  0.11893581060E+04  0.11893581103E+04  0.10100000352E+00 0. -1.
        3   -1    0    0  501    0  0.00000000000E+00  0.00000000000E+00 -0.75748711880E+03  0.75748712553E+03  0.10100000352E+00 0.  1.
    10030    2    1    2    0    0  0.00000000000E+00  0.00000000000E+00  0.43187098723E+03  0.19468452359E+04  0.18983397543E+04 0.  0.
        5    1    3    3  502    0 -0.43910966677E+01 -0.26645310361E+03  0.11501925750E+04  0.11806699741E+04  0.46999998093E+01 0. -1.
       -5    1    3    3    0  502  0.43910966677E+01  0.26645310361E+03 -0.71832158781E+03  0.76617526172E+03  0.46999998093E+01 0.  1.
</event>
<event>
 5   0  0.1429067E-05  0.1904081E+04  0.7818609E-02  0.8652828E-01
        1   -1    0    0  501    0  0.00000000000E+00  0.00000000000E+00  0.13179109545E+04  0.13179109545E+04  0.50400001928E-02 0.  1.
       -1   -1    0    0    0  501  0.00000000000E+00  0.00000000000E+00 -0.68774096022E+03  0.68774096024E+03  0.50400001928E-02 0. -1.
    10030    2    1    2    0    0  0.00000000000E+00  0.00000000000E+00  0.63016999426E+03  0.20056519147E+04  0.19040812434E+04 0.  0.
        3    1    3    3  502    0 -0.43410882136E+03 -0.75491714963E+03 -0.90186789088E+02  0.87549074165E+03  0.10100000352E+00 0.  1.
       -3    1    3    3    0  502  0.43410882136E+03  0.75491714963E+03  0.72035678335E+03  0.11301611731E+04  0.10100000352E+00 0. -1.
</event>
<event>
 5   0  0.2879462E-05  0.1899244E+04  0.7818609E-02  0.8655233E-01
        2   -1    0    0  501    0  0.00000000000E+00  0.00000000000E+00  0.13431773300E+04  0.13431773300E+04  0.25500000920E-02 0.  1.
       -2   -1    0    0    0  501  0.00000000000E+00  0.00000000000E+00 -0.67137989586E+03  0.67137989587E+03  0.25500000920E-02 0. -1.
    10030    2    1    2    0    0  0.00000000000E+00  0.00000000000E+00  0.67179743418E+03  0.20145572259E+04  0.18992443297E+04 0.  0.
        4    1    3    3  502    0  0.69423020355E+03 -0.62197249546E+03  0.52851501532E+03  0.10715106602E+04  0.12699999809E+01 0.  1.
       -4    1    3    3    0  502 -0.69423020355E+03  0.62197249546E+03  0.14328241886E+03  0.94304656570E+03  0.12699999809E+01 0. -1.
</event>
<event>
 5   0  0.1471485E-05  0.1900553E+04  0.7818609E-02  0.8654581E-01
       -1   -1    0    0    0  501  0.00000000000E+00  0.00000000000E+00  0.11044340170E+04  0.11044340170E+04  0.50400001928E-02 0. -1.
        1   -1    0    0  501    0  0.00000000000E+00  0.00000000000E+00 -0.81763620938E+03  0.81763620939E+03  0.50400001928E-02 0.  1.
    10030    2    1    2    0    0  0.00000000000E+00  0.00000000000E+00  0.28679780762E+03  0.19220702264E+04  0.19005528071E+04 0.  0.
        4    1    3    3  502    0 -0.69883377966E+03  0.63389114620E+03  0.28815697563E+02  0.94393781265E+03  0.12699999809E+01 0.  1.
       -4    1    3    3    0  502  0.69883377966E+03 -0.63389114620E+03  0.25798211006E+03  0.97813241375E+03  0.12699999809E+01 0. -1.
</event>
<event>
 5   0  0.1429067E-05  0.1900854E+04  0.7818609E-02  0.8654432E-01
        1   -1    0    0  501    0  0.00000000000E+00  0.00000000000E+00  0.11089994939E+04  0.11089994939E+04  0.50400001928E-02 0. -1.
       -1   -1    0    0    0  501  0.00000000000E+00  0.00000000000E+00 -0.81452811366E+03  0.81452811367E+03  0.50400001928E-02 0.  1.
    10030    2    1    2    0    0  0.00000000000E+00  0.00000000000E+00  0.29447138024E+03  0.19235276076E+04  0.19008537722E+04 0.  0.
        3    1    3    3  502    0  0.29066258841E+02  0.29782260896E+03  0.10600870064E+04  0.11015115183E+04  0.10100000352E+00 0. -1.
       -3    1    3    3    0  502 -0.29066258841E+02 -0.29782260896E+03 -0.76561562611E+03  0.82201608923E+03  0.10100000352E+00 0.  1.
</event>
<event>
 5   0  0.2813537E-05  0.1899428E+04  0.7818609E-02  0.8655141E-01
        2   -1    0    0  501    0  0.00000000000E+00  0.00000000000E+00  0.67469770300E+03  0.67469770300E+03  0.25500000920E-02 0. -1.
       -2   -1    0    0    0  501  0.00000000000E+00  0.00000000000E+00 -0.13368308602E+04  0.13368308602E+04  0.25500000920E-02 0.  1.
    10030    2    1    2    0    0  0.00000000000E+00  0.00000000000E+00 -0.66213315720E+03  0.20115285632E+04  0.18994280304E+04 0.  0.
        2    1    3    3  502    0  0.39798604027E+03 -0.91298102393E+02  0.57699337155E+03  0.70685895522E+03  0.25500000920E-02 0. -1.
       -2    1    3    3    0  502 -0.39798604027E+03  0.91298102393E+02 -0.12391265287E+04  0.13046696080E+04  0.25500000920E-02 0.  1.
</event>
<event>
 5   0  0.1429067E-05  0.1896728E+04  0.7818609E-02  0.8656487E-01
       -1   -1    0    0    0  501  0.00000000000E+00  0.00000000000E+00  0.69673367224E+03  0.69673367226E+03  0.50400001928E-02 0. -1.
        1   -1    0    0  501    0  0.00000000000E+00  0.00000000000E+00 -0.12908723603E+04  0.12908723603E+04  0.50400001928E-02 0.  1.
    10030    2    1    2    0    0  0.00000000000E+00  0.00000000000E+00 -0.59413868806E+03  0.19876060326E+04  0.18967279615E+04 0.  0.
        3    1    3    3  502    0  0.46779454389E+02  0.33774439021E+03  0.63028022948E+03  0.71659805215E+03  0.10100000352E+00 0. -1.
       -3    1    3    3    0  502 -0.46779454389E+02 -0.33774439021E+03 -0.12244189175E+04  0.12710079804E+04  0.10100000352E+00 0.  1.
</event>
<event>
 5   0  0.2855141E-05  0.1900168E+04  0.7818609E-02  0.8654773E-01
       -2   -1    0    0    0  501  0.00000000000E+00  0.00000000000E+00  0.72809343291E+03  0.72809343292E+03  0.25500000920E-02 0. -1.
        2   -1    0    0  501    0  0.00000000000E+00  0.00000000000E+00 -0.12397575052E+04  0.12397575052E+04  0.25500000920E-02 0.  1.
    10030    2    1    2    0    0  0.00000000000E+00  0.00000000000E+00 -0.51166407227E+03  0.19678509381E+04  0.19001676746E+04 0.  0.
        1    1    3    3  502    0 -0.46208841089E+03 -0.56508135970E+03 -0.88561876641E+03  0.11476773249E+04  0.50400001928E-02 0.  1.
       -1    1    3    3    0  502  0.46208841089E+03  0.56508135970E+03  0.37395469414E+03  0.82017361324E+03  0.50400001928E-02 0. -1.
</event>
<event>
 5   0  0.2855141E-05  0.1900666E+04  0.7818609E-02  0.8654525E-01
       -2   -1    0    0    0  501  0.00000000000E+00  0.00000000000E+00  0.10274567737E+04  0.10274567737E+04  0.25500000920E-02 0.  1.
        2   -1    0    0  501    0  0.00000000000E+00  0.00000000000E+00 -0.87899858830E+03  0.87899858830E+03  0.25500000920E-02 0. -1.
    10030    2    1    2    0    0  0.00000000000E+00  0.00000000000E+00  0.14845818537E+03  0.19064553620E+04  0.19006662554E+04 0.  0.
        1    1    3    3  502    0 -0.40529355981E+03  0.57205957354E+03  0.71775786755E+03  0.10033401127E+04  0.50400001928E-02 0.  1.
       -1    1    3    3    0  502  0.40529355981E+03 -0.57205957354E+03 -0.56929968218E+03  0.90311524927E+03  0.50400001928E-02 0. -1.
</event>
<event>
 5   0  0.2888776E-05  0.1900192E+04  0.7818609E-02  0.8654761E-01
        2   -1    0    0  501    0  0.00000000000E+00  0.00000000000E+00  0.66607447792E+03  0.66607447792E+03  0.25500000920E-02 0. -1.
       -2   -1    0    0    0  501  0.00000000000E+00  0.00000000000E+00 -0.13552269126E+04  0.13552269126E+04  0.25500000920E-02 0.  1.
    10030    2    1    2    0    0  0.00000000000E+00  0.00000000000E+00 -0.68915243472E+03  0.20213013906E+04  0.19001916307E+04 0.  0.
        3    1    3    3  502    0  0.74715943939E+03  0.37918255418E+03  0.13191962055E+03  0.84819186140E+03  0.10100000352E+00 0. -1.
       -3    1    3    3    0  502 -0.74715943939E+03 -0.37918255418E+03 -0.82107205527E+03  0.11731095292E+04  0.10100000352E+00 0.  1.
</event>
<event>
 5   0  0.2888776E-05  0.1918421E+04  0.7818609E-02  0.8645741E-01
       -2   -1    0    0    0  501  0.00000000000E+00  0.00000000000E+00  0.53051817657E+03  0.53051817657E+03  0.25500000920E-02 0.  1.
        2   -1    0    0  501    0  0.00000000000E+00  0.00000000000E+00 -0.17343138079E+04  0.17343138079E+04  0.25500000920E-02 0. -1.
    10030    2    1    2    0    0  0.00000000000E+00  0.00000000000E+00 -0.12037956313E+04  0.22648319845E+04  0.19184212248E+04 0.  0.
        3    1    3    3  502    0 -0.64596505221E+03 -0.31983009758E+03 -0.13490441451E+04  0.15295366146E+04  0.10100000352E+00 0.  1.
       -3    1    3    3    0  502  0.64596505221E+03  0.31983009758E+03  0.14524851371E+03  0.73529536985E+03  0.10100000352E+00 0. -1.
</event>
<event>
 5   0  0.2789718E-05  0.1898501E+04  0.7818609E-02  0.8655603E-01
       -2   -1    0    0    0  501  0.00000000000E+00  0.00000000000E+00  0.83697490275E+03  0.83697490275E+03  0.25500000920E-02 0.  1.
        2   -1    0    0  501    0  0.00000000000E+00  0.00000000000E+00 -0.10765874253E+04  0.10765874253E+04  0.25500000920E-02 0. -1.
    10030    2    1    2    0    0  0.00000000000E+00  0.00000000000E+00 -0.23961252256E+03  0.19135623281E+04  0.18985011515E+04 0.  0.
        5    1    3    3  502    0  0.82198104549E+03 -0.20808626356E+03  0.31031301535E+03  0.90292247160E+03  0.46999998093E+01 0. -1.
       -5    1    3    3    0  502 -0.82198104549E+03  0.20808626356E+03 -0.54992553791E+03  0.10106398565E+04  0.46999998093E+01 0.  1.
</event>
<event>
 5   0  0.1429067E-05  0.1899226E+04  0.7818609E-02  0.8655242E-01
       -1   -1    0    0    0  501  0.00000000000E+00  0.00000000000E+00  0.77206433758E+03  0.77206433759E+03  0.50400001928E-02 0.  1.
        1   -1    0    0  501    0  0.00000000000E+00  0.00000000000E+00 -0.11679924142E+04  0.11679924142E+04  0.50400001928E-02 0. -1.
    10030    2    1    2    0    0  0.00000000000E+00  0.00000000000E+00 -0.39592807658E+03  0.19400567518E+04  0.18992264631E+04 0.  0.
        3    1    3    3  502    0  0.92015692810E+03  0.21867199429E+03 -0.28499585554E+03  0.98778988722E+03  0.10100000352E+00 0. -1.
       -3    1    3    3    0  502 -0.92015692810E+03 -0.21867199429E+03 -0.11093222104E+03  0.95226686454E+03  0.10100000352E+00 0.  1.
</event>
<event>
 5   0  0.1471485E-05  0.1895204E+04  0.7818609E-02  0.8657247E-01
       -1   -1    0    0    0  501  0.00000000000E+00  0.00000000000E+00  0.10621498727E+04  0.10621498727E+04  0.50400001928E-02 0.  1.
        1   -1    0    0  501    0  0.00000000000E+00  0.00000000000E+00 -0.84540753109E+03  0.84540753111E+03  0.50400001928E-02 0. -1.
    10030    2    1    2    0    0  0.00000000000E+00  0.00000000000E+00  0.21674234163E+03  0.19075574038E+04  0.18952039485E+04 0.  0.
        4    1    3    3  502    0  0.45200513908E+03  0.71509844845E+03 -0.32134665792E+03  0.90495288506E+03  0.12699999809E+01 0. -1.
       -4    1    3    3    0  502 -0.45200513908E+03 -0.71509844845E+03  0.53808899954E+03  0.10026045188E+04  0.12699999809E+01 0.  1.
</event>
<event>
 5   0  0.2879462E-05  0.1905963E+04  0.7818609E-02  0.8651894E-01
       -2   -1    0    0    0  501  0.00000000000E+00  0.00000000000E+00  0.13994831436E+04  0.13994831436E+04  0.25500000920E-02 0. -1.
        2   -1    0    0  501    0  0.00000000000E+00  0.00000000000E+00 -0.64893485275E+03  0.64893485276E+03  0.25500000920E-02 0.  1.
    10030    2    1    2    0    0  0.00000000000E+00  0.00000000000E+00  0.75054829087E+03  0.20484179964E+04  0.19059626310E+04 0.  0.
        4    1    3    3  502    0 -0.67175624346E+03 -0.56138691209E+03 -0.29377344750E+02  0.87594312428E+03  0.12699999809E+01 0.  1.
       -4    1    3    3    0  502  0.67175624346E+03  0.56138691209E+03  0.77992563562E+03  0.11724748721E+04  0.12699999809E+01 0. -1.
</event>
<event>
 5   0  0.1429067E-05  0.1899424E+04  0.7818609E-02  0.8655143E-01
       -1   -1    0    0    0  501  0.00000000000E+00  0.00000000000E+00  0.44786235939E+03  0.44786235941E+03  0.50400001928E-02 0.  1.
        1   -1    0    0  501    0  0.00000000000E+00  0.00000000000E+00 -0.20139065254E+04  0.20139065254E+04  0.50400001928E-02 0. -1.
    10030    2    1    2    0    0  0.00000000000E+00  0.00000000000E+00 -0.15660441660E+04  0.24617688848E+04  0.18994240475E+04 0.  0.
        3    1    3    3  502    0 -0.84965091028E+03  0.26079661507E+03 -0.12168277065E+04  0.15068481082E+04  0.10100000352E+00 0. -1.
       -3    1    3    3    0  502  0.84965091028E+03 -0.26079661507E+03 -0.34921645951E+03  0.95492077659E+03  0.10100000352E+00 0.  1.
</event>
<event>
 5   0  0.1344119E-05  0.1907247E+04  0.7818609E-02  0.8651257E-01
       -1   -1    0    0    0  501  0.00000000000E+00  0.00000000000E+00  0.10519825059E+04  0.10519825060E+04  0.50400001928E-02 0. -1.
        1   -1    0    0  501    0  0.00000000000E+00  0.00000000000E+00 -0.86446100776E+03  0.86446100777E+03  0.50400001928E-02 0.  1.
    10030    2    1    2    0    0  0.00000000000E+00  0.00000000000E+00  0.18752149819E+03  0.19164435137E+04  0.19072470813E+04 0.  0.
        2    1    3    3  502    0  0.63027742973E+03  0.10336598523E+03  0.80531630018E+03  0.10278465395E+04  0.25500000920E-02 0. -1.
       -2    1    3    3    0  502 -0.63027742973E+03 -0.10336598523E+03 -0.61779480199E+03  0.88859697428E+03  0.25500000920E-02 0.  1.
</event>
<event>
 5   0  0.1327254E-05  0.1906450E+04  0.7818609E-02  0.8651652E-01
        1   -1    0    0  501    0  0.00000000000E+00  0.00000000000E+00  0.25224865525E+04  0.25224865525E+04  0.50400001928E-02 0.  1.
       -1   -1    0    0    0  501  0.00000000000E+00  0.00000000000E+00 -0.36021532084E+03  0.36021532087E+03  0.50400001928E-02 0. -1.
    10030    2    1    2    0    0  0.00000000000E+00  0.00000000000E+00  0.21622712317E+04  0.28827018734E+04  0.19064504220E+04 0.  0.
        5    1    3    3  502    0 -0.46637071090E+03  0.25692438792E+03  0.22766381569E+04  0.23380793760E+04  0.46999998093E+01 0.  1.
       -5    1    3    3    0  502  0.46637071090E+03 -0.25692438792E+03 -0.11436692520E+03  0.54462249740E+03  0.46999998093E+01 0. -1.
</event>
<event>
 5   0  0.1429067E-05  0.1900197E+04  0.7818609E-02  0.8654758E-01
        1   -1    0    0  501    0  0.00000000000E+00  0.00000000000E+00  0.14556093146E+04  0.14556093146E+04  0.50400001928E-02 0.  1.
       -1   -1    0    0    0  501  0.00000000000E+00  0.00000000000E+00 -0.62014388025E+03  0.62014388027E+03  0.50400001928E-02 0. -1.
    10030    2    1    2    0    0  0.00000000000E+00  0.00000000000E+00  0.83546543439E+03  0.20757531949E+04  0.19001970514E+04 0.  0.
        3    1    3    3  502    0  0.56648686088E+01 -0.91896157460E+03  0.15427741653E+03  0.93183904070E+03  0.10100000352E+00 0. -1.
       -3    1    3    3    0  502 -0.56648686088E+01  0.91896157460E+03  0.68118801786E+03  0.11439141542E+04  0.10100000352E+00 0.  1.
</event>
<event>
 5   0  0.1327254E-05  0.1865098E+04  0.7818609E-02  0.8672427E-01
       -1   -1    0    0    0  501  0.00000000000E+00  0.00000000000E+00  0.64405049298E+03  0.64405049300E+03  0.50400001928E-02 0. -1.
        1   -1    0    0  501    0  0.00000000000E+00  0.00000000000E+00 -0.13502791256E+04  0.13502791256E+04  0.50400001928E-02 0.  1.
    10030    2    1    2    0    0  0.00000000000E+00  0.00000000000E+00 -0.70622863263E+03  0.19943296186E+04  0.18650983208E+04 0.  0.
        5    1    3    3  502    0 -0.96035035339E+02  0.28181691596E+03  0.59185088571E+03  0.66253532966E+03  0.46999998093E+01 0. -1.
       -5    1    3    3    0  502  0.96035035339E+02 -0.28181691596E+03 -0.12980795183E+04  0.13317942889E+04  0.46999998093E+01 0.  1.
</event>
<event>
 5   0  0.1344119E-05  0.1901172E+04  0.7818609E-02  0.8654273E-01
       -1   -1    0    0    0  501  0.00000000000E+00  0.00000000000E+00  0.10311599911E+04  0.10311599912E+04  0.50400001928E-02 0. -1.
        1   -1    0    0  501    0  0.00000000000E+00  0.00000000000E+00 -0.87630829286E+03  0.87630829287E+03  0.50400001928E-02 0.  1.
    10030    2    1    2    0    0  0.00000000000E+00  0.00000000000E+00  0.15485169829E+03  0.19074682840E+04  0.19011723241E+04 0.  0.
        2    1    3    3  502    0  0.34810003635E+03 -0.80005334873E+03  0.45597501136E+03  0.98446544232E+03  0.25500000920E-02 0. -1.
       -2    1    3    3    0  502 -0.34810003635E+03  0.80005334873E+03 -0.30112331307E+03  0.92300284171E+03  0.25500000920E-02 0.  1.
</event>
<event>
 5   0  0.1344119E-05  0.1898591E+04  0.7818609E-02  0.8655558E-01
        1   -1    0    0  501    0  0.00000000000E+00  0.00000000000E+00  0.94495770759E+03  0.94495770760E+03  0.50400001928E-02 0. -1.
       -1   -1    0    0    0  501  0.00000000000E+00  0.00000000000E+00 -0.95365323151E+03  0.95365323153E+03  0.50400001928E-02 0.  1.
    10030    2    1    2    0    0  0.00000000000E+00  0.00000000000E+00 -0.86955239204E+01  0.18986109391E+04  0.18985910265E+04 0.  0.
        2    1    3    3  502    0  0.45115686118E+02 -0.62096516850E+03  0.71226899601E+03  0.94602340791E+03  0.25500000920E-02 0. -1.
       -2    1    3    3    0  502 -0.45115686118E+02  0.62096516850E+03 -0.72096451993E+03  0.95258753122E+03  0.25500000920E-02 0.  1.
</event>
<event>
 5   0  0.2789718E-05  0.1896573E+04  0.7818609E-02  0.8656564E-01
       -2   -1    0    0    0  501  0.00000000000E+00  0.00000000000E+00  0.66806068705E+03  0.66806068705E+03  0.25500000920E-02 0. -1.
        2   -1    0    0  501    0  0.00000000000E+00  0.00000000000E+00 -0.13460558106E+04  0.13460558106E+04  0.25500000920E-02 0.  1.
    10030    2    1    2    0    0  0.00000000000E+00  0.00000000000E+00 -0.67799512352E+03  0.20141164976E+04  0.18965726663E+04 0.  0.
        5    1    3    3  502    0  0.69585010666E+03  0.23808196101E+03 -0.97470809063E+03  0.12210521459E+04  0.46999998093E+01 0.  1.
       -5    1    3    3    0  502 -0.69585010666E+03 -0.23808196101E+03  0.29671296712E+03  0.79306435171E+03  0.46999998093E+01 0. -1.
</event>
<event>
 5   0  0.1429067E-05  0.1895903E+04  0.7818609E-02  0.8656899E-01
       -1   -1    0    0    0  501  0.00000000000E+00  0.00000000000E+00  0.57251835490E+03  0.57251835492E+03  0.50400001928E-02 0. -1.
        1   -1    0    0  501    0  0.00000000000E+00  0.00000000000E+00 -0.15695773786E+04  0.15695773786E+04  0.50400001928E-02 0.  1.
    10030    2    1    2    0    0  0.00000000000E+00  0.00000000000E+00 -0.99705902373E+03  0.21420957336E+04  0.18959028021E+04 0.  0.
        3    1    3    3  502    0 -0.15503026395E+03 -0.64055065739E+03  0.27132596571E+03  0.71271124398E+03  0.10100000352E+00 0. -1.
       -3    1    3    3    0  502  0.15503026395E+03  0.64055065739E+03 -0.12683849894E+04  0.14293844896E+04  0.10100000352E+00 0.  1.
</event>
<event>
 5   0  0.2789718E-05  0.1881120E+04  0.7818609E-02  0.8664312E-01
        2   -1    0    0  501    0  0.00000000000E+00  0.00000000000E+00  0.88219239734E+03  0.88219239735E+03  0.25500000920E-02 0. -1.
       -2   -1    0    0    0  501  0.00000000000E+00  0.00000000000E+00 -0.10027894738E+04  0.10027894738E+04  0.25500000920E-02 0.  1.
    10030    2    1    2    0    0  0.00000000000E+00  0.00000000000E+00 -0.12059707642E+03  0.18849818711E+04  0.18811201449E+04 0.  0.
        5    1    3    3  502    0  0.56664836332E+03  0.75068566005E+03 -0.56851704491E+02  0.94227041456E+03  0.46999998093E+01 0. -1.
       -5    1    3    3    0  502 -0.56664836332E+03 -0.75068566005E+03 -0.63745371924E+02  0.94271145655E+03  0.46999998093E+01 0.  1.
</event>
<event>
 5   0  0.1429067E-05  0.1897730E+04  0.7818609E-02  0.8655987E-01
       -1   -1    0    0    0  501  0.00000000000E+00  0.00000000000E+00  0.11432905864E+04  0.11432905864E+04  0.50400001928E-02 0.  1.
        1   -1    0    0  501    0  0.00000000000E+00  0.00000000000E+00 -0.78750317653E+03  0.78750317655E+03  0.50400001928E-02 0. -1.
    10030    2    1    2    0    0  0.00000000000E+00  0.00000000000E+00  0.35578740987E+03  0.19307937630E+04  0.18977301900E+04 0.  0.
        3    1    3    3  502    0 -0.61813734460E+03 -0.39939211296E+03 -0.43148823669E+03  0.85310605747E+03  0.10100000352E+00 0. -1.
       -3    1    3    3    0  502  0.61813734460E+03  0.39939211296E+03  0.78727564655E+03  0.10776877055E+04  0.10100000352E+00 0.  1.
</event>
<event>
 5   0  0.2879462E-05  0.1899913E+04  0.7818609E-02  0.8654900E-01
       -2   -1    0    0    0  501  0.00000000000E+00  0.00000000000E+00  0.69462145767E+03  0.69462145768E+03  0.25500000920E-02 0. -1.
        2   -1    0    0  501    0  0.00000000000E+00  0.00000000000E+00 -0.12991494324E+04  0.12991494324E+04  0.25500000920E-02 0.  1.
    10030    2    1    2    0    0  0.00000000000E+00  0.00000000000E+00 -0.60452797471E+03  0.19937708901E+04  0.18999127058E+04 0.  0.
        4    1    3    3  502    0 -0.90919934379E+03  0.17711493725E+03 -0.81135652907E+02  0.92983748840E+03  0.12699999809E+01 0. -1.
       -4    1    3    3    0  502  0.90919934379E+03 -0.17711493725E+03 -0.52339232180E+03  0.10639334017E+04  0.12699999809E+01 0.  1.
</event>
<event>
 5   0  0.1471485E-05  0.1899181E+04  0.7818609E-02  0.8655264E-01
        1   -1    0    0  501    0  0.00000000000E+00  0.00000000000E+00  0.95771136715E+03  0.95771136717E+03  0.50400001928E-02 0.  1.
       -1   -1    0    0    0  501  0.00000000000E+00  0.00000000000E+00 -0.94153870684E+03  0.94153870685E+03  0.50400001928E-02 0. -1.
    10030    2    1    2    0    0  0.00000000000E+00  0.00000000000E+00  0.16172660319E+02  0.18992500740E+04  0.18991812153E+04 0.  0.
        4    1    3    3  502    0  0.44863689348E+03 -0.38345785760E+03 -0.73585308199E+03  0.94329017907E+03  0.12699999809E+01 0. -1.
       -4    1    3    3    0  502 -0.44863689348E+03  0.38345785760E+03  0.75202574231E+03  0.95595989495E+03  0.12699999809E+01 0.  1.
</event>
<event>
 5   0  0.2879462E-05  0.1902138E+04  0.7818609E-02  0.8653793E-01
       -2   -1    0    0    0  501  0.00000000000E+00  0.00000000000E+00  0.64078798124E+03  0.64078798125E+03  0.25500000920E-02 0.  1.
        2   -1    0    0  501    0  0.00000000000E+00  0.00000000000E+00 -0.14115942517E+04  0.14115942517E+04  0.25500000920E-02 0. -1.
    10030    2    1    2    0    0  0.00000000000E+00  0.00000000000E+00 -0.77080627045E+03  0.20523822329E+04  0.19021384081E+04 0.  0.
        4    1    3    3  502    0  0.74205597076E+03 -0.34879015197E+03  0.13456258957E+03  0.83090934359E+03  0.12699999809E+01 0.  1.
       -4    1    3    3    0  502 -0.74205597076E+03  0.34879015197E+03 -0.90536886002E+03  0.12214728894E+04  0.12699999809E+01 0. -1.
</event>
<event>
 5   0  0.2813537E-05  0.1891713E+04  0.7818609E-02  0.8658992E-01
       -2   -1    0    0    0  501  0.00000000000E+00  0.00000000000E+00  0.37073498088E+03  0.37073498089E+03  0.25500000920E-02 0.  1.
        2   -1    0    0  501    0  0.00000000000E+00  0.00000000000E+00 -0.24131639260E+04  0.24131639260E+04  0.25500000920E-02 0. -1.
    10030    2    1    2    0    0  0.00000000000E+00  0.00000000000E+00 -0.20424289452E+04  0.27838989069E+04  0.18917127499E+04 0.  0.
        2    1    3    3  502    0  0.14222954446E+03 -0.84378094928E+03 -0.16143534365E+04  0.18271104377E+04  0.25500000920E-02 0. -1.
       -2    1    3    3    0  502 -0.14222954446E+03  0.84378094928E+03 -0.42807550865E+03  0.95678846920E+03  0.25500000920E-02 0.  1.
</event>
<event>
 5   0  0.1413011E-05  0.1915346E+04  0.7818609E-02  0.8647255E-01
        1   -1    0    0  501    0  0.00000000000E+00  0.00000000000E+00  0.87200949989E+03  0.87200949990E+03  0.50400001928E-02 0. -1.
       -1   -1    0    0    0  501  0.00000000000E+00  0.00000000000E+00 -0.10517523326E+04  0.10517523326E+04  0.50400001928E-02 0.  1.
    10030    2    1    2    0    0  0.00000000000E+00  0.00000000000E+00 -0.17974283274E+03  0.19237618325E+04  0.19153464706E+04 0.  0.
        1    1    3    3  502    0  0.50883626940E+02 -0.86533170532E+03 -0.49878414030E+03  0.10000868574E+04  0.50400001928E-02 0.  1.
       -1    1    3    3    0  502 -0.50883626940E+02  0.86533170532E+03  0.31904130756E+03  0.92367497513E+03  0.50400001928E-02 0. -1.
</event>
<event>
 5   0  0.1413011E-05  0.1900548E+04  0.7818609E-02  0.8654583E-01
       -1   -1    0    0    0  501  0.00000000000E+00  0.00000000000E+00  0.18305050300E+04  0.18305050300E+04  0.50400001928E-02 0.  1.
        1   -1    0    0  501    0  0.00000000000E+00  0.00000000000E+00 -0.49331799563E+03  0.49331799565E+03  0.50400001928E-02 0. -1.
    10030    2    1    2    0    0  0.00000000000E+00  0.00000000000E+00  0.13371870344E+04  0.23238230256E+04  0.19005484181E+04 0.  0.
        1    1    3    3  502    0 -0.15234050160E+03 -0.57209965813E+03  0.15774521068E+04  0.16848919243E+04  0.50400001928E-02 0.  1.
       -1    1    3    3    0  502  0.15234050160E+03  0.57209965813E+03 -0.24026507242E+03  0.63893110138E+03  0.50400001928E-02 0. -1.
</event>
<event>
 5   0  0.2789718E-05  0.1902379E+04  0.7818609E-02  0.8653673E-01
        2   -1    0    0  501    0  0.00000000000E+00  0.00000000000E+00  0.53187683175E+03  0.53187683176E+03  0.25500000920E-02 0.  1.
       -2   -1    0    0    0  501  0.00000000000E+00  0.00000000000E+00 -0.17010737817E+04  0.17010737817E+04  0.25500000920E-02 0. -1.
    10030    2    1    2    0    0  0.00000000000E+00  0.00000000000E+00 -0.11691969500E+04  0.22329506135E+04  0.19023792825E+04 0.  0.
        5    1    3    3  502    0 -0.18171109409E+01  0.91307192718E+03 -0.27175921359E+03  0.95266930582E+03  0.46999998093E+01 0.  1.
       -5    1    3    3    0  502  0.18171109409E+01 -0.91307192718E+03 -0.89743773640E+03  0.12802813077E+04  0.46999998093E+01 0. -1.
</event>
<event>
 5   0  0.2888776E-05  0.1897215E+04  0.7818609E-02  0.8656244E-01
        2   -1    0    0  501    0  0.00000000000E+00  0.00000000000E+00  0.61862148274E+03  0.61862148274E+03  0.25500000920E-02 0.  1.
       -2   -1    0    0    0  501  0.00000000000E+00  0.00000000000E+00 -0.14546153703E+04  0.14546153703E+04  0.25500000920E-02 0. -1.
    10030    2    1    2    0    0  0.00000000000E+00  0.00000000000E+00 -0.83599388758E+03  0.20732368531E+04  0.18972151351E+04 0.  0.
        3    1    3    3  502    0 -0.84631812222E+03 -0.27251862900E+03 -0.56659459723E+02  0.89091586120E+03  0.10100000352E+00 0. -1.
       -3    1    3    3    0  502  0.84631812222E+03  0.27251862900E+03 -0.77933442785E+03  0.11823209919E+04  0.10100000352E+00 0.  1.
</event>
<event>
 5   0  0.2789718E-05  0.1904449E+04  0.7818609E-02  0.8652645E-01
       -2   -1    0    0    0  501  0.00000000000E+00  0.00000000000E+00  0.68492585677E+03  0.68492585678E+03  0.25500000920E-02 0.  1.
        2   -1    0    0  501    0  0.00000000000E+00  0.00000000000E+00 -0.13238390292E+04  0.13238390292E+04  0.25500000920E-02 0. -1.
    10030    2    1    2    0    0  0.00000000000E+00  0.00000000000E+00 -0.63891317246E+03  0.20087648860E+04  0.19044490871E+04 0.  0.
        5    1    3    3  502    0 -0.53822427697E+02  0.74017049825E+03  0.30984743331E+03  0.80422431083E+03  0.46999998093E+01 0.  1.
       -5    1    3    3    0  502  0.53822427697E+02 -0.74017049825E+03 -0.94876060576E+03  0.12045405752E+04  0.46999998093E+01 0. -1.
</event>
<event>
 5   0  0.1344119E-05  0.1900226E+04  0.7818609E-02  0.8654744E-01
       -1   -1    0    0    0  501  0.00000000000E+00  0.00000000000E+00  0.79532506242E+03  0.79532506243E+03  0.50400001928E-02 0. -1.
        1   -1    0    0  501    0  0.00000000000E+00  0.00000000000E+00 -0.11350260569E+04  0.11350260569E+04  0.50400001928E-02 0.  1.
    10030    2    1    2    0    0  0.00000000000E+00  0.00000000000E+00 -0.33970099452E+03  0.19303511194E+04  0.19002259546E+04 0.  0.
        2    1    3    3  502    0  0.94300706778E+03  0.11596126838E+03 -0.16750654881E+03  0.96476307431E+03  0.25500000920E-02 0. -1.
       -2    1    3    3    0  502 -0.94300706778E+03 -0.11596126838E+03 -0.17219444572E+03  0.96558804507E+03  0.25500000920E-02 0.  1.
</event>
<event>
 5   0  0.2879462E-05  0.1900968E+04  0.7818609E-02  0.8654375E-01
       -2   -1    0    0    0  501  0.00000000000E+00  0.00000000000E+00  0.95796905226E+03  0.95796905226E+03  0.25500000920E-02 0.  1.
        2   -1    0    0  501    0  0.00000000000E+00  0.00000000000E+00 -0.94305749128E+03  0.94305749128E+03  0.25500000920E-02 0. -1.
    10030    2    1    2    0    0  0.00000000000E+00  0.00000000000E+00  0.14911560979E+02  0.19010265435E+04  0.19009680599E+04 0.  0.
        4    1    3    3  502    0 -0.68743517365E+03 -0.29092957908E+03  0.59587097671E+03  0.95512877233E+03  0.12699999809E+01 0.  1.
       -4    1    3    3    0  502  0.68743517365E+03  0.29092957908E+03 -0.58095941573E+03  0.94589777121E+03  0.12699999809E+01 0. -1.
</event>
<event>
 5   0  0.1429067E-05  0.1899137E+04  0.7818609E-02  0.8655286E-01
        1   -1    0    0  501    0  0.00000000000E+00  0.00000000000E+00  0.14731435159E+04  0.14731435159E+04  0.50400001928E-02 0. -1.
       -1   -1    0    0    0  501  0.00000000000E+00  0.00000000000E+00 -0.61207928061E+03  0.61207928063E+03  0.50400001928E-02 0.  1.
    10030    2    1    2    0    0  0.00000000000E+00  0.00000000000E+00  0.86106423529E+03  0.20852227965E+04  0.18991373025E+04 0.  0.
        3    1    3    3  502    0  0.79888761867E+02 -0.83293377507E+03  0.92342764952E+03  0.12461458671E+04  0.10100000352E+00 0. -1.
       -3    1    3    3    0  502 -0.79888761867E+02  0.83293377507E+03 -0.62363414226E+02  0.83907692946E+03  0.10100000352E+00 0.  1.
</event>
<event>
 5   0  0.2888776E-05  0.1901880E+04  0.7818609E-02  0.8653921E-01
       -2   -1    0    0    0  501  0.00000000000E+00  0.00000000000E+00  0.43672679315E+03  0.43672679316E+03  0.25500000920E-02 0. -1.
        2   -1    0    0  501    0  0.00000000000E+00  0.00000000000E+00 -0.20706006279E+04  0.20706006279E+04  0.25500000920E-02 0.  1.
    10030    2    1    2    0    0  0.00000000000E+00  0.00000000000E+00 -0.16338738347E+04  0.25073274210E+04  0.19018798828E+04 0.  0.
        3    1    3    3  502    0  0.76188074884E+03 -0.40713037388E+03 -0.29279150052E+03  0.91210980137E+03  0.10100000352E+00 0.  1.
       -3    1    3    3    0  502 -0.76188074884E+03  0.40713037388E+03 -0.13410823342E+04  0.15952176197E+04  0.10100000352E+00 0. -1.
</event>
<event>
 5   0  0.1413011E-05  0.1899510E+04  0.7818609E-02  0.8655100E-01
       -1   -1    0    0    0  501  0.00000000000E+00  0.00000000000E+00  0.60560890185E+03  0.60560890187E+03  0.50400001928E-02 0.  1.
        1   -1    0    0  501    0  0.00000000000E+00  0.00000000000E+00 -0.14894666334E+04  0.14894666334E+04  0.50400001928E-02 0. -1.
    10030    2    1    2    0    0  0.00000000000E+00  0.00000000000E+00 -0.88385773158E+03  0.20950755353E+04  0.18995096759E+04 0.  0.
        1    1    3    3  502    0 -0.93622818087E+03 -0.77086177769E+02 -0.28763811089E+03  0.98244652186E+03  0.50400001928E-02 0.  1.
       -1    1    3    3    0  502  0.93622818087E+03  0.77086177769E+02 -0.59621962069E+03  0.11126290134E+04  0.50400001928E-02 0. -1.
</event>
<event>
 5   0  0.2789718E-05  0.1898768E+04  0.7818609E-02  0.8655470E-01
       -2   -1    0    0    0  501  0.00000000000E+00  0.00000000000E+00  0.98711334271E+03  0.98711334271E+03  0.25500000920E-02 0. -1.
        2   -1    0    0  501    0  0.00000000000E+00  0.00000000000E+00 -0.91309660502E+03  0.91309660502E+03  0.25500000920E-02 0.  1.
    10030    2    1    2    0    0  0.00000000000E+00  0.00000000000E+00  0.74016737694E+02  0.19002099477E+04  0.18987678552E+04 0.  0.
        5    1    3    3  502    0  0.27312617261E+03  0.31208757644E+03 -0.81763741638E+03  0.91681491927E+03  0.46999998093E+01 0.  1.
       -5    1    3    3    0  502 -0.27312617261E+03 -0.31208757644E+03  0.89165415407E+03  0.98339502846E+03  0.46999998093E+01 0. -1.
</event>
<event>
 5   0  0.1471485E-05  0.1899419E+04  0.7818609E-02  0.8655146E-01
       -1   -1    0    0    0  501  0.00000000000E+00  0.00000000000E+00  0.47791421314E+03  0.47791421317E+03  0.50400001928E-02 0. -1.
        1   -1    0    0  501    0  0.00000000000E+00  0.00000000000E+00 -0.18872589988E+04  0.18872589988E+04  0.50400001928E-02 0.  1.
    10030    2    1    2    0    0  0.00000000000E+00  0.00000000000E+00 -0.14093447856E+04  0.23651732119E+04  0.18994187526E+04 0.  0.
        4    1    3    3  502    0 -0.68975781753E+03 -0.24621215537E+03  0.48200347884E+02  0.73396945354E+03  0.12699999809E+01 0. -1.
       -4    1    3    3    0  502  0.68975781753E+03  0.24621215537E+03 -0.14575451335E+04  0.16312037584E+04  0.12699999809E+01 0.  1.
</event>
<event>
 5   0  0.2813537E-05  0.1907113E+04  0.7818609E-02  0.8651324E-01
       -2   -1    0    0    0  501  0.00000000000E+00  0.00000000000E+00  0.84258611724E+03  0.84258611725E+03  0.25500000920E-02 0.  1.
        2   -1    0    0  501    0  0.00000000000E+00  0.00000000000E+00 -0.10791414332E+04  0.10791414332E+04  0.25500000920E-02 0. -1.
    10030    2    1    2    0    0  0.00000000000E+00  0.00000000000E+00 -0.23655531593E+03  0.19217275504E+04  0.19071125716E+04 0.  0.
        2    1    3    3  502    0 -0.23829000154E+03  0.25742121799E+03 -0.10117642159E+04  0.10708476254E+04  0.25500000920E-02 0. -1.
       -2    1    3    3    0  502  0.23829000154E+03 -0.25742121799E+03  0.77520889992E+03  0.85087992504E+03  0.25500000920E-02 0.  1.
</event>
<event>
 5   0  0.2888776E-05  0.1902951E+04  0.7818609E-02  0.8653389E-01
        2   -1    0    0  501    0  0.00000000000E+00  0.00000000000E+00  0.12462799284E+04  0.12462799284E+04  0.25500000920E-02 0. -1.
       -2   -1    0    0    0  501  0.00000000000E+00  0.00000000000E+00 -0.72640619815E+03  0.72640619815E+03  0.25500000920E-02 0.  1.
    10030    2    1    2    0    0  0.00000000000E+00  0.00000000000E+00  0.51987373020E+03  0.19726861265E+04  0.19029508292E+04 0.  0.
        3    1    3    3  502    0 -0.23871680576E+03  0.71947553044E+03 -0.33617931411E+03  0.82924501427E+03  0.10100000352E+00 0. -1.
       -3    1    3    3    0  502  0.23871680576E+03 -0.71947553044E+03  0.85605304432E+03  0.11434411122E+04  0.10100000352E+00 0.  1.
</event>
<event>
 5   0  0.1327254E-05  0.1921122E+04  0.7818609E-02  0.8644413E-01
       -1   -1    0    0    0  501  0.00000000000E+00  0.00000000000E+00  0.77969457000E+03  0.77969457002E+03  0.50400001928E-02 0.  1.
        1   -1    0    0  501    0  0.00000000000E+00  0.00000000000E+00 -0.11833836237E+04  0.11833836237E+04  0.50400001928E-02 0. -1.
    10030    2    1    2    0    0  0.00000000000E+00  0.00000000000E+00 -0.40368905368E+03  0.19630781937E+04  0.19211223653E+04 0.  0.
        5    1    3    3  502    0 -0.43326923832E+02 -0.18432226867E+03 -0.11641131775E+04  0.11794208329E+04  0.46999998093E+01 0. -1.
       -5    1    3    3    0  502  0.43326923832E+02  0.18432226867E+03  0.76042412382E+03  0.78365736081E+03  0.46999998093E+01 0.  1.
</event>
<event>
 5   0  0.1344119E-05  0.1899467E+04  0.7818609E-02  0.8655122E-01
        1   -1    0    0  501    0  0.00000000000E+00  0.00000000000E+00  0.24355491073E+04  0.24355491073E+04  0.50400001928E-02 0.  1.
       -1   -1    0    0    0  501  0.00000000000E+00  0.00000000000E+00 -0.37034521089E+03  0.37034521093E+03  0.50400001928E-02 0. -1.
    10030    2    1    2    0    0  0.00000000000E+00  0.00000000000E+00  0.20652038964E+04  0.28058943182E+04  0.18994672388E+04 0.  0.
        2    1    3    3  502    0  0.59501046100E+03  0.69776426876E+03  0.13976873230E+04  0.16716585406E+04  0.25500000920E-02 0.  1.
       -2    1    3    3    0  502 -0.59501046100E+03 -0.69776426876E+03  0.66751657336E+03  0.11342357776E+04  0.25500000920E-02 0. -1.
</event>
<event>
 5   0  0.2855141E-05  0.1904062E+04  0.7818609E-02  0.8652837E-01
       -2   -1    0    0    0  501  0.00000000000E+00  0.00000000000E+00  0.34143845605E+03  0.34143845606E+03  0.25500000920E-02 0. -1.
        2   -1    0    0  501    0  0.00000000000E+00  0.00000000000E+00 -0.26545416013E+04  0.26545416013E+04  0.25500000920E-02 0.  1.
    10030    2    1    2    0    0  0.00000000000E+00  0.00000000000E+00 -0.23131031453E+04  0.29959800574E+04  0.19040615388E+04 0.  0.
        1    1    3    3  502    0 -0.48145675841E+02 -0.82771271480E+03 -0.18927870933E+04  0.20664146063E+04  0.50400001928E-02 0.  1.
       -1    1    3    3    0  502  0.48145675841E+02  0.82771271480E+03 -0.42031605195E+03  0.92956545111E+03  0.50400001928E-02 0. -1.
</event>
<event>
 5   0  0.2813537E-05  0.1898316E+04  0.7818609E-02  0.8655695E-01
       -2   -1    0    0    0  501  0.00000000000E+00  0.00000000000E+00  0.12283476786E+04  0.12283476786E+04  0.25500000920E-02 0. -1.
        2   -1    0    0  501    0  0.00000000000E+00  0.00000000000E+00 -0.73342505821E+03  0.73342505821E+03  0.25500000920E-02 0.  1.
    10030    2    1    2    0    0  0.00000000000E+00  0.00000000000E+00  0.49492262042E+03  0.19617727368E+04  0.18983160619E+04 0.  0.
        2    1    3    3  502    0 -0.14116905014E+02 -0.85350194053E+03 -0.18142510154E+03  0.87268546279E+03  0.25500000920E-02 0. -1.
       -2    1    3    3    0  502  0.14116905014E+02  0.85350194053E+03  0.67634772196E+03  0.10890872740E+04  0.25500000920E-02 0.  1.
</event>
<event>
 5   0  0.1344119E-05  0.1897726E+04  0.7818609E-02  0.8655989E-01
       -1   -1    0    0    0  501  0.00000000000E+00  0.00000000000E+00  0.13658110522E+04  0.13658110522E+04  0.50400001928E-02 0. -1.
        1   -1    0    0  501    0  0.00000000000E+00  0.00000000000E+00 -0.65919902801E+03  0.65919902803E+03  0.50400001928E-02 0.  1.
    10030    2    1    2    0    0  0.00000000000E+00  0.00000000000E+00  0.70661202422E+03  0.20250100803E+04  0.18977263429E+04 0.  0.
        2    1    3    3  502    0  0.27755201625E+03 -0.69030834361E+03  0.98168404156E+03  0.12317728234E+04  0.25500000920E-02 0. -1.
       -2    1    3    3    0  502 -0.27755201625E+03  0.69030834361E+03 -0.27507201734E+03  0.79323725689E+03  0.25500000920E-02 0.  1.
</event>
<event>
 5   0  0.2813537E-05  0.1902274E+04  0.7818609E-02  0.8653725E-01
       -2   -1    0    0    0  501  0.00000000000E+00  0.00000000000E+00  0.53306520305E+03  0.53306520305E+03  0.25500000920E-02 0. -1.
        2   -1    0    0  501    0  0.00000000000E+00  0.00000000000E+00 -0.16970931101E+04  0.16970931101E+04  0.25500000920E-02 0.  1.
    10030    2    1    2    0    0  0.00000000000E+00  0.00000000000E+00 -0.11640279071E+04  0.22301583132E+04  0.19022736747E+04 0.  0.
        2    1    3    3  502    0  0.81225582875E+03  0.15410452980E+03 -0.11333414458E+04  0.14028437440E+04  0.25500000920E-02 0.  1.
       -2    1    3    3    0  502 -0.81225582875E+03 -0.15410452980E+03 -0.30686461321E+02  0.82731456917E+03  0.25500000920E-02 0. -1.
</event>
<event>
 5   0  0.2789718E-05  0.1958623E+04  0.7818609E-02  0.8626214E-01
       -2   -1    0    0    0  501  0.00000000000E+00  0.00000000000E+00  0.11901524993E+04  0.11901524993E+04  0.25500000920E-02 0. -1.
        2   -1    0    0  501    0  0.00000000000E+00  0.00000000000E+00 -0.80582196705E+03  0.80582196705E+03  0.25500000920E-02 0.  1.
    10030    2    1    2    0    0  0.00000000000E+00  0.00000000000E+00  0.38433053229E+03  0.19959744664E+04  0.19586230144E+04 0.  0.
        5    1    3    3  502    0  0.92905697980E+03 -0.30921282451E+03  0.17543588273E+03  0.99476594307E+03  0.46999998093E+01 0.  1.
       -5    1    3    3    0  502 -0.92905697980E+03  0.30921282451E+03  0.20889464955E+03  0.10012085233E+04  0.46999998093E+01 0. -1.
</event>
<event>
 5   0  0.2879462E-05  0.1894967E+04  0.7818609E-02  0.8657366E-01
       -2   -1    0    0    0  501  0.00000000000E+00  0.00000000000E+00  0.92955135647E+03  0.92955135647E+03  0.25500000920E-02 0.  1.
        2   -1    0    0  501    0  0.00000000000E+00  0.00000000000E+00 -0.96576186721E+03  0.96576186721E+03  0.25500000920E-02 0. -1.
    10030    2    1    2    0    0  0.00000000000E+00  0.00000000000E+00 -0.36210510744E+02  0.18953132237E+04  0.18949672859E+04 0.  0.
        4    1    3    3  502    0  0.93655938114E+03 -0.68084433988E+02  0.10819002706E+03  0.94524370371E+03  0.12699999809E+01 0.  1.
       -4    1    3    3    0  502 -0.93655938114E+03  0.68084433988E+02 -0.14440053780E+03  0.95006951997E+03  0.12699999809E+01 0. -1.
</event>
<event>
 5   0  0.2813537E-05  0.1902517E+04  0.7818609E-02  0.8653604E-01
       -2   -1    0    0    0  501  0.00000000000E+00  0.00000000000E+00  0.10220507974E+04  0.10220507974E+04  0.25500000920E-02 0. -1.
        2   -1    0    0  501    0  0.00000000000E+00  0.00000000000E+00 -0.88537007075E+03  0.88537007075E+03  0.25500000920E-02 0.  1.
    10030    2    1    2    0    0  0.00000000000E+00  0.00000000000E+00  0.13668072667E+03  0.19074208682E+04  0.19025174762E+04 0.  0.
        2    1    3    3  502    0 -0.92322324432E+03  0.20984353020E+03  0.16086972693E+03  0.96034084317E+03  0.25500000920E-02 0.  1.
       -2    1    3    3    0  502  0.92322324432E+03 -0.20984353020E+03 -0.24189000262E+02  0.94708002500E+03  0.25500000920E-02 0. -1.
</event>
<event>
 5   0  0.1010725E-05  0.1898195E+04  0.7818609E-02  0.8655756E-01
       -4   -1    0    0    0  501  0.00000000000E+00  0.00000000000E+00  0.16227853545E+04  0.16227858514E+04  0.12699999809E+01 0.  1.
        4   -1    0    0  501    0  0.00000000000E+00  0.00000000000E+00 -0.55508491329E+03  0.55508636613E+03  0.12699999809E+01 0. -1.
    10030    2    1    2    0    0  0.00000000000E+00  0.00000000000E+00  0.10677004412E+04  0.21778722176E+04  0.18981947118E+04 0.  0.
        4    1    3    3  502    0 -0.21139175033E+03  0.27670450699E+03 -0.47914803887E+03  0.59231436953E+03  0.12699999809E+01 0. -1.
       -4    1    3    3    0  502  0.21139175033E+03 -0.27670450699E+03  0.15468484801E+04  0.15855578480E+04  0.12699999809E+01 0.  1.
</event>
<event>
 5   0  0.1413011E-05  0.1902758E+04  0.7818609E-02  0.8653485E-01
        1   -1    0    0  501    0  0.00000000000E+00  0.00000000000E+00  0.99617538819E+03  0.99617538821E+03  0.50400001928E-02 0. -1.
       -1   -1    0    0    0  501  0.00000000000E+00  0.00000000000E+00 -0.90859701404E+03  0.90859701406E+03  0.50400001928E-02 0.  1.
    10030    2    1    2    0    0  0.00000000000E+00  0.00000000000E+00  0.87578374150E+02  0.19047724023E+04  0.19027579806E+04 0.  0.
        1    1    3    3  502    0 -0.56508424606E+03  0.73755449875E+03 -0.16091480508E+03  0.94297424052E+03  0.50400001928E-02 0. -1.
       -1    1    3    3    0  502  0.56508424606E+03 -0.73755449875E+03  0.24849317923E+03  0.96179816174E+03  0.50400001928E-02 0.  1.
</event>
<event>
 5   0  0.2888776E-05  0.1897054E+04  0.7818609E-02  0.8656324E-01
        2   -1    0    0  501    0  0.00000000000E+00  0.00000000000E+00  0.97340687246E+03  0.97340687247E+03  0.25500000920E-02 0.  1.
       -2   -1    0    0    0  501  0.00000000000E+00  0.00000000000E+00 -0.92428267442E+03  0.92428267443E+03  0.25500000920E-02 0. -1.
    10030    2    1    2    0    0  0.00000000000E+00  0.00000000000E+00  0.49124198039E+02  0.18976895469E+04  0.18970536180E+04 0.  0.
        3    1    3    3  502    0  0.65709025045E+03  0.10918572870E+03 -0.65095233989E+03  0.93135819081E+03  0.10100000352E+00 0. -1.
       -3    1    3    3    0  502 -0.65709025045E+03 -0.10918572870E+03  0.70007653793E+03  0.96633135608E+03  0.10100000352E+00 0.  1.
</event>
<event>
 5   0  0.1413011E-05  0.1923413E+04  0.7818609E-02  0.8643289E-01
       -1   -1    0    0    0  501  0.00000000000E+00  0.00000000000E+00  0.10028435774E+04  0.10028435774E+04  0.50400001928E-02 0. -1.
        1   -1    0    0  501    0  0.00000000000E+00  0.00000000000E+00 -0.92225719069E+03  0.92225719070E+03  0.50400001928E-02 0.  1.
    10030    2    1    2    0    0  0.00000000000E+00  0.00000000000E+00  0.80586386687E+02  0.19251007681E+04  0.19234133205E+04 0.  0.
        1    1    3    3  502    0  0.79052645391E+02 -0.94874194637E+03  0.17649747892E+03  0.96825201349E+03  0.50400001928E-02 0. -1.
       -1    1    3    3    0  502 -0.79052645391E+02  0.94874194637E+03 -0.95911092236E+02  0.95684875460E+03  0.50400001928E-02 0.  1.
</event>
<event>
 5   0  0.2813537E-05  0.1898580E+04  0.7818609E-02  0.8655564E-01
       -2   -1    0    0    0  501  0.00000000000E+00  0.00000000000E+00  0.81428970149E+03  0.81428970150E+03  0.25500000920E-02 0. -1.
        2   -1    0    0  501    0  0.00000000000E+00  0.00000000000E+00 -0.11066718653E+04  0.11066718653E+04  0.25500000920E-02 0.  1.
    10030    2    1    2    0    0  0.00000000000E+00  0.00000000000E+00 -0.29238216383E+03  0.19209615668E+04  0.18985799987E+04 0.  0.
        2    1    3    3  502    0  0.82153690638E+03  0.47285168930E+03 -0.19817667935E+03  0.96839331104E+03  0.25500000920E-02 0.  1.
       -2    1    3    3    0  502 -0.82153690638E+03 -0.47285168930E+03 -0.94205484479E+02  0.95256825579E+03  0.25500000920E-02 0. -1.
</event>
<event>
 5   0  0.2789718E-05  0.1899395E+04  0.7818609E-02  0.8655158E-01
        2   -1    0    0  501    0  0.00000000000E+00  0.00000000000E+00  0.44071801244E+03  0.44071801245E+03  0.25500000920E-02 0. -1.
       -2   -1    0    0    0  501  0.00000000000E+00  0.00000000000E+00 -0.20464909527E+04  0.20464909527E+04  0.25500000920E-02 0.  1.
    10030    2    1    2    0    0  0.00000000000E+00  0.00000000000E+00 -0.16057729402E+04  0.24872089651E+04  0.18993950881E+04 0.  0.
        5    1    3    3  502    0 -0.36246608928E+03 -0.47246085438E+03  0.16586114038E+03  0.61816901628E+03  0.46999998093E+01 0. -1.
       -5    1    3    3    0  502  0.36246608928E+03  0.47246085438E+03 -0.17716340806E+04  0.18690399488E+04  0.46999998093E+01 0.  1.
</event>
<event>
 5   0  0.1429067E-05  0.1894733E+04  0.7818609E-02  0.8657483E-01
       -1   -1    0    0    0  501  0.00000000000E+00  0.00000000000E+00  0.68072618711E+03  0.68072618713E+03  0.50400001928E-02 0. -1.
        1   -1    0    0  501    0  0.00000000000E+00  0.00000000000E+00 -0.13184494518E+04  0.13184494518E+04  0.50400001928E-02 0.  1.
    10030    2    1    2    0    0  0.00000000000E+00  0.00000000000E+00 -0.63772326472E+03  0.19991756390E+04  0.18947327709E+04 0.  0.
        3    1    3    3  502    0 -0.16855221043E+03 -0.61229497321E+03 -0.10605972186E+04  0.12361963647E+04  0.10100000352E+00 0.  1.
       -3    1    3    3    0  502  0.16855221043E+03  0.61229497321E+03  0.42287395388E+03  0.76297927425E+03  0.10100000352E+00 0. -1.
</event>
<event>
 5   0  0.1413011E-05  0.1881588E+04  0.7818609E-02  0.8664076E-01
       -1   -1    0    0    0  501  0.00000000000E+00  0.00000000000E+00  0.64906876917E+03  0.64906876919E+03  0.50400001928E-02 0.  1.
        1   -1    0    0  501    0  0.00000000000E+00  0.00000000000E+00 -0.13636355899E+04  0.13636355899E+04  0.50400001928E-02 0. -1.
    10030    2    1    2    0    0  0.00000000000E+00  0.00000000000E+00 -0.71456682076E+03  0.20127043591E+04  0.18815879187E+04 0.  0.
        1    1    3    3  502    0  0.23877861657E+03 -0.49222526561E+03  0.46142134570E+03  0.71568889758E+03  0.50400001928E-02 0.  1.
       -1    1    3    3    0  502 -0.23877861657E+03  0.49222526561E+03 -0.11759881665E+04  0.12970154616E+04  0.50400001928E-02 0. -1.
</event>
<event>
 5   0  0.1327254E-05  0.1903720E+04  0.7818609E-02  0.8653007E-01
        1   -1    0    0  501    0  0.00000000000E+00  0.00000000000E+00  0.16386133615E+04  0.16386133615E+04  0.50400001928E-02 0. -1.
       -1   -1    0    0    0  501  0.00000000000E+00  0.00000000000E+00 -0.55292957370E+03  0.55292957372E+03  0.50400001928E-02 0.  1.
    10030    2    1    2    0    0  0.00000000000E+00  0.00000000000E+00  0.10856837878E+04  0.21915429352E+04  0.19037203444E+04 0.  0.
        5    1    3    3  502    0 -0.62225272486E+03  0.33177025607E+03  0.12788345022E+04  0.14603799952E+04  0.46999998093E+01 0. -1.
       -5    1    3    3    0  502  0.62225272486E+03 -0.33177025607E+03 -0.19315071438E+03  0.73116294003E+03  0.46999998093E+01 0.  1.
</event>
<event>
 5   0  0.1010725E-05  0.1900478E+04  0.7818609E-02  0.8654619E-01
        3   -1    0    0  501    0  0.00000000000E+00  0.00000000000E+00  0.64980393689E+03  0.64980394474E+03  0.10100000352E+00 0.  1.
       -3   -1    0    0    0  501  0.00000000000E+00  0.00000000000E+00 -0.13895786399E+04  0.13895786435E+04  0.10100000352E+00 0. -1.
    10030    2    1    2    0    0  0.00000000000E+00  0.00000000000E+00 -0.73977470299E+03  0.20393825883E+04  0.19004775006E+04 0.  0.
        5    1    3    3  502    0  0.67562857796E+01 -0.75125893470E+03 -0.99421521585E+03  0.12461627581E+04  0.46999998093E+01 0. -1.
       -5    1    3    3    0  502 -0.67562857796E+01  0.75125893470E+03  0.25444051285E+03  0.79321983015E+03  0.46999998093E+01 0.  1.
</event>
<event>
 5   0  0.1429067E-05  0.1903295E+04  0.7818609E-02  0.8653218E-01
       -1   -1    0    0    0  501  0.00000000000E+00  0.00000000000E+00  0.69936331429E+03  0.69936331431E+03  0.50400001928E-02 0.  1.
        1   -1    0    0  501    0  0.00000000000E+00  0.00000000000E+00 -0.12949396581E+04  0.12949396581E+04  0.50400001928E-02 0. -1.
    10030    2    1    2    0    0  0.00000000000E+00  0.00000000000E+00 -0.59557634379E+03  0.19943029724E+04  0.19032953435E+04 0.  0.
        3    1    3    3  502    0  0.20303515784E+03 -0.61602409047E+03 -0.10274505204E+04  0.12150570100E+04  0.10100000352E+00 0. -1.
       -3    1    3    3    0  502 -0.20303515784E+03  0.61602409047E+03  0.43187417662E+03  0.77924596245E+03  0.10100000352E+00 0.  1.
</event>
<event>
 5   0  0.2789718E-05  0.1900793E+04  0.7818609E-02  0.8654462E-01
       -2   -1    0    0    0  501  0.00000000000E+00  0.00000000000E+00  0.43805036518E+03  0.43805036518E+03  0.25500000920E-02 0.  1.
        2   -1    0    0  501    0  0.00000000000E+00  0.00000000000E+00 -0.20619858786E+04  0.20619858786E+04  0.25500000920E-02 0. -1.
    10030    2    1    2    0    0  0.00000000000E+00  0.00000000000E+00 -0.16239355134E+04  0.25000362437E+04  0.19007931682E+04 0.  0.
        5    1    3    3  502    0 -0.32049260510E+03 -0.45517873441E+03 -0.18250833643E+04  0.19081023470E+04  0.46999998093E+01 0. -1.
       -5    1    3    3    0  502  0.32049260510E+03  0.45517873441E+03  0.20114785088E+03  0.59193389673E+03  0.46999998093E+01 0.  1.
</event>
<event>
 5   0  0.1010725E-05  0.1900364E+04  0.7818609E-02  0.8654675E-01
       -3   -1    0    0    0  501  0.00000000000E+00  0.00000000000E+00  0.10900360170E+04  0.10900360216E+04  0.10100000352E+00 0. -1.
        3   -1    0    0  501    0  0.00000000000E+00  0.00000000000E+00 -0.82827129018E+03  0.82827129633E+03  0.10100000352E+00 0.  1.
    10030    2    1    2    0    0  0.00000000000E+00  0.00000000000E+00  0.26176472678E+03  0.19183073180E+04  0.19003637004E+04 0.  0.
        5    1    3    3  502    0 -0.14715419064E+03  0.13116753352E+03 -0.80739086758E+03  0.83112055728E+03  0.46999998093E+01 0.  1.
       -5    1    3    3    0  502  0.14715419064E+03 -0.13116753352E+03  0.10691555944E+04  0.10871867607E+04  0.46999998093E+01 0. -1.
</event>
<event>
 5   0  0.2789718E-05  0.1897550E+04  0.7818609E-02  0.8656077E-01
        2   -1    0    0  501    0  0.00000000000E+00  0.00000000000E+00  0.14881984446E+04  0.14881984446E+04  0.25500000920E-02 0. -1.
       -2   -1    0    0    0  501  0.00000000000E+00  0.00000000000E+00 -0.60487481544E+03  0.60487481545E+03  0.25500000920E-02 0.  1.
    10030    2    1    2    0    0  0.00000000000E+00  0.00000000000E+00  0.88332362919E+03  0.20930732601E+04  0.18975497459E+04 0.  0.
        5    1    3    3  502    0 -0.35679237499E+03  0.87876966063E+03  0.46901085097E+03  0.10580785338E+04  0.46999998093E+01 0.  1.
       -5    1    3    3    0  502  0.35679237499E+03 -0.87876966063E+03  0.41431277822E+03  0.10349947263E+04  0.46999998093E+01 0. -1.
</event>
<event>
 5   0  0.1413011E-05  0.1903374E+04  0.7818609E-02  0.8653179E-01
        1   -1    0    0  501    0  0.00000000000E+00  0.00000000000E+00  0.93433450720E+03  0.93433450721E+03  0.50400001928E-02 0.  1.
       -1   -1    0    0    0  501  0.00000000000E+00  0.00000000000E+00 -0.96936129868E+03  0.96936129870E+03  0.50400001928E-02 0. -1.
    10030    2    1    2    0    0  0.00000000000E+00  0.00000000000E+00 -0.35026791487E+02  0.19036958059E+04  0.19033735433E+04 0.  0.
        1    1    3    3  502    0  0.48182247939E+03  0.82067481699E+03 -0.10609009176E+02  0.95172086663E+03  0.50400001928E-02 0. -1.
       -1    1    3    3    0  502 -0.48182247939E+03 -0.82067481699E+03 -0.24417782311E+02  0.95197493927E+03  0.50400001928E-02 0.  1.
</event>
<event>
 5   0  0.1010725E-05  0.1896897E+04  0.7818609E-02  0.8656403E-01
        3   -1    0    0  501    0  0.00000000000E+00  0.00000000000E+00  0.64364612657E+03  0.64364613450E+03  0.10100000352E+00 0.  1.
       -3   -1    0    0    0  501  0.00000000000E+00  0.00000000000E+00 -0.13975911249E+04  0.13975911285E+04  0.10100000352E+00 0. -1.
    10030    2    1    2    0    0  0.00000000000E+00  0.00000000000E+00 -0.75394499832E+03  0.20412372630E+04  0.18968965453E+04 0.  0.
        2    1    3    3  502    0  0.14351785482E+01 -0.94556052820E+03 -0.45654049621E+03  0.10500076175E+04  0.25500000920E-02 0. -1.
       -2    1    3    3    0  502 -0.14351785482E+01  0.94556052820E+03 -0.29740450211E+03  0.99122964549E+03  0.25500000920E-02 0.  1.
</event>
<event>
 5   0  0.2888776E-05  0.1899544E+04  0.7818609E-02  0.8655083E-01
        2   -1    0    0  501    0  0.00000000000E+00  0.00000000000E+00  0.14834321347E+04  0.14834321347E+04  0.25500000920E-02 0.  1.
       -2   -1    0    0    0  501  0.00000000000E+00  0.00000000000E+00 -0.60809439719E+03  0.60809439720E+03  0.25500000920E-02 0. -1.
    10030    2    1    2    0    0  0.00000000000E+00  0.00000000000E+00  0.87533773748E+03  0.20915265319E+04  0.18995439134E+04 0.  0.
        3    1    3    3  502    0  0.45934964872E+03 -0.21265622847E+03 -0.44719645946E+03  0.67543279077E+03  0.10100000352E+00 0. -1.
       -3    1    3    3    0  502 -0.45934964872E+03  0.21265622847E+03  0.13225341969E+04  0.14160937411E+04  0.10100000352E+00 0.  1.
</event>
<event>
 5   0  0.2789718E-05  0.1897423E+04  0.7818609E-02  0.8656140E-01
        2   -1    0    0  501    0  0.00000000000E+00  0.00000000000E+00  0.93146143309E+03  0.93146143309E+03  0.25500000920E-02 0. -1.
       -2   -1    0    0    0  501  0.00000000000E+00  0.00000000000E+00 -0.96628087452E+03  0.96628087453E+03  0.25500000920E-02 0.  1.
    10030    2    1    2    0    0  0.00000000000E+00  0.00000000000E+00 -0.34819441437E+02  0.18977423076E+04  0.18974228502E+04 0.  0.
        5    1    3    3  502    0  0.63100383910E+02 -0.71647695238E+02 -0.96145222445E+03  0.96619227931E+03  0.46999998093E+01 0.  1.
       -5    1    3    3    0  502 -0.63100383910E+02  0.71647695238E+02  0.92663278302E+03  0.93155002831E+03  0.46999998093E+01 0. -1.
</event>
<event>
 5   0  0.2879462E-05  0.1898830E+04  0.7818609E-02  0.8655439E-01
        2   -1    0    0  501    0  0.00000000000E+00  0.00000000000E+00  0.40117288435E+03  0.40117288436E+03  0.25500000920E-02 0. -1.
       -2   -1    0    0    0  501  0.00000000000E+00  0.00000000000E+00 -0.22468829607E+04  0.22468829607E+04  0.25500000920E-02 0.  1.
    10030    2    1    2    0    0  0.00000000000E+00  0.00000000000E+00 -0.18457100763E+04  0.26480558451E+04  0.18988296587E+04 0.  0.
        4    1    3    3  502    0  0.60650531797E+03 -0.73043357221E+03 -0.92597374860E+03  0.13262016815E+04  0.12699999809E+01 0. -1.
       -4    1    3    3    0  502 -0.60650531797E+03  0.73043357221E+03 -0.91973632774E+03  0.13218541635E+04  0.12699999809E+01 0.  1.
</event>
<event>
 5   0  0.1429067E-05  0.1901620E+04  0.7818609E-02  0.8654050E-01
       -1   -1    0    0    0  501  0.00000000000E+00  0.00000000000E+00  0.90868260912E+03  0.90868260914E+03  0.50400001928E-02 0.  1.
        1   -1    0    0  501    0  0.00000000000E+00  0.00000000000E+00 -0.99489068844E+03  0.99489068846E+03  0.50400001928E-02 0. -1.
    10030    2    1    2    0    0  0.00000000000E+00  0.00000000000E+00 -0.86208079323E+02  0.19035732976E+04  0.19016202214E+04 0.  0.
        3    1    3    3  502    0 -0.26571758153E+02  0.78782141733E+03 -0.57531842379E+03  0.97588930873E+03  0.10100000352E+00 0. -1.
       -3    1    3    3    0  502  0.26571758153E+02 -0.78782141733E+03  0.48911034447E+03  0.92768398887E+03  0.10100000352E+00 0.  1.
</event>
<event>
 5   0  0.1471485E-05  0.1900204E+04  0.7818609E-02  0.8654755E-01
        1   -1    0    0  501    0  0.00000000000E+00  0.00000000000E+00  0.62412593021E+03  0.62412593023E+03  0.50400001928E-02 0.  1.
       -1   -1    0    0    0  501  0.00000000000E+00  0.00000000000E+00 -0.14463320834E+04  0.14463320834E+04  0.50400001928E-02 0. -1.
    10030    2    1    2    0    0  0.00000000000E+00  0.00000000000E+00 -0.82220615319E+03  0.20704580136E+04  0.19002035227E+04 0.  0.
        4    1    3    3  502    0 -0.37914566470E+03  0.85830526043E+03 -0.57364097120E+03  0.10997749460E+04  0.12699999809E+01 0. -1.
       -4    1    3    3    0  502  0.37914566470E+03 -0.85830526043E+03 -0.24856518199E+03  0.97068306761E+03  0.12699999809E+01 0.  1.
</event>
<event>
 5   0  0.1471485E-05  0.1895638E+04  0.7818609E-02  0.8657030E-01
        1   -1    0    0  501    0  0.00000000000E+00  0.00000000000E+00  0.89745070202E+03  0.89745070203E+03  0.50400001928E-02 0.  1.
       -1   -1    0    0    0  501  0.00000000000E+00  0.00000000000E+00 -0.10010146207E+04  0.10010146207E+04  0.50400001928E-02 0. -1.
    10030    2    1    2    0    0  0.00000000000E+00  0.00000000000E+00 -0.10356391863E+03  0.18984653227E+04  0.18956384403E+04 0.  0.
        4    1    3    3  502    0  0.76914916256E+02 -0.65961727013E+03 -0.72906615319E+03  0.98617945427E+03  0.12699999809E+01 0. -1.
       -4    1    3    3    0  502 -0.76914916256E+02  0.65961727013E+03  0.62550223456E+03  0.91228586843E+03  0.12699999809E+01 0.  1.
</event>
<event>
 5   0  0.1471485E-05  0.1895225E+04  0.7818609E-02  0.8657237E-01
        1   -1    0    0  501    0  0.00000000000E+00  0.00000000000E+00  0.13287505323E+04  0.13287505323E+04  0.50400001928E-02 0. -1.
       -1   -1    0    0    0  501  0.00000000000E+00  0.00000000000E+00 -0.67580005998E+03  0.67580006000E+03  0.50400001928E-02 0.  1.
    10030    2    1    2    0    0  0.00000000000E+00  0.00000000000E+00  0.65295047235E+03  0.20045505923E+04  0.18952252525E+04 0.  0.
        4    1    3    3  502    0 -0.81670815666E+02  0.81619998868E+03  0.82830789162E+03  0.11657393018E+04  0.12699999809E+01 0. -1.
       -4    1    3    3    0  502  0.81670815666E+02 -0.81619998868E+03 -0.17535741927E+03  0.83881129049E+03  0.12699999809E+01 0.  1.
</event>
<event>
 5   0  0.1413011E-05  0.1899056E+04  0.7818609E-02  0.8655326E-01
        1   -1    0    0  501    0  0.00000000000E+00  0.00000000000E+00  0.59300218165E+03  0.59300218167E+03  0.50400001928E-02 0. -1.
       -1   -1    0    0    0  501  0.00000000000E+00  0.00000000000E+00 -0.15204053856E+04  0.15204053856E+04  0.50400001928E-02 0.  1.
    10030    2    1    2    0    0  0.00000000000E+00  0.00000000000E+00 -0.92740320391E+03  0.21134075672E+04  0.18990563032E+04 0.  0.
        1    1    3    3  502    0  0.18800196171E+03 -0.92544521011E+03 -0.35347588463E+03  0.10083346545E+04  0.50400001928E-02 0. -1.
       -1    1    3    3    0  502 -0.18800196171E+03  0.92544521011E+03 -0.57392731929E+03  0.11050729127E+04  0.50400001928E-02 0.  1.
</event>
<event>
 5   0  0.1327254E-05  0.1899022E+04  0.7818609E-02  0.8655343E-01
       -1   -1    0    0    0  501  0.00000000000E+00  0.00000000000E+00  0.45271874402E+03  0.45271874405E+03  0.50400001928E-02 0. -1.
        1   -1    0    0  501    0  0.00000000000E+00  0.00000000000E+00 -0.19914598112E+04  0.19914598112E+04  0.50400001928E-02 0.  1.
    10030    2    1    2    0    0  0.00000000000E+00  0.00000000000E+00 -0.15387410672E+04  0.24441785552E+04  0.18990220478E+04 0.  0.
        5    1    3    3  502    0 -0.24903553703E+02  0.13014620254E+03 -0.19794860038E+04  0.19839216593E+04  0.46999998093E+01 0.  1.
       -5    1    3    3    0  502  0.24903553703E+02 -0.13014620254E+03  0.44074493667E+03  0.46025689590E+03  0.46999998093E+01 0. -1.
</event>
<event>
 5   0  0.2879462E-05  0.1898893E+04  0.7818609E-02  0.8655407E-01
        2   -1    0    0  501    0  0.00000000000E+00  0.00000000000E+00  0.13753461792E+04  0.13753461792E+04  0.25500000920E-02 0. -1.
       -2   -1    0    0    0  501  0.00000000000E+00  0.00000000000E+00 -0.65543431875E+03  0.65543431876E+03  0.25500000920E-02 0.  1.
    10030    2    1    2    0    0  0.00000000000E+00  0.00000000000E+00  0.71991186043E+03  0.20307804979E+04  0.18988934525E+04 0.  0.
        4    1    3    3  502    0  0.28677913827E+03 -0.52159271547E+03  0.11510244383E+04  0.12958241028E+04  0.12699999809E+01 0. -1.
       -4    1    3    3    0  502 -0.28677913827E+03  0.52159271547E+03 -0.43111257790E+03  0.73495639510E+03  0.12699999809E+01 0.  1.
</event>
<event>
 5   0  0.1327254E-05  0.1898434E+04  0.7818609E-02  0.8655636E-01
       -1   -1    0    0    0  501  0.00000000000E+00  0.00000000000E+00  0.10648119181E+04  0.10648119181E+04  0.50400001928E-02 0.  1.
        1   -1    0    0  501    0  0.00000000000E+00  0.00000000000E+00 -0.84617069978E+03  0.84617069979E+03  0.50400001928E-02 0. -1.
    10030    2    1    2    0    0  0.00000000000E+00  0.00000000000E+00  0.21864121831E+03  0.19109826179E+04  0.18984337185E+04 0.  0.
        5    1    3    3  502    0 -0.37623227805E+03  0.50502305112E+03  0.82422044544E+03  0.10372851305E+04  0.46999998093E+01 0.  1.
       -5    1    3    3    0  502  0.37623227805E+03 -0.50502305112E+03 -0.60557922713E+03  0.87369748743E+03  0.46999998093E+01 0. -1.
</event>
<event>
 5   0  0.2879462E-05  0.1898240E+04  0.7818609E-02  0.8655733E-01
        2   -1    0    0  501    0  0.00000000000E+00  0.00000000000E+00  0.13591440129E+04  0.13591440129E+04  0.25500000920E-02 0. -1.
       -2   -1    0    0    0  501  0.00000000000E+00  0.00000000000E+00 -0.66279102920E+03  0.66279102920E+03  0.25500000920E-02 0.  1.
    10030    2    1    2    0    0  0.00000000000E+00  0.00000000000E+00  0.69635298374E+03  0.20219350421E+04  0.18982396679E+04 0.  0.
        4    1    3    3  502    0 -0.36387387169E+03  0.82967734573E+03  0.64955962235E+03  0.11147636559E+04  0.12699999809E+01 0. -1.
       -4    1    3    3    0  502  0.36387387169E+03 -0.82967734573E+03  0.46793361387E+02  0.90717138628E+03  0.12699999809E+01 0.  1.
</event>
<event>
 5   0  0.1413011E-05  0.1898571E+04  0.7818609E-02  0.8655568E-01
        1   -1    0    0  501    0  0.00000000000E+00  0.00000000000E+00  0.70178486368E+03  0.70178486370E+03  0.50400001928E-02 0. -1.
       -1   -1    0    0    0  501  0.00000000000E+00  0.00000000000E+00 -0.12840725174E+04  0.12840725174E+04  0.50400001928E-02 0.  1.
    10030    2    1    2    0    0  0.00000000000E+00  0.00000000000E+00 -0.58228765375E+03  0.19858573811E+04  0.18985706799E+04 0.  0.
        1    1    3    3  502    0  0.34677408193E+03  0.83132207308E+03 -0.60457699567E+03  0.10848327045E+04  0.50400001928E-02 0.  1.
       -1    1    3    3    0  502 -0.34677408193E+03 -0.83132207308E+03  0.22289341919E+02  0.90102467662E+03  0.50400001928E-02 0. -1.
</event>
<event>
 5   0  0.2855141E-05  0.1901487E+04  0.7818609E-02  0.8654116E-01
        2   -1    0    0  501    0  0.00000000000E+00  0.00000000000E+00  0.15397635423E+04  0.15397635423E+04  0.25500000920E-02 0. -1.
       -2   -1    0    0    0  501  0.00000000000E+00  0.00000000000E+00 -0.58704704891E+03  0.58704704891E+03  0.25500000920E-02 0.  1.
    10030    2    1    2    0    0  0.00000000000E+00  0.00000000000E+00  0.95271649336E+03  0.21268105912E+04  0.19014874635E+04 0.  0.
        1    1    3    3  502    0 -0.45385753609E+03  0.15387116402E+02 -0.45789940745E+03  0.64489944471E+03  0.50400001928E-02 0.  1.
       -1    1    3    3    0  502  0.45385753609E+03 -0.15387116402E+02  0.14106159008E+04  0.14819111465E+04  0.50400001928E-02 0. -1.
</event>
<event>
 5   0  0.1429067E-05  0.1899761E+04  0.7818609E-02  0.8654976E-01
       -1   -1    0    0    0  501  0.00000000000E+00  0.00000000000E+00  0.55693957847E+03  0.55693957849E+03  0.50400001928E-02 0.  1.
        1   -1    0    0  501    0  0.00000000000E+00  0.00000000000E+00 -0.16200548217E+04  0.16200548217E+04  0.50400001928E-02 0. -1.
    10030    2    1    2    0    0  0.00000000000E+00  0.00000000000E+00 -0.10631152432E+04  0.21769944002E+04  0.18997606686E+04 0.  0.
        3    1    3    3  502    0  0.31592283250E+03 -0.89393469708E+03 -0.59784514748E+03  0.11208681052E+04  0.10100000352E+00 0. -1.
       -3    1    3    3    0  502 -0.31592283250E+03  0.89393469708E+03 -0.46527009576E+03  0.10561262950E+04  0.10100000352E+00 0.  1.
</event>
<event>
 5   0  0.2813537E-05  0.1900104E+04  0.7818609E-02  0.8654804E-01
        2   -1    0    0  501    0  0.00000000000E+00  0.00000000000E+00  0.85894510916E+03  0.85894510916E+03  0.25500000920E-02 0. -1.
       -2   -1    0    0    0  501  0.00000000000E+00  0.00000000000E+00 -0.10508227103E+04  0.10508227103E+04  0.25500000920E-02 0.  1.
    10030    2    1    2    0    0  0.00000000000E+00  0.00000000000E+00 -0.19187760111E+03  0.19097678194E+04  0.19001042367E+04 0.  0.
        2    1    3    3  502    0 -0.88984984941E+03  0.21038707119E+03  0.16325557310E+03  0.92884221285E+03  0.25500000920E-02 0. -1.
       -2    1    3    3    0  502  0.88984984941E+03 -0.21038707119E+03 -0.35513317421E+03  0.98092560658E+03  0.25500000920E-02 0.  1.
</event>
<event>
 5   0  0.1413011E-05  0.1930934E+04  0.7818609E-02  0.8639610E-01
       -1   -1    0    0    0  501  0.00000000000E+00  0.00000000000E+00  0.43981098914E+03  0.43981098917E+03  0.50400001928E-02 0. -1.
        1   -1    0    0  501    0  0.00000000000E+00  0.00000000000E+00 -0.21193793240E+04  0.21193793240E+04  0.50400001928E-02 0.  1.
    10030    2    1    2    0    0  0.00000000000E+00  0.00000000000E+00 -0.16795683349E+04  0.25591903132E+04  0.19309337813E+04 0.  0.
        1    1    3    3  502    0 -0.92668279678E+03 -0.83029682303E+02 -0.11815415347E+04  0.15038867418E+04  0.50400001928E-02 0.  1.
       -1    1    3    3    0  502  0.92668279678E+03  0.83029682303E+02 -0.49802680014E+03  0.10553035713E+04  0.50400001928E-02 0. -1.
</event>
<event>
 5   0  0.1327254E-05  0.1900804E+04  0.7818609E-02  0.8654456E-01
        1   -1    0    0  501    0  0.00000000000E+00  0.00000000000E+00  0.18486628038E+04  0.18486628038E+04  0.50400001928E-02 0. -1.
       -1   -1    0    0    0  501  0.00000000000E+00  0.00000000000E+00 -0.48860416937E+03  0.48860416940E+03  0.50400001928E-02 0.  1.
    10030    2    1    2    0    0  0.00000000000E+00  0.00000000000E+00  0.13600586344E+04  0.23372669732E+04  0.19008044126E+04 0.  0.
        5    1    3    3  502    0  0.76541516621E+02  0.93429569261E+03  0.48766071842E+03  0.10566939535E+04  0.46999998093E+01 0.  1.
       -5    1    3    3    0  502 -0.76541516621E+02 -0.93429569261E+03  0.87239791599E+03  0.12805730197E+04  0.46999998093E+01 0. -1.
</event>
<event>
 5   0  0.1413011E-05  0.1900861E+04  0.7818609E-02  0.8654428E-01
        1   -1    0    0  501    0  0.00000000000E+00  0.00000000000E+00  0.17177913605E+04  0.17177913605E+04  0.50400001928E-02 0.  1.
       -1   -1    0    0    0  501  0.00000000000E+00  0.00000000000E+00 -0.52586042363E+03  0.52586042365E+03  0.50400001928E-02 0. -1.
    10030    2    1    2    0    0  0.00000000000E+00  0.00000000000E+00  0.11919309368E+04  0.22436517841E+04  0.19008613759E+04 0.  0.
        1    1    3    3  502    0  0.10349771116E+03 -0.59511493558E+03 -0.27014972042E+03  0.66170570062E+03  0.50400001928E-02 0. -1.
       -1    1    3    3    0  502 -0.10349771116E+03  0.59511493558E+03  0.14620806573E+04  0.15819460835E+04  0.50400001928E-02 0.  1.
</event>
<event>
 5   0  0.2789718E-05  0.1901571E+04  0.7818609E-02  0.8654075E-01
        2   -1    0    0  501    0  0.00000000000E+00  0.00000000000E+00  0.15413991020E+04  0.15413991020E+04  0.25500000920E-02 0. -1.
       -2   -1    0    0    0  501  0.00000000000E+00  0.00000000000E+00 -0.58647571633E+03  0.58647571634E+03  0.25500000920E-02 0.  1.
    10030    2    1    2    0    0  0.00000000000E+00  0.00000000000E+00  0.95492338569E+03  0.21278748184E+04  0.19015710794E+04 0.  0.
        5    1    3    3  502    0 -0.70832035285E+03 -0.26657384752E+03 -0.16651958696E+03  0.77493883712E+03  0.46999998093E+01 0.  1.
       -5    1    3    3    0  502  0.70832035285E+03  0.26657384752E+03  0.11214429726E+04  0.13529359812E+04  0.46999998093E+01 0. -1.
</event>
<event>
 5   0  0.2888776E-05  0.1891034E+04  0.7818609E-02  0.8659332E-01
        2   -1    0    0  501    0  0.00000000000E+00  0.00000000000E+00  0.12098839956E+04  0.12098839956E+04  0.25500000920E-02 0.  1.
       -2   -1    0    0    0  501  0.00000000000E+00  0.00000000000E+00 -0.73891616951E+03  0.73891616951E+03  0.25500000920E-02 0. -1.
    10030    2    1    2    0    0  0.00000000000E+00  0.00000000000E+00  0.47096782607E+03  0.19488001651E+04  0.18910344762E+04 0.  0.
        3    1    3    3  502    0  0.33981835745E+03 -0.63172015279E+03  0.87030092411E+03  0.11278167299E+04  0.10100000352E+00 0.  1.
       -3    1    3    3    0  502 -0.33981835745E+03  0.63172015279E+03 -0.39933309804E+03  0.82098343521E+03  0.10100000352E+00 0. -1.
</event>
<event>
 5   0  0.2855141E-05  0.1899526E+04  0.7818609E-02  0.8655092E-01
        2   -1    0    0  501    0  0.00000000000E+00  0.00000000000E+00  0.87881291825E+03  0.87881291826E+03  0.25500000920E-02 0. -1.
       -2   -1    0    0    0  501  0.00000000000E+00  0.00000000000E+00 -0.10264410402E+04  0.10264410402E+04  0.25500000920E-02 0.  1.
    10030    2    1    2    0    0  0.00000000000E+00  0.00000000000E+00 -0.14762812193E+03  0.19052539584E+04  0.18995258839E+04 0.  0.
        1    1    3    3  502    0 -0.12519820898E+03 -0.71104736530E+03 -0.69275404808E+03  0.10005853879E+04  0.50400001928E-02 0.  1.
       -1    1    3    3    0  502  0.12519820898E+03  0.71104736530E+03  0.54512592615E+03  0.90466857059E+03  0.50400001928E-02 0. -1.
</event>
<event>
 5   0  0.1344119E-05  0.1921781E+04  0.7818609E-02  0.8644090E-01
        1   -1    0    0  501    0  0.00000000000E+00  0.00000000000E+00  0.20355387572E+04  0.20355387572E+04  0.50400001928E-02 0. -1.
       -1   -1    0    0    0  501  0.00000000000E+00  0.00000000000E+00 -0.45359529396E+03  0.45359529399E+03  0.50400001928E-02 0.  1.
    10030    2    1    2    0    0  0.00000000000E+00  0.00000000000E+00  0.15819434632E+04  0.24891340512E+04  0.19217812581E+04 0.  0.
        2    1    3    3  502    0  0.24571525317E+03  0.23763164483E+03  0.19541261322E+04  0.19837978034E+04  0.25500000920E-02 0. -1.
       -2    1    3    3    0  502 -0.24571525317E+03 -0.23763164483E+03 -0.37218266895E+03  0.50533624780E+03  0.25500000920E-02 0.  1.
</event>
<event>
 5   0  0.1413011E-05  0.1899710E+04  0.7818609E-02  0.8655000E-01
       -1   -1    0    0    0  501  0.00000000000E+00  0.00000000000E+00  0.12010861537E+04  0.12010861537E+04  0.50400001928E-02 0.  1.
        1   -1    0    0  501    0  0.00000000000E+00  0.00000000000E+00 -0.75117425002E+03  0.75117425004E+03  0.50400001928E-02 0. -1.
    10030    2    1    2    0    0  0.00000000000E+00  0.00000000000E+00  0.44991190371E+03  0.19522604038E+04  0.18997104945E+04 0.  0.
        1    1    3    3  502    0  0.89252670680E+03 -0.28616078016E+02  0.55764269831E+03  0.10528001621E+04  0.50400001928E-02 0. -1.
       -1    1    3    3    0  502 -0.89252670680E+03  0.28616078016E+02 -0.10773079460E+03  0.89946024170E+03  0.50400001928E-02 0.  1.
</event>
<event>
 5   0  0.2789718E-05  0.1906397E+04  0.7818609E-02  0.8651679E-01
       -2   -1    0    0    0  501  0.00000000000E+00  0.00000000000E+00  0.57311001384E+03  0.57311001384E+03  0.25500000920E-02 0.  1.
        2   -1    0    0  501    0  0.00000000000E+00  0.00000000000E+00 -0.15853633476E+04  0.15853633476E+04  0.25500000920E-02 0. -1.
    10030    2    1    2    0    0  0.00000000000E+00  0.00000000000E+00 -0.10122533338E+04  0.21584733615E+04  0.19063972410E+04 0.  0.
        5    1    3    3  502    0  0.48368070028E+03  0.62889974504E+03 -0.11042848109E+04  0.13597532654E+04  0.46999998093E+01 0.  1.
       -5    1    3    3    0  502 -0.48368070028E+03 -0.62889974504E+03  0.92031477100E+02  0.79872009610E+03  0.46999998093E+01 0. -1.
</event>
<event>
 5   0  0.1327254E-05  0.1893717E+04  0.7818609E-02  0.8657990E-01
       -1   -1    0    0    0  501  0.00000000000E+00  0.00000000000E+00  0.73091448727E+03  0.73091448729E+03  0.50400001928E-02 0. -1.
        1   -1    0    0  501    0  0.00000000000E+00  0.00000000000E+00 -0.12266021143E+04  0.12266021143E+04  0.50400001928E-02 0.  1.
    10030    2    1    2    0    0  0.00000000000E+00  0.00000000000E+00 -0.49568762700E+03  0.19575166016E+04  0.18937172497E+04 0.  0.
        5    1    3    3  502    0  0.49674007073E+03  0.23555702478E+03 -0.10447117849E+04  0.11805433551E+04  0.46999998093E+01 0.  1.
       -5    1    3    3    0  502 -0.49674007073E+03 -0.23555702478E+03  0.54902415789E+03  0.77697324647E+03  0.46999998093E+01 0. -1.
</event>
<event>
 5   0  0.1471485E-05  0.1900716E+04  0.7818609E-02  0.8654500E-01
        1   -1    0    0  501    0  0.00000000000E+00  0.00000000000E+00  0.85614271488E+03  0.85614271490E+03  0.50400001928E-02 0. -1.
       -1   -1    0    0    0  501  0.00000000000E+00  0.00000000000E+00 -0.10549418385E+04  0.10549418385E+04  0.50400001928E-02 0.  1.
    10030    2    1    2    0    0  0.00000000000E+00  0.00000000000E+00 -0.19879912359E+03  0.19110845534E+04  0.19007164646E+04 0.  0.
        4    1    3    3  502    0  0.75396277767E+03  0.32158191769E+03  0.38416500694E+03  0.90523983858E+03  0.12699999809E+01 0. -1.
       -4    1    3    3    0  502 -0.75396277767E+03 -0.32158191769E+03 -0.58296413053E+03  0.10058447148E+04  0.12699999809E+01 0.  1.
</event>
<event>
 5   0  0.2789718E-05  0.1906385E+04  0.7818609E-02  0.8651685E-01
       -2   -1    0    0    0  501  0.00000000000E+00  0.00000000000E+00  0.57953275470E+03  0.57953275471E+03  0.25500000920E-02 0. -1.
        2   -1    0    0  501    0  0.00000000000E+00  0.00000000000E+00 -0.15677737674E+04  0.15677737674E+04  0.25500000920E-02 0.  1.
    10030    2    1    2    0    0  0.00000000000E+00  0.00000000000E+00 -0.98824101270E+03  0.21473065221E+04  0.19063853233E+04 0.  0.
        5    1    3    3  502    0  0.79090855205E+03 -0.52962407995E+03 -0.43762002154E+03  0.10476504078E+04  0.46999998093E+01 0. -1.
       -5    1    3    3    0  502 -0.79090855205E+03  0.52962407995E+03 -0.55062099117E+03  0.10996561143E+04  0.46999998093E+01 0.  1.
</event>
<event>
 5   0  0.1010725E-05  0.1899961E+04  0.7818609E-02  0.8654876E-01
        3   -1    0    0  501    0  0.00000000000E+00  0.00000000000E+00  0.47372869912E+03  0.47372870989E+03  0.10100000352E+00 0. -1.
       -3   -1    0    0    0  501  0.00000000000E+00  0.00000000000E+00 -0.19050207768E+04  0.19050207794E+04  0.10100000352E+00 0.  1.
    10030    2    1    2    0    0  0.00000000000E+00  0.00000000000E+00 -0.14312920776E+04  0.23787494893E+04  0.18999610842E+04 0.  0.
        1    1    3    3  502    0 -0.67004593626E+03  0.42363560214E+03 -0.60245936304E+02  0.79502091354E+03  0.50400001928E-02 0. -1.
       -1    1    3    3    0  502  0.67004593626E+03 -0.42363560214E+03 -0.13710461413E+04  0.15837285758E+04  0.50400001928E-02 0.  1.
</event>
<event>
 5   0  0.2789718E-05  0.1898735E+04  0.7818609E-02  0.8655486E-01
        2   -1    0    0  501    0  0.00000000000E+00  0.00000000000E+00  0.20133434712E+04  0.20133434712E+04  0.25500000920E-02 0.  1.
       -2   -1    0    0    0  501  0.00000000000E+00  0.00000000000E+00 -0.44766255729E+03  0.44766255730E+03  0.25500000920E-02 0. -1.
    10030    2    1    2    0    0  0.00000000000E+00  0.00000000000E+00  0.15656809139E+04  0.24610060285E+04  0.18987348283E+04 0.  0.
        5    1    3    3  502    0 -0.20637234050E+03  0.58077105499E+03 -0.15306175588E+03  0.63508625584E+03  0.46999998093E+01 0. -1.
       -5    1    3    3    0  502  0.20637234050E+03 -0.58077105499E+03  0.17187426698E+04  0.18259197727E+04  0.46999998093E+01 0.  1.
</event>
<event>
 5   0  0.2879462E-05  0.1893375E+04  0.7818609E-02  0.8658161E-01
        2   -1    0    0  501    0  0.00000000000E+00  0.00000000000E+00  0.12161318345E+04  0.12161318345E+04  0.25500000920E-02 0. -1.
       -2   -1    0    0    0  501  0.00000000000E+00  0.00000000000E+00 -0.73694106040E+03  0.73694106040E+03  0.25500000920E-02 0.  1.
    10030    2    1    2    0    0  0.00000000000E+00  0.00000000000E+00  0.47919077415E+03  0.19530728950E+04  0.18933752758E+04 0.  0.
        4    1    3    3  502    0  0.58133731240E+02 -0.90177384408E+03 -0.51508580519E+02  0.90511344225E+03  0.12699999809E+01 0. -1.
       -4    1    3    3    0  502 -0.58133731240E+02  0.90177384408E+03  0.53069935467E+03  0.10479594527E+04  0.12699999809E+01 0.  1.
</event>
<event>
 5   0  0.2855141E-05  0.1918363E+04  0.7818609E-02  0.8645770E-01
       -2   -1    0    0    0  501  0.00000000000E+00  0.00000000000E+00  0.11723058063E+04  0.11723058063E+04  0.25500000920E-02 0.  1.
        2   -1    0    0  501    0  0.00000000000E+00  0.00000000000E+00 -0.78480282735E+03  0.78480282735E+03  0.25500000920E-02 0. -1.
    10030    2    1    2    0    0  0.00000000000E+00  0.00000000000E+00  0.38750297894E+03  0.19571086336E+04  0.19183627512E+04 0.  0.
        1    1    3    3  502    0  0.28079986627E+03 -0.73409158224E+02  0.11264325537E+04  0.11632230085E+04  0.50400001928E-02 0.  1.
       -1    1    3    3    0  502 -0.28079986627E+03  0.73409158224E+02 -0.73892957474E+03  0.79388562517E+03  0.50400001928E-02 0. -1.
</event>
<event>
 5   0  0.2855141E-05  0.1885098E+04  0.7818609E-02  0.8662310E-01
       -2   -1    0    0    0  501  0.00000000000E+00  0.00000000000E+00  0.40094188507E+03  0.40094188508E+03  0.25500000920E-02 0. -1.
        2   -1    0    0  501    0  0.00000000000E+00  0.00000000000E+00 -0.22157792368E+04  0.22157792368E+04  0.25500000920E-02 0.  1.
    10030    2    1    2    0    0  0.00000000000E+00  0.00000000000E+00 -0.18148373517E+04  0.26167211219E+04  0.18850980920E+04 0.  0.
        1    1    3    3  502    0  0.60020979131E+03 -0.91478247540E+02  0.93347689249E+02  0.61427506418E+03  0.50400001928E-02 0. -1.
       -1    1    3    3    0  502 -0.60020979131E+03  0.91478247540E+02 -0.19081850410E+04  0.20024460577E+04  0.50400001928E-02 0.  1.
</event>
<event>
 5   0  0.1344119E-05  0.1884821E+04  0.7818609E-02  0.8662449E-01
        1   -1    0    0  501    0  0.00000000000E+00  0.00000000000E+00  0.14197939462E+04  0.14197939462E+04  0.50400001928E-02 0. -1.
       -1   -1    0    0    0  501  0.00000000000E+00  0.00000000000E+00 -0.62553983907E+03  0.62553983909E+03  0.50400001928E-02 0.  1.
    10030    2    1    2    0    0  0.00000000000E+00  0.00000000000E+00  0.79425410711E+03  0.20453337853E+04  0.18848211338E+04 0.  0.
        2    1    3    3  502    0  0.86697910149E+03 -0.36505596654E+03  0.33555859481E+03  0.99875832496E+03  0.25500000920E-02 0.  1.
       -2    1    3    3    0  502 -0.86697910149E+03  0.36505596654E+03  0.45869551230E+03  0.10465754603E+04  0.25500000920E-02 0. -1.
</event>
<event>
 5   0  0.2855141E-05  0.1897011E+04  0.7818609E-02  0.8656346E-01
        2   -1    0    0  501    0  0.00000000000E+00  0.00000000000E+00  0.26678973536E+04  0.26678973536E+04  0.25500000920E-02 0.  1.
       -2   -1    0    0    0  501  0.00000000000E+00  0.00000000000E+00 -0.33721774437E+03  0.33721774438E+03  0.25500000920E-02 0. -1.
    10030    2    1    2    0    0  0.00000000000E+00  0.00000000000E+00  0.23306796092E+04  0.30051150979E+04  0.18970106249E+04 0.  0.
        1    1    3    3  502    0  0.73425755376E+03  0.59361687325E+03  0.10223533127E+04  0.13916613968E+04  0.50400001928E-02 0. -1.
       -1    1    3    3    0  502 -0.73425755376E+03 -0.59361687325E+03  0.13083262965E+04  0.16134537011E+04  0.50400001928E-02 0.  1.
</event>
<event>
 5   0  0.1327254E-05  0.1900001E+04  0.7818609E-02  0.8654856E-01
       -1   -1    0    0    0  501  0.00000000000E+00  0.00000000000E+00  0.13190875270E+04  0.13190875271E+04  0.50400001928E-02 0. -1.
        1   -1    0    0  501    0  0.00000000000E+00  0.00000000000E+00 -0.68418597607E+03  0.68418597609E+03  0.50400001928E-02 0.  1.
    10030    2    1    2    0    0  0.00000000000E+00  0.00000000000E+00  0.63490155097E+03  0.20032735031E+04  0.19000012497E+04 0.  0.
        5    1    3    3  502    0  0.83716793802E+03  0.13758086642E+03 -0.13321664559E+03  0.85880580804E+03  0.46999998093E+01 0.  1.
       -5    1    3    3    0  502 -0.83716793802E+03 -0.13758086642E+03  0.76811819655E+03  0.11444676951E+04  0.46999998093E+01 0. -1.
</event>
<event>
 5   0  0.1429067E-05  0.1892973E+04  0.7818609E-02  0.8658362E-01
       -1   -1    0    0    0  501  0.00000000000E+00  0.00000000000E+00  0.82491649071E+03  0.82491649072E+03  0.50400001928E-02 0. -1.
        1   -1    0    0  501    0  0.00000000000E+00  0.00000000000E+00 -0.10859721876E+04  0.10859721876E+04  0.50400001928E-02 0.  1.
    10030    2    1    2    0    0  0.00000000000E+00  0.00000000000E+00 -0.26105569691E+03  0.19108886783E+04  0.18929726528E+04 0.  0.
        3    1    3    3  502    0 -0.62933005300E+03  0.28506489679E+03  0.52252471920E+03  0.86622768564E+03  0.10100000352E+00 0.  1.
       -3    1    3    3    0  502  0.62933005300E+03 -0.28506489679E+03 -0.78358041611E+03  0.10446609927E+04  0.10100000352E+00 0. -1.
</event>
<event>
 5   0  0.2879462E-05  0.1905456E+04  0.7818609E-02  0.8652146E-01
       -2   -1    0    0    0  501  0.00000000000E+00  0.00000000000E+00  0.39925900589E+03  0.39925900590E+03  0.25500000920E-02 0. -1.
        2   -1    0    0  501    0  0.00000000000E+00  0.00000000000E+00 -0.22734372366E+04  0.22734372366E+04  0.25500000920E-02 0.  1.
    10030    2    1    2    0    0  0.00000000000E+00  0.00000000000E+00 -0.18741782307E+04  0.26726962425E+04  0.19054556317E+04 0.  0.
        4    1    3    3  502    0 -0.88595468418E+03 -0.20547451823E+03 -0.53898913514E+03  0.10571879591E+04  0.12699999809E+01 0.  1.
       -4    1    3    3    0  502  0.88595468418E+03  0.20547451823E+03 -0.13351890956E+04  0.16155082835E+04  0.12699999809E+01 0. -1.
</event>
<event>
 5   0  0.1413011E-05  0.1893484E+04  0.7818609E-02  0.8658107E-01
       -1   -1    0    0    0  501  0.00000000000E+00  0.00000000000E+00  0.76330365716E+03  0.76330365717E+03  0.50400001928E-02 0.  1.
        1   -1    0    0  501    0  0.00000000000E+00  0.00000000000E+00 -0.11742643940E+04  0.11742643940E+04  0.50400001928E-02 0. -1.
    10030    2    1    2    0    0  0.00000000000E+00  0.00000000000E+00 -0.41096073684E+03  0.19375680512E+04  0.18934838858E+04 0.  0.
        1    1    3    3  502    0 -0.84115532434E+03 -0.22114400650E+03 -0.58818423269E+03  0.10499560195E+04  0.50400001928E-02 0. -1.
       -1    1    3    3    0  502  0.84115532434E+03  0.22114400650E+03  0.17722349585E+03  0.88761203168E+03  0.50400001928E-02 0.  1.
</event>
<event>
 5   0  0.2888776E-05  0.1892725E+04  0.7818609E-02  0.8658486E-01
       -2   -1    0    0    0  501  0.00000000000E+00  0.00000000000E+00  0.73609494260E+03  0.73609494260E+03  0.25500000920E-02 0.  1.
        2   -1    0    0  501    0  0.00000000000E+00  0.00000000000E+00 -0.12166934760E+04  0.12166934760E+04  0.25500000920E-02 0. -1.
    10030    2    1    2    0    0  0.00000000000E+00  0.00000000000E+00 -0.48059853340E+03  0.19527884186E+04  0.18927249292E+04 0.  0.
        3    1    3    3  502    0  0.54271125869E+03  0.78712398296E+02  0.55545503827E+03  0.78055202370E+03  0.10100000352E+00 0.  1.
       -3    1    3    3    0  502 -0.54271125869E+03 -0.78712398296E+02 -0.10360535717E+04  0.11722363949E+04  0.10100000352E+00 0. -1.
</event>
<event>
 5   0  0.2888776E-05  0.1895080E+04  0.7818609E-02  0.8657309E-01
        2   -1    0    0  501    0  0.00000000000E+00  0.00000000000E+00  0.16344541153E+04  0.16344541153E+04  0.25500000920E-02 0. -1.
       -2   -1    0    0    0  501  0.00000000000E+00  0.00000000000E+00 -0.54931634407E+03  0.54931634407E+03  0.25500000920E-02 0.  1.
    10030    2    1    2    0    0  0.00000000000E+00  0.00000000000E+00  0.10851377712E+04  0.21837704593E+04  0.18950803246E+04 0.  0.
        3    1    3    3  502    0  0.60109818445E+02  0.22114769809E+03 -0.51689974110E+03  0.56542448408E+03  0.10100000352E+00 0.  1.
       -3    1    3    3    0  502 -0.60109818445E+02 -0.22114769809E+03  0.16020375123E+04  0.16183459753E+04  0.10100000352E+00 0. -1.
</event>
<event>
 5   0  0.2888776E-05  0.1898466E+04  0.7818609E-02  0.8655620E-01
       -2   -1    0    0    0  501  0.00000000000E+00  0.00000000000E+00  0.59957020034E+03  0.59957020035E+03  0.25500000920E-02 0. -1.
        2   -1    0    0  501    0  0.00000000000E+00  0.00000000000E+00 -0.15028159549E+04  0.15028159549E+04  0.25500000920E-02 0.  1.
    10030    2    1    2    0    0  0.00000000000E+00  0.00000000000E+00 -0.90324575454E+03  0.21023861552E+04  0.18984663949E+04 0.  0.
        3    1    3    3  502    0  0.19785470095E+03 -0.36869462181E+03  0.49193023716E+03  0.64581543437E+03  0.10100000352E+00 0. -1.
       -3    1    3    3    0  502 -0.19785470095E+03  0.36869462181E+03 -0.13951759917E+04  0.14565707209E+04  0.10100000352E+00 0.  1.
</event>
<event>
 5   0  0.1344119E-05  0.1900117E+04  0.7818609E-02  0.8654798E-01
       -1   -1    0    0    0  501  0.00000000000E+00  0.00000000000E+00  0.10081382999E+04  0.10081383000E+04  0.50400001928E-02 0.  1.
        1   -1    0    0  501    0  0.00000000000E+00  0.00000000000E+00 -0.89532472908E+03  0.89532472909E+03  0.50400001928E-02 0. -1.
    10030    2    1    2    0    0  0.00000000000E+00  0.00000000000E+00  0.11281357086E+03  0.19034630290E+04  0.19001169967E+04 0.  0.
        2    1    3    3  502    0 -0.66566979174E+03 -0.46326743015E+02 -0.62105972773E+03  0.91157974098E+03  0.25500000920E-02 0. -1.
       -2    1    3    3    0  502  0.66566979174E+03  0.46326743015E+02  0.73387329859E+03  0.99188328806E+03  0.25500000920E-02 0.  1.
</event>
<event>
 5   0  0.2789718E-05  0.1905333E+04  0.7818609E-02  0.8652206E-01
        2   -1    0    0  501    0  0.00000000000E+00  0.00000000000E+00  0.11219690876E+04  0.11219690876E+04  0.25500000920E-02 0.  1.
       -2   -1    0    0    0  501  0.00000000000E+00  0.00000000000E+00 -0.80891145838E+03  0.80891145839E+03  0.25500000920E-02 0. -1.
    10030    2    1    2    0    0  0.00000000000E+00  0.00000000000E+00  0.31305762924E+03  0.19308805460E+04  0.19053332002E+04 0.  0.
        5    1    3    3  502    0 -0.85373465073E+03  0.37869384652E+03  0.34687613892E+03  0.99630167570E+03  0.46999998093E+01 0.  1.
       -5    1    3    3    0  502  0.85373465073E+03 -0.37869384652E+03 -0.33818509678E+02  0.93457887032E+03  0.46999998093E+01 0. -1.
</event>
<event>
 5   0  0.2789718E-05  0.1881421E+04  0.7818609E-02  0.8664160E-01
        2   -1    0    0  501    0  0.00000000000E+00  0.00000000000E+00  0.39242140010E+03  0.39242140011E+03  0.25500000920E-02 0. -1.
       -2   -1    0    0    0  501  0.00000000000E+00  0.00000000000E+00 -0.22550652262E+04  0.22550652262E+04  0.25500000920E-02 0.  1.
    10030    2    1    2    0    0  0.00000000000E+00  0.00000000000E+00 -0.18626438261E+04  0.26474866263E+04  0.18814205839E+04 0.  0.
        5    1    3    3  502    0 -0.83342046771E+03  0.22473828459E+03 -0.14574936890E+04  0.16939323824E+04  0.46999998093E+01 0.  1.
       -5    1    3    3    0  502  0.83342046771E+03 -0.22473828459E+03 -0.40515013710E+03  0.95355424395E+03  0.46999998093E+01 0. -1.
</event>
<event>
 5   0  0.2879462E-05  0.1897601E+04  0.7818609E-02  0.8656051E-01
        2   -1    0    0  501    0  0.00000000000E+00  0.00000000000E+00  0.95589930465E+03  0.95589930466E+03  0.25500000920E-02 0.  1.
       -2   -1    0    0    0  501  0.00000000000E+00  0.00000000000E+00 -0.94175467382E+03  0.94175467382E+03  0.25500000920E-02 0. -1.
    10030    2    1    2    0    0  0.00000000000E+00  0.00000000000E+00  0.14144630836E+02  0.18976539785E+04  0.18976012625E+04 0.  0.
        4    1    3    3  502    0 -0.76932082507E+03  0.12969168864E+03 -0.53289319989E+03  0.94480222341E+03  0.12699999809E+01 0. -1.
       -4    1    3    3    0  502  0.76932082507E+03 -0.12969168864E+03  0.54703783072E+03  0.95285175506E+03  0.12699999809E+01 0.  1.
</event>
<event>
 5   0  0.2879462E-05  0.1911801E+04  0.7818609E-02  0.8649004E-01
       -2   -1    0    0    0  501  0.00000000000E+00  0.00000000000E+00  0.38345019955E+03  0.38345019955E+03  0.25500000920E-02 0. -1.
        2   -1    0    0  501    0  0.00000000000E+00  0.00000000000E+00 -0.23829585714E+04  0.23829585714E+04  0.25500000920E-02 0.  1.
    10030    2    1    2    0    0  0.00000000000E+00  0.00000000000E+00 -0.19995083719E+04  0.27664087710E+04  0.19118011818E+04 0.  0.
        4    1    3    3  502    0 -0.94491191457E+03  0.14119614062E+03 -0.10443413419E+04  0.14154311455E+04  0.12699999809E+01 0. -1.
       -4    1    3    3    0  502  0.94491191457E+03 -0.14119614062E+03 -0.95516702992E+03  0.13509776254E+04  0.12699999809E+01 0.  1.
</event>
<event>
 5   0  0.1471485E-05  0.1900831E+04  0.7818609E-02  0.8654443E-01
        1   -1    0    0  501    0  0.00000000000E+00  0.00000000000E+00  0.19953821000E+04  0.19953821000E+04  0.50400001928E-02 0. -1.
       -1   -1    0    0    0  501  0.00000000000E+00  0.00000000000E+00 -0.45269023122E+03  0.45269023125E+03  0.50400001928E-02 0.  1.
    10030    2    1    2    0    0  0.00000000000E+00  0.00000000000E+00  0.15426918688E+04  0.24480723313E+04  0.19008313805E+04 0.  0.
        4    1    3    3  502    0 -0.29870657959E+03 -0.12959753006E+03  0.19213056041E+04  0.19487016133E+04  0.12699999809E+01 0. -1.
       -4    1    3    3    0  502  0.29870657959E+03  0.12959753006E+03 -0.37861373531E+03  0.49937071796E+03  0.12699999809E+01 0.  1.
</event>
<event>
 5   0  0.2888776E-05  0.1917101E+04  0.7818609E-02  0.8646391E-01
        2   -1    0    0  501    0  0.00000000000E+00  0.00000000000E+00  0.92597694160E+03  0.92597694160E+03  0.25500000920E-02 0.  1.
       -2   -1    0    0    0  501  0.00000000000E+00  0.00000000000E+00 -0.99226950932E+03  0.99226950932E+03  0.25500000920E-02 0. -1.
    10030    2    1    2    0    0  0.00000000000E+00  0.00000000000E+00 -0.66292567721E+02  0.19182464509E+04  0.19171006082E+04 0.  0.
        3    1    3    3  502    0 -0.36309302864E+03 -0.74218882087E+03  0.45308436465E+03  0.94231960871E+03  0.10100000352E+00 0.  1.
       -3    1    3    3    0  502  0.36309302864E+03  0.74218882087E+03 -0.51937693237E+03  0.97592684222E+03  0.10100000352E+00 0. -1.
</event>
<event>
 5   0  0.1471485E-05  0.1902588E+04  0.7818609E-02  0.8653569E-01
       -1   -1    0    0    0  501  0.00000000000E+00  0.00000000000E+00  0.11984466245E+04  0.11984466245E+04  0.50400001928E-02 0.  1.
        1   -1    0    0  501    0  0.00000000000E+00  0.00000000000E+00 -0.75511125547E+03  0.75511125549E+03  0.50400001928E-02 0. -1.
    10030    2    1    2    0    0  0.00000000000E+00  0.00000000000E+00  0.44333536904E+03  0.19535578800E+04  0.19025882742E+04 0.  0.
        4    1    3    3  502    0 -0.44596671390E+03  0.80253450257E+03 -0.34023515233E+02  0.91875304092E+03  0.12699999809E+01 0. -1.
       -4    1    3    3    0  502  0.44596671390E+03 -0.80253450257E+03  0.47735888427E+03  0.10348048391E+04  0.12699999809E+01 0.  1.
</event>
<event>
 5   0  0.2855141E-05  0.1897255E+04  0.7818609E-02  0.8656224E-01
       -2   -1    0    0    0  501  0.00000000000E+00  0.00000000000E+00  0.94065171126E+03  0.94065171126E+03  0.25500000920E-02 0. -1.
        2   -1    0    0  501    0  0.00000000000E+00  0.00000000000E+00 -0.95667119002E+03  0.95667119002E+03  0.25500000920E-02 0.  1.
    10030    2    1    2    0    0  0.00000000000E+00  0.00000000000E+00 -0.16019478757E+02  0.18973229013E+04  0.18972552722E+04 0.  0.
        1    1    3    3  502    0 -0.26526090474E+03  0.81876103408E+03 -0.40697435000E+03  0.95202998907E+03  0.50400001928E-02 0. -1.
       -1    1    3    3    0  502  0.26526090474E+03 -0.81876103408E+03  0.39095487124E+03  0.94529291221E+03  0.50400001928E-02 0.  1.
</event>
<event>
 5   0  0.2813537E-05  0.1899513E+04  0.7818609E-02  0.8655099E-01
       -2   -1    0    0    0  501  0.00000000000E+00  0.00000000000E+00  0.10592460143E+04  0.10592460143E+04  0.25500000920E-02 0.  1.
        2   -1    0    0  501    0  0.00000000000E+00  0.00000000000E+00 -0.85158429216E+03  0.85158429217E+03  0.25500000920E-02 0. -1.
    10030    2    1    2    0    0  0.00000000000E+00  0.00000000000E+00  0.20766172215E+03  0.19108303065E+04  0.18995128505E+04 0.  0.
        2    1    3    3  502    0  0.84243222333E+03 -0.23564935215E+03  0.47591923980E+03  0.99585229371E+03  0.25500000920E-02 0.  1.
       -2    1    3    3    0  502 -0.84243222333E+03  0.23564935215E+03 -0.26825751765E+03  0.91497801277E+03  0.25500000920E-02 0. -1.
</event>
<event>
 5   0  0.1413011E-05  0.1896722E+04  0.7818609E-02  0.8656490E-01
        1   -1    0    0  501    0  0.00000000000E+00  0.00000000000E+00  0.85019347391E+03  0.85019347393E+03  0.50400001928E-02 0. -1.
       -1   -1    0    0    0  501  0.00000000000E+00  0.00000000000E+00 -0.10578629079E+04  0.10578629079E+04  0.50400001928E-02 0.  1.
    10030    2    1    2    0    0  0.00000000000E+00  0.00000000000E+00 -0.20766943398E+03  0.19080563818E+04  0.18967215300E+04 0.  0.
        1    1    3    3  502    0 -0.71068468012E+03  0.47700812897E+03  0.30699124796E+03  0.90931462982E+03  0.50400001928E-02 0.  1.
       -1    1    3    3    0  502  0.71068468012E+03 -0.47700812897E+03 -0.51466068195E+03  0.99874175202E+03  0.50400001928E-02 0. -1.
</event>
<event>
 5   0  0.1344119E-05  0.1897793E+04  0.7818609E-02  0.8655956E-01
       -1   -1    0    0    0  501  0.00000000000E+00  0.00000000000E+00  0.11276924516E+04  0.11276924516E+04  0.50400001928E-02 0. -1.
        1   -1    0    0  501    0  0.00000000000E+00  0.00000000000E+00 -0.79844853195E+03  0.79844853196E+03  0.50400001928E-02 0.  1.
    10030    2    1    2    0    0  0.00000000000E+00  0.00000000000E+00  0.32924391969E+03  0.19261409836E+04  0.18977928048E+04 0.  0.
        2    1    3    3  502    0 -0.20784594860E+03  0.72193435777E+03  0.75294892716E+03  0.10636358598E+04  0.25500000920E-02 0. -1.
       -2    1    3    3    0  502  0.20784594860E+03 -0.72193435777E+03 -0.42370500748E+03  0.86250512383E+03  0.25500000920E-02 0.  1.
</event>
<event>
 5   0  0.2879462E-05  0.1900306E+04  0.7818609E-02  0.8654704E-01
       -2   -1    0    0    0  501  0.00000000000E+00  0.00000000000E+00  0.67888021724E+03  0.67888021725E+03  0.25500000920E-02 0. -1.
        2   -1    0    0  501    0  0.00000000000E+00  0.00000000000E+00 -0.13298234043E+04  0.13298234043E+04  0.25500000920E-02 0.  1.
    10030    2    1    2    0    0  0.00000000000E+00  0.00000000000E+00 -0.65094318705E+03  0.20087036215E+04  0.19003060823E+04 0.  0.
        4    1    3    3  502    0 -0.23096017957E+03 -0.19932577148E+02 -0.12994711347E+04  0.13199874071E+04  0.12699999809E+01 0.  1.
       -4    1    3    3    0  502  0.23096017957E+03  0.19932577148E+02  0.64852794766E+03  0.68871621440E+03  0.12699999809E+01 0. -1.
</event>
<event>
 5   0  0.2879462E-05  0.1901882E+04  0.7818609E-02  0.8653920E-01
        2   -1    0    0  501    0  0.00000000000E+00  0.00000000000E+00  0.65945302666E+03  0.65945302667E+03  0.25500000920E-02 0.  1.
       -2   -1    0    0    0  501  0.00000000000E+00  0.00000000000E+00 -0.13712705061E+04  0.13712705061E+04  0.25500000920E-02 0. -1.
    10030    2    1    2    0    0  0.00000000000E+00  0.00000000000E+00 -0.71181747948E+03  0.20307235328E+04  0.19018816847E+04 0.  0.
        4    1    3    3  502    0  0.68071912573E+03  0.22240181520E+03 -0.10239497308E+04  0.12495262141E+04  0.12699999809E+01 0. -1.
       -4    1    3    3    0  502 -0.68071912573E+03 -0.22240181520E+03  0.31213225135E+03  0.78119731872E+03  0.12699999809E+01 0.  1.
</event>
<event>
 5   0  0.1471485E-05  0.1897106E+04  0.7818609E-02  0.8656298E-01
        1   -1    0    0  501    0  0.00000000000E+00  0.00000000000E+00  0.16965808099E+04  0.16965808099E+04  0.50400001928E-02 0.  1.
       -1   -1    0    0    0  501  0.00000000000E+00  0.00000000000E+00 -0.53033288124E+03  0.53033288126E+03  0.50400001928E-02 0. -1.
    10030    2    1    2    0    0  0.00000000000E+00  0.00000000000E+00  0.11662479286E+04  0.22269136911E+04  0.18971057843E+04 0.  0.
        4    1    3    3  502    0  0.56727992728E+03 -0.75774448462E+03  0.65517715980E+03  0.11511915321E+04  0.12699999809E+01 0.  1.
       -4    1    3    3    0  502 -0.56727992728E+03  0.75774448462E+03  0.51107076882E+03  0.10757221591E+04  0.12699999809E+01 0. -1.
</event>
<event>
 5   0  0.1344119E-05  0.1898702E+04  0.7818609E-02  0.8655503E-01
        1   -1    0    0  501    0  0.00000000000E+00  0.00000000000E+00  0.19169954369E+04  0.19169954369E+04  0.50400001928E-02 0. -1.
       -1   -1    0    0    0  501  0.00000000000E+00  0.00000000000E+00 -0.47014575702E+03  0.47014575705E+03  0.50400001928E-02 0.  1.
    10030    2    1    2    0    0  0.00000000000E+00  0.00000000000E+00  0.14468496799E+04  0.23871411939E+04  0.18987019470E+04 0.  0.
        2    1    3    3  502    0  0.18031643878E+03 -0.44715507139E+03 -0.30476015201E+03  0.57038620796E+03  0.25500000920E-02 0.  1.
       -2    1    3    3    0  502 -0.18031643878E+03  0.44715507139E+03  0.17516098319E+04  0.18167549860E+04  0.25500000920E-02 0. -1.
</event>
<event>
 5   0  0.2789718E-05  0.1901319E+04  0.7818609E-02  0.8654200E-01
        2   -1    0    0  501    0  0.00000000000E+00  0.00000000000E+00  0.83490008148E+03  0.83490008148E+03  0.25500000920E-02 0. -1.
       -2   -1    0    0    0  501  0.00000000000E+00  0.00000000000E+00 -0.10824694721E+04  0.10824694721E+04  0.25500000920E-02 0.  1.
    10030    2    1    2    0    0  0.00000000000E+00  0.00000000000E+00 -0.24756939065E+03  0.19173695536E+04  0.19013193845E+04 0.  0.
        5    1    3    3  502    0  0.41516941885E+03 -0.37560109918E+02 -0.98537122312E+03  0.10699322154E+04  0.46999998093E+01 0.  1.
       -5    1    3    3    0  502 -0.41516941885E+03  0.37560109918E+02  0.73780183247E+03  0.84743733821E+03  0.46999998093E+01 0. -1.
</event>
<event>
 5   0  0.1010725E-05  0.1901246E+04  0.7818609E-02  0.8654236E-01
       -4   -1    0    0    0  501  0.00000000000E+00  0.00000000000E+00  0.16251442854E+04  0.16251447817E+04  0.12699999809E+01 0.  1.
        4   -1    0    0  501    0  0.00000000000E+00  0.00000000000E+00 -0.55606268218E+03  0.55606413247E+03  0.12699999809E+01 0. -1.
    10030    2    1    2    0    0  0.00000000000E+00  0.00000000000E+00  0.10690816033E+04  0.21812089141E+04  0.19012461315E+04 0.  0.
        4    1    3    3  502    0 -0.62595832710E+03  0.34317637024E+03  0.12547454833E+04  0.14436002526E+04  0.12699999809E+01 0.  1.
       -4    1    3    3    0  502  0.62595832710E+03 -0.34317637024E+03 -0.18566388008E+03  0.73760866157E+03  0.12699999809E+01 0. -1.
</event>
<event>
 5   0  0.1327254E-05  0.1898499E+04  0.7818609E-02  0.8655604E-01
       -1   -1    0    0    0  501  0.00000000000E+00  0.00000000000E+00  0.77631522993E+03  0.77631522995E+03  0.50400001928E-02 0. -1.
        1   -1    0    0  501    0  0.00000000000E+00  0.00000000000E+00 -0.11607073555E+04  0.11607073555E+04  0.50400001928E-02 0.  1.
    10030    2    1    2    0    0  0.00000000000E+00  0.00000000000E+00 -0.38439212559E+03  0.19370225855E+04  0.18984991942E+04 0.  0.
        5    1    3    3  502    0  0.59204537384E+03 -0.44316966306E+03  0.41497222579E+03  0.84802188245E+03  0.46999998093E+01 0. -1.
       -5    1    3    3    0  502 -0.59204537384E+03  0.44316966306E+03 -0.79936435138E+03  0.10890007030E+04  0.46999998093E+01 0.  1.
</event>
<event>
 5   0  0.2813537E-05  0.1900258E+04  0.7818609E-02  0.8654728E-01
        2   -1    0    0  501    0  0.00000000000E+00  0.00000000000E+00  0.11342476378E+04  0.11342476378E+04  0.25500000920E-02 0. -1.
       -2   -1    0    0    0  501  0.00000000000E+00  0.00000000000E+00 -0.79589807600E+03  0.79589807600E+03  0.25500000920E-02 0.  1.
    10030    2    1    2    0    0  0.00000000000E+00  0.00000000000E+00  0.33834956180E+03  0.19301457138E+04  0.19002584168E+04 0.  0.
        2    1    3    3  502    0 -0.91977671200E+02 -0.35717052521E+03 -0.72021956777E+03  0.80916432316E+03  0.25500000920E-02 0.  1.
       -2    1    3    3    0  502  0.91977671200E+02  0.35717052521E+03  0.10585691296E+04  0.11209813906E+04  0.25500000920E-02 0. -1.
</event>
<event>
 5   0  0.1471485E-05  0.1901064E+04  0.7818609E-02  0.8654327E-01
       -1   -1    0    0    0  501  0.00000000000E+00  0.00000000000E+00  0.13722869083E+04  0.13722869083E+04  0.50400001928E-02 0.  1.
        1   -1    0    0  501    0  0.00000000000E+00  0.00000000000E+00 -0.65839820914E+03  0.65839820916E+03  0.50400001928E-02 0. -1.
    10030    2    1    2    0    0  0.00000000000E+00  0.00000000000E+00  0.71388869913E+03  0.20306851174E+04  0.19010641682E+04 0.  0.
        4    1    3    3  502    0 -0.74872119531E+03 -0.52242499434E+03  0.63955572566E+03  0.11146947753E+04  0.12699999809E+01 0.  1.
       -4    1    3    3    0  502  0.74872119531E+03  0.52242499434E+03  0.74332973473E+02  0.91599034212E+03  0.12699999809E+01 0. -1.
</event>
<event>
 5   0  0.2888776E-05  0.1899815E+04  0.7818609E-02  0.8654948E-01
        2   -1    0    0  501    0  0.00000000000E+00  0.00000000000E+00  0.98325816443E+03  0.98325816444E+03  0.25500000920E-02 0.  1.
       -2   -1    0    0    0  501  0.00000000000E+00  0.00000000000E+00 -0.91768822816E+03  0.91768822816E+03  0.25500000920E-02 0. -1.
    10030    2    1    2    0    0  0.00000000000E+00  0.00000000000E+00  0.65569936273E+02  0.19009463926E+04  0.18998151939E+04 0.  0.
        3    1    3    3  502    0 -0.69294128210E+02  0.19460023261E+03  0.96051204550E+03  0.98247357547E+03  0.10100000352E+00 0.  1.
       -3    1    3    3    0  502  0.69294128210E+02 -0.19460023261E+03 -0.89494210923E+03  0.91847281713E+03  0.10100000352E+00 0. -1.
</event>
<event>
 5   0  0.1010725E-05  0.1916042E+04  0.7818609E-02  0.8646912E-01
       -4   -1    0    0    0  501  0.00000000000E+00  0.00000000000E+00  0.96971596603E+03  0.96971679767E+03  0.12699999809E+01 0. -1.
        4   -1    0    0  501    0  0.00000000000E+00  0.00000000000E+00 -0.94646547716E+03  0.94646632923E+03  0.12699999809E+01 0.  1.
    10030    2    1    2    0    0  0.00000000000E+00  0.00000000000E+00  0.23250488872E+02  0.19161831269E+04  0.19160420639E+04 0.  0.
        5    1    3    3  502    0  0.69980946974E+03 -0.53125475371E+03  0.39351367305E+03  0.96272530254E+03  0.46999998093E+01 0.  1.
       -5    1    3    3    0  502 -0.69980946974E+03  0.53125475371E+03 -0.37026318417E+03  0.95345782436E+03  0.46999998093E+01 0. -1.
</event>
<event>
 5   0  0.2813537E-05  0.1900877E+04  0.7818609E-02  0.8654420E-01
       -2   -1    0    0    0  501  0.00000000000E+00  0.00000000000E+00  0.71879210139E+03  0.71879210139E+03  0.25500000920E-02 0.  1.
        2   -1    0    0  501    0  0.00000000000E+00  0.00000000000E+00 -0.12567376934E+04  0.12567376934E+04  0.25500000920E-02 0. -1.
    10030    2    1    2    0    0  0.00000000000E+00  0.00000000000E+00 -0.53794559200E+03  0.19755297948E+04  0.19008767741E+04 0.  0.
        2    1    3    3  502    0  0.13928651019E+03 -0.70535565757E+03 -0.91500093296E+03  0.11636812463E+04  0.25500000920E-02 0. -1.
       -2    1    3    3    0  502 -0.13928651019E+03  0.70535565757E+03  0.37705534096E+03  0.81184854852E+03  0.25500000920E-02 0.  1.
</event>
<event>
 5   0  0.1429067E-05  0.1896653E+04  0.7818609E-02  0.8656524E-01
        1   -1    0    0  501    0  0.00000000000E+00  0.00000000000E+00  0.11702520196E+04  0.11702520196E+04  0.50400001928E-02 0. -1.
       -1   -1    0    0    0  501  0.00000000000E+00  0.00000000000E+00 -0.76848637659E+03  0.76848637661E+03  0.50400001928E-02 0.  1.
    10030    2    1    2    0    0  0.00000000000E+00  0.00000000000E+00  0.40176564303E+03  0.19387383962E+04  0.18966525610E+04 0.  0.
        3    1    3    3  502    0 -0.62647099032E+03  0.10095368757E+02  0.92854601922E+03  0.11201631748E+04  0.10100000352E+00 0. -1.
       -3    1    3    3    0  502  0.62647099032E+03 -0.10095368757E+02 -0.52678037619E+03  0.81857522142E+03  0.10100000352E+00 0.  1.
</event>
<event>
 5   0  0.2813537E-05  0.1906028E+04  0.7818609E-02  0.8651862E-01
        2   -1    0    0  501    0  0.00000000000E+00  0.00000000000E+00  0.62111276257E+03  0.62111276258E+03  0.25500000920E-02 0.  1.
       -2   -1    0    0    0  501  0.00000000000E+00  0.00000000000E+00 -0.14622711788E+04  0.14622711788E+04  0.25500000920E-02 0. -1.
    10030    2    1    2    0    0  0.00000000000E+00  0.00000000000E+00 -0.84115841621E+03  0.20833839414E+04  0.19060275879E+04 0.  0.
        2    1    3    3  502    0  0.53955001258E+03  0.14527677350E+03 -0.12644364707E+04  0.13823961608E+04  0.25500000920E-02 0. -1.
       -2    1    3    3    0  502 -0.53955001258E+03 -0.14527677350E+03  0.42327805452E+03  0.70098778052E+03  0.25500000920E-02 0.  1.
</event>
<event>
 5   0  0.1327254E-05  0.1899142E+04  0.7818609E-02  0.8655284E-01
       -1   -1    0    0    0  501  0.00000000000E+00  0.00000000000E+00  0.10201394646E+04  0.10201394646E+04  0.50400001928E-02 0.  1.
        1   -1    0    0  501    0  0.00000000000E+00  0.00000000000E+00 -0.88388383091E+03  0.88388383092E+03  0.50400001928E-02 0. -1.
    10030    2    1    2    0    0  0.00000000000E+00  0.00000000000E+00  0.13625563369E+03  0.19040232955E+04  0.18991416778E+04 0.  0.
        5    1    3    3  502    0 -0.27474205790E+03  0.58244403415E+03 -0.63147559936E+03  0.90194665800E+03  0.46999998093E+01 0. -1.
       -5    1    3    3    0  502  0.27474205790E+03 -0.58244403415E+03  0.76773123305E+03  0.10020766375E+04  0.46999998093E+01 0.  1.
</event>
<event>
 5   0  0.1471485E-05  0.1900635E+04  0.7818609E-02  0.8654541E-01
       -1   -1    0    0    0  501  0.00000000000E+00  0.00000000000E+00  0.50637909365E+03  0.50637909368E+03  0.50400001928E-02 0. -1.
        1   -1    0    0  501    0  0.00000000000E+00  0.00000000000E+00 -0.17834523803E+04  0.17834523803E+04  0.50400001928E-02 0.  1.
    10030    2    1    2    0    0  0.00000000000E+00  0.00000000000E+00 -0.12770732867E+04  0.22898314740E+04  0.19006346308E+04 0.  0.
        4    1    3    3  502    0 -0.56612916420E+03 -0.13575770632E+03  0.26638190977E+03  0.64022911534E+03  0.12699999809E+01 0. -1.
       -4    1    3    3    0  502  0.56612916420E+03  0.13575770632E+03 -0.15434551964E+04  0.16496023587E+04  0.12699999809E+01 0.  1.
</event>
<event>
 5   0  0.2888776E-05  0.1894115E+04  0.7818609E-02  0.8657791E-01
        2   -1    0    0  501    0  0.00000000000E+00  0.00000000000E+00  0.22330151060E+04  0.22330151060E+04  0.25500000920E-02 0. -1.
       -2   -1    0    0    0  501  0.00000000000E+00  0.00000000000E+00 -0.40166241442E+03  0.40166241443E+03  0.25500000920E-02 0.  1.
    10030    2    1    2    0    0  0.00000000000E+00  0.00000000000E+00  0.18313526916E+04  0.26346775205E+04  0.18941153491E+04 0.  0.
        3    1    3    3  502    0 -0.41156441444E+03  0.70959533976E+03  0.25733331874E+03  0.85972743389E+03  0.10100000352E+00 0.  1.
       -3    1    3    3    0  502  0.41156441444E+03 -0.70959533976E+03  0.15740193729E+04  0.17749500866E+04  0.10100000352E+00 0. -1.
</event>
<event>
 5   0  0.1429067E-05  0.1900560E+04  0.7818609E-02  0.8654578E-01
        1   -1    0    0  501    0  0.00000000000E+00  0.00000000000E+00  0.22350270701E+04  0.22350270701E+04  0.50400001928E-02 0. -1.
       -1   -1    0    0    0  501  0.00000000000E+00  0.00000000000E+00 -0.40403617283E+03  0.40403617286E+03  0.50400001928E-02 0.  1.
    10030    2    1    2    0    0  0.00000000000E+00  0.00000000000E+00  0.18309908973E+04  0.26390632430E+04  0.19005596898E+04 0.  0.
        3    1    3    3  502    0 -0.85087652284E+03  0.40667314404E+03  0.10777734966E+04  0.14321206735E+04  0.10100000352E+00 0. -1.
       -3    1    3    3    0  502  0.85087652284E+03 -0.40667314404E+03  0.75321740072E+03  0.12069425695E+04  0.10100000352E+00 0.  1.
</event>
<event>
 5   0  0.1344119E-05  0.1891181E+04  0.7818609E-02  0.8659258E-01
       -1   -1    0    0    0  501  0.00000000000E+00  0.00000000000E+00  0.48580824171E+03  0.48580824174E+03  0.50400001928E-02 0. -1.
        1   -1    0    0  501    0  0.00000000000E+00  0.00000000000E+00 -0.18405242377E+04  0.18405242378E+04  0.50400001928E-02 0.  1.
    10030    2    1    2    0    0  0.00000000000E+00  0.00000000000E+00 -0.13547159960E+04  0.23263324795E+04  0.18911814760E+04 0.  0.
        2    1    3    3  502    0 -0.12417848143E+03  0.73570906303E+03 -0.13919294982E+04  0.15792896658E+04  0.25500000920E-02 0.  1.
       -2    1    3    3    0  502  0.12417848143E+03 -0.73570906303E+03  0.37213502160E+02  0.74704281365E+03  0.25500000920E-02 0. -1.
</event>
<event>
 5   0  0.1344119E-05  0.1898551E+04  0.7818609E-02  0.8655578E-01
        1   -1    0    0  501    0  0.00000000000E+00  0.00000000000E+00  0.11989457930E+04  0.11989457930E+04  0.50400001928E-02 0. -1.
       -1   -1    0    0    0  501  0.00000000000E+00  0.00000000000E+00 -0.75159672799E+03  0.75159672801E+03  0.50400001928E-02 0.  1.
    10030    2    1    2    0    0  0.00000000000E+00  0.00000000000E+00  0.44734906500E+03  0.19505425210E+04  0.18985507474E+04 0.  0.
        2    1    3    3  502    0 -0.45575936296E+03 -0.76274169216E+03  0.56693836705E+03  0.10539974373E+04  0.25500000920E-02 0. -1.
       -2    1    3    3    0  502  0.45575936296E+03  0.76274169216E+03 -0.11958930205E+03  0.89654508367E+03  0.25500000920E-02 0.  1.
</event>
<event>
 5   0  0.2879462E-05  0.1899044E+04  0.7818609E-02  0.8655332E-01
        2   -1    0    0  501    0  0.00000000000E+00  0.00000000000E+00  0.19192734292E+04  0.19192734292E+04  0.25500000920E-02 0.  1.
       -2   -1    0    0    0  501  0.00000000000E+00  0.00000000000E+00 -0.46975711913E+03  0.46975711913E+03  0.25500000920E-02 0. -1.
    10030    2    1    2    0    0  0.00000000000E+00  0.00000000000E+00  0.14495163101E+04  0.23890305484E+04  0.18990443459E+04 0.  0.
        4    1    3    3  502    0 -0.52005458892E+03  0.26712608319E+03 -0.21646881717E+03  0.62343683039E+03  0.12699999809E+01 0. -1.
       -4    1    3    3    0  502  0.52005458892E+03 -0.26712608319E+03  0.16659851273E+04  0.17655937180E+04  0.12699999809E+01 0.  1.
</event>
<event>
 5   0  0.1413011E-05  0.1896913E+04  0.7818609E-02  0.8656394E-01
       -1   -1    0    0    0  501  0.00000000000E+00  0.00000000000E+00  0.97433880580E+03  0.97433880581E+03  0.50400001928E-02 0. -1.
        1   -1    0    0  501    0  0.00000000000E+00  0.00000000000E+00 -0.92326190299E+03  0.92326190301E+03  0.50400001928E-02 0.  1.
    10030    2    1    2    0    0  0.00000000000E+00  0.00000000000E+00  0.51076902808E+02  0.18976007088E+04  0.18969131767E+04 0.  0.
        1    1    3    3  502    0 -0.88060400232E+03 -0.23465628509E+03  0.28839388116E+03  0.95587552105E+03  0.50400001928E-02 0.  1.
       -1    1    3    3    0  502  0.88060400232E+03  0.23465628509E+03 -0.23731697835E+03  0.94172518777E+03  0.50400001928E-02 0. -1.
</event>
<event>
 5   0  0.1413011E-05  0.1899433E+04  0.7818609E-02  0.8655139E-01
        1   -1    0    0  501    0  0.00000000000E+00  0.00000000000E+00  0.16369066671E+04  0.16369066672E+04  0.50400001928E-02 0.  1.
       -1   -1    0    0    0  501  0.00000000000E+00  0.00000000000E+00 -0.55101573999E+03  0.55101574002E+03  0.50400001928E-02 0. -1.
    10030    2    1    2    0    0  0.00000000000E+00  0.00000000000E+00  0.10858909272E+04  0.21879224072E+04  0.18994329033E+04 0.  0.
        1    1    3    3  502    0  0.73067329857E+03  0.60660863066E+03  0.53120765304E+03  0.10881355939E+04  0.50400001928E-02 0.  1.
       -1    1    3    3    0  502 -0.73067329857E+03 -0.60660863066E+03  0.55468327412E+03  0.10997868133E+04  0.50400001928E-02 0. -1.
</event>
<event>
 5   0  0.2789718E-05  0.1899986E+04  0.7818609E-02  0.8654863E-01
       -2   -1    0    0    0  501  0.00000000000E+00  0.00000000000E+00  0.96020694454E+03  0.96020694454E+03  0.25500000920E-02 0. -1.
        2   -1    0    0  501    0  0.00000000000E+00  0.00000000000E+00 -0.93988740201E+03  0.93988740201E+03  0.25500000920E-02 0.  1.
    10030    2    1    2    0    0  0.00000000000E+00  0.00000000000E+00  0.20319542531E+02  0.19000943466E+04  0.18999856952E+04 0.  0.
        5    1    3    3  502    0 -0.53855140274E+03  0.15808354384E+03  0.77664753222E+03  0.95824396660E+03  0.46999998093E+01 0. -1.
       -5    1    3    3    0  502  0.53855140274E+03 -0.15808354384E+03 -0.75632798969E+03  0.94185037995E+03  0.46999998093E+01 0.  1.
</event>
<event>
 5   0  0.2855141E-05  0.1903053E+04  0.7818609E-02  0.8653338E-01
       -2   -1    0    0    0  501  0.00000000000E+00  0.00000000000E+00  0.86613586462E+03  0.86613586463E+03  0.25500000920E-02 0.  1.
        2   -1    0    0  501    0  0.00000000000E+00  0.00000000000E+00 -0.10453356834E+04  0.10453356834E+04  0.25500000920E-02 0. -1.
    10030    2    1    2    0    0  0.00000000000E+00  0.00000000000E+00 -0.17919981877E+03  0.19114715480E+04  0.19030530481E+04 0.  0.
        1    1    3    3  502    0  0.80011858801E+03 -0.47978272167E+03  0.98368291049E+02  0.93811381804E+03  0.50400001928E-02 0.  1.
       -1    1    3    3    0  502 -0.80011858801E+03  0.47978272167E+03 -0.27756810981E+03  0.97335772998E+03  0.50400001928E-02 0. -1.
</event>
<event>
 5   0  0.2855141E-05  0.1904949E+04  0.7818609E-02  0.8652397E-01
        2   -1    0    0  501    0  0.00000000000E+00  0.00000000000E+00  0.99765598117E+03  0.99765598117E+03  0.25500000920E-02 0. -1.
       -2   -1    0    0    0  501  0.00000000000E+00  0.00000000000E+00 -0.90933909929E+03  0.90933909930E+03  0.25500000920E-02 0.  1.
    10030    2    1    2    0    0  0.00000000000E+00  0.00000000000E+00  0.88316881876E+02  0.19069950805E+04  0.19049489141E+04 0.  0.
        1    1    3    3  502    0  0.42205201664E+03  0.23604761464E+03 -0.77730887099E+03  0.91545369193E+03  0.50400001928E-02 0.  1.
       -1    1    3    3    0  502 -0.42205201664E+03 -0.23604761464E+03  0.86562575286E+03  0.99154138853E+03  0.50400001928E-02 0. -1.
</event>
<event>
 5   0  0.1429067E-05  0.1898229E+04  0.7818609E-02  0.8655738E-01
        1   -1    0    0  501    0  0.00000000000E+00  0.00000000000E+00  0.10112497039E+04  0.10112497039E+04  0.50400001928E-02 0.  1.
       -1   -1    0    0    0  501  0.00000000000E+00  0.00000000000E+00 -0.89079734609E+03  0.89079734610E+03  0.50400001928E-02 0. -1.
    10030    2    1    2    0    0  0.00000000000E+00  0.00000000000E+00  0.12045235785E+03  0.19020470500E+04  0.18982292301E+04 0.  0.
        3    1    3    3  502    0 -0.11846734210E+03 -0.89151341730E+02  0.99957422329E+03  0.10105103220E+04  0.10100000352E+00 0.  1.
       -3    1    3    3    0  502  0.11846734210E+03  0.89151341730E+02 -0.87912186545E+03  0.89153672801E+03  0.10100000352E+00 0. -1.
</event>
<event>
 5   0  0.2789718E-05  0.1899832E+04  0.7818609E-02  0.8654940E-01
        2   -1    0    0  501    0  0.00000000000E+00  0.00000000000E+00  0.65984079351E+03  0.65984079352E+03  0.25500000920E-02 0.  1.
       -2   -1    0    0    0  501  0.00000000000E+00  0.00000000000E+00 -0.13675116222E+04  0.13675116222E+04  0.25500000920E-02 0. -1.
    10030    2    1    2    0    0  0.00000000000E+00  0.00000000000E+00 -0.70767082864E+03  0.20273524157E+04  0.18998315230E+04 0.  0.
        5    1    3    3  502    0  0.10425339039E+03 -0.42164473126E+03  0.54765539273E+03  0.69900040628E+03  0.46999998093E+01 0.  1.
       -5    1    3    3    0  502 -0.10425339039E+03  0.42164473126E+03 -0.12553262214E+04  0.13283520094E+04  0.46999998093E+01 0. -1.
</event>
<event>
 5   0  0.2813537E-05  0.1901549E+04  0.7818609E-02  0.8654086E-01
        2   -1    0    0  501    0  0.00000000000E+00  0.00000000000E+00  0.20112685543E+04  0.20112685543E+04  0.25500000920E-02 0.  1.
       -2   -1    0    0    0  501  0.00000000000E+00  0.00000000000E+00 -0.44945369339E+03  0.44945369340E+03  0.25500000920E-02 0. -1.
    10030    2    1    2    0    0  0.00000000000E+00  0.00000000000E+00  0.15618148609E+04  0.24607222477E+04  0.19015489267E+04 0.  0.
        2    1    3    3  502    0 -0.78927049830E+03  0.49451438805E+03  0.10280688071E+04  0.13872338922E+04  0.25500000920E-02 0.  1.
       -2    1    3    3    0  502  0.78927049830E+03 -0.49451438805E+03  0.53374605382E+03  0.10734883555E+04  0.25500000920E-02 0. -1.
</event>
<event>
 5   0  0.1327254E-05  0.1901283E+04  0.7818609E-02  0.8654218E-01
       -1   -1    0    0    0  501  0.00000000000E+00  0.00000000000E+00  0.63344473683E+03  0.63344473685E+03  0.50400001928E-02 0.  1.
        1   -1    0    0  501    0  0.00000000000E+00  0.00000000000E+00 -0.14266748818E+04  0.14266748818E+04  0.50400001928E-02 0. -1.
    10030    2    1    2    0    0  0.00000000000E+00  0.00000000000E+00 -0.79323014496E+03  0.20601196187E+04  0.19012834561E+04 0.  0.
        5    1    3    3  502    0 -0.73583696060E+03 -0.87462745444E+02 -0.10418382175E+04  0.12784970575E+04  0.46999998093E+01 0. -1.
       -5    1    3    3    0  502  0.73583696060E+03  0.87462745444E+02  0.24860807257E+03  0.78162256120E+03  0.46999998093E+01 0.  1.
</event>
<event>
 5   0  0.2855141E-05  0.1898729E+04  0.7818609E-02  0.8655489E-01
       -2   -1    0    0    0  501  0.00000000000E+00  0.00000000000E+00  0.55068935478E+03  0.55068935479E+03  0.25500000920E-02 0.  1.
        2   -1    0    0  501    0  0.00000000000E+00  0.00000000000E+00 -0.16366624058E+04  0.16366624058E+04  0.25500000920E-02 0. -1.
    10030    2    1    2    0    0  0.00000000000E+00  0.00000000000E+00 -0.10859730511E+04  0.21873517606E+04  0.18987285896E+04 0.  0.
        1    1    3    3  502    0  0.23870582664E+03 -0.81010302881E+03 -0.43427467649E+02  0.84565556459E+03  0.50400001928E-02 0.  1.
       -1    1    3    3    0  502 -0.23870582664E+03  0.81010302881E+03 -0.10425455834E+04  0.13416961960E+04  0.50400001928E-02 0. -1.
</event>
<event>
 5   0  0.2879462E-05  0.1902255E+04  0.7818609E-02  0.8653735E-01
       -2   -1    0    0    0  501  0.00000000000E+00  0.00000000000E+00  0.11437452354E+04  0.11437452354E+04  0.25500000920E-02 0. -1.
        2   -1    0    0  501    0  0.00000000000E+00  0.00000000000E+00 -0.79094842327E+03  0.79094842328E+03  0.25500000920E-02 0.  1.
    10030    2    1    2    0    0  0.00000000000E+00  0.00000000000E+00  0.35279681210E+03  0.19346936587E+04  0.19022549677E+04 0.  0.
        4    1    3    3  502    0  0.61560975700E+02 -0.94834392940E+03  0.13706178870E+03  0.96017368688E+03  0.12699999809E+01 0.  1.
       -4    1    3    3    0  502 -0.61560975700E+02  0.94834392940E+03  0.21573502340E+03  0.97451997177E+03  0.12699999809E+01 0. -1.
</event>
<event>
 5   0  0.2855141E-05  0.1891102E+04  0.7818609E-02  0.8659298E-01
        2   -1    0    0  501    0  0.00000000000E+00  0.00000000000E+00  0.10063965177E+04  0.10063965177E+04  0.25500000920E-02 0. -1.
       -2   -1    0    0    0  501  0.00000000000E+00  0.00000000000E+00 -0.88838446940E+03  0.88838446940E+03  0.25500000920E-02 0.  1.
    10030    2    1    2    0    0  0.00000000000E+00  0.00000000000E+00  0.11801204831E+03  0.18947809871E+04  0.18911023625E+04 0.  0.
        1    1    3    3  502    0  0.19109918462E+03  0.77280820016E+01  0.98681402139E+03  0.10051768673E+04  0.50400001928E-02 0. -1.
       -1    1    3    3    0  502 -0.19109918462E+03 -0.77280820016E+01 -0.86880197309E+03  0.88960411986E+03  0.50400001928E-02 0.  1.
</event>
<event>
 5   0  0.2813537E-05  0.1896578E+04  0.7818609E-02  0.8656561E-01
        2   -1    0    0  501    0  0.00000000000E+00  0.00000000000E+00  0.11472218341E+04  0.11472218341E+04  0.25500000920E-02 0. -1.
       -2   -1    0    0    0  501  0.00000000000E+00  0.00000000000E+00 -0.78385226022E+03  0.78385226022E+03  0.25500000920E-02 0.  1.
    10030    2    1    2    0    0  0.00000000000E+00  0.00000000000E+00  0.36336957392E+03  0.19310740944E+04  0.18965784220E+04 0.  0.
        2    1    3    3  502    0 -0.51667639292E+03  0.73569743907E+03 -0.12554368127E+03  0.90772596788E+03  0.25500000920E-02 0.  1.
       -2    1    3    3    0  502  0.51667639292E+03 -0.73569743907E+03  0.48891325519E+03  0.10233481265E+04  0.25500000920E-02 0. -1.
</event>
<event>
 5   0  0.1344119E-05  0.1899707E+04  0.7818609E-02  0.8655002E-01
       -1   -1    0    0    0  501  0.00000000000E+00  0.00000000000E+00  0.45612234331E+03  0.45612234334E+03  0.50400001928E-02 0. -1.
        1   -1    0    0  501    0  0.00000000000E+00  0.00000000000E+00 -0.19780266328E+04  0.19780266328E+04  0.50400001928E-02 0.  1.
    10030    2    1    2    0    0  0.00000000000E+00  0.00000000000E+00 -0.15219042895E+04  0.24341489762E+04  0.18997074964E+04 0.  0.
        2    1    3    3  502    0  0.73885911862E+03 -0.59368504800E+03 -0.68147456633E+03  0.11673826785E+04  0.25500000920E-02 0.  1.
       -2    1    3    3    0  502 -0.73885911862E+03  0.59368504800E+03 -0.84042972317E+03  0.12667662977E+04  0.25500000920E-02 0. -1.
</event>
<event>
 5   0  0.1344119E-05  0.1899250E+04  0.7818609E-02  0.8655230E-01
       -1   -1    0    0    0  501  0.00000000000E+00  0.00000000000E+00  0.11656077509E+04  0.11656077509E+04  0.50400001928E-02 0. -1.
        1   -1    0    0  501    0  0.00000000000E+00  0.00000000000E+00 -0.77366316278E+03  0.77366316280E+03  0.50400001928E-02 0.  1.
    10030    2    1    2    0    0  0.00000000000E+00  0.00000000000E+00  0.39194458811E+03  0.19392709137E+04  0.18992501459E+04 0.  0.
        2    1    3    3  502    0 -0.67812495665E+03  0.39400236263E+03  0.74269546578E+03  0.10801332665E+04  0.25500000920E-02 0. -1.
       -2    1    3    3    0  502  0.67812495665E+03 -0.39400236263E+03 -0.35075087767E+03  0.85913764717E+03  0.25500000920E-02 0.  1.
</event>
<event>
 5   0  0.2855141E-05  0.1899855E+04  0.7818609E-02  0.8654929E-01
        2   -1    0    0  501    0  0.00000000000E+00  0.00000000000E+00  0.15151419092E+04  0.15151419092E+04  0.25500000920E-02 0. -1.
       -2   -1    0    0    0  501  0.00000000000E+00  0.00000000000E+00 -0.59556283434E+03  0.59556283435E+03  0.25500000920E-02 0.  1.
    10030    2    1    2    0    0  0.00000000000E+00  0.00000000000E+00  0.91957907486E+03  0.21107047435E+04  0.18998549522E+04 0.  0.
        1    1    3    3  502    0 -0.47181555314E+03 -0.29768898766E+03 -0.39439134858E+03  0.68320801036E+03  0.50400001928E-02 0.  1.
       -1    1    3    3    0  502  0.47181555314E+03  0.29768898766E+03  0.13139704234E+04  0.14274967332E+04  0.50400001928E-02 0. -1.
</event>
<event>
 5   0  0.1429067E-05  0.1901615E+04  0.7818609E-02  0.8654053E-01
       -1   -1    0    0    0  501  0.00000000000E+00  0.00000000000E+00  0.42794584565E+03  0.42794584568E+03  0.50400001928E-02 0. -1.
        1   -1    0    0  501    0  0.00000000000E+00  0.00000000000E+00 -0.21124991261E+04  0.21124991261E+04  0.50400001928E-02 0.  1.
    10030    2    1    2    0    0  0.00000000000E+00  0.00000000000E+00 -0.16845532804E+04  0.25404449718E+04  0.19016153397E+04 0.  0.
        3    1    3    3  502    0  0.65675913674E+03  0.10920594421E+03  0.64566936588E+02  0.66890014310E+03  0.10100000352E+00 0. -1.
       -3    1    3    3    0  502 -0.65675913674E+03 -0.10920594421E+03 -0.17491202170E+04  0.18715448287E+04  0.10100000352E+00 0.  1.
</event>
<event>
 5   0  0.1327254E-05  0.1896222E+04  0.7818609E-02  0.8656739E-01
        1   -1    0    0  501    0  0.00000000000E+00  0.00000000000E+00  0.81095744984E+03  0.81095744985E+03  0.50400001928E-02 0.  1.
       -1   -1    0    0    0  501  0.00000000000E+00  0.00000000000E+00 -0.11084609640E+04  0.11084609640E+04  0.50400001928E-02 0. -1.
    10030    2    1    2    0    0  0.00000000000E+00  0.00000000000E+00 -0.29750351416E+03  0.19194184139E+04  0.18962222197E+04 0.  0.
        5    1    3    3  502    0  0.51568537101E+03 -0.37394741645E+02 -0.95318257942E+03  0.10843933273E+04  0.46999998093E+01 0. -1.
       -5    1    3    3    0  502 -0.51568537101E+03  0.37394741645E+02  0.65567906526E+03  0.83502508657E+03  0.46999998093E+01 0.  1.
</event>
<event>
 5   0  0.2888776E-05  0.1901430E+04  0.7818609E-02  0.8654145E-01
       -2   -1    0    0    0  501  0.00000000000E+00  0.00000000000E+00  0.75282229656E+03  0.75282229656E+03  0.25500000920E-02 0. -1.
        2   -1    0    0  501    0  0.00000000000E+00  0.00000000000E+00 -0.12006275577E+04  0.12006275577E+04  0.25500000920E-02 0.  1.
    10030    2    1    2    0    0  0.00000000000E+00  0.00000000000E+00 -0.44780526116E+03  0.19534498543E+04  0.19014301936E+04 0.  0.
        3    1    3    3  502    0  0.41074785247E+03  0.68004303540E+03  0.31257792299E+03  0.85374310917E+03  0.10100000352E+00 0. -1.
       -3    1    3    3    0  502 -0.41074785247E+03 -0.68004303540E+03 -0.76038318415E+03  0.10997067451E+04  0.10100000352E+00 0.  1.
</event>
<event>
 5   0  0.1471485E-05  0.1900379E+04  0.7818609E-02  0.8654668E-01
        1   -1    0    0  501    0  0.00000000000E+00  0.00000000000E+00  0.17202747538E+04  0.17202747538E+04  0.50400001928E-02 0. -1.
       -1   -1    0    0    0  501  0.00000000000E+00  0.00000000000E+00 -0.52483456126E+03  0.52483456129E+03  0.50400001928E-02 0.  1.
    10030    2    1    2    0    0  0.00000000000E+00  0.00000000000E+00  0.11954401925E+04  0.22451093151E+04  0.19003785367E+04 0.  0.
        4    1    3    3  502    0  0.17282691386E+03 -0.18738625960E+03  0.16791218359E+04  0.16983623009E+04  0.12699999809E+01 0. -1.
       -4    1    3    3    0  502 -0.17282691386E+03  0.18738625960E+03 -0.48368164339E+03  0.54674701416E+03  0.12699999809E+01 0.  1.
</event>
<event>
 5   0  0.2813537E-05  0.1899202E+04  0.7818609E-02  0.8655254E-01
        2   -1    0    0  501    0  0.00000000000E+00  0.00000000000E+00  0.10081354716E+04  0.10081354716E+04  0.25500000920E-02 0.  1.
       -2   -1    0    0    0  501  0.00000000000E+00  0.00000000000E+00 -0.89446484489E+03  0.89446484489E+03  0.25500000920E-02 0. -1.
    10030    2    1    2    0    0  0.00000000000E+00  0.00000000000E+00  0.11367062674E+03  0.19026003165E+04  0.18992016620E+04 0.  0.
        2    1    3    3  502    0  0.59986091873E+03 -0.49381820071E+03  0.60375385829E+03  0.98397574085E+03  0.25500000920E-02 0.  1.
       -2    1    3    3    0  502 -0.59986091873E+03  0.49381820071E+03 -0.49008323155E+03  0.91862457567E+03  0.25500000920E-02 0. -1.
</event>
<event>
 5   0  0.1413011E-05  0.1890646E+04  0.7818609E-02  0.8659527E-01
       -1   -1    0    0    0  501  0.00000000000E+00  0.00000000000E+00  0.48180052844E+03  0.48180052847E+03  0.50400001928E-02 0. -1.
        1   -1    0    0  501    0  0.00000000000E+00  0.00000000000E+00 -0.18547830264E+04  0.18547830264E+04  0.50400001928E-02 0.  1.
    10030    2    1    2    0    0  0.00000000000E+00  0.00000000000E+00 -0.13729824980E+04  0.23365835549E+04  0.18906458603E+04 0.  0.
        1    1    3    3  502    0 -0.63656439362E+03 -0.50333627087E+03 -0.87289249369E+02  0.81619914352E+03  0.50400001928E-02 0. -1.
       -1    1    3    3    0  502  0.63656439362E+03  0.50333627087E+03 -0.12856932486E+04  0.15203844113E+04  0.50400001928E-02 0.  1.
</event>
<event>
 5   0  0.1413011E-05  0.1898819E+04  0.7818609E-02  0.8655444E-01
       -1   -1    0    0    0  501  0.00000000000E+00  0.00000000000E+00  0.10453432219E+04  0.10453432219E+04  0.50400001928E-02 0. -1.
        1   -1    0    0  501    0  0.00000000000E+00  0.00000000000E+00 -0.86227996798E+03  0.86227996799E+03  0.50400001928E-02 0.  1.
    10030    2    1    2    0    0  0.00000000000E+00  0.00000000000E+00  0.18306325392E+03  0.19076231899E+04  0.18988191277E+04 0.  0.
        1    1    3    3  502    0  0.50024225906E+02 -0.93271471445E+03 -0.79313785049E+02  0.93741657669E+03  0.50400001928E-02 0. -1.
       -1    1    3    3    0  502 -0.50024225906E+02  0.93271471445E+03  0.26237703897E+03  0.97020661322E+03  0.50400001928E-02 0.  1.
</event>
<event>
 5   0  0.2789718E-05  0.1899416E+04  0.7818609E-02  0.8655147E-01
       -2   -1    0    0    0  501  0.00000000000E+00  0.00000000000E+00  0.76984255045E+03  0.76984255046E+03  0.25500000920E-02 0. -1.
        2   -1    0    0  501    0  0.00000000000E+00  0.00000000000E+00 -0.11715976750E+04  0.11715976750E+04  0.25500000920E-02 0.  1.
    10030    2    1    2    0    0  0.00000000000E+00  0.00000000000E+00 -0.40175512450E+03  0.19414402254E+04  0.18994164811E+04 0.  0.
        5    1    3    3  502    0  0.53227677494E+03  0.24366627397E+03  0.56348562797E+03  0.81254535943E+03  0.46999998093E+01 0. -1.
       -5    1    3    3    0  502 -0.53227677494E+03 -0.24366627397E+03 -0.96524075247E+03  0.11288948660E+04  0.46999998093E+01 0.  1.
</event>
<event>
 5   0  0.1429067E-05  0.1888014E+04  0.7818609E-02  0.8660845E-01
        1   -1    0    0  501    0  0.00000000000E+00  0.00000000000E+00  0.24701525626E+04  0.24701525626E+04  0.50400001928E-02 0.  1.
       -1   -1    0    0    0  501  0.00000000000E+00  0.00000000000E+00 -0.36076702361E+03  0.36076702365E+03  0.50400001928E-02 0. -1.
    10030    2    1    2    0    0  0.00000000000E+00  0.00000000000E+00  0.21093855390E+04  0.28309195863E+04  0.18880143940E+04 0.  0.
        3    1    3    3  502    0  0.73668692121E+03 -0.58133247246E+03  0.90108845851E+03  0.13010055664E+04  0.10100000352E+00 0. -1.
       -3    1    3    3    0  502 -0.73668692121E+03  0.58133247246E+03  0.12082970805E+04  0.15299140199E+04  0.10100000352E+00 0.  1.
</event>
<event>
 5   0  0.1327254E-05  0.1899887E+04  0.7818609E-02  0.8654913E-01
        1   -1    0    0  501    0  0.00000000000E+00  0.00000000000E+00  0.99332466793E+03  0.99332466795E+03  0.50400001928E-02 0.  1.
       -1   -1    0    0    0  501  0.00000000000E+00  0.00000000000E+00 -0.90845674456E+03  0.90845674457E+03  0.50400001928E-02 0. -1.
    10030    2    1    2    0    0  0.00000000000E+00  0.00000000000E+00  0.84867923377E+02  0.19017814125E+04  0.18998868326E+04 0.  0.
        5    1    3    3  502    0 -0.10516959852E+03  0.54219073976E+03  0.81608174737E+03  0.98541511614E+03  0.46999998093E+01 0.  1.
       -5    1    3    3    0  502  0.10516959852E+03 -0.54219073976E+03 -0.73121382400E+03  0.91636629638E+03  0.46999998093E+01 0. -1.
</event>
<event>
 5   0  0.2813537E-05  0.1901573E+04  0.7818609E-02  0.8654074E-01
       -2   -1    0    0    0  501  0.00000000000E+00  0.00000000000E+00  0.72252490424E+03  0.72252490424E+03  0.25500000920E-02 0.  1.
        2   -1    0    0  501    0  0.00000000000E+00  0.00000000000E+00 -0.12511612070E+04  0.12511612070E+04  0.25500000920E-02 0. -1.
    10030    2    1    2    0    0  0.00000000000E+00  0.00000000000E+00 -0.52863630277E+03  0.19736861113E+04  0.19015731711E+04 0.  0.
        2    1    3    3  502    0 -0.53214673771E+03 -0.67578557388E+03  0.15617361107E+03  0.87421764403E+03  0.25500000920E-02 0.  1.
       -2    1    3    3    0  502  0.53214673771E+03  0.67578557388E+03 -0.68480991384E+03  0.10994684672E+04  0.25500000920E-02 0. -1.
</event>
<event>
 5   0  0.2879462E-05  0.1895484E+04  0.7818609E-02  0.8657107E-01
       -2   -1    0    0    0  501  0.00000000000E+00  0.00000000000E+00  0.47725175268E+03  0.47725175269E+03  0.25500000920E-02 0. -1.
        2   -1    0    0  501    0  0.00000000000E+00  0.00000000000E+00 -0.18820572368E+04  0.18820572368E+04  0.25500000920E-02 0.  1.
    10030    2    1    2    0    0  0.00000000000E+00  0.00000000000E+00 -0.14048054842E+04  0.23593089895E+04  0.18954842283E+04 0.  0.
        4    1    3    3  502    0  0.48355326918E+03  0.78200552420E+03 -0.98856760356E+03  0.13500458969E+04  0.12699999809E+01 0.  1.
       -4    1    3    3    0  502 -0.48355326918E+03 -0.78200552420E+03 -0.41623788060E+03  0.10092630926E+04  0.12699999809E+01 0. -1.
</event>
<event>
 5   0  0.1429067E-05  0.1898607E+04  0.7818609E-02  0.8655550E-01
       -1   -1    0    0    0  501  0.00000000000E+00  0.00000000000E+00  0.86620868077E+03  0.86620868078E+03  0.50400001928E-02 0.  1.
        1   -1    0    0  501    0  0.00000000000E+00  0.00000000000E+00 -0.10403690504E+04  0.10403690504E+04  0.50400001928E-02 0. -1.
    10030    2    1    2    0    0  0.00000000000E+00  0.00000000000E+00 -0.17416036965E+03  0.19065777312E+04  0.18986065445E+04 0.  0.
        3    1    3    3  502    0  0.39652419617E+02 -0.52339465551E+03  0.70722898300E+03  0.88073101705E+03  0.10100000352E+00 0.  1.
       -3    1    3    3    0  502 -0.39652419617E+02  0.52339465551E+03 -0.88138935265E+03  0.10258467142E+04  0.10100000352E+00 0. -1.
</event>
<event>
 5   0  0.2813537E-05  0.1906148E+04  0.7818609E-02  0.8651802E-01
        2   -1    0    0  501    0  0.00000000000E+00  0.00000000000E+00  0.12235406155E+04  0.12235406155E+04  0.25500000920E-02 0. -1.
       -2   -1    0    0    0  501  0.00000000000E+00  0.00000000000E+00 -0.74239487932E+03  0.74239487933E+03  0.25500000920E-02 0.  1.
    10030    2    1    2    0    0  0.00000000000E+00  0.00000000000E+00  0.48114573618E+03  0.19659354948E+04  0.19061482499E+04 0.  0.
        2    1    3    3  502    0  0.92191156958E+03  0.21645157906E+03  0.35154922805E+03  0.10101282532E+04  0.25500000920E-02 0. -1.
       -2    1    3    3    0  502 -0.92191156958E+03 -0.21645157906E+03  0.12959650813E+03  0.95580724162E+03  0.25500000920E-02 0.  1.
</event>
<event>
 5   0  0.2879462E-05  0.1901386E+04  0.7818609E-02  0.8654167E-01
       -2   -1    0    0    0  501  0.00000000000E+00  0.00000000000E+00  0.11281473274E+04  0.11281473275E+04  0.25500000920E-02 0.  1.
        2   -1    0    0  501    0  0.00000000000E+00  0.00000000000E+00 -0.80115209136E+03  0.80115209136E+03  0.25500000920E-02 0. -1.
    10030    2    1    2    0    0  0.00000000000E+00  0.00000000000E+00  0.32699523609E+03  0.19292994188E+04  0.19013864318E+04 0.  0.
        4    1    3    3  502    0 -0.41300797712E+03  0.79694850677E+03  0.48132664083E+03  0.10185182667E+04  0.12699999809E+01 0. -1.
       -4    1    3    3    0  502  0.41300797712E+03 -0.79694850677E+03 -0.15433140473E+03  0.91078115208E+03  0.12699999809E+01 0.  1.
</event>
<event>
 5   0  0.2888776E-05  0.1929824E+04  0.7818609E-02  0.8640152E-01
       -2   -1    0    0    0  501  0.00000000000E+00  0.00000000000E+00  0.14707752385E+04  0.14707752385E+04  0.25500000920E-02 0.  1.
        2   -1    0    0  501    0  0.00000000000E+00  0.00000000000E+00 -0.63303703288E+03  0.63303703289E+03  0.25500000920E-02 0. -1.
    10030    2    1    2    0    0  0.00000000000E+00  0.00000000000E+00  0.83773820563E+03  0.21038122714E+04  0.19298240262E+04 0.  0.
        3    1    3    3  502    0 -0.29266370973E+02  0.52796142752E+03  0.12987656570E+04  0.14022810101E+04  0.10100000352E+00 0.  1.
       -3    1    3    3    0  502  0.29266370973E+02 -0.52796142752E+03 -0.46102745136E+03  0.70153126126E+03  0.10100000352E+00 0. -1.
</event>
<event>
 5   0  0.1327254E-05  0.1899870E+04  0.7818609E-02  0.8654921E-01
       -1   -1    0    0    0  501  0.00000000000E+00  0.00000000000E+00  0.73277766823E+03  0.73277766825E+03  0.50400001928E-02 0. -1.
        1   -1    0    0  501    0  0.00000000000E+00  0.00000000000E+00 -0.12314465500E+04  0.12314465500E+04  0.50400001928E-02 0.  1.
    10030    2    1    2    0    0  0.00000000000E+00  0.00000000000E+00 -0.49866888175E+03  0.19642242182E+04  0.18998700287E+04 0.  0.
        5    1    3    3  502    0 -0.70706658998E+03  0.52929066647E+02  0.40422520838E+03  0.81618916793E+03  0.46999998093E+01 0. -1.
       -5    1    3    3    0  502  0.70706658998E+03 -0.52929066647E+02 -0.90289409012E+03  0.11480350503E+04  0.46999998093E+01 0.  1.
</event>
<event>
 5   0  0.2813537E-05  0.1897989E+04  0.7818609E-02  0.8655858E-01
       -2   -1    0    0    0  501  0.00000000000E+00  0.00000000000E+00  0.83192428507E+03  0.83192428507E+03  0.25500000920E-02 0.  1.
        2   -1    0    0  501    0  0.00000000000E+00  0.00000000000E+00 -0.10825385989E+04  0.10825385990E+04  0.25500000920E-02 0. -1.
    10030    2    1    2    0    0  0.00000000000E+00  0.00000000000E+00 -0.25061431388E+03  0.19144628840E+04  0.18979885669E+04 0.  0.
        2    1    3    3  502    0  0.30199352043E+03 -0.81935176494E+03  0.24947239565E+03  0.90817062124E+03  0.25500000920E-02 0.  1.
       -2    1    3    3    0  502 -0.30199352043E+03  0.81935176494E+03 -0.50008670953E+03  0.10062922628E+04  0.25500000920E-02 0. -1.
</event>
<event>
 5   0  0.1010725E-05  0.1897640E+04  0.7818609E-02  0.8656032E-01
       -3   -1    0    0    0  501  0.00000000000E+00  0.00000000000E+00  0.10834183183E+04  0.10834183230E+04  0.10100000352E+00 0.  1.
        3   -1    0    0  501    0  0.00000000000E+00  0.00000000000E+00 -0.83094387224E+03  0.83094387838E+03  0.10100000352E+00 0. -1.
    10030    2    1    2    0    0  0.00000000000E+00  0.00000000000E+00  0.25247444608E+03  0.19143622014E+04  0.18976404539E+04 0.  0.
        3    1    3    3  502    0 -0.96683766908E+02  0.84696978184E+03  0.54650665989E+03  0.10126080691E+04  0.10100000352E+00 0.  1.
       -3    1    3    3    0  502  0.96683766908E+02 -0.84696978184E+03 -0.29403221381E+03  0.90175413229E+03  0.10100000352E+00 0. -1.
</event>
<event>
 5   0  0.1471485E-05  0.1898498E+04  0.7818609E-02  0.8655604E-01
        1   -1    0    0  501    0  0.00000000000E+00  0.00000000000E+00  0.12239146906E+04  0.12239146906E+04  0.50400001928E-02 0.  1.
       -1   -1    0    0    0  501  0.00000000000E+00  0.00000000000E+00 -0.73622248390E+03  0.73622248392E+03  0.50400001928E-02 0. -1.
    10030    2    1    2    0    0  0.00000000000E+00  0.00000000000E+00  0.48769220672E+03  0.19601371745E+04  0.18984978416E+04 0.  0.
        4    1    3    3  502    0 -0.22223000443E+03 -0.34637279704E+03  0.11270202166E+04  0.11998068473E+04  0.12699999809E+01 0.  1.
       -4    1    3    3    0  502  0.22223000443E+03  0.34637279704E+03 -0.63932800986E+03  0.76033032722E+03  0.12699999809E+01 0. -1.
</event>
<event>
 5   0  0.2813537E-05  0.1897709E+04  0.7818609E-02  0.8655997E-01
        2   -1    0    0  501    0  0.00000000000E+00  0.00000000000E+00  0.14759482309E+04  0.14759482309E+04  0.25500000920E-02 0.  1.
       -2   -1    0    0    0  501  0.00000000000E+00  0.00000000000E+00 -0.60999773192E+03  0.60999773193E+03  0.25500000920E-02 0. -1.
    10030    2    1    2    0    0  0.00000000000E+00  0.00000000000E+00  0.86595049896E+03  0.20859459628E+04  0.18977092225E+04 0.  0.
        2    1    3    3  502    0 -0.67272908594E+03 -0.62298725118E+03  0.16452139984E+03  0.93152822244E+03  0.25500000920E-02 0. -1.
       -2    1    3    3    0  502  0.67272908594E+03  0.62298725118E+03  0.70142909912E+03  0.11544177404E+04  0.25500000920E-02 0.  1.
</event>
<event>
 5   0  0.1327254E-05  0.1894739E+04  0.7818609E-02  0.8657480E-01
        1   -1    0    0  501    0  0.00000000000E+00  0.00000000000E+00  0.65641773396E+03  0.65641773398E+03  0.50400001928E-02 0.  1.
       -1   -1    0    0    0  501  0.00000000000E+00  0.00000000000E+00 -0.13672829890E+04  0.13672829890E+04  0.50400001928E-02 0. -1.
    10030    2    1    2    0    0  0.00000000000E+00  0.00000000000E+00 -0.71086525505E+03  0.20237007230E+04  0.18947388225E+04 0.  0.
        5    1    3    3  502    0  0.92658542843E+03 -0.57894922392E+02 -0.15398353423E+03  0.94108734824E+03  0.46999998093E+01 0.  1.
       -5    1    3    3    0  502 -0.92658542843E+03  0.57894922392E+02 -0.55688172082E+03  0.10826133748E+04  0.46999998093E+01 0. -1.
</event>
<event>
 5   0  0.1327254E-05  0.1900442E+04  0.7818609E-02  0.8654636E-01
       -1   -1    0    0    0  501  0.00000000000E+00  0.00000000000E+00  0.17582603321E+04  0.17582603321E+04  0.50400001928E-02 0.  1.
        1   -1    0    0  501    0  0.00000000000E+00  0.00000000000E+00 -0.51353053954E+03  0.51353053957E+03  0.50400001928E-02 0. -1.
    10030    2    1    2    0    0  0.00000000000E+00  0.00000000000E+00  0.12447297925E+04  0.22717908716E+04  0.19004424506E+04 0.  0.
        5    1    3    3  502    0  0.68681216878E+02  0.47369017566E+03 -0.35888300833E+03  0.59826298208E+03  0.46999998093E+01 0. -1.
       -5    1    3    3    0  502 -0.68681216878E+02 -0.47369017566E+03  0.16036128009E+04  0.16735278896E+04  0.46999998093E+01 0.  1.
</event>
<event>
 5   0  0.1429067E-05  0.1901572E+04  0.7818609E-02  0.8654074E-01
        1   -1    0    0  501    0  0.00000000000E+00  0.00000000000E+00  0.18405267187E+04  0.18405267187E+04  0.50400001928E-02 0.  1.
       -1   -1    0    0    0  501  0.00000000000E+00  0.00000000000E+00 -0.49116043350E+03  0.49116043352E+03  0.50400001928E-02 0. -1.
    10030    2    1    2    0    0  0.00000000000E+00  0.00000000000E+00  0.13493662852E+04  0.23316871522E+04  0.19015718772E+04 0.  0.
        3    1    3    3  502    0  0.34258420741E+03  0.26721431291E+03 -0.36231820581E+03  0.56572247671E+03  0.10100000352E+00 0. -1.
       -3    1    3    3    0  502 -0.34258420741E+03 -0.26721431291E+03  0.17116844910E+04  0.17659646755E+04  0.10100000352E+00 0.  1.
</event>
<event>
 5   0  0.1344119E-05  0.1900296E+04  0.7818609E-02  0.8654709E-01
        1   -1    0    0  501    0  0.00000000000E+00  0.00000000000E+00  0.14910761189E+04  0.14910761189E+04  0.50400001928E-02 0.  1.
       -1   -1    0    0    0  501  0.00000000000E+00  0.00000000000E+00 -0.60545598238E+03  0.60545598240E+03  0.50400001928E-02 0. -1.
    10030    2    1    2    0    0  0.00000000000E+00  0.00000000000E+00  0.88562013654E+03  0.20965321013E+04  0.19002957206E+04 0.  0.
        2    1    3    3  502    0  0.35102431856E+03 -0.85215790703E+03  0.69773329968E+03  0.11559510925E+04  0.25500000920E-02 0.  1.
       -2    1    3    3    0  502 -0.35102431856E+03  0.85215790703E+03  0.18788683686E+03  0.94058100885E+03  0.25500000920E-02 0. -1.
</event>
<event>
 5   0  0.2789718E-05  0.1905285E+04  0.7818609E-02  0.8652230E-01
       -2   -1    0    0    0  501  0.00000000000E+00  0.00000000000E+00  0.12018963800E+04  0.12018963800E+04  0.25500000920E-02 0. -1.
        2   -1    0    0  501    0  0.00000000000E+00  0.00000000000E+00 -0.75508005696E+03  0.75508005697E+03  0.25500000920E-02 0.  1.
    10030    2    1    2    0    0  0.00000000000E+00  0.00000000000E+00  0.44681632305E+03  0.19569764370E+04  0.19052852669E+04 0.  0.
        5    1    3    3  502    0  0.33632479901E+03 -0.73345207321E+03 -0.29672928148E+03  0.85973058024E+03  0.46999998093E+01 0.  1.
       -5    1    3    3    0  502 -0.33632479901E+03  0.73345207321E+03  0.74354560453E+03  0.10972458567E+04  0.46999998093E+01 0. -1.
</event>
<event>
 5   0  0.1471485E-05  0.1897871E+04  0.7818609E-02  0.8655917E-01
        1   -1    0    0  501    0  0.00000000000E+00  0.00000000000E+00  0.80729745918E+03  0.80729745920E+03  0.50400001928E-02 0.  1.
       -1   -1    0    0    0  501  0.00000000000E+00  0.00000000000E+00 -0.11154239060E+04  0.11154239060E+04  0.50400001928E-02 0. -1.
    10030    2    1    2    0    0  0.00000000000E+00  0.00000000000E+00 -0.30812644682E+03  0.19227213652E+04  0.18978713184E+04 0.  0.
        4    1    3    3  502    0 -0.27645821925E+03 -0.15400717168E+03  0.75226210116E+03  0.81611717152E+03  0.12699999809E+01 0.  1.
       -4    1    3    3    0  502  0.27645821925E+03  0.15400717168E+03 -0.10603885480E+04  0.11066041937E+04  0.12699999809E+01 0. -1.
</event>
<event>
 5   0  0.1327254E-05  0.1897239E+04  0.7818609E-02  0.8656232E-01
       -1   -1    0    0    0  501  0.00000000000E+00  0.00000000000E+00  0.93838948329E+03  0.93838948330E+03  0.50400001928E-02 0.  1.
        1   -1    0    0  501    0  0.00000000000E+00  0.00000000000E+00 -0.95896146790E+03  0.95896146792E+03  0.50400001928E-02 0. -1.
    10030    2    1    2    0    0  0.00000000000E+00  0.00000000000E+00 -0.20571984616E+02  0.18973509512E+04  0.18972394223E+04 0.  0.
        5    1    3    3  502    0  0.33788175296E+03 -0.28319930623E+03 -0.85027068692E+03  0.95778299059E+03  0.46999998093E+01 0. -1.
       -5    1    3    3    0  502 -0.33788175296E+03  0.28319930623E+03  0.82969870230E+03  0.93956796062E+03  0.46999998093E+01 0.  1.
</event>
<event>
 5   0  0.2813537E-05  0.1903270E+04  0.7818609E-02  0.8653230E-01
       -2   -1    0    0    0  501  0.00000000000E+00  0.00000000000E+00  0.73135809505E+03  0.73135809506E+03  0.25500000920E-02 0. -1.
        2   -1    0    0  501    0  0.00000000000E+00  0.00000000000E+00 -0.12382572692E+04  0.12382572692E+04  0.25500000920E-02 0.  1.
    10030    2    1    2    0    0  0.00000000000E+00  0.00000000000E+00 -0.50689917414E+03  0.19696153642E+04  0.19032703198E+04 0.  0.
        2    1    3    3  502    0  0.63828001056E+03  0.14269764396E+03 -0.96880965387E+03  0.11689123726E+04  0.25500000920E-02 0.  1.
       -2    1    3    3    0  502 -0.63828001056E+03 -0.14269764396E+03  0.46191047974E+03  0.80070299161E+03  0.25500000920E-02 0. -1.
</event>
<event>
 5   0  0.1344119E-05  0.1892928E+04  0.7818609E-02  0.8658385E-01
        1   -1    0    0  501    0  0.00000000000E+00  0.00000000000E+00  0.19630181232E+04  0.19630181232E+04  0.50400001928E-02 0. -1.
       -1   -1    0    0    0  501  0.00000000000E+00  0.00000000000E+00 -0.45633516653E+03  0.45633516656E+03  0.50400001928E-02 0.  1.
    10030    2    1    2    0    0  0.00000000000E+00  0.00000000000E+00  0.15066829567E+04  0.24193532898E+04  0.18929281045E+04 0.  0.
        2    1    3    3  502    0  0.24374639533E+03  0.91430151812E+03  0.77998707706E+03  0.12262705296E+04  0.25500000920E-02 0.  1.
       -2    1    3    3    0  502 -0.24374639533E+03 -0.91430151812E+03  0.72669587961E+03  0.11930827602E+04  0.25500000920E-02 0. -1.
</event>
<event>
 5   0  0.2789718E-05  0.1901807E+04  0.7818609E-02  0.8653958E-01
        2   -1    0    0  501    0  0.00000000000E+00  0.00000000000E+00  0.22493732627E+04  0.22493732627E+04  0.25500000920E-02 0. -1.
       -2   -1    0    0    0  501  0.00000000000E+00  0.00000000000E+00 -0.40198627923E+03  0.40198627924E+03  0.25500000920E-02 0.  1.
    10030    2    1    2    0    0  0.00000000000E+00  0.00000000000E+00  0.18473869835E+04  0.26513595420E+04  0.19018067078E+04 0.  0.
        5    1    3    3  502    0  0.85797257311E+03  0.39779240097E+03  0.78540505969E+03  0.12293245821E+04  0.46999998093E+01 0.  1.
       -5    1    3    3    0  502 -0.85797257311E+03 -0.39779240097E+03  0.10619819238E+04  0.14220349598E+04  0.46999998093E+01 0. -1.
</event>
<event>
 5   0  0.1413011E-05  0.1895193E+04  0.7818609E-02  0.8657253E-01
       -1   -1    0    0    0  501  0.00000000000E+00  0.00000000000E+00  0.12558267108E+04  0.12558267108E+04  0.50400001928E-02 0.  1.
        1   -1    0    0  501    0  0.00000000000E+00  0.00000000000E+00 -0.71501797070E+03  0.71501797071E+03  0.50400001928E-02 0. -1.
    10030    2    1    2    0    0  0.00000000000E+00  0.00000000000E+00  0.54080874014E+03  0.19708446816E+04  0.18951925141E+04 0.  0.
        1    1    3    3  502    0  0.87202345730E+03  0.41792815503E+02 -0.11276992324E+03  0.88027757277E+03  0.50400001928E-02 0.  1.
       -1    1    3    3    0  502 -0.87202345730E+03 -0.41792815503E+02  0.65357866338E+03  0.10905671088E+04  0.50400001928E-02 0. -1.
</event>
<event>
 5   0  0.2888776E-05  0.1897088E+04  0.7818609E-02  0.8656307E-01
       -2   -1    0    0    0  501  0.00000000000E+00  0.00000000000E+00  0.80971118228E+03  0.80971118229E+03  0.25500000920E-02 0.  1.
        2   -1    0    0  501    0  0.00000000000E+00  0.00000000000E+00 -0.11111812636E+04  0.11111812636E+04  0.25500000920E-02 0. -1.
    10030    2    1    2    0    0  0.00000000000E+00  0.00000000000E+00 -0.30147008130E+03  0.19208924459E+04  0.18970881842E+04 0.  0.
        3    1    3    3  502    0 -0.39925435081E+03 -0.48573807779E+02  0.71909739659E+03  0.82393235610E+03  0.10100000352E+00 0.  1.
       -3    1    3    3    0  502  0.39925435081E+03  0.48573807779E+02 -0.10205674779E+04  0.10969600898E+04  0.10100000352E+00 0. -1.
</event>
<event>
 5   0  0.2789718E-05  0.1899151E+04  0.7818609E-02  0.8655279E-01
       -2   -1    0    0    0  501  0.00000000000E+00  0.00000000000E+00  0.30891323421E+03  0.30891323422E+03  0.25500000920E-02 0. -1.
        2   -1    0    0  501    0  0.00000000000E+00  0.00000000000E+00 -0.29189227278E+04  0.29189227278E+04  0.25500000920E-02 0.  1.
    10030    2    1    2    0    0  0.00000000000E+00  0.00000000000E+00 -0.26100094936E+04  0.32278359620E+04  0.18991512423E+04 0.  0.
        5    1    3    3  502    0 -0.38659778628E+03 -0.20460029936E+03 -0.27374858551E+04  0.27722139217E+04  0.46999998093E+01 0.  1.
       -5    1    3    3    0  502  0.38659778628E+03  0.20460029936E+03  0.12747636154E+03  0.45562204029E+03  0.46999998093E+01 0. -1.
</event>
<event>
 5   0  0.1413011E-05  0.1900372E+04  0.7818609E-02  0.8654671E-01
       -1   -1    0    0    0  501  0.00000000000E+00  0.00000000000E+00  0.18380556159E+04  0.18380556159E+04  0.50400001928E-02 0.  1.
        1   -1    0    0  501    0  0.00000000000E+00  0.00000000000E+00 -0.49120051659E+03  0.49120051662E+03  0.50400001928E-02 0. -1.
    10030    2    1    2    0    0  0.00000000000E+00  0.00000000000E+00  0.13468550993E+04  0.23292561325E+04  0.19003724562E+04 0.  0.
        1    1    3    3  502    0 -0.27102858636E+03  0.31191849254E+03  0.17221606553E+04  0.17710412088E+04  0.50400001928E-02 0.  1.
       -1    1    3    3    0  502  0.27102858636E+03 -0.31191849254E+03 -0.37530555602E+03  0.55821492368E+03  0.50400001928E-02 0. -1.
</event>
<event>
 5   0  0.2813537E-05  0.1888383E+04  0.7818609E-02  0.8660661E-01
       -2   -1    0    0    0  501  0.00000000000E+00  0.00000000000E+00  0.55363344973E+03  0.55363344974E+03  0.25500000920E-02 0. -1.
        2   -1    0    0  501    0  0.00000000000E+00  0.00000000000E+00 -0.16102668890E+04  0.16102668890E+04  0.25500000920E-02 0.  1.
    10030    2    1    2    0    0  0.00000000000E+00  0.00000000000E+00 -0.10566334393E+04  0.21639003387E+04  0.18883830255E+04 0.  0.
        2    1    3    3  502    0 -0.68067604816E+03 -0.41671520079E+03  0.49797151133E+02  0.79965692480E+03  0.25500000920E-02 0. -1.
       -2    1    3    3    0  502  0.68067604816E+03  0.41671520079E+03 -0.11064305904E+04  0.13642434139E+04  0.25500000920E-02 0.  1.
</event>
<event>
 5   0  0.2789718E-05  0.1895735E+04  0.7818609E-02  0.8656982E-01
       -2   -1    0    0    0  501  0.00000000000E+00  0.00000000000E+00  0.59842084500E+03  0.59842084501E+03  0.25500000920E-02 0.  1.
        2   -1    0    0  501    0  0.00000000000E+00  0.00000000000E+00 -0.15013729955E+04  0.15013729955E+04  0.25500000920E-02 0. -1.
    10030    2    1    2    0    0  0.00000000000E+00  0.00000000000E+00 -0.90295215050E+03  0.20997938405E+04  0.18957351045E+04 0.  0.
        5    1    3    3  502    0 -0.48010689731E+03 -0.81023323921E+03 -0.33295191024E+03  0.99892922638E+03  0.46999998093E+01 0.  1.
       -5    1    3    3    0  502  0.48010689731E+03  0.81023323921E+03 -0.57000024026E+03  0.11008646141E+04  0.46999998093E+01 0. -1.
</event>
<event>
 5   0  0.1344119E-05  0.1911323E+04  0.7818609E-02  0.8649241E-01
       -1   -1    0    0    0  501  0.00000000000E+00  0.00000000000E+00  0.68018406162E+03  0.68018406164E+03  0.50400001928E-02 0.  1.
        1   -1    0    0  501    0  0.00000000000E+00  0.00000000000E+00 -0.13427080816E+04  0.13427080816E+04  0.50400001928E-02 0. -1.
    10030    2    1    2    0    0  0.00000000000E+00  0.00000000000E+00 -0.66252401995E+03  0.20228921432E+04  0.19113227216E+04 0.  0.
        2    1    3    3  502    0 -0.32511560457E+03  0.19170691972E+03 -0.12604850370E+04  0.13157789434E+04  0.25500000920E-02 0. -1.
       -2    1    3    3    0  502  0.32511560457E+03 -0.19170691972E+03  0.59796101706E+03  0.70711319980E+03  0.25500000920E-02 0.  1.
</event>
<event>
 5   0  0.2789718E-05  0.1899536E+04  0.7818609E-02  0.8655087E-01
       -2   -1    0    0    0  501  0.00000000000E+00  0.00000000000E+00  0.85789564502E+03  0.85789564502E+03  0.25500000920E-02 0.  1.
        2   -1    0    0  501    0  0.00000000000E+00  0.00000000000E+00 -0.10514790897E+04  0.10514790897E+04  0.25500000920E-02 0. -1.
    10030    2    1    2    0    0  0.00000000000E+00  0.00000000000E+00 -0.19358344471E+03  0.19093747348E+04  0.18995360822E+04 0.  0.
        5    1    3    3  502    0  0.55884245179E+03 -0.24122738174E+03  0.63605356121E+03  0.88038727748E+03  0.46999998093E+01 0.  1.
       -5    1    3    3    0  502 -0.55884245179E+03  0.24122738174E+03 -0.82963700592E+03  0.10289874573E+04  0.46999998093E+01 0. -1.
</event>
<event>
 5   0  0.1471485E-05  0.1900363E+04  0.7818609E-02  0.8654676E-01
       -1   -1    0    0    0  501  0.00000000000E+00  0.00000000000E+00  0.50512635322E+03  0.50512635324E+03  0.50400001928E-02 0.  1.
        1   -1    0    0  501    0  0.00000000000E+00  0.00000000000E+00 -0.17873649363E+04  0.17873649364E+04  0.50400001928E-02 0. -1.
    10030    2    1    2    0    0  0.00000000000E+00  0.00000000000E+00 -0.12822385831E+04  0.22924912896E+04  0.19003632623E+04 0.  0.
        4    1    3    3  502    0 -0.67924599926E+03  0.42880954299E+03 -0.28858829647E+02  0.80379549427E+03  0.12699999809E+01 0.  1.
       -4    1    3    3    0  502  0.67924599926E+03 -0.42880954299E+03 -0.12533797535E+04  0.14886957953E+04  0.12699999809E+01 0. -1.
</event>
<event>
 5   0  0.1327254E-05  0.1899578E+04  0.7818609E-02  0.8655066E-01
       -1   -1    0    0    0  501  0.00000000000E+00  0.00000000000E+00  0.91183456815E+03  0.91183456817E+03  0.50400001928E-02 0. -1.
        1   -1    0    0  501    0  0.00000000000E+00  0.00000000000E+00 -0.98932347390E+03  0.98932347392E+03  0.50400001928E-02 0.  1.
    10030    2    1    2    0    0  0.00000000000E+00  0.00000000000E+00 -0.77488905751E+02  0.19011580421E+04  0.18995782086E+04 0.  0.
        5    1    3    3  502    0  0.93397664930E+03 -0.16761964433E+03  0.21371141192E+01  0.94891273774E+03  0.46999998093E+01 0.  1.
       -5    1    3    3    0  502 -0.93397664930E+03  0.16761964433E+03 -0.79626019870E+02  0.95224530434E+03  0.46999998093E+01 0. -1.
</event>
<event>
 5   0  0.1327254E-05  0.1898941E+04  0.7818609E-02  0.8655384E-01
       -1   -1    0    0    0  501  0.00000000000E+00  0.00000000000E+00  0.11108208773E+04  0.11108208773E+04  0.50400001928E-02 0. -1.
        1   -1    0    0  501    0  0.00000000000E+00  0.00000000000E+00 -0.81155680466E+03  0.81155680467E+03  0.50400001928E-02 0.  1.
    10030    2    1    2    0    0  0.00000000000E+00  0.00000000000E+00  0.29926407268E+03  0.19223776820E+04  0.18989410120E+04 0.  0.
        5    1    3    3  502    0 -0.42815303990E+03 -0.33344133495E+02 -0.70760423161E+03  0.82773950939E+03  0.46999998093E+01 0.  1.
       -5    1    3    3    0  502  0.42815303990E+03  0.33344133495E+02  0.10068683043E+04  0.10946381726E+04  0.46999998093E+01 0. -1.
</event>
<event>
 5   0  0.1010725E-05  0.1904650E+04  0.7818609E-02  0.8652545E-01
        3   -1    0    0  501    0  0.00000000000E+00  0.00000000000E+00  0.96220113416E+03  0.96220113946E+03  0.10100000352E+00 0.  1.
       -3   -1    0    0    0  501  0.00000000000E+00  0.00000000000E+00 -0.94255032538E+03  0.94255033079E+03  0.10100000352E+00 0. -1.
    10030    2    1    2    0    0  0.00000000000E+00  0.00000000000E+00  0.19650808777E+02  0.19047514703E+04  0.19046501015E+04 0.  0.
        5    1    3    3  502    0 -0.20601993288E+03 -0.44539927223E+03 -0.80635293959E+03  0.94395544260E+03  0.46999998093E+01 0. -1.
       -5    1    3    3    0  502  0.20601993288E+03  0.44539927223E+03  0.82600374836E+03  0.96079602765E+03  0.46999998093E+01 0.  1.
</event>
<event>
 5   0  0.2888776E-05  0.1902261E+04  0.7818609E-02  0.8653732E-01
        2   -1    0    0  501    0  0.00000000000E+00  0.00000000000E+00  0.94522315997E+03  0.94522315997E+03  0.25500000920E-02 0.  1.
       -2   -1    0    0    0  501  0.00000000000E+00  0.00000000000E+00 -0.95707454340E+03  0.95707454341E+03  0.25500000920E-02 0. -1.
    10030    2    1    2    0    0  0.00000000000E+00  0.00000000000E+00 -0.11851383435E+02  0.19022977034E+04  0.19022607857E+04 0.  0.
        3    1    3    3  502    0  0.14104661484E+03  0.60564421624E+03  0.71377567272E+03  0.94666508618E+03  0.10100000352E+00 0.  1.
       -3    1    3    3    0  502 -0.14104661484E+03 -0.60564421624E+03 -0.72562705616E+03  0.95563261720E+03  0.10100000352E+00 0. -1.
</event>
<event>
 5   0  0.1327254E-05  0.1887561E+04  0.7818609E-02  0.8661073E-01
        1   -1    0    0  501    0  0.00000000000E+00  0.00000000000E+00  0.20167779701E+04  0.20167779701E+04  0.50400001928E-02 0. -1.
       -1   -1    0    0    0  501  0.00000000000E+00  0.00000000000E+00 -0.44165570155E+03  0.44165570158E+03  0.50400001928E-02 0.  1.
    10030    2    1    2    0    0  0.00000000000E+00  0.00000000000E+00  0.15751222686E+04  0.24584336717E+04  0.18875608486E+04 0.  0.
        5    1    3    3  502    0 -0.67012687672E+03 -0.46638003733E+03  0.14041517365E+04  0.16242673915E+04  0.46999998093E+01 0. -1.
       -5    1    3    3    0  502  0.67012687672E+03  0.46638003733E+03  0.17097053208E+03  0.83416628016E+03  0.46999998093E+01 0.  1.
</event>
<event>
 5   0  0.1327254E-05  0.1903117E+04  0.7818609E-02  0.8653307E-01
       -1   -1    0    0    0  501  0.00000000000E+00  0.00000000000E+00  0.68527210715E+03  0.68527210717E+03  0.50400001928E-02 0.  1.
        1   -1    0    0  501    0  0.00000000000E+00  0.00000000000E+00 -0.13213193857E+04  0.13213193857E+04  0.50400001928E-02 0. -1.
    10030    2    1    2    0    0  0.00000000000E+00  0.00000000000E+00 -0.63604727856E+03  0.20065914929E+04  0.19031167276E+04 0.  0.
        5    1    3    3  502    0 -0.48325676974E+03  0.81616469543E+03 -0.23786844136E+03  0.97788823541E+03  0.46999998093E+01 0.  1.
       -5    1    3    3    0  502  0.48325676974E+03 -0.81616469543E+03 -0.39817883720E+03  0.10287032575E+04  0.46999998093E+01 0. -1.
</event>
<event>
 5   0  0.2888776E-05  0.1902186E+04  0.7818609E-02  0.8653769E-01
        2   -1    0    0  501    0  0.00000000000E+00  0.00000000000E+00  0.16075135201E+04  0.16075135202E+04  0.25500000920E-02 0. -1.
       -2   -1    0    0    0  501  0.00000000000E+00  0.00000000000E+00 -0.56271887090E+03  0.56271887091E+03  0.25500000920E-02 0.  1.
    10030    2    1    2    0    0  0.00000000000E+00  0.00000000000E+00  0.10447946492E+04  0.21702323911E+04  0.19021863137E+04 0.  0.
        3    1    3    3  502    0  0.78392703778E+02  0.92979606979E+03  0.31229535822E+03  0.98396877408E+03  0.10100000352E+00 0. -1.
       -3    1    3    3    0  502 -0.78392703778E+02 -0.92979606979E+03  0.73249929103E+03  0.11862636170E+04  0.10100000352E+00 0.  1.
</event>
<event>
 5   0  0.2855141E-05  0.1900478E+04  0.7818609E-02  0.8654618E-01
        2   -1    0    0  501    0  0.00000000000E+00  0.00000000000E+00  0.20848720696E+04  0.20848720696E+04  0.25500000920E-02 0. -1.
       -2   -1    0    0    0  501  0.00000000000E+00  0.00000000000E+00 -0.43309815120E+03  0.43309815121E+03  0.25500000920E-02 0.  1.
    10030    2    1    2    0    0  0.00000000000E+00  0.00000000000E+00  0.16517739184E+04  0.25179702208E+04  0.19004780860E+04 0.  0.
        1    1    3    3  502    0 -0.51699879293E+03 -0.28999804674E+03  0.18098688476E+04  0.19044715447E+04  0.50400001928E-02 0. -1.
       -1    1    3    3    0  502  0.51699879293E+03  0.28999804674E+03 -0.15809492915E+03  0.61349867616E+03  0.50400001928E-02 0.  1.
</event>
<event>
 5   0  0.2879462E-05  0.1892546E+04  0.7818609E-02  0.8658576E-01
       -2   -1    0    0    0  501  0.00000000000E+00  0.00000000000E+00  0.43192338748E+03  0.43192338749E+03  0.25500000920E-02 0. -1.
        2   -1    0    0  501    0  0.00000000000E+00  0.00000000000E+00 -0.20731283810E+04  0.20731283810E+04  0.25500000920E-02 0.  1.
    10030    2    1    2    0    0  0.00000000000E+00  0.00000000000E+00 -0.16412049935E+04  0.25050517685E+04  0.18925460449E+04 0.  0.
        4    1    3    3  502    0  0.41907062110E+03 -0.67000894891E+03 -0.13167451294E+03  0.80116912530E+03  0.12699999809E+01 0. -1.
       -4    1    3    3    0  502 -0.41907062110E+03  0.67000894891E+03 -0.15095304805E+04  0.17038826432E+04  0.12699999809E+01 0.  1.
</event>
<event>
 5   0  0.1344119E-05  0.1896136E+04  0.7818609E-02  0.8656782E-01
       -1   -1    0    0    0  501  0.00000000000E+00  0.00000000000E+00  0.54314939233E+03  0.54314939235E+03  0.50400001928E-02 0. -1.
        1   -1    0    0  501    0  0.00000000000E+00  0.00000000000E+00 -0.16548534827E+04  0.16548534827E+04  0.50400001928E-02 0.  1.
    10030    2    1    2    0    0  0.00000000000E+00  0.00000000000E+00 -0.11117040904E+04  0.21980028750E+04  0.18961357162E+04 0.  0.
        2    1    3    3  502    0 -0.90084307568E+03  0.22833714907E+03 -0.33843903029E+03  0.98903846127E+03  0.25500000920E-02 0.  1.
       -2    1    3    3    0  502  0.90084307568E+03 -0.22833714907E+03 -0.77326506007E+03  0.12089644138E+04  0.25500000920E-02 0. -1.
</event>
<event>
 5   0  0.1010725E-05  0.1900605E+04  0.7818609E-02  0.8654556E-01
        4   -1    0    0  501    0  0.00000000000E+00  0.00000000000E+00  0.10218370855E+04  0.10218378747E+04  0.12699999809E+01 0. -1.
       -4   -1    0    0    0  501  0.00000000000E+00  0.00000000000E+00 -0.88377374556E+03  0.88377465807E+03  0.12699999809E+01 0.  1.
    10030    2    1    2    0    0  0.00000000000E+00  0.00000000000E+00  0.13806333997E+03  0.19056125328E+04  0.19006045458E+04 0.  0.
        2    1    3    3  502    0 -0.34705324983E+03  0.64326620433E+03 -0.53988813828E+03  0.90868947926E+03  0.25500000920E-02 0. -1.
       -2    1    3    3    0  502  0.34705324983E+03 -0.64326620433E+03  0.67795147825E+03  0.99692305356E+03  0.25500000920E-02 0.  1.
</event>
<event>
 5   0  0.1471485E-05  0.1906192E+04  0.7818609E-02  0.8651780E-01
       -1   -1    0    0    0  501  0.00000000000E+00  0.00000000000E+00  0.48643557066E+03  0.48643557069E+03  0.50400001928E-02 0.  1.
        1   -1    0    0  501    0  0.00000000000E+00  0.00000000000E+00 -0.18674458787E+04  0.18674458787E+04  0.50400001928E-02 0. -1.
    10030    2    1    2    0    0  0.00000000000E+00  0.00000000000E+00 -0.13810103081E+04  0.23538814494E+04  0.19061921223E+04 0.  0.
        4    1    3    3  502    0 -0.37883373617E+03 -0.83418139427E+03 -0.36609412493E+03  0.98661041927E+03  0.12699999809E+01 0.  1.
       -4    1    3    3    0  502  0.37883373617E+03  0.83418139427E+03 -0.10149161832E+04  0.13672710302E+04  0.12699999809E+01 0. -1.
</event>
<event>
 5   0  0.2855141E-05  0.1899678E+04  0.7818609E-02  0.8655017E-01
       -2   -1    0    0    0  501  0.00000000000E+00  0.00000000000E+00  0.74267377724E+03  0.74267377725E+03  0.25500000920E-02 0. -1.
        2   -1    0    0  501    0  0.00000000000E+00  0.00000000000E+00 -0.12147920733E+04  0.12147920733E+04  0.25500000920E-02 0.  1.
    10030    2    1    2    0    0  0.00000000000E+00  0.00000000000E+00 -0.47211829604E+03  0.19574658505E+04  0.18996780966E+04 0.  0.
        1    1    3    3  502    0  0.28944016946E+02 -0.31943648800E+03  0.68518267728E+03  0.75653997069E+03  0.50400001928E-02 0. -1.
       -1    1    3    3    0  502 -0.28944016946E+02  0.31943648800E+03 -0.11573009733E+04  0.12009258798E+04  0.50400001928E-02 0.  1.
</event>
<event>
 5   0  0.1010725E-05  0.1901671E+04  0.7818609E-02  0.8654025E-01
        4   -1    0    0  501    0  0.00000000000E+00  0.00000000000E+00  0.62313222394E+03  0.62313351813E+03  0.12699999809E+01 0. -1.
       -4   -1    0    0    0  501  0.00000000000E+00  0.00000000000E+00 -0.14508744956E+04  0.14508750514E+04  0.12699999809E+01 0.  1.
    10030    2    1    2    0    0  0.00000000000E+00  0.00000000000E+00 -0.82774227161E+03  0.20740085695E+04  0.19016714433E+04 0.  0.
        4    1    3    3  502    0  0.10706688009E+03 -0.49787074343E+03 -0.12896010510E+04  0.13865103958E+04  0.12699999809E+01 0.  1.
       -4    1    3    3    0  502 -0.10706688009E+03  0.49787074343E+03  0.46185877935E+03  0.68749817377E+03  0.12699999809E+01 0. -1.
</event>
<event>
 5   0  0.2813537E-05  0.1900188E+04  0.7818609E-02  0.8654763E-01
       -2   -1    0    0    0  501  0.00000000000E+00  0.00000000000E+00  0.38391776734E+03  0.38391776735E+03  0.25500000920E-02 0.  1.
        2   -1    0    0  501    0  0.00000000000E+00  0.00000000000E+00 -0.23512300416E+04  0.23512300416E+04  0.25500000920E-02 0. -1.
    10030    2    1    2    0    0  0.00000000000E+00  0.00000000000E+00 -0.19673122742E+04  0.27351478089E+04  0.19001883992E+04 0.  0.
        2    1    3    3  502    0 -0.21056729848E+03  0.89773438320E+03 -0.13131939190E+04  0.16046008472E+04  0.25500000920E-02 0. -1.
       -2    1    3    3    0  502  0.21056729848E+03 -0.89773438320E+03 -0.65411835524E+03  0.11305469617E+04  0.25500000920E-02 0.  1.
</event>
<event>
 5   0  0.1413011E-05  0.1932270E+04  0.7818609E-02  0.8638958E-01
        1   -1    0    0  501    0  0.00000000000E+00  0.00000000000E+00  0.14647134534E+04  0.14647134534E+04  0.50400001928E-02 0. -1.
       -1   -1    0    0    0  501  0.00000000000E+00  0.00000000000E+00 -0.63726946099E+03  0.63726946101E+03  0.50400001928E-02 0.  1.
    10030    2    1    2    0    0  0.00000000000E+00  0.00000000000E+00  0.82744399242E+03  0.21019829144E+04  0.19322703258E+04 0.  0.
        1    1    3    3  502    0  0.93106569945E+03  0.24503895237E+03  0.32608761030E+03  0.10164942471E+04  0.50400001928E-02 0. -1.
       -1    1    3    3    0  502 -0.93106569945E+03 -0.24503895237E+03  0.50135638212E+03  0.10854886673E+04  0.50400001928E-02 0.  1.
</event>
<event>
 5   0  0.1471485E-05  0.1911679E+04  0.7818609E-02  0.8649065E-01
       -1   -1    0    0    0  501  0.00000000000E+00  0.00000000000E+00  0.99234407738E+03  0.99234407739E+03  0.50400001928E-02 0.  1.
        1   -1    0    0  501    0  0.00000000000E+00  0.00000000000E+00 -0.92067750605E+03  0.92067750606E+03  0.50400001928E-02 0. -1.
    10030    2    1    2    0    0  0.00000000000E+00  0.00000000000E+00  0.71666571330E+02  0.19130215835E+04  0.19116787077E+04 0.  0.
        4    1    3    3  502    0  0.70216868552E+03 -0.44455370618E+03  0.50834968228E+03  0.97421243730E+03  0.12699999809E+01 0.  1.
       -4    1    3    3    0  502 -0.70216868552E+03  0.44455370618E+03 -0.43668311095E+03  0.93880914615E+03  0.12699999809E+01 0. -1.
</event>
<event>
 5   0  0.2813537E-05  0.1902751E+04  0.7818609E-02  0.8653488E-01
        2   -1    0    0  501    0  0.00000000000E+00  0.00000000000E+00  0.27446359005E+04  0.27446359005E+04  0.25500000920E-02 0.  1.
       -2   -1    0    0    0  501  0.00000000000E+00  0.00000000000E+00 -0.32977609278E+03  0.32977609279E+03  0.25500000920E-02 0. -1.
    10030    2    1    2    0    0  0.00000000000E+00  0.00000000000E+00  0.24148598077E+04  0.30744119933E+04  0.19027509594E+04 0.  0.
        2    1    3    3  502    0  0.55777373991E+03  0.56063232870E+03  0.20619505972E+04  0.22084067602E+04  0.25500000920E-02 0.  1.
       -2    1    3    3    0  502 -0.55777373991E+03 -0.56063232870E+03  0.35290921048E+03  0.86600523311E+03  0.25500000920E-02 0. -1.
</event>
<event>
 5   0  0.2789718E-05  0.1897975E+04  0.7818609E-02  0.8655865E-01
        2   -1    0    0  501    0  0.00000000000E+00  0.00000000000E+00  0.59705619853E+03  0.59705619853E+03  0.25500000920E-02 0. -1.
       -2   -1    0    0    0  501  0.00000000000E+00  0.00000000000E+00 -0.15083623978E+04  0.15083623978E+04  0.25500000920E-02 0.  1.
    10030    2    1    2    0    0  0.00000000000E+00  0.00000000000E+00 -0.91130619924E+03  0.21054185963E+04  0.18979748357E+04 0.  0.
        5    1    3    3  502    0 -0.91744445832E+03 -0.94494131806E+02 -0.20780131332E+03  0.94542950602E+03  0.46999998093E+01 0. -1.
       -5    1    3    3    0  502  0.91744445832E+03  0.94494131806E+02 -0.70350488592E+03  0.11599890903E+04  0.46999998093E+01 0.  1.
</event>
<event>
 5   0  0.1413011E-05  0.1903792E+04  0.7818609E-02  0.8652971E-01
       -1   -1    0    0    0  501  0.00000000000E+00  0.00000000000E+00  0.99940676700E+03  0.99940676701E+03  0.50400001928E-02 0. -1.
        1   -1    0    0  501    0  0.00000000000E+00  0.00000000000E+00 -0.90664369091E+03  0.90664369092E+03  0.50400001928E-02 0.  1.
    10030    2    1    2    0    0  0.00000000000E+00  0.00000000000E+00  0.92763076091E+02  0.19060504579E+04  0.19037918373E+04 0.  0.
        1    1    3    3  502    0  0.79114994325E+03 -0.15157420591E+03 -0.46138172745E+03  0.92831356290E+03  0.50400001928E-02 0.  1.
       -1    1    3    3    0  502 -0.79114994325E+03  0.15157420591E+03  0.55414480355E+03  0.97773689504E+03  0.50400001928E-02 0. -1.
</event>
<event>
 5   0  0.1344119E-05  0.1894543E+04  0.7818609E-02  0.8657577E-01
       -1   -1    0    0    0  501  0.00000000000E+00  0.00000000000E+00  0.65841799277E+03  0.65841799279E+03  0.50400001928E-02 0.  1.
        1   -1    0    0  501    0  0.00000000000E+00  0.00000000000E+00 -0.13628474838E+04  0.13628474838E+04  0.50400001928E-02 0. -1.
    10030    2    1    2    0    0  0.00000000000E+00  0.00000000000E+00 -0.70442949102E+03  0.20212654766E+04  0.18945430106E+04 0.  0.
        2    1    3    3  502    0 -0.83904304557E+03  0.38595642646E+03 -0.12748922635E+03  0.93231384109E+03  0.25500000920E-02 0.  1.
       -2    1    3    3    0  502  0.83904304557E+03 -0.38595642646E+03 -0.57694026466E+03  0.10889516355E+04  0.25500000920E-02 0. -1.
</event>
<event>
 5   0  0.2879462E-05  0.1899064E+04  0.7818609E-02  0.8655323E-01
        2   -1    0    0  501    0  0.00000000000E+00  0.00000000000E+00  0.10842405738E+04  0.10842405738E+04  0.25500000920E-02 0. -1.
       -2   -1    0    0    0  501  0.00000000000E+00  0.00000000000E+00 -0.83155955700E+03  0.83155955700E+03  0.25500000920E-02 0.  1.
    10030    2    1    2    0    0  0.00000000000E+00  0.00000000000E+00  0.25268101677E+03  0.19158001308E+04  0.18990635705E+04 0.  0.
        4    1    3    3  502    0 -0.56532999226E+03  0.16036888487E+03 -0.62608311540E+03  0.85866050315E+03  0.12699999809E+01 0.  1.
       -4    1    3    3    0  502  0.56532999226E+03 -0.16036888487E+03  0.87876413217E+03  0.10571396276E+04  0.12699999809E+01 0. -1.
</event>
<event>
 5   0  0.1010725E-05  0.1904069E+04  0.7818609E-02  0.8652834E-01
        3   -1    0    0  501    0  0.00000000000E+00  0.00000000000E+00  0.18776070315E+04  0.18776070342E+04  0.10100000352E+00 0.  1.
       -3   -1    0    0    0  501  0.00000000000E+00  0.00000000000E+00 -0.48272604443E+03  0.48272605499E+03  0.10100000352E+00 0. -1.
    10030    2    1    2    0    0  0.00000000000E+00  0.00000000000E+00  0.13948809871E+04  0.23603330892E+04  0.19040691489E+04 0.  0.
        1    1    3    3  502    0  0.65832665583E+03  0.66517863320E+03  0.91397877097E+03  0.13081337063E+04  0.50400001928E-02 0.  1.
       -1    1    3    3    0  502 -0.65832665583E+03 -0.66517863320E+03  0.48090221610E+03  0.10521993829E+04  0.50400001928E-02 0. -1.
</event>
<event>
 5   0  0.2879462E-05  0.1901220E+04  0.7818609E-02  0.8654249E-01
       -2   -1    0    0    0  501  0.00000000000E+00  0.00000000000E+00  0.36633805659E+03  0.36633805660E+03  0.25500000920E-02 0. -1.
        2   -1    0    0  501    0  0.00000000000E+00  0.00000000000E+00 -0.24667360345E+04  0.24667360345E+04  0.25500000920E-02 0.  1.
    10030    2    1    2    0    0  0.00000000000E+00  0.00000000000E+00 -0.21003979779E+04  0.28330740911E+04  0.19012199084E+04 0.  0.
        4    1    3    3  502    0  0.15400360075E+03 -0.84059595999E+03 -0.42979623586E+03  0.95657989434E+03  0.12699999809E+01 0. -1.
       -4    1    3    3    0  502 -0.15400360075E+03  0.84059595999E+03 -0.16706017421E+04  0.18764941968E+04  0.12699999809E+01 0.  1.
</event>
<event>
 5   0  0.2879462E-05  0.1902281E+04  0.7818609E-02  0.8653722E-01
       -2   -1    0    0    0  501  0.00000000000E+00  0.00000000000E+00  0.12677978361E+04  0.12677978361E+04  0.25500000920E-02 0. -1.
        2   -1    0    0  501    0  0.00000000000E+00  0.00000000000E+00 -0.71357463945E+03  0.71357463945E+03  0.25500000920E-02 0.  1.
    10030    2    1    2    0    0  0.00000000000E+00  0.00000000000E+00  0.55422319665E+03  0.19813724756E+04  0.19022811399E+04 0.  0.
        4    1    3    3  502    0  0.47138869060E+03  0.55789449503E+03 -0.35749287967E+03  0.81317669490E+03  0.12699999809E+01 0.  1.
       -4    1    3    3    0  502 -0.47138869060E+03 -0.55789449503E+03  0.91171607633E+03  0.11681957807E+04  0.12699999809E+01 0. -1.
</event>
<event>
 5   0  0.2789718E-05  0.1898538E+04  0.7818609E-02  0.8655584E-01
        2   -1    0    0  501    0  0.00000000000E+00  0.00000000000E+00  0.17412681259E+04  0.17412681259E+04  0.25500000920E-02 0. -1.
       -2   -1    0    0    0  501  0.00000000000E+00  0.00000000000E+00 -0.51750332975E+03  0.51750332975E+03  0.25500000920E-02 0.  1.
    10030    2    1    2    0    0  0.00000000000E+00  0.00000000000E+00  0.12237647961E+04  0.22587714556E+04  0.18985384412E+04 0.  0.
        5    1    3    3  502    0 -0.60421510594E+03 -0.43826021640E+03  0.13096254726E+04  0.15074113174E+04  0.46999998093E+01 0. -1.
       -5    1    3    3    0  502  0.60421510594E+03  0.43826021640E+03 -0.85860676432E+02  0.75136013820E+03  0.46999998093E+01 0.  1.
</event>
<event>
 5   0  0.1344119E-05  0.1897970E+04  0.7818609E-02  0.8655868E-01
        1   -1    0    0  501    0  0.00000000000E+00  0.00000000000E+00  0.11273995287E+04  0.11273995287E+04  0.50400001928E-02 0.  1.
       -1   -1    0    0    0  501  0.00000000000E+00  0.00000000000E+00 -0.79880478689E+03  0.79880478691E+03  0.50400001928E-02 0. -1.
    10030    2    1    2    0    0  0.00000000000E+00  0.00000000000E+00  0.32859474181E+03  0.19262043156E+04  0.18979695891E+04 0.  0.
        2    1    3    3  502    0  0.25268254634E+03 -0.47678122741E+03  0.95655332976E+03  0.10982545610E+04  0.25500000920E-02 0.  1.
       -2    1    3    3    0  502 -0.25268254634E+03  0.47678122741E+03 -0.62795858794E+03  0.82794975464E+03  0.25500000920E-02 0. -1.
</event>
<event>
 5   0  0.1413011E-05  0.1901431E+04  0.7818609E-02  0.8654145E-01
       -1   -1    0    0    0  501  0.00000000000E+00  0.00000000000E+00  0.20303843494E+04  0.20303843494E+04  0.50400001928E-02 0.  1.
        1   -1    0    0  501    0  0.00000000000E+00  0.00000000000E+00 -0.44516679441E+03  0.44516679444E+03  0.50400001928E-02 0. -1.
    10030    2    1    2    0    0  0.00000000000E+00  0.00000000000E+00  0.15852175550E+04  0.24755511438E+04  0.19014307164E+04 0.  0.
        1    1    3    3  502    0  0.39976683203E+03 -0.41852186764E+03 -0.18937400954E+03  0.60896353684E+03  0.50400001928E-02 0. -1.
       -1    1    3    3    0  502 -0.39976683203E+03  0.41852186764E+03  0.17745915645E+04  0.18665876070E+04  0.50400001928E-02 0.  1.
</event>
<event>
 5   0  0.1010725E-05  0.1897120E+04  0.7818609E-02  0.8656291E-01
       -3   -1    0    0    0  501  0.00000000000E+00  0.00000000000E+00  0.81818125700E+03  0.81818126323E+03  0.10100000352E+00 0.  1.
        3   -1    0    0  501    0  0.00000000000E+00  0.00000000000E+00 -0.10997153092E+04  0.10997153138E+04  0.10100000352E+00 0. -1.
    10030    2    1    2    0    0  0.00000000000E+00  0.00000000000E+00 -0.28153405215E+03  0.19178965770E+04  0.18971204120E+04 0.  0.
        2    1    3    3  502    0  0.19560166067E+03 -0.90120451282E+03  0.83784562442E+02  0.92598565675E+03  0.25500000920E-02 0.  1.
       -2    1    3    3    0  502 -0.19560166067E+03  0.90120451282E+03 -0.36531861460E+03  0.99191092028E+03  0.25500000920E-02 0. -1.
</event>
<event>
 5   0  0.2855141E-05  0.1900485E+04  0.7818609E-02  0.8654615E-01
        2   -1    0    0  501    0  0.00000000000E+00  0.00000000000E+00  0.92960514394E+03  0.92960514394E+03  0.25500000920E-02 0.  1.
       -2   -1    0    0    0  501  0.00000000000E+00  0.00000000000E+00 -0.97133815895E+03  0.97133815896E+03  0.25500000920E-02 0. -1.
    10030    2    1    2    0    0  0.00000000000E+00  0.00000000000E+00 -0.41733015018E+02  0.19009433029E+04  0.19004851476E+04 0.  0.
        1    1    3    3  502    0  0.10753735899E+03  0.80192160247E+03  0.47756919448E+03  0.93952907120E+03  0.50400001928E-02 0.  1.
       -1    1    3    3    0  502 -0.10753735899E+03 -0.80192160247E+03 -0.51930220950E+03  0.96141423170E+03  0.50400001928E-02 0. -1.
</event>
<event>
 5   0  0.1010725E-05  0.1903286E+04  0.7818609E-02  0.8653222E-01
        4   -1    0    0  501    0  0.00000000000E+00  0.00000000000E+00  0.12521298077E+04  0.12521304518E+04  0.12699999809E+01 0. -1.
       -4   -1    0    0    0  501  0.00000000000E+00  0.00000000000E+00 -0.72326580244E+03  0.72326691745E+03  0.12699999809E+01 0.  1.
    10030    2    1    2    0    0  0.00000000000E+00  0.00000000000E+00  0.52886400531E+03  0.19753973693E+04  0.19032860086E+04 0.  0.
        2    1    3    3  502    0  0.80042047399E+03 -0.46438708304E+03  0.49487140431E+03  0.10493931603E+04  0.25500000920E-02 0. -1.
       -2    1    3    3    0  502 -0.80042047399E+03  0.46438708304E+03  0.33992600998E+02  0.92600420896E+03  0.25500000920E-02 0.  1.
</event>
<event>
 5   0  0.2879462E-05  0.1902918E+04  0.7818609E-02  0.8653405E-01
        2   -1    0    0  501    0  0.00000000000E+00  0.00000000000E+00  0.71794416047E+03  0.71794416047E+03  0.25500000920E-02 0. -1.
       -2   -1    0    0    0  501  0.00000000000E+00  0.00000000000E+00 -0.12609251634E+04  0.12609251634E+04  0.25500000920E-02 0.  1.
    10030    2    1    2    0    0  0.00000000000E+00  0.00000000000E+00 -0.54298100296E+03  0.19788693239E+04  0.19029176103E+04 0.  0.
        4    1    3    3  502    0 -0.60597293717E+03 -0.70669018803E+03 -0.67026456510E+02  0.93333187089E+03  0.12699999809E+01 0.  1.
       -4    1    3    3    0  502  0.60597293717E+03  0.70669018803E+03 -0.47595454645E+03  0.10455374530E+04  0.12699999809E+01 0. -1.
</event>
<event>
 5   0  0.1327254E-05  0.1858911E+04  0.7818609E-02  0.8675584E-01
        1   -1    0    0  501    0  0.00000000000E+00  0.00000000000E+00  0.17819536793E+04  0.17819536793E+04  0.50400001928E-02 0.  1.
       -1   -1    0    0    0  501  0.00000000000E+00  0.00000000000E+00 -0.48479816334E+03  0.48479816336E+03  0.50400001928E-02 0. -1.
    10030    2    1    2    0    0  0.00000000000E+00  0.00000000000E+00  0.12971555160E+04  0.22667518427E+04  0.18589113706E+04 0.  0.
        5    1    3    3  502    0  0.81874296359E+03 -0.23440886593E+03  0.11025118377E+04  0.13931410550E+04  0.46999998093E+01 0.  1.
       -5    1    3    3    0  502 -0.81874296359E+03  0.23440886593E+03  0.19464367826E+03  0.87361078768E+03  0.46999998093E+01 0. -1.
</event>
<event>
 5   0  0.1429067E-05  0.1899947E+04  0.7818609E-02  0.8654883E-01
        1   -1    0    0  501    0  0.00000000000E+00  0.00000000000E+00  0.76316750367E+03  0.76316750368E+03  0.50400001928E-02 0.  1.
       -1   -1    0    0    0  501  0.00000000000E+00  0.00000000000E+00 -0.11825050346E+04  0.11825050347E+04  0.50400001928E-02 0. -1.
    10030    2    1    2    0    0  0.00000000000E+00  0.00000000000E+00 -0.41933753098E+03  0.19456725383E+04  0.18999467523E+04 0.  0.
        3    1    3    3  502    0 -0.14275622461E+03 -0.89463973638E+03 -0.50236171169E+03  0.10359183834E+04  0.10100000352E+00 0.  1.
       -3    1    3    3    0  502  0.14275622461E+03  0.89463973638E+03  0.83024180715E+02  0.90975415490E+03  0.10100000352E+00 0. -1.
</event>
<event>
 5   0  0.1344119E-05  0.1867012E+04  0.7818609E-02  0.8671453E-01
       -1   -1    0    0    0  501  0.00000000000E+00  0.00000000000E+00  0.47273987866E+03  0.47273987869E+03  0.50400001928E-02 0. -1.
        1   -1    0    0  501    0  0.00000000000E+00  0.00000000000E+00 -0.18433679563E+04  0.18433679563E+04  0.50400001928E-02 0.  1.
    10030    2    1    2    0    0  0.00000000000E+00  0.00000000000E+00 -0.13706280776E+04  0.23161078350E+04  0.18670120985E+04 0.  0.
        2    1    3    3  502    0 -0.12426586485E+03 -0.78302864513E+03 -0.12966607275E+04  0.15198371315E+04  0.25500000920E-02 0.  1.
       -2    1    3    3    0  502  0.12426586485E+03  0.78302864513E+03 -0.73967350169E+02  0.79627070344E+03  0.25500000920E-02 0. -1.
</event>
<event>
 5   0  0.1344119E-05  0.1907532E+04  0.7818609E-02  0.8651116E-01
        1   -1    0    0  501    0  0.00000000000E+00  0.00000000000E+00  0.18377668096E+04  0.18377668096E+04  0.50400001928E-02 0.  1.
       -1   -1    0    0    0  501  0.00000000000E+00  0.00000000000E+00 -0.49498620715E+03  0.49498620718E+03  0.50400001928E-02 0. -1.
    10030    2    1    2    0    0  0.00000000000E+00  0.00000000000E+00  0.13427806025E+04  0.23327530168E+04  0.19075316226E+04 0.  0.
        2    1    3    3  502    0  0.72804718056E+03 -0.58324696236E+03  0.42852652155E+03  0.10265791231E+04  0.25500000920E-02 0. -1.
       -2    1    3    3    0  502 -0.72804718056E+03  0.58324696236E+03  0.91425408093E+03  0.13061738938E+04  0.25500000920E-02 0.  1.
</event>
<event>
 5   0  0.1327254E-05  0.1901988E+04  0.7818609E-02  0.8653867E-01
       -1   -1    0    0    0  501  0.00000000000E+00  0.00000000000E+00  0.79240486695E+03  0.79240486696E+03  0.50400001928E-02 0.  1.
        1   -1    0    0  501    0  0.00000000000E+00  0.00000000000E+00 -0.11413231567E+04  0.11413231567E+04  0.50400001928E-02 0. -1.
    10030    2    1    2    0    0  0.00000000000E+00  0.00000000000E+00 -0.34891828978E+03  0.19337280237E+04  0.19019884586E+04 0.  0.
        5    1    3    3  502    0  0.19813491016E+03 -0.13723498417E+03 -0.11097437712E+04  0.11356250311E+04  0.46999998093E+01 0. -1.
       -5    1    3    3    0  502 -0.19813491016E+03  0.13723498417E+03  0.76082548147E+03  0.79810299257E+03  0.46999998093E+01 0.  1.
</event>
<event>
 5   0  0.2855141E-05  0.1906765E+04  0.7818609E-02  0.8651496E-01
        2   -1    0    0  501    0  0.00000000000E+00  0.00000000000E+00  0.14043037343E+04  0.14043037343E+04  0.25500000920E-02 0. -1.
       -2   -1    0    0    0  501  0.00000000000E+00  0.00000000000E+00 -0.64725183922E+03  0.64725183923E+03  0.25500000920E-02 0.  1.
    10030    2    1    2    0    0  0.00000000000E+00  0.00000000000E+00  0.75705189510E+03  0.20515555736E+04  0.19067649828E+04 0.  0.
        1    1    3    3  502    0 -0.87410441410E+03 -0.28917930393E+03  0.11223474841E+03  0.92751271438E+03  0.50400001928E-02 0.  1.
       -1    1    3    3    0  502  0.87410441410E+03  0.28917930393E+03  0.64481714669E+03  0.11240428592E+04  0.50400001928E-02 0. -1.
</event>
<event>
 5   0  0.1471485E-05  0.1898559E+04  0.7818609E-02  0.8655574E-01
        1   -1    0    0  501    0  0.00000000000E+00  0.00000000000E+00  0.11183781822E+04  0.11183781822E+04  0.50400001928E-02 0. -1.
       -1   -1    0    0    0  501  0.00000000000E+00  0.00000000000E+00 -0.80574844515E+03  0.80574844516E+03  0.50400001928E-02 0.  1.
    10030    2    1    2    0    0  0.00000000000E+00  0.00000000000E+00  0.31262973701E+03  0.19241266273E+04  0.18985589076E+04 0.  0.
        4    1    3    3  502    0  0.53961425203E+03 -0.53457663789E+03 -0.42071561987E+03  0.86830810688E+03  0.12699999809E+01 0.  1.
       -4    1    3    3    0  502 -0.53961425203E+03  0.53457663789E+03  0.73334535688E+03  0.10558185205E+04  0.12699999809E+01 0. -1.
</event>
<event>
 5   0  0.1413011E-05  0.1900575E+04  0.7818609E-02  0.8654570E-01
        1   -1    0    0  501    0  0.00000000000E+00  0.00000000000E+00  0.19103070482E+04  0.19103070482E+04  0.50400001928E-02 0. -1.
       -1   -1    0    0    0  501  0.00000000000E+00  0.00000000000E+00 -0.47272317452E+03  0.47272317455E+03  0.50400001928E-02 0.  1.
    10030    2    1    2    0    0  0.00000000000E+00  0.00000000000E+00  0.14375838737E+04  0.23830302228E+04  0.19005750837E+04 0.  0.
        1    1    3    3  502    0 -0.17687761207E+03  0.66897872207E+03  0.15354575735E+04  0.16841758164E+04  0.50400001928E-02 0. -1.
       -1    1    3    3    0  502  0.17687761207E+03 -0.66897872207E+03 -0.97873699831E+02  0.69885440643E+03  0.50400001928E-02 0.  1.
</event>
<event>
 5   0  0.2879462E-05  0.1899714E+04  0.7818609E-02  0.8654999E-01
        2   -1    0    0  501    0  0.00000000000E+00  0.00000000000E+00  0.10304852415E+04  0.10304852415E+04  0.25500000920E-02 0. -1.
       -2   -1    0    0    0  501  0.00000000000E+00  0.00000000000E+00 -0.87553694815E+03  0.87553694816E+03  0.25500000920E-02 0.  1.
    10030    2    1    2    0    0  0.00000000000E+00  0.00000000000E+00  0.15494829335E+03  0.19060221897E+04  0.18997135610E+04 0.  0.
        4    1    3    3  502    0 -0.38826663540E+03  0.78319895981E+03  0.45029215597E+03  0.98331898662E+03  0.12699999809E+01 0. -1.
       -4    1    3    3    0  502  0.38826663540E+03 -0.78319895981E+03 -0.29534386262E+03  0.92270320304E+03  0.12699999809E+01 0.  1.
</event>
<event>
 5   0  0.1327254E-05  0.1898255E+04  0.7818609E-02  0.8655725E-01
       -1   -1    0    0    0  501  0.00000000000E+00  0.00000000000E+00  0.94189835166E+03  0.94189835167E+03  0.50400001928E-02 0. -1.
        1   -1    0    0  501    0  0.00000000000E+00  0.00000000000E+00 -0.95641257663E+03  0.95641257664E+03  0.50400001928E-02 0.  1.
    10030    2    1    2    0    0  0.00000000000E+00  0.00000000000E+00 -0.14514224970E+02  0.18983109283E+04  0.18982554406E+04 0.  0.
        5    1    3    3  502    0  0.86962079492E+03 -0.31666593888E+03  0.20323347105E+03  0.94754608203E+03  0.46999998093E+01 0.  1.
       -5    1    3    3    0  502 -0.86962079492E+03  0.31666593888E+03 -0.21774769602E+03  0.95076484628E+03  0.46999998093E+01 0. -1.
</event>
<event>
 5   0  0.1010725E-05  0.1884808E+04  0.7818609E-02  0.8662456E-01
       -3   -1    0    0    0  501  0.00000000000E+00  0.00000000000E+00  0.54628497191E+03  0.54628498124E+03  0.10100000352E+00 0. -1.
        3   -1    0    0  501    0  0.00000000000E+00  0.00000000000E+00 -0.16257537507E+04  0.16257537539E+04  0.10100000352E+00 0.  1.
    10030    2    1    2    0    0  0.00000000000E+00  0.00000000000E+00 -0.10794687788E+04  0.21720387351E+04  0.18848075293E+04 0.  0.
        2    1    3    3  502    0 -0.31296248215E+03  0.21809145996E+03 -0.15328105347E+04  0.15795624506E+04  0.25500000920E-02 0.  1.
       -2    1    3    3    0  502  0.31296248215E+03 -0.21809145996E+03  0.45334175583E+03  0.59247628453E+03  0.25500000920E-02 0. -1.
</event>
<event>
 5   0  0.1344119E-05  0.1898947E+04  0.7818609E-02  0.8655381E-01
       -1   -1    0    0    0  501  0.00000000000E+00  0.00000000000E+00  0.66323331900E+03  0.66323331902E+03  0.50400001928E-02 0. -1.
        1   -1    0    0  501    0  0.00000000000E+00  0.00000000000E+00 -0.13592497402E+04  0.13592497402E+04  0.50400001928E-02 0.  1.
    10030    2    1    2    0    0  0.00000000000E+00  0.00000000000E+00 -0.69601642124E+03  0.20224830593E+04  0.18989467782E+04 0.  0.
        2    1    3    3  502    0 -0.45052397153E+03  0.34565559506E+03 -0.11584655539E+04  0.12901519596E+04  0.25500000920E-02 0.  1.
       -2    1    3    3    0  502  0.45052397153E+03 -0.34565559506E+03  0.46244913261E+03  0.73233109969E+03  0.25500000920E-02 0. -1.
</event>
<event>
 5   0  0.2855141E-05  0.1894515E+04  0.7818609E-02  0.8657591E-01
        2   -1    0    0  501    0  0.00000000000E+00  0.00000000000E+00  0.19190388229E+04  0.19190388229E+04  0.25500000920E-02 0.  1.
       -2   -1    0    0    0  501  0.00000000000E+00  0.00000000000E+00 -0.46757617139E+03  0.46757617140E+03  0.25500000920E-02 0. -1.
    10030    2    1    2    0    0  0.00000000000E+00  0.00000000000E+00  0.14514626515E+04  0.23866149943E+04  0.18945150573E+04 0.  0.
        1    1    3    3  502    0 -0.39444578563E+02  0.37783048704E+03 -0.36741295570E+03  0.52849222488E+03  0.50400001928E-02 0. -1.
       -1    1    3    3    0  502  0.39444578563E+02 -0.37783048704E+03  0.18188756072E+04  0.18581227694E+04  0.50400001928E-02 0.  1.
</event>
<event>
 5   0  0.1471485E-05  0.1895039E+04  0.7818609E-02  0.8657330E-01
        1   -1    0    0  501    0  0.00000000000E+00  0.00000000000E+00  0.15423633861E+04  0.15423633861E+04  0.50400001928E-02 0.  1.
       -1   -1    0    0    0  501  0.00000000000E+00  0.00000000000E+00 -0.58208926593E+03  0.58208926595E+03  0.50400001928E-02 0. -1.
    10030    2    1    2    0    0  0.00000000000E+00  0.00000000000E+00  0.96027412014E+03  0.21244526520E+04  0.18950389666E+04 0.  0.
        4    1    3    3  502    0  0.15547955657E+03  0.89501403010E+03  0.17814178550E+03  0.92572140260E+03  0.12699999809E+01 0. -1.
       -4    1    3    3    0  502 -0.15547955657E+03 -0.89501403010E+03  0.78213233464E+03  0.11987312494E+04  0.12699999809E+01 0.  1.
</event>
<event>
 5   0  0.2855141E-05  0.1899000E+04  0.7818609E-02  0.8655354E-01
        2   -1    0    0  501    0  0.00000000000E+00  0.00000000000E+00  0.17861855648E+04  0.17861855648E+04  0.25500000920E-02 0. -1.
       -2   -1    0    0    0  501  0.00000000000E+00  0.00000000000E+00 -0.50473490704E+03  0.50473490704E+03  0.25500000920E-02 0.  1.
    10030    2    1    2    0    0  0.00000000000E+00  0.00000000000E+00  0.12814506577E+04  0.22909204718E+04  0.18989999526E+04 0.  0.
        1    1    3    3  502    0  0.10757870075E+03 -0.23709812481E+03 -0.46082914766E+03  0.52929405910E+03  0.50400001928E-02 0.  1.
       -1    1    3    3    0  502 -0.10757870075E+03  0.23709812481E+03  0.17422798054E+04  0.17616264127E+04  0.50400001928E-02 0. -1.
</event>
<event>
 5   0  0.2888776E-05  0.1901253E+04  0.7818609E-02  0.8654233E-01
        2   -1    0    0  501    0  0.00000000000E+00  0.00000000000E+00  0.65441467693E+03  0.65441467694E+03  0.25500000920E-02 0.  1.
       -2   -1    0    0    0  501  0.00000000000E+00  0.00000000000E+00 -0.13809144427E+04  0.13809144427E+04  0.25500000920E-02 0. -1.
    10030    2    1    2    0    0  0.00000000000E+00  0.00000000000E+00 -0.72649976577E+03  0.20353291196E+04  0.19012529331E+04 0.  0.
        3    1    3    3  502    0  0.77773145268E+03 -0.99828342954E+02  0.21210727310E+03  0.81229392220E+03  0.10100000352E+00 0.  1.
       -3    1    3    3    0  502 -0.77773145268E+03  0.99828342954E+02 -0.93860703887E+03  0.12230351974E+04  0.10100000352E+00 0. -1.
</event>
<event>
 5   0  0.2888776E-05  0.1904153E+04  0.7818609E-02  0.8652792E-01
        2   -1    0    0  501    0  0.00000000000E+00  0.00000000000E+00  0.14799185740E+04  0.14799185740E+04  0.25500000920E-02 0. -1.
       -2   -1    0    0    0  501  0.00000000000E+00  0.00000000000E+00 -0.61249962537E+03  0.61249962537E+03  0.25500000920E-02 0.  1.
    10030    2    1    2    0    0  0.00000000000E+00  0.00000000000E+00  0.86741894863E+03  0.20924181994E+04  0.19041529058E+04 0.  0.
        3    1    3    3  502    0 -0.55888872459E+03 -0.70082541404E+03  0.81150496761E+02  0.90005459877E+03  0.10100000352E+00 0.  1.
       -3    1    3    3    0  502  0.55888872459E+03  0.70082541404E+03  0.78626845187E+03  0.11923636006E+04  0.10100000352E+00 0. -1.
</event>
<event>
 5   0  0.1413011E-05  0.1897262E+04  0.7818609E-02  0.8656221E-01
        1   -1    0    0  501    0  0.00000000000E+00  0.00000000000E+00  0.16823954800E+04  0.16823954800E+04  0.50400001928E-02 0. -1.
       -1   -1    0    0    0  501  0.00000000000E+00  0.00000000000E+00 -0.53489241464E+03  0.53489241467E+03  0.50400001928E-02 0.  1.
    10030    2    1    2    0    0  0.00000000000E+00  0.00000000000E+00  0.11475030654E+04  0.22172878947E+04  0.18972617961E+04 0.  0.
        1    1    3    3  502    0 -0.30140200200E+03  0.10682182306E+03  0.16175101150E+04  0.16488156479E+04  0.50400001928E-02 0. -1.
       -1    1    3    3    0  502  0.30140200200E+03 -0.10682182306E+03 -0.47000704959E+03  0.56847224680E+03  0.50400001928E-02 0.  1.
</event>
<event>
 5   0  0.1327254E-05  0.1898962E+04  0.7818609E-02  0.8655373E-01
        1   -1    0    0  501    0  0.00000000000E+00  0.00000000000E+00  0.13200028578E+04  0.13200028578E+04  0.50400001928E-02 0.  1.
       -1   -1    0    0    0  501  0.00000000000E+00  0.00000000000E+00 -0.68296399321E+03  0.68296399322E+03  0.50400001928E-02 0. -1.
    10030    2    1    2    0    0  0.00000000000E+00  0.00000000000E+00  0.63703886457E+03  0.20029668510E+04  0.18989622669E+04 0.  0.
        5    1    3    3  502    0 -0.77927943744E+03 -0.54029516370E+03  0.26796718072E+03  0.98540540159E+03  0.46999998093E+01 0.  1.
       -5    1    3    3    0  502  0.77927943744E+03  0.54029516370E+03  0.36907168386E+03  0.10175614494E+04  0.46999998093E+01 0. -1.
</event>
<event>
 5   0  0.2888776E-05  0.1906192E+04  0.7818609E-02  0.8651780E-01
        2   -1    0    0  501    0  0.00000000000E+00  0.00000000000E+00  0.14535188561E+04  0.14535188562E+04  0.25500000920E-02 0. -1.
       -2   -1    0    0    0  501  0.00000000000E+00  0.00000000000E+00 -0.62496055815E+03  0.62496055816E+03  0.25500000920E-02 0.  1.
    10030    2    1    2    0    0  0.00000000000E+00  0.00000000000E+00  0.82855829799E+03  0.20784794143E+04  0.19061919690E+04 0.  0.
        3    1    3    3  502    0 -0.26623810598E+03 -0.33545337231E+03 -0.51413591881E+03  0.66913933324E+03  0.10100000352E+00 0.  1.
       -3    1    3    3    0  502  0.26623810598E+03  0.33545337231E+03  0.13426942168E+04  0.14093400811E+04  0.10100000352E+00 0. -1.
</event>
<event>
 5   0  0.1327254E-05  0.1901630E+04  0.7818609E-02  0.8654045E-01
       -1   -1    0    0    0  501  0.00000000000E+00  0.00000000000E+00  0.59242811409E+03  0.59242811412E+03  0.50400001928E-02 0.  1.
        1   -1    0    0  501    0  0.00000000000E+00  0.00000000000E+00 -0.15260069610E+04  0.15260069610E+04  0.50400001928E-02 0. -1.
    10030    2    1    2    0    0  0.00000000000E+00  0.00000000000E+00 -0.93357884688E+03  0.21184350751E+04  0.19016302753E+04 0.  0.
        5    1    3    3  502    0  0.56901156020E+03  0.71638224648E+03 -0.75525059077E+03  0.11863402647E+04  0.46999998093E+01 0. -1.
       -5    1    3    3    0  502 -0.56901156020E+03 -0.71638224648E+03 -0.17832825612E+03  0.93209481044E+03  0.46999998093E+01 0.  1.
</event>
<event>
 5   0  0.2813537E-05  0.1884536E+04  0.7818609E-02  0.8662592E-01
        2   -1    0    0  501    0  0.00000000000E+00  0.00000000000E+00  0.19494107072E+04  0.19494107072E+04  0.25500000920E-02 0. -1.
       -2   -1    0    0    0  501  0.00000000000E+00  0.00000000000E+00 -0.45545528595E+03  0.45545528596E+03  0.25500000920E-02 0.  1.
    10030    2    1    2    0    0  0.00000000000E+00  0.00000000000E+00  0.14939554213E+04  0.24048659932E+04  0.18845364535E+04 0.  0.
        2    1    3    3  502    0 -0.14695090100E+03  0.70447541943E+03 -0.29235228633E+02  0.72023251974E+03  0.25500000920E-02 0.  1.
       -2    1    3    3    0  502  0.14695090100E+03 -0.70447541943E+03  0.15231906499E+04  0.16846334735E+04  0.25500000920E-02 0. -1.
</event>
<event>
 5   0  0.1429067E-05  0.1897132E+04  0.7818609E-02  0.8656286E-01
        1   -1    0    0  501    0  0.00000000000E+00  0.00000000000E+00  0.91099815178E+03  0.91099815180E+03  0.50400001928E-02 0. -1.
       -1   -1    0    0    0  501  0.00000000000E+00  0.00000000000E+00 -0.98768261453E+03  0.98768261454E+03  0.50400001928E-02 0.  1.
    10030    2    1    2    0    0  0.00000000000E+00  0.00000000000E+00 -0.76684462745E+02  0.18986807663E+04  0.18971315573E+04 0.  0.
        3    1    3    3  502    0  0.84564607667E+03  0.42477311859E+03  0.26730375956E+02  0.94671221206E+03  0.10100000352E+00 0. -1.
       -3    1    3    3    0  502 -0.84564607667E+03 -0.42477311859E+03 -0.10341483870E+03  0.95196855428E+03  0.10100000352E+00 0.  1.
</event>
<event>
 5   0  0.1429067E-05  0.1901272E+04  0.7818609E-02  0.8654223E-01
        1   -1    0    0  501    0  0.00000000000E+00  0.00000000000E+00  0.10263465017E+04  0.10263465017E+04  0.50400001928E-02 0.  1.
       -1   -1    0    0    0  501  0.00000000000E+00  0.00000000000E+00 -0.88051078020E+03  0.88051078022E+03  0.50400001928E-02 0. -1.
    10030    2    1    2    0    0  0.00000000000E+00  0.00000000000E+00  0.14583572147E+03  0.19068572819E+04  0.19012723729E+04 0.  0.
        3    1    3    3  502    0 -0.70210330424E+03 -0.24934295410E+03  0.66506575176E+03  0.99871588700E+03  0.10100000352E+00 0.  1.
       -3    1    3    3    0  502  0.70210330424E+03  0.24934295410E+03 -0.51923003029E+03  0.90814139490E+03  0.10100000352E+00 0. -1.
</event>
<event>
 5   0  0.1471485E-05  0.1901849E+04  0.7818609E-02  0.8653936E-01
       -1   -1    0    0    0  501  0.00000000000E+00  0.00000000000E+00  0.11259003749E+04  0.11259003749E+04  0.50400001928E-02 0. -1.
        1   -1    0    0  501    0  0.00000000000E+00  0.00000000000E+00 -0.80314186864E+03  0.80314186865E+03  0.50400001928E-02 0.  1.
    10030    2    1    2    0    0  0.00000000000E+00  0.00000000000E+00  0.32275850622E+03  0.19290422435E+04  0.19018493431E+04 0.  0.
        4    1    3    3  502    0  0.18586687652E+03 -0.61552306101E+03  0.87199697860E+03  0.10834184224E+04  0.12699999809E+01 0. -1.
       -4    1    3    3    0  502 -0.18586687652E+03  0.61552306101E+03 -0.54923847237E+03  0.84562382112E+03  0.12699999809E+01 0.  1.
</event>
<event>
 5   0  0.2879462E-05  0.1910722E+04  0.7818609E-02  0.8649538E-01
       -2   -1    0    0    0  501  0.00000000000E+00  0.00000000000E+00  0.88212675062E+03  0.88212675063E+03  0.25500000920E-02 0.  1.
        2   -1    0    0  501    0  0.00000000000E+00  0.00000000000E+00 -0.10346755243E+04  0.10346755243E+04  0.25500000920E-02 0. -1.
    10030    2    1    2    0    0  0.00000000000E+00  0.00000000000E+00 -0.15254877369E+03  0.19168022749E+04  0.19107223327E+04 0.  0.
        4    1    3    3  502    0 -0.16746342721E+02 -0.48890178122E+03 -0.89949996770E+03  0.10239175731E+04  0.12699999809E+01 0. -1.
       -4    1    3    3    0  502  0.16746342721E+02  0.48890178122E+03  0.74695119401E+03  0.89288470186E+03  0.12699999809E+01 0.  1.
</event>
<event>
 5   0  0.1429067E-05  0.1905896E+04  0.7818609E-02  0.8651927E-01
       -1   -1    0    0    0  501  0.00000000000E+00  0.00000000000E+00  0.46402639856E+03  0.46402639859E+03  0.50400001928E-02 0.  1.
        1   -1    0    0  501    0  0.00000000000E+00  0.00000000000E+00 -0.19570218059E+04  0.19570218059E+04  0.50400001928E-02 0. -1.
    10030    2    1    2    0    0  0.00000000000E+00  0.00000000000E+00 -0.14929954073E+04  0.24210482045E+04  0.19058958844E+04 0.  0.
        3    1    3    3  502    0 -0.76017573196E+03 -0.91376381334E+02 -0.25788580499E+02  0.76608214156E+03  0.10100000352E+00 0.  1.
       -3    1    3    3    0  502  0.76017573196E+03  0.91376381334E+02 -0.14672068268E+04  0.16549660629E+04  0.10100000352E+00 0. -1.
</event>
<event>
 5   0  0.1327254E-05  0.1903596E+04  0.7818609E-02  0.8653069E-01
        1   -1    0    0  501    0  0.00000000000E+00  0.00000000000E+00  0.80003716181E+03  0.80003716182E+03  0.50400001928E-02 0.  1.
       -1   -1    0    0    0  501  0.00000000000E+00  0.00000000000E+00 -0.11323465656E+04  0.11323465656E+04  0.50400001928E-02 0. -1.
    10030    2    1    2    0    0  0.00000000000E+00  0.00000000000E+00 -0.33230940382E+03  0.19323837275E+04  0.19035958947E+04 0.  0.
        5    1    3    3  502    0  0.35373335082E+03  0.25801319202E+03 -0.10240381273E+04  0.11137209107E+04  0.46999998093E+01 0. -1.
       -5    1    3    3    0  502 -0.35373335082E+03 -0.25801319202E+03  0.69172872346E+03  0.81866281679E+03  0.46999998093E+01 0.  1.
</event>
<event>
 5   0  0.1471485E-05  0.1896324E+04  0.7818609E-02  0.8656688E-01
        1   -1    0    0  501    0  0.00000000000E+00  0.00000000000E+00  0.20381486222E+04  0.20381486222E+04  0.50400001928E-02 0. -1.
       -1   -1    0    0    0  501  0.00000000000E+00  0.00000000000E+00 -0.44109191243E+03  0.44109191246E+03  0.50400001928E-02 0.  1.
    10030    2    1    2    0    0  0.00000000000E+00  0.00000000000E+00  0.15970567098E+04  0.24792405347E+04  0.18963236787E+04 0.  0.
        4    1    3    3  502    0 -0.32407586251E+03  0.78700753815E+03  0.13448297805E+04  0.15915322118E+04  0.12699999809E+01 0. -1.
       -4    1    3    3    0  502  0.32407586251E+03 -0.78700753815E+03  0.25222692928E+03  0.88770832288E+03  0.12699999809E+01 0.  1.
</event>
<event>
 5   0  0.2813537E-05  0.1913044E+04  0.7818609E-02  0.8648390E-01
        2   -1    0    0  501    0  0.00000000000E+00  0.00000000000E+00  0.12310417772E+04  0.12310417772E+04  0.25500000920E-02 0.  1.
       -2   -1    0    0    0  501  0.00000000000E+00  0.00000000000E+00 -0.74321983644E+03  0.74321983645E+03  0.25500000920E-02 0. -1.
    10030    2    1    2    0    0  0.00000000000E+00  0.00000000000E+00  0.48782194074E+03  0.19742616136E+04  0.19130443469E+04 0.  0.
        2    1    3    3  502    0  0.56634952324E+03  0.38030227230E+03  0.93585369362E+03  0.11581035086E+04  0.25500000920E-02 0.  1.
       -2    1    3    3    0  502 -0.56634952324E+03 -0.38030227230E+03 -0.44803175288E+03  0.81615810502E+03  0.25500000920E-02 0. -1.
</event>
<event>
 5   0  0.2879462E-05  0.1902444E+04  0.7818609E-02  0.8653641E-01
       -2   -1    0    0    0  501  0.00000000000E+00  0.00000000000E+00  0.10926569006E+04  0.10926569006E+04  0.25500000920E-02 0.  1.
        2   -1    0    0  501    0  0.00000000000E+00  0.00000000000E+00 -0.82809463384E+03  0.82809463384E+03  0.25500000920E-02 0. -1.
    10030    2    1    2    0    0  0.00000000000E+00  0.00000000000E+00  0.26456226680E+03  0.19207515345E+04  0.19024440239E+04 0.  0.
        4    1    3    3  502    0  0.30046212983E+03  0.25920684855E+03 -0.74053561339E+03  0.84015491988E+03  0.12699999809E+01 0. -1.
       -4    1    3    3    0  502 -0.30046212983E+03 -0.25920684855E+03  0.10050978802E+04  0.10805966146E+04  0.12699999809E+01 0.  1.
</event>
<event>
 5   0  0.2879462E-05  0.1899394E+04  0.7818609E-02  0.8655158E-01
        2   -1    0    0  501    0  0.00000000000E+00  0.00000000000E+00  0.15287753292E+04  0.15287753292E+04  0.25500000920E-02 0.  1.
       -2   -1    0    0    0  501  0.00000000000E+00  0.00000000000E+00 -0.58996533361E+03  0.58996533361E+03  0.25500000920E-02 0. -1.
    10030    2    1    2    0    0  0.00000000000E+00  0.00000000000E+00  0.93880999562E+03  0.21187406628E+04  0.18993940582E+04 0.  0.
        4    1    3    3  502    0  0.91380321116E+03 -0.20122400360E+03  0.65063373456E+03  0.11396724432E+04  0.12699999809E+01 0.  1.
       -4    1    3    3    0  502 -0.91380321116E+03  0.20122400360E+03  0.28817626106E+03  0.97906821963E+03  0.12699999809E+01 0. -1.
</event>
<event>
 5   0  0.1471485E-05  0.1901161E+04  0.7818609E-02  0.8654279E-01
       -1   -1    0    0    0  501  0.00000000000E+00  0.00000000000E+00  0.63552187286E+03  0.63552187288E+03  0.50400001928E-02 0. -1.
        1   -1    0    0  501    0  0.00000000000E+00  0.00000000000E+00 -0.14218291711E+04  0.14218291711E+04  0.50400001928E-02 0.  1.
    10030    2    1    2    0    0  0.00000000000E+00  0.00000000000E+00 -0.78630729822E+03  0.20573510440E+04  0.19011612638E+04 0.  0.
        4    1    3    3  502    0  0.88502599346E+03  0.28450055489E+03 -0.17837833436E+03  0.94658967769E+03  0.12699999809E+01 0.  1.
       -4    1    3    3    0  502 -0.88502599346E+03 -0.28450055489E+03 -0.60792896386E+03  0.11107613663E+04  0.12699999809E+01 0. -1.
</event>
<event>
 5   0  0.2813537E-05  0.1900973E+04  0.7818609E-02  0.8654372E-01
        2   -1    0    0  501    0  0.00000000000E+00  0.00000000000E+00  0.13497109931E+04  0.13497109931E+04  0.25500000920E-02 0.  1.
       -2   -1    0    0    0  501  0.00000000000E+00  0.00000000000E+00 -0.66934681233E+03  0.66934681233E+03  0.25500000920E-02 0. -1.
    10030    2    1    2    0    0  0.00000000000E+00  0.00000000000E+00  0.68036418075E+03  0.20190578054E+04  0.19009731727E+04 0.  0.
        2    1    3    3  502    0 -0.45136457457E+03  0.62376436302E+03  0.93212855755E+03  0.12089977699E+04  0.25500000920E-02 0.  1.
       -2    1    3    3    0  502  0.45136457457E+03 -0.62376436302E+03 -0.25176437680E+03  0.81006003554E+03  0.25500000920E-02 0. -1.
</event>
<event>
 5   0  0.2879462E-05  0.1897111E+04  0.7818609E-02  0.8656296E-01
        2   -1    0    0  501    0  0.00000000000E+00  0.00000000000E+00  0.23253047555E+04  0.23253047555E+04  0.25500000920E-02 0. -1.
       -2   -1    0    0    0  501  0.00000000000E+00  0.00000000000E+00 -0.38694170741E+03  0.38694170742E+03  0.25500000920E-02 0.  1.
    10030    2    1    2    0    0  0.00000000000E+00  0.00000000000E+00  0.19383630481E+04  0.27122464629E+04  0.18971108480E+04 0.  0.
        4    1    3    3  502    0 -0.43053979162E+03  0.75865033124E+03  0.43646616277E+03  0.97540717724E+03  0.12699999809E+01 0. -1.
       -4    1    3    3    0  502  0.43053979162E+03 -0.75865033124E+03  0.15018968853E+04  0.17368392857E+04  0.12699999809E+01 0.  1.
</event>
<event>
 5   0  0.2789718E-05  0.1898879E+04  0.7818609E-02  0.8655415E-01
        2   -1    0    0  501    0  0.00000000000E+00  0.00000000000E+00  0.17649237611E+04  0.17649237611E+04  0.25500000920E-02 0. -1.
       -2   -1    0    0    0  501  0.00000000000E+00  0.00000000000E+00 -0.51075004772E+03  0.51075004773E+03  0.25500000920E-02 0.  1.
    10030    2    1    2    0    0  0.00000000000E+00  0.00000000000E+00  0.12541737134E+04  0.22756738088E+04  0.18988785061E+04 0.  0.
        5    1    3    3  502    0 -0.21770856441E+03 -0.23606260382E+03  0.16978495723E+04  0.17279577055E+04  0.46999998093E+01 0. -1.
       -5    1    3    3    0  502  0.21770856441E+03  0.23606260382E+03 -0.44367585896E+03  0.54771610325E+03  0.46999998093E+01 0.  1.
</event>
<event>
 5   0  0.1344119E-05  0.1898744E+04  0.7818609E-02  0.8655482E-01
       -1   -1    0    0    0  501  0.00000000000E+00  0.00000000000E+00  0.11579033701E+04  0.11579033701E+04  0.50400001928E-02 0.  1.
        1   -1    0    0  501    0  0.00000000000E+00  0.00000000000E+00 -0.77839552872E+03  0.77839552874E+03  0.50400001928E-02 0. -1.
    10030    2    1    2    0    0  0.00000000000E+00  0.00000000000E+00  0.37950784141E+03  0.19362988989E+04  0.18987435909E+04 0.  0.
        2    1    3    3  502    0  0.99422745052E+02 -0.67965964738E+03  0.85806693714E+03  0.10991364734E+04  0.25500000920E-02 0.  1.
       -2    1    3    3    0  502 -0.99422745052E+02  0.67965964738E+03 -0.47855909574E+03  0.83716242548E+03  0.25500000920E-02 0. -1.
</event>
<event>
 5   0  0.2789718E-05  0.1897667E+04  0.7818609E-02  0.8656018E-01
       -2   -1    0    0    0  501  0.00000000000E+00  0.00000000000E+00  0.97726852497E+03  0.97726852497E+03  0.25500000920E-02 0.  1.
        2   -1    0    0  501    0  0.00000000000E+00  0.00000000000E+00 -0.92122613494E+03  0.92122613494E+03  0.25500000920E-02 0. -1.
    10030    2    1    2    0    0  0.00000000000E+00  0.00000000000E+00  0.56042390027E+02  0.18984946599E+04  0.18976673113E+04 0.  0.
        5    1    3    3  502    0  0.23317149788E+03 -0.87480495615E+03  0.31206496304E+03  0.95763212659E+03  0.46999998093E+01 0.  1.
       -5    1    3    3    0  502 -0.23317149788E+03  0.87480495615E+03 -0.25602257301E+03  0.94086253332E+03  0.46999998093E+01 0. -1.
</event>
<event>
 5   0  0.1010725E-05  0.1900225E+04  0.7818609E-02  0.8654744E-01
       -3   -1    0    0    0  501  0.00000000000E+00  0.00000000000E+00  0.20080023077E+04  0.20080023103E+04  0.10100000352E+00 0.  1.
        3   -1    0    0  501    0  0.00000000000E+00  0.00000000000E+00 -0.44955822603E+03  0.44955823738E+03  0.10100000352E+00 0. -1.
    10030    2    1    2    0    0  0.00000000000E+00  0.00000000000E+00  0.15584440817E+04  0.24575605477E+04  0.19002252208E+04 0.  0.
        4    1    3    3  502    0  0.12765040571E+03  0.18597844285E+03  0.19728680515E+04  0.19857221782E+04  0.12699999809E+01 0.  1.
       -4    1    3    3    0  502 -0.12765040571E+03 -0.18597844285E+03 -0.41442396980E+03  0.47183836950E+03  0.12699999809E+01 0. -1.
</event>
<event>
 5   0  0.1344119E-05  0.1901290E+04  0.7818609E-02  0.8654215E-01
       -1   -1    0    0    0  501  0.00000000000E+00  0.00000000000E+00  0.59426609016E+03  0.59426609018E+03  0.50400001928E-02 0. -1.
        1   -1    0    0  501    0  0.00000000000E+00  0.00000000000E+00 -0.15207426618E+04  0.15207426618E+04  0.50400001928E-02 0.  1.
    10030    2    1    2    0    0  0.00000000000E+00  0.00000000000E+00 -0.92647657164E+03  0.21150087520E+04  0.19012898735E+04 0.  0.
        2    1    3    3  502    0  0.13721968514E+02 -0.61870993126E+03 -0.12659737252E+04  0.14091414920E+04  0.25500000920E-02 0.  1.
       -2    1    3    3    0  502 -0.13721968514E+02  0.61870993126E+03  0.33949715358E+03  0.70586726001E+03  0.25500000920E-02 0. -1.
</event>
<event>
 5   0  0.2855141E-05  0.1902498E+04  0.7818609E-02  0.8653614E-01
       -2   -1    0    0    0  501  0.00000000000E+00  0.00000000000E+00  0.61070850771E+03  0.61070850771E+03  0.25500000920E-02 0.  1.
        2   -1    0    0  501    0  0.00000000000E+00  0.00000000000E+00 -0.14816801786E+04  0.14816801786E+04  0.25500000920E-02 0. -1.
    10030    2    1    2    0    0  0.00000000000E+00  0.00000000000E+00 -0.87097167090E+03  0.20923886863E+04  0.19024980324E+04 0.  0.
        1    1    3    3  502    0  0.41783862804E+03  0.69560030647E+03  0.11047466282E+03  0.81893440311E+03  0.50400001928E-02 0.  1.
       -1    1    3    3    0  502 -0.41783862804E+03 -0.69560030647E+03 -0.98144633372E+03  0.12734542832E+04  0.50400001928E-02 0. -1.
</event>
<event>
 5   0  0.1471485E-05  0.1894922E+04  0.7818609E-02  0.8657388E-01
        1   -1    0    0  501    0  0.00000000000E+00  0.00000000000E+00  0.12296765479E+04  0.12296765479E+04  0.50400001928E-02 0.  1.
       -1   -1    0    0    0  501  0.00000000000E+00  0.00000000000E+00 -0.73001537937E+03  0.73001537939E+03  0.50400001928E-02 0. -1.
    10030    2    1    2    0    0  0.00000000000E+00  0.00000000000E+00  0.49966116856E+03  0.19596919273E+04  0.18949224698E+04 0.  0.
        4    1    3    3  502    0 -0.75497938686E+03  0.41693541830E+03  0.65547748160E+03  0.10832734463E+04  0.12699999809E+01 0.  1.
       -4    1    3    3    0  502  0.75497938686E+03 -0.41693541830E+03 -0.15581631304E+03  0.87641848105E+03  0.12699999809E+01 0. -1.
</event>
<event>
 5   0  0.2888776E-05  0.1898965E+04  0.7818609E-02  0.8655372E-01
        2   -1    0    0  501    0  0.00000000000E+00  0.00000000000E+00  0.20384387895E+04  0.20384387895E+04  0.25500000920E-02 0.  1.
       -2   -1    0    0    0  501  0.00000000000E+00  0.00000000000E+00 -0.44225839012E+03  0.44225839013E+03  0.25500000920E-02 0. -1.
    10030    2    1    2    0    0  0.00000000000E+00  0.00000000000E+00  0.15961803994E+04  0.24806971796E+04  0.18989646204E+04 0.  0.
        3    1    3    3  502    0 -0.89648562282E+03 -0.12449368931E+03  0.11729249825E+04  0.14815323741E+04  0.10100000352E+00 0.  1.
       -3    1    3    3    0  502  0.89648562282E+03  0.12449368931E+03  0.42325541687E+03  0.99916480558E+03  0.10100000352E+00 0. -1.
</event>
<event>
 5   0  0.1327254E-05  0.1900612E+04  0.7818609E-02  0.8654552E-01
       -1   -1    0    0    0  501  0.00000000000E+00  0.00000000000E+00  0.12027020652E+04  0.12027020653E+04  0.50400001928E-02 0.  1.
        1   -1    0    0  501    0  0.00000000000E+00  0.00000000000E+00 -0.75087706823E+03  0.75087706825E+03  0.50400001928E-02 0. -1.
    10030    2    1    2    0    0  0.00000000000E+00  0.00000000000E+00  0.45182499701E+03  0.19535791335E+04  0.19006119022E+04 0.  0.
        5    1    3    3  502    0  0.54934539412E+03 -0.56509486894E+03  0.77169687596E+03  0.11030189170E+04  0.46999998093E+01 0.  1.
       -5    1    3    3    0  502 -0.54934539412E+03  0.56509486894E+03 -0.31987187894E+03  0.85056021649E+03  0.46999998093E+01 0. -1.
</event>
<event>
 5   0  0.1429067E-05  0.1901344E+04  0.7818609E-02  0.8654188E-01
       -1   -1    0    0    0  501  0.00000000000E+00  0.00000000000E+00  0.78221613313E+03  0.78221613314E+03  0.50400001928E-02 0. -1.
        1   -1    0    0  501    0  0.00000000000E+00  0.00000000000E+00 -0.11554058809E+04  0.11554058809E+04  0.50400001928E-02 0.  1.
    10030    2    1    2    0    0  0.00000000000E+00  0.00000000000E+00 -0.37318974781E+03  0.19376220141E+04  0.19013438620E+04 0.  0.
        3    1    3    3  502    0  0.82979100749E+03 -0.41277879562E+03 -0.40238415222E+03  0.10103724394E+04  0.10100000352E+00 0.  1.
       -3    1    3    3    0  502 -0.82979100749E+03  0.41277879562E+03  0.29194404416E+02  0.92724957464E+03  0.10100000352E+00 0. -1.
</event>
<event>
 5   0  0.1010725E-05  0.1900324E+04  0.7818609E-02  0.8654695E-01
       -3   -1    0    0    0  501  0.00000000000E+00  0.00000000000E+00  0.16529786664E+04  0.16529786695E+04  0.10100000352E+00 0.  1.
        3   -1    0    0  501    0  0.00000000000E+00  0.00000000000E+00 -0.54617002348E+03  0.54617003282E+03  0.10100000352E+00 0. -1.
    10030    2    1    2    0    0  0.00000000000E+00  0.00000000000E+00  0.11068086430E+04  0.21991487024E+04  0.19003235627E+04 0.  0.
        5    1    3    3  502    0 -0.81604271988E+03 -0.44194815861E+03  0.78927162338E+03  0.12182839082E+04  0.46999998093E+01 0. -1.
       -5    1    3    3    0  502  0.81604271988E+03  0.44194815861E+03  0.31753701958E+03  0.98086479413E+03  0.46999998093E+01 0.  1.
</event>
<event>
 5   0  0.2813537E-05  0.1898989E+04  0.7818609E-02  0.8655360E-01
        2   -1    0    0  501    0  0.00000000000E+00  0.00000000000E+00  0.13256174363E+04  0.13256174363E+04  0.25500000920E-02 0.  1.
       -2   -1    0    0    0  501  0.00000000000E+00  0.00000000000E+00 -0.68009033858E+03  0.68009033859E+03  0.25500000920E-02 0. -1.
    10030    2    1    2    0    0  0.00000000000E+00  0.00000000000E+00  0.64552709768E+03  0.20057077749E+04  0.18989887952E+04 0.  0.
        2    1    3    3  502    0 -0.65503265754E+03 -0.49681351349E+03  0.82448325055E+03  0.11643298846E+04  0.25500000920E-02 0.  1.
       -2    1    3    3    0  502  0.65503265754E+03  0.49681351349E+03 -0.17895615287E+03  0.84137789030E+03  0.25500000920E-02 0. -1.
</event>
<event>
 5   0  0.2789718E-05  0.1892718E+04  0.7818609E-02  0.8658489E-01
       -2   -1    0    0    0  501  0.00000000000E+00  0.00000000000E+00  0.55937924720E+03  0.55937924720E+03  0.25500000920E-02 0.  1.
        2   -1    0    0  501    0  0.00000000000E+00  0.00000000000E+00 -0.16010526966E+04  0.16010526966E+04  0.25500000920E-02 0. -1.
    10030    2    1    2    0    0  0.00000000000E+00  0.00000000000E+00 -0.10416734494E+04  0.21604319438E+04  0.18927183120E+04 0.  0.
        5    1    3    3  502    0 -0.46788130355E+03 -0.51389960579E+03  0.21232923605E+03  0.72671281365E+03  0.46999998093E+01 0.  1.
       -5    1    3    3    0  502  0.46788130355E+03  0.51389960579E+03 -0.12540026854E+04  0.14337191301E+04  0.46999998093E+01 0. -1.
</event>
<event>
 5   0  0.1471485E-05  0.1905871E+04  0.7818609E-02  0.8651940E-01
       -1   -1    0    0    0  501  0.00000000000E+00  0.00000000000E+00  0.61747810511E+03  0.61747810513E+03  0.50400001928E-02 0. -1.
        1   -1    0    0  501    0  0.00000000000E+00  0.00000000000E+00 -0.14706364958E+04  0.14706364958E+04  0.50400001928E-02 0.  1.
    10030    2    1    2    0    0  0.00000000000E+00  0.00000000000E+00 -0.85315839072E+03  0.20881146010E+04  0.19058707582E+04 0.  0.
        4    1    3    3  502    0 -0.49919953886E+03  0.26241440627E+03  0.41500050707E+03  0.70020606538E+03  0.12699999809E+01 0. -1.
       -4    1    3    3    0  502  0.49919953886E+03 -0.26241440627E+03 -0.12681588978E+04  0.13879085356E+04  0.12699999809E+01 0.  1.
</event>
<event>
 5   0  0.2879462E-05  0.1887440E+04  0.7818609E-02  0.8661134E-01
        2   -1    0    0  501    0  0.00000000000E+00  0.00000000000E+00  0.19191438774E+04  0.19191438774E+04  0.25500000920E-02 0.  1.
       -2   -1    0    0    0  501  0.00000000000E+00  0.00000000000E+00 -0.46406506319E+03  0.46406506320E+03  0.25500000920E-02 0. -1.
    10030    2    1    2    0    0  0.00000000000E+00  0.00000000000E+00  0.14550788142E+04  0.23832089406E+04  0.18874401975E+04 0.  0.
        4    1    3    3  502    0 -0.35119676203E+03 -0.61412885778E+03  0.15161886737E+04  0.16731177863E+04  0.12699999809E+01 0. -1.
       -4    1    3    3    0  502  0.35119676203E+03  0.61412885778E+03 -0.61109859498E+02  0.71009115432E+03  0.12699999809E+01 0.  1.
</event>
<event>
 5   0  0.1327254E-05  0.1900306E+04  0.7818609E-02  0.8654704E-01
        1   -1    0    0  501    0  0.00000000000E+00  0.00000000000E+00  0.86205090237E+03  0.86205090239E+03  0.50400001928E-02 0. -1.
       -1   -1    0    0    0  501  0.00000000000E+00  0.00000000000E+00 -0.10472593197E+04  0.10472593197E+04  0.50400001928E-02 0.  1.
    10030    2    1    2    0    0  0.00000000000E+00  0.00000000000E+00 -0.18520841732E+03  0.19093102221E+04  0.19003061244E+04 0.  0.
        5    1    3    3  502    0 -0.54149009893E+03 -0.38038725682E+03 -0.77764322515E+03  0.10211058065E+04  0.46999998093E+01 0.  1.
       -5    1    3    3    0  502  0.54149009893E+03  0.38038725682E+03  0.59243480783E+03  0.88820441561E+03  0.46999998093E+01 0. -1.
</event>
<event>
 5   0  0.2813537E-05  0.1901429E+04  0.7818609E-02  0.8654145E-01
        2   -1    0    0  501    0  0.00000000000E+00  0.00000000000E+00  0.11254015347E+04  0.11254015347E+04  0.25500000920E-02 0. -1.
       -2   -1    0    0    0  501  0.00000000000E+00  0.00000000000E+00 -0.80314274000E+03  0.80314274001E+03  0.25500000920E-02 0.  1.
    10030    2    1    2    0    0  0.00000000000E+00  0.00000000000E+00  0.32225879468E+03  0.19285442747E+04  0.19014290123E+04 0.  0.
        2    1    3    3  502    0 -0.92461755736E+03  0.58480104456E+02 -0.55268539168E+02  0.92811214916E+03  0.25500000920E-02 0.  1.
       -2    1    3    3    0  502  0.92461755736E+03 -0.58480104456E+02  0.37752733385E+03  0.10004321255E+04  0.25500000920E-02 0. -1.
</event>
<event>
 5   0  0.2888776E-05  0.1898289E+04  0.7818609E-02  0.8655709E-01
        2   -1    0    0  501    0  0.00000000000E+00  0.00000000000E+00  0.16703070159E+04  0.16703070159E+04  0.25500000920E-02 0.  1.
       -2   -1    0    0    0  501  0.00000000000E+00  0.00000000000E+00 -0.53934686552E+03  0.53934686552E+03  0.25500000920E-02 0. -1.
    10030    2    1    2    0    0  0.00000000000E+00  0.00000000000E+00  0.11309601503E+04  0.22096538814E+04  0.18982885486E+04 0.  0.
        3    1    3    3  502    0  0.54312085507E+03 -0.73040553539E+03  0.25226813726E+03  0.94451666614E+03  0.10100000352E+00 0. -1.
       -3    1    3    3    0  502 -0.54312085507E+03  0.73040553539E+03  0.87869201308E+03  0.12651372152E+04  0.10100000352E+00 0.  1.
</event>
<event>
 5   0  0.1344119E-05  0.1898194E+04  0.7818609E-02  0.8655756E-01
        1   -1    0    0  501    0  0.00000000000E+00  0.00000000000E+00  0.62382635360E+03  0.62382635362E+03  0.50400001928E-02 0. -1.
       -1   -1    0    0    0  501  0.00000000000E+00  0.00000000000E+00 -0.14439680770E+04  0.14439680770E+04  0.50400001928E-02 0.  1.
    10030    2    1    2    0    0  0.00000000000E+00  0.00000000000E+00 -0.82014172338E+03  0.20677944306E+04  0.18981942369E+04 0.  0.
        2    1    3    3  502    0 -0.51266140755E+03  0.20875867159E+03 -0.12499176404E+04  0.13670025638E+04  0.25500000920E-02 0.  1.
       -2    1    3    3    0  502  0.51266140755E+03 -0.20875867159E+03  0.42977591698E+03  0.70079186681E+03  0.25500000920E-02 0. -1.
</event>
<event>
 5   0  0.1327254E-05  0.1897912E+04  0.7818609E-02  0.8655897E-01
       -1   -1    0    0    0  501  0.00000000000E+00  0.00000000000E+00  0.92882574402E+03  0.92882574403E+03  0.50400001928E-02 0.  1.
        1   -1    0    0  501    0  0.00000000000E+00  0.00000000000E+00 -0.96952230471E+03  0.96952230472E+03  0.50400001928E-02 0. -1.
    10030    2    1    2    0    0  0.00000000000E+00  0.00000000000E+00 -0.40696560688E+02  0.18983480488E+04  0.18979117746E+04 0.  0.
        5    1    3    3  502    0 -0.88617440090E+03  0.29163899794E+02 -0.35856737625E+03  0.95642472531E+03  0.46999998093E+01 0. -1.
       -5    1    3    3    0  502  0.88617440090E+03 -0.29163899794E+02  0.31787081556E+03  0.94192332345E+03  0.46999998093E+01 0.  1.
</event>
<event>
 5   0  0.2888776E-05  0.1901015E+04  0.7818609E-02  0.8654351E-01
        2   -1    0    0  501    0  0.00000000000E+00  0.00000000000E+00  0.15095812586E+04  0.15095812586E+04  0.25500000920E-02 0. -1.
       -2   -1    0    0    0  501  0.00000000000E+00  0.00000000000E+00 -0.59848661266E+03  0.59848661266E+03  0.25500000920E-02 0.  1.
    10030    2    1    2    0    0  0.00000000000E+00  0.00000000000E+00  0.91109464597E+03  0.21080678713E+04  0.19010146491E+04 0.  0.
        3    1    3    3  502    0  0.76779494824E+03  0.55524083704E+03  0.37210033245E+03  0.10179686328E+04  0.10100000352E+00 0. -1.
       -3    1    3    3    0  502 -0.76779494824E+03 -0.55524083704E+03  0.53899431353E+03  0.10900992385E+04  0.10100000352E+00 0.  1.
</event>
<event>
 5   0  0.2888776E-05  0.1896314E+04  0.7818609E-02  0.8656693E-01
       -2   -1    0    0    0  501  0.00000000000E+00  0.00000000000E+00  0.36042911983E+03  0.36042911984E+03  0.25500000920E-02 0. -1.
        2   -1    0    0  501    0  0.00000000000E+00  0.00000000000E+00 -0.24942537556E+04  0.24942537556E+04  0.25500000920E-02 0.  1.
    10030    2    1    2    0    0  0.00000000000E+00  0.00000000000E+00 -0.21338246358E+04  0.28546828755E+04  0.18963139886E+04 0.  0.
        3    1    3    3  502    0  0.60401288979E+03  0.27759755567E+03 -0.49123112402E+02  0.66656212337E+03  0.10100000352E+00 0. -1.
       -3    1    3    3    0  502 -0.60401288979E+03 -0.27759755567E+03 -0.20847015234E+04  0.21881207521E+04  0.10100000352E+00 0.  1.
</event>
<event>
 5   0  0.2813537E-05  0.1897676E+04  0.7818609E-02  0.8656014E-01
        2   -1    0    0  501    0  0.00000000000E+00  0.00000000000E+00  0.20779525791E+04  0.20779525791E+04  0.25500000920E-02 0.  1.
       -2   -1    0    0    0  501  0.00000000000E+00  0.00000000000E+00 -0.43326008869E+03  0.43326008870E+03  0.25500000920E-02 0. -1.
    10030    2    1    2    0    0  0.00000000000E+00  0.00000000000E+00  0.16446924904E+04  0.25112126678E+04  0.18976763883E+04 0.  0.
        2    1    3    3  502    0  0.70792152745E+02  0.66510450459E+03  0.17129229192E+04  0.18388802185E+04  0.25500000920E-02 0.  1.
       -2    1    3    3    0  502 -0.70792152745E+02 -0.66510450459E+03 -0.68230428818E+02  0.67233244927E+03  0.25500000920E-02 0. -1.
</event>
<event>
 5   0  0.1413011E-05  0.1889343E+04  0.7818609E-02  0.8660179E-01
       -1   -1    0    0    0  501  0.00000000000E+00  0.00000000000E+00  0.98171681145E+03  0.98171681146E+03  0.50400001928E-02 0.  1.
        1   -1    0    0  501    0  0.00000000000E+00  0.00000000000E+00 -0.90902404966E+03  0.90902404967E+03  0.50400001928E-02 0. -1.
    10030    2    1    2    0    0  0.00000000000E+00  0.00000000000E+00  0.72692761787E+02  0.18907408611E+04  0.18893429457E+04 0.  0.
        1    1    3    3  502    0 -0.35389238607E+03  0.86448075623E+03  0.17729587110E+03  0.95078947446E+03  0.50400001928E-02 0.  1.
       -1    1    3    3    0  502  0.35389238607E+03 -0.86448075623E+03 -0.10460310931E+03  0.93995138667E+03  0.50400001928E-02 0. -1.
</event>
<event>
 5   0  0.2879462E-05  0.1900576E+04  0.7818609E-02  0.8654570E-01
       -2   -1    0    0    0  501  0.00000000000E+00  0.00000000000E+00  0.61119620609E+03  0.61119620610E+03  0.25500000920E-02 0. -1.
        2   -1    0    0  501    0  0.00000000000E+00  0.00000000000E+00 -0.14775084978E+04  0.14775084978E+04  0.25500000920E-02 0.  1.
    10030    2    1    2    0    0  0.00000000000E+00  0.00000000000E+00 -0.86631229167E+03  0.20887047039E+04  0.19005763213E+04 0.  0.
        4    1    3    3  502    0  0.28749208566E+03  0.23570277353E+03 -0.13942738895E+04  0.14429860667E+04  0.12699999809E+01 0.  1.
       -4    1    3    3    0  502 -0.28749208566E+03 -0.23570277353E+03  0.52796159782E+03  0.64571863721E+03  0.12699999809E+01 0. -1.
</event>
<event>
 5   0  0.2888776E-05  0.1891775E+04  0.7818609E-02  0.8658962E-01
        2   -1    0    0  501    0  0.00000000000E+00  0.00000000000E+00  0.11827593152E+04  0.11827593152E+04  0.25500000920E-02 0. -1.
       -2   -1    0    0    0  501  0.00000000000E+00  0.00000000000E+00 -0.75645380358E+03  0.75645380359E+03  0.25500000920E-02 0.  1.
    10030    2    1    2    0    0  0.00000000000E+00  0.00000000000E+00  0.42630551161E+03  0.19392131188E+04  0.18917745983E+04 0.  0.
        3    1    3    3  502    0  0.87149400766E+03 -0.14955186858E+03  0.55748561065E+03  0.10453027232E+04  0.10100000352E+00 0.  1.
       -3    1    3    3    0  502 -0.87149400766E+03  0.14955186858E+03 -0.13118009905E+03  0.89391039561E+03  0.10100000352E+00 0. -1.
</event>
<event>
 5   0  0.1344119E-05  0.1897571E+04  0.7818609E-02  0.8656066E-01
       -1   -1    0    0    0  501  0.00000000000E+00  0.00000000000E+00  0.56926159298E+03  0.56926159300E+03  0.50400001928E-02 0. -1.
        1   -1    0    0  501    0  0.00000000000E+00  0.00000000000E+00 -0.15813369191E+04  0.15813369191E+04  0.50400001928E-02 0.  1.
    10030    2    1    2    0    0  0.00000000000E+00  0.00000000000E+00 -0.10120753261E+04  0.21505985121E+04  0.18975714729E+04 0.  0.
        2    1    3    3  502    0 -0.27394010120E+03 -0.88962279376E+03 -0.29791424619E+03  0.97735602127E+03  0.25500000920E-02 0.  1.
       -2    1    3    3    0  502  0.27394010120E+03  0.88962279376E+03 -0.71416107996E+03  0.11732424909E+04  0.25500000920E-02 0. -1.
</event>
<event>
 5   0  0.1413011E-05  0.1899122E+04  0.7818609E-02  0.8655293E-01
       -1   -1    0    0    0  501  0.00000000000E+00  0.00000000000E+00  0.80028151736E+03  0.80028151738E+03  0.50400001928E-02 0. -1.
        1   -1    0    0  501    0  0.00000000000E+00  0.00000000000E+00 -0.11266864458E+04  0.11266864458E+04  0.50400001928E-02 0.  1.
    10030    2    1    2    0    0  0.00000000000E+00  0.00000000000E+00 -0.32640492845E+03  0.19269679632E+04  0.18991222588E+04 0.  0.
        1    1    3    3  502    0  0.10347280279E+03  0.71195308316E+03  0.46562839245E+03  0.85696768517E+03  0.50400001928E-02 0. -1.
       -1    1    3    3    0  502 -0.10347280279E+03 -0.71195308316E+03 -0.79203332090E+03  0.10700002780E+04  0.50400001928E-02 0.  1.
</event>
<event>
 5   0  0.2855141E-05  0.1850568E+04  0.7818609E-02  0.8679861E-01
       -2   -1    0    0    0  501  0.00000000000E+00  0.00000000000E+00  0.66239624847E+03  0.66239624848E+03  0.25500000920E-02 0. -1.
        2   -1    0    0  501    0  0.00000000000E+00  0.00000000000E+00 -0.12925054540E+04  0.12925054540E+04  0.25500000920E-02 0.  1.
    10030    2    1    2    0    0  0.00000000000E+00  0.00000000000E+00 -0.63010920549E+03  0.19549017024E+04  0.18505683060E+04 0.  0.
        1    1    3    3  502    0 -0.69388109605E+03  0.59820134463E+03 -0.45211929224E+03  0.10216299127E+04  0.50400001928E-02 0. -1.
       -1    1    3    3    0  502  0.69388109605E+03 -0.59820134463E+03 -0.17798991324E+03  0.93327178969E+03  0.50400001928E-02 0.  1.
</event>
<event>
 5   0  0.1327254E-05  0.1897772E+04  0.7818609E-02  0.8655966E-01
        1   -1    0    0  501    0  0.00000000000E+00  0.00000000000E+00  0.20052547032E+04  0.20052547032E+04  0.50400001928E-02 0.  1.
       -1   -1    0    0    0  501  0.00000000000E+00  0.00000000000E+00 -0.44901250062E+03  0.44901250064E+03  0.50400001928E-02 0. -1.
    10030    2    1    2    0    0  0.00000000000E+00  0.00000000000E+00  0.15562422026E+04  0.24542672038E+04  0.18977717763E+04 0.  0.
        5    1    3    3  502    0 -0.18735149981E+02  0.26485206229E+03 -0.39997714869E+03  0.48010564485E+03  0.46999998093E+01 0. -1.
       -5    1    3    3    0  502  0.18735149981E+02 -0.26485206229E+03  0.19562193513E+04  0.19741615590E+04  0.46999998093E+01 0.  1.
</event>
<event>
 5   0  0.1413011E-05  0.1898558E+04  0.7818609E-02  0.8655574E-01
        1   -1    0    0  501    0  0.00000000000E+00  0.00000000000E+00  0.16705806453E+04  0.16705806453E+04  0.50400001928E-02 0. -1.
       -1   -1    0    0    0  501  0.00000000000E+00  0.00000000000E+00 -0.53941185955E+03  0.53941185957E+03  0.50400001928E-02 0.  1.
    10030    2    1    2    0    0  0.00000000000E+00  0.00000000000E+00  0.11311687857E+04  0.22099925049E+04  0.18985584136E+04 0.  0.
        1    1    3    3  502    0  0.19865358075E+03 -0.31590102986E+02 -0.51431955142E+03  0.55225517721E+03  0.50400001928E-02 0.  1.
       -1    1    3    3    0  502 -0.19865358075E+03  0.31590102986E+02  0.16454883372E+04  0.16577373277E+04  0.50400001928E-02 0. -1.
</event>
<event>
 5   0  0.2888776E-05  0.1909407E+04  0.7818609E-02  0.8650188E-01
        2   -1    0    0  501    0  0.00000000000E+00  0.00000000000E+00  0.14155930180E+04  0.14155930180E+04  0.25500000920E-02 0.  1.
       -2   -1    0    0    0  501  0.00000000000E+00  0.00000000000E+00 -0.64387039371E+03  0.64387039372E+03  0.25500000920E-02 0. -1.
    10030    2    1    2    0    0  0.00000000000E+00  0.00000000000E+00  0.77172262426E+03  0.20594634117E+04  0.19094066448E+04 0.  0.
        3    1    3    3  502    0 -0.61984968939E+02  0.95259244601E+03  0.37123384874E+03  0.10242504993E+04  0.10100000352E+00 0. -1.
       -3    1    3    3    0  502  0.61984968939E+02 -0.95259244601E+03  0.40048877553E+03  0.10352129124E+04  0.10100000352E+00 0.  1.
</event>
<event>
 5   0  0.1413011E-05  0.1903101E+04  0.7818609E-02  0.8653314E-01
       -1   -1    0    0    0  501  0.00000000000E+00  0.00000000000E+00  0.64488366897E+03  0.64488366899E+03  0.50400001928E-02 0. -1.
        1   -1    0    0  501    0  0.00000000000E+00  0.00000000000E+00 -0.14040493253E+04  0.14040493253E+04  0.50400001928E-02 0.  1.
    10030    2    1    2    0    0  0.00000000000E+00  0.00000000000E+00 -0.75916565633E+03  0.20489329943E+04  0.19031011327E+04 0.  0.
        1    1    3    3  502    0  0.71727730585E+02 -0.61532557989E+03  0.39803671645E+03  0.73634479985E+03  0.50400001928E-02 0. -1.
       -1    1    3    3    0  502 -0.71727730585E+02  0.61532557989E+03 -0.11572023728E+04  0.13125881944E+04  0.50400001928E-02 0.  1.
</event>
<event>
 5   0  0.1413011E-05  0.1900314E+04  0.7818609E-02  0.8654700E-01
       -1   -1    0    0    0  501  0.00000000000E+00  0.00000000000E+00  0.13268305471E+04  0.13268305471E+04  0.50400001928E-02 0.  1.
        1   -1    0    0  501    0  0.00000000000E+00  0.00000000000E+00 -0.68041736156E+03  0.68041736158E+03  0.50400001928E-02 0. -1.
    10030    2    1    2    0    0  0.00000000000E+00  0.00000000000E+00  0.64641318552E+03  0.20072479087E+04  0.19003142268E+04 0.  0.
        1    1    3    3  502    0  0.86030671193E+03 -0.35814262208E+03  0.12728383542E+03  0.94052908043E+03  0.50400001928E-02 0.  1.
       -1    1    3    3    0  502 -0.86030671193E+03  0.35814262208E+03  0.51912935009E+03  0.10667188282E+04  0.50400001928E-02 0. -1.
</event>
<event>
 5   0  0.1344119E-05  0.1903235E+04  0.7818609E-02  0.8653248E-01
       -1   -1    0    0    0  501  0.00000000000E+00  0.00000000000E+00  0.52422916053E+03  0.52422916055E+03  0.50400001928E-02 0.  1.
        1   -1    0    0  501    0  0.00000000000E+00  0.00000000000E+00 -0.17274434554E+04  0.17274434554E+04  0.50400001928E-02 0. -1.
    10030    2    1    2    0    0  0.00000000000E+00  0.00000000000E+00 -0.12032142949E+04  0.22516726159E+04  0.19032353848E+04 0.  0.
        2    1    3    3  502    0 -0.34708671286E+02  0.78358080313E+03  0.35908147120E+02  0.78517065784E+03  0.25500000920E-02 0.  1.
       -2    1    3    3    0  502  0.34708671286E+02 -0.78358080313E+03 -0.12391224420E+04  0.14665019581E+04  0.25500000920E-02 0. -1.
</event>
<event>
 5   0  0.2855141E-05  0.1899916E+04  0.7818609E-02  0.8654898E-01
        2   -1    0    0  501    0  0.00000000000E+00  0.00000000000E+00  0.69179384741E+03  0.69179384741E+03  0.25500000920E-02 0. -1.
       -2   -1    0    0    0  501  0.00000000000E+00  0.00000000000E+00 -0.13044645821E+04  0.13044645821E+04  0.25500000920E-02 0.  1.
    10030    2    1    2    0    0  0.00000000000E+00  0.00000000000E+00 -0.61267073471E+03  0.19962584295E+04  0.18999163898E+04 0.  0.
        1    1    3    3  502    0  0.53979205472E+03 -0.12752346317E+03  0.50399385727E+03  0.74943145397E+03  0.50400001928E-02 0. -1.
       -1    1    3    3    0  502 -0.53979205472E+03  0.12752346317E+03 -0.11166645920E+04  0.12468269756E+04  0.50400001928E-02 0.  1.
</event>
<event>
 5   0  0.1010725E-05  0.1912371E+04  0.7818609E-02  0.8648723E-01
       -3   -1    0    0    0  501  0.00000000000E+00  0.00000000000E+00  0.11117687610E+04  0.11117687656E+04  0.10100000352E+00 0. -1.
        3   -1    0    0  501    0  0.00000000000E+00  0.00000000000E+00 -0.82237483648E+03  0.82237484268E+03  0.10100000352E+00 0.  1.
    10030    2    1    2    0    0  0.00000000000E+00  0.00000000000E+00  0.28939392454E+03  0.19341436083E+04  0.19123709509E+04 0.  0.
        5    1    3    3  502    0 -0.41032969233E+03  0.64592365568E+03  0.72453100830E+03  0.10538287799E+04  0.46999998093E+01 0. -1.
       -5    1    3    3    0  502  0.41032969233E+03 -0.64592365568E+03 -0.43513708377E+03  0.88031482837E+03  0.46999998093E+01 0.  1.
</event>
<event>
 5   0  0.2888776E-05  0.1894882E+04  0.7818609E-02  0.8657408E-01
        2   -1    0    0  501    0  0.00000000000E+00  0.00000000000E+00  0.23695682990E+04  0.23695682990E+04  0.25500000920E-02 0. -1.
       -2   -1    0    0    0  501  0.00000000000E+00  0.00000000000E+00 -0.37882189500E+03  0.37882189501E+03  0.25500000920E-02 0.  1.
    10030    2    1    2    0    0  0.00000000000E+00  0.00000000000E+00  0.19907464040E+04  0.27483901940E+04  0.18948818996E+04 0.  0.
        3    1    3    3  502    0 -0.77557553880E+03 -0.51871517034E+03  0.12339741509E+04  0.15470213507E+04  0.10100000352E+00 0. -1.
       -3    1    3    3    0  502  0.77557553880E+03  0.51871517034E+03  0.75677225307E+03  0.12013688433E+04  0.10100000352E+00 0.  1.
</event>
<event>
 5   0  0.2813537E-05  0.1901548E+04  0.7818609E-02  0.8654086E-01
        2   -1    0    0  501    0  0.00000000000E+00  0.00000000000E+00  0.14697411184E+04  0.14697411184E+04  0.25500000920E-02 0. -1.
       -2   -1    0    0    0  501  0.00000000000E+00  0.00000000000E+00 -0.61505499965E+03  0.61505499966E+03  0.25500000920E-02 0.  1.
    10030    2    1    2    0    0  0.00000000000E+00  0.00000000000E+00  0.85468611875E+03  0.20847961181E+04  0.19015484460E+04 0.  0.
        2    1    3    3  502    0 -0.13183524721E+03 -0.56008708666E+03 -0.40249463854E+03  0.70219656159E+03  0.25500000920E-02 0.  1.
       -2    1    3    3    0  502  0.13183524721E+03  0.56008708666E+03  0.12571807573E+04  0.13825995565E+04  0.25500000920E-02 0. -1.
</event>
<event>
 5   0  0.2855141E-05  0.1897086E+04  0.7818609E-02  0.8656308E-01
        2   -1    0    0  501    0  0.00000000000E+00  0.00000000000E+00  0.62052102187E+03  0.62052102187E+03  0.25500000920E-02 0.  1.
       -2   -1    0    0    0  501  0.00000000000E+00  0.00000000000E+00 -0.14499654716E+04  0.14499654716E+04  0.25500000920E-02 0. -1.
    10030    2    1    2    0    0  0.00000000000E+00  0.00000000000E+00 -0.82944444971E+03  0.20704864935E+04  0.18970862459E+04 0.  0.
        1    1    3    3  502    0 -0.69947425602E+03 -0.31426126768E+03 -0.10240633202E+04  0.12793475145E+04  0.50400001928E-02 0. -1.
       -1    1    3    3    0  502  0.69947425602E+03  0.31426126768E+03  0.19461887046E+03  0.79113897892E+03  0.50400001928E-02 0.  1.
</event>
<event>
 5   0  0.2888776E-05  0.1896854E+04  0.7818609E-02  0.8656424E-01
       -2   -1    0    0    0  501  0.00000000000E+00  0.00000000000E+00  0.95151619524E+03  0.95151619524E+03  0.25500000920E-02 0.  1.
        2   -1    0    0  501    0  0.00000000000E+00  0.00000000000E+00 -0.94534747924E+03  0.94534747925E+03  0.25500000920E-02 0. -1.
    10030    2    1    2    0    0  0.00000000000E+00  0.00000000000E+00  0.61687159931E+01  0.18968636745E+04  0.18968536439E+04 0.  0.
        3    1    3    3  502    0 -0.23755303048E+03 -0.72200252841E+03 -0.56418783100E+03  0.94658703360E+03  0.10100000352E+00 0. -1.
       -3    1    3    3    0  502  0.23755303048E+03  0.72200252841E+03  0.57035654699E+03  0.95027664089E+03  0.10100000352E+00 0.  1.
</event>
<event>
 5   0  0.1429067E-05  0.1902665E+04  0.7818609E-02  0.8653531E-01
        1   -1    0    0  501    0  0.00000000000E+00  0.00000000000E+00  0.91250860136E+03  0.91250860137E+03  0.50400001928E-02 0.  1.
       -1   -1    0    0    0  501  0.00000000000E+00  0.00000000000E+00 -0.99180772665E+03  0.99180772666E+03  0.50400001928E-02 0. -1.
    10030    2    1    2    0    0  0.00000000000E+00  0.00000000000E+00 -0.79299125292E+02  0.19043163280E+04  0.19026645332E+04 0.  0.
        3    1    3    3  502    0 -0.46560010169E+03 -0.33680966132E+03 -0.79846926484E+03  0.98375676859E+03  0.10100000352E+00 0. -1.
       -3    1    3    3    0  502  0.46560010169E+03  0.33680966132E+03  0.71917013955E+03  0.92055955944E+03  0.10100000352E+00 0.  1.
</event>
<event>
 5   0  0.1010725E-05  0.1840172E+04  0.7818609E-02  0.8685224E-01
        3   -1    0    0  501    0  0.00000000000E+00  0.00000000000E+00  0.12987339043E+04  0.12987339082E+04  0.10100000352E+00 0.  1.
       -3   -1    0    0    0  501  0.00000000000E+00  0.00000000000E+00 -0.65183326997E+03  0.65183327780E+03  0.10100000352E+00 0. -1.
    10030    2    1    2    0    0  0.00000000000E+00  0.00000000000E+00  0.64690063428E+03  0.19505671860E+04  0.18401717084E+04 0.  0.
        3    1    3    3  502    0 -0.55902547347E+03 -0.54504752428E+03 -0.19255097954E+03  0.80415307848E+03  0.10100000352E+00 0. -1.
       -3    1    3    3    0  502  0.55902547347E+03  0.54504752428E+03  0.83945161381E+03  0.11464141075E+04  0.10100000352E+00 0.  1.
</event>
<event>
 5   0  0.2879462E-05  0.1898347E+04  0.7818609E-02  0.8655680E-01
        2   -1    0    0  501    0  0.00000000000E+00  0.00000000000E+00  0.17913941166E+04  0.17913941166E+04  0.25500000920E-02 0. -1.
       -2   -1    0    0    0  501  0.00000000000E+00  0.00000000000E+00 -0.50292141673E+03  0.50292141673E+03  0.25500000920E-02 0.  1.
    10030    2    1    2    0    0  0.00000000000E+00  0.00000000000E+00  0.12884726999E+04  0.22943155334E+04  0.18983471411E+04 0.  0.
        4    1    3    3  502    0  0.47834812667E+03 -0.60008222629E+03  0.13193300084E+04  0.15262859799E+04  0.12699999809E+01 0. -1.
       -4    1    3    3    0  502 -0.47834812667E+03  0.60008222629E+03 -0.30857308462E+02  0.76802955345E+03  0.12699999809E+01 0.  1.
</event>
<event>
 5   0  0.2813537E-05  0.1906362E+04  0.7818609E-02  0.8651696E-01
        2   -1    0    0  501    0  0.00000000000E+00  0.00000000000E+00  0.93874289189E+03  0.93874289189E+03  0.25500000920E-02 0.  1.
       -2   -1    0    0    0  501  0.00000000000E+00  0.00000000000E+00 -0.96784107303E+03  0.96784107304E+03  0.25500000920E-02 0. -1.
    10030    2    1    2    0    0  0.00000000000E+00  0.00000000000E+00 -0.29098181146E+02  0.19065839649E+04  0.19063619046E+04 0.  0.
        2    1    3    3  502    0  0.36821125423E+03  0.18850297528E+03  0.84429480577E+03  0.94018435346E+03  0.25500000920E-02 0.  1.
       -2    1    3    3    0  502 -0.36821125423E+03 -0.18850297528E+03 -0.87339298692E+03  0.96639961147E+03  0.25500000920E-02 0. -1.
</event>
<event>
 5   0  0.1344119E-05  0.1899738E+04  0.7818609E-02  0.8654987E-01
        1   -1    0    0  501    0  0.00000000000E+00  0.00000000000E+00  0.60333981048E+03  0.60333981050E+03  0.50400001928E-02 0.  1.
       -1   -1    0    0    0  501  0.00000000000E+00  0.00000000000E+00 -0.14954279281E+04  0.14954279281E+04  0.50400001928E-02 0. -1.
    10030    2    1    2    0    0  0.00000000000E+00  0.00000000000E+00 -0.89208811758E+03  0.20987677386E+04  0.18997380901E+04 0.  0.
        2    1    3    3  502    0  0.38518041176E+03 -0.51736105830E+02  0.51148400466E+03  0.64238342233E+03  0.25500000920E-02 0.  1.
       -2    1    3    3    0  502 -0.38518041176E+03  0.51736105830E+02 -0.14035721222E+04  0.14563843162E+04  0.25500000920E-02 0. -1.
</event>
<event>
 5   0  0.1344119E-05  0.1900913E+04  0.7818609E-02  0.8654402E-01
       -1   -1    0    0    0  501  0.00000000000E+00  0.00000000000E+00  0.10771236688E+04  0.10771236688E+04  0.50400001928E-02 0.  1.
        1   -1    0    0  501    0  0.00000000000E+00  0.00000000000E+00 -0.83868522558E+03  0.83868522560E+03  0.50400001928E-02 0. -1.
    10030    2    1    2    0    0  0.00000000000E+00  0.00000000000E+00  0.23843844319E+03  0.19158088944E+04  0.19009131565E+04 0.  0.
        2    1    3    3  502    0 -0.38754215444E+03 -0.64919164324E+03 -0.46125324642E+03  0.88565979273E+03  0.25500000920E-02 0. -1.
       -2    1    3    3    0  502  0.38754215444E+03  0.64919164324E+03  0.69969168961E+03  0.10301491017E+04  0.25500000920E-02 0.  1.
</event>
<event>
 5   0  0.2855141E-05  0.1897008E+04  0.7818609E-02  0.8656347E-01
        2   -1    0    0  501    0  0.00000000000E+00  0.00000000000E+00  0.10121515648E+04  0.10121515648E+04  0.25500000920E-02 0.  1.
       -2   -1    0    0    0  501  0.00000000000E+00  0.00000000000E+00 -0.88885839975E+03  0.88885839976E+03  0.25500000920E-02 0. -1.
    10030    2    1    2    0    0  0.00000000000E+00  0.00000000000E+00  0.12329316505E+03  0.19010099646E+04  0.18970075595E+04 0.  0.
        1    1    3    3  502    0 -0.76800573598E+03  0.10818284814E+03 -0.48551189475E+03  0.91501810862E+03  0.50400001928E-02 0. -1.
       -1    1    3    3    0  502  0.76800573598E+03 -0.10818284814E+03  0.60880505980E+03  0.98599185595E+03  0.50400001928E-02 0.  1.
</event>
<event>
 5   0  0.1413011E-05  0.1898802E+04  0.7818609E-02  0.8655453E-01
       -1   -1    0    0    0  501  0.00000000000E+00  0.00000000000E+00  0.81086354331E+03  0.81086354332E+03  0.50400001928E-02 0. -1.
        1   -1    0    0  501    0  0.00000000000E+00  0.00000000000E+00 -0.11116080474E+04  0.11116080475E+04  0.50400001928E-02 0.  1.
    10030    2    1    2    0    0  0.00000000000E+00  0.00000000000E+00 -0.30074450414E+03  0.19224715908E+04  0.18988021910E+04 0.  0.
        1    1    3    3  502    0  0.23856530705E+03 -0.53614829786E+03  0.60525128869E+03  0.84302878095E+03  0.50400001928E-02 0. -1.
       -1    1    3    3    0  502 -0.23856530705E+03  0.53614829786E+03 -0.90599579283E+03  0.10794428098E+04  0.50400001928E-02 0.  1.
</event>
<event>
 5   0  0.1327254E-05  0.1898072E+04  0.7818609E-02  0.8655817E-01
       -1   -1    0    0    0  501  0.00000000000E+00  0.00000000000E+00  0.55695749526E+03  0.55695749529E+03  0.50400001928E-02 0.  1.
        1   -1    0    0  501    0  0.00000000000E+00  0.00000000000E+00 -0.16171238851E+04  0.16171238851E+04  0.50400001928E-02 0. -1.
    10030    2    1    2    0    0  0.00000000000E+00  0.00000000000E+00 -0.10601663899E+04  0.21740813804E+04  0.18980719361E+04 0.  0.
        5    1    3    3  502    0 -0.20663206577E+03 -0.37164806013E+03  0.44171821085E+03  0.61315263923E+03  0.46999998093E+01 0.  1.
       -5    1    3    3    0  502  0.20663206577E+03  0.37164806013E+03 -0.15018846007E+04  0.15609287412E+04  0.46999998093E+01 0. -1.
</event>
<event>
 5   0  0.1413011E-05  0.1900362E+04  0.7818609E-02  0.8654676E-01
        1   -1    0    0  501    0  0.00000000000E+00  0.00000000000E+00  0.65707204770E+03  0.65707204772E+03  0.50400001928E-02 0.  1.
       -1   -1    0    0    0  501  0.00000000000E+00  0.00000000000E+00 -0.13740411922E+04  0.13740411922E+04  0.50400001928E-02 0. -1.
    10030    2    1    2    0    0  0.00000000000E+00  0.00000000000E+00 -0.71696914453E+03  0.20311132400E+04  0.19003621337E+04 0.  0.
        1    1    3    3  502    0 -0.41547801873E+02  0.10494150309E+03 -0.13668510948E+04  0.13715031368E+04  0.50400001928E-02 0. -1.
       -1    1    3    3    0  502  0.41547801873E+02 -0.10494150309E+03  0.64988195025E+03  0.65961010317E+03  0.50400001928E-02 0.  1.
</event>
<event>
 5   0  0.1429067E-05  0.1904642E+04  0.7818609E-02  0.8652549E-01
        1   -1    0    0  501    0  0.00000000000E+00  0.00000000000E+00  0.65515717411E+03  0.65515717413E+03  0.50400001928E-02 0. -1.
       -1   -1    0    0    0  501  0.00000000000E+00  0.00000000000E+00 -0.13842714210E+04  0.13842714210E+04  0.50400001928E-02 0.  1.
    10030    2    1    2    0    0  0.00000000000E+00  0.00000000000E+00 -0.72911424686E+03  0.20394285951E+04  0.19046420686E+04 0.  0.
        3    1    3    3  502    0  0.20506617610E+03  0.89065742460E+03 -0.65106005529E+03  0.11221416980E+04  0.10100000352E+00 0.  1.
       -3    1    3    3    0  502 -0.20506617610E+03 -0.89065742460E+03 -0.78054191566E+02  0.91728689711E+03  0.10100000352E+00 0. -1.
</event>
<event>
 5   0  0.2888776E-05  0.1900147E+04  0.7818609E-02  0.8654783E-01
       -2   -1    0    0    0  501  0.00000000000E+00  0.00000000000E+00  0.95609233969E+03  0.95609233970E+03  0.25500000920E-02 0.  1.
        2   -1    0    0  501    0  0.00000000000E+00  0.00000000000E+00 -0.94409300656E+03  0.94409300656E+03  0.25500000920E-02 0. -1.
    10030    2    1    2    0    0  0.00000000000E+00  0.00000000000E+00  0.11999333135E+02  0.19001853463E+04  0.19001474591E+04 0.  0.
        3    1    3    3  502    0  0.12156938439E+03 -0.79199345875E+02 -0.93294846098E+03  0.94416338239E+03  0.10100000352E+00 0. -1.
       -3    1    3    3    0  502 -0.12156938439E+03  0.79199345875E+02  0.94494779411E+03  0.95602196387E+03  0.10100000352E+00 0.  1.
</event>
<event>
 5   0  0.2855141E-05  0.1907306E+04  0.7818609E-02  0.8651228E-01
       -2   -1    0    0    0  501  0.00000000000E+00  0.00000000000E+00  0.12749063118E+04  0.12749063118E+04  0.25500000920E-02 0.  1.
        2   -1    0    0  501    0  0.00000000000E+00  0.00000000000E+00 -0.71335002210E+03  0.71335002210E+03  0.25500000920E-02 0. -1.
    10030    2    1    2    0    0  0.00000000000E+00  0.00000000000E+00  0.56155628972E+03  0.19882563339E+04  0.19073064208E+04 0.  0.
        1    1    3    3  502    0 -0.81453331836E+03 -0.48708296724E+03  0.37823449760E+03  0.10216534045E+04  0.50400001928E-02 0. -1.
       -1    1    3    3    0  502  0.81453331836E+03  0.48708296724E+03  0.18332179212E+03  0.96660292943E+03  0.50400001928E-02 0.  1.
</event>
<event>
 5   0  0.2879462E-05  0.1897939E+04  0.7818609E-02  0.8655883E-01
       -2   -1    0    0    0  501  0.00000000000E+00  0.00000000000E+00  0.68254336579E+03  0.68254336580E+03  0.25500000920E-02 0. -1.
        2   -1    0    0  501    0  0.00000000000E+00  0.00000000000E+00 -0.13193928876E+04  0.13193928876E+04  0.25500000920E-02 0.  1.
    10030    2    1    2    0    0  0.00000000000E+00  0.00000000000E+00 -0.63684952178E+03  0.20019362534E+04  0.18979387369E+04 0.  0.
        4    1    3    3  502    0 -0.43439744591E+03 -0.61464222963E+03 -0.92806983264E+03  0.11949064560E+04  0.12699999809E+01 0.  1.
       -4    1    3    3    0  502  0.43439744591E+03  0.61464222963E+03  0.29122031086E+03  0.80702979736E+03  0.12699999809E+01 0. -1.
</event>
<event>
 5   0  0.1344119E-05  0.1899492E+04  0.7818609E-02  0.8655109E-01
       -1   -1    0    0    0  501  0.00000000000E+00  0.00000000000E+00  0.39358075669E+03  0.39358075672E+03  0.50400001928E-02 0. -1.
        1   -1    0    0  501    0  0.00000000000E+00  0.00000000000E+00 -0.22918229414E+04  0.22918229414E+04  0.50400001928E-02 0.  1.
    10030    2    1    2    0    0  0.00000000000E+00  0.00000000000E+00 -0.18982421847E+04  0.26854036981E+04  0.18994919400E+04 0.  0.
        2    1    3    3  502    0 -0.16306803736E+03  0.38110076992E+03 -0.21571841390E+04  0.21966502660E+04  0.25500000920E-02 0.  1.
       -2    1    3    3    0  502  0.16306803736E+03 -0.38110076992E+03  0.25894195433E+03  0.48875343207E+03  0.25500000920E-02 0. -1.
</event>
<event>
 5   0  0.2789718E-05  0.1896668E+04  0.7818609E-02  0.8656517E-01
        2   -1    0    0  501    0  0.00000000000E+00  0.00000000000E+00  0.25480481061E+04  0.25480481061E+04  0.25500000920E-02 0. -1.
       -2   -1    0    0    0  501  0.00000000000E+00  0.00000000000E+00 -0.35295135068E+03  0.35295135069E+03  0.25500000920E-02 0.  1.
    10030    2    1    2    0    0  0.00000000000E+00  0.00000000000E+00  0.21950967554E+04  0.29009994568E+04  0.18966676258E+04 0.  0.
        5    1    3    3  502    0  0.49848602295E+03 -0.73081082814E+03  0.16201494038E+04  0.18459357958E+04  0.46999998093E+01 0. -1.
       -5    1    3    3    0  502 -0.49848602295E+03  0.73081082814E+03  0.57494735162E+03  0.10550636610E+04  0.46999998093E+01 0.  1.
</event>
<event>
 5   0  0.2789718E-05  0.1898592E+04  0.7818609E-02  0.8655558E-01
        2   -1    0    0  501    0  0.00000000000E+00  0.00000000000E+00  0.10141516323E+04  0.10141516323E+04  0.25500000920E-02 0.  1.
       -2   -1    0    0    0  501  0.00000000000E+00  0.00000000000E+00 -0.88858793386E+03  0.88858793386E+03  0.25500000920E-02 0. -1.
    10030    2    1    2    0    0  0.00000000000E+00  0.00000000000E+00  0.12556369842E+03  0.19027395661E+04  0.18985920084E+04 0.  0.
        5    1    3    3  502    0 -0.86996319057E+03 -0.28748790931E+03 -0.18606596657E+03  0.93494806533E+03  0.46999998093E+01 0.  1.
       -5    1    3    3    0  502  0.86996319057E+03  0.28748790931E+03  0.31162966499E+03  0.96779150082E+03  0.46999998093E+01 0. -1.
</event>
<event>
 5   0  0.2888776E-05  0.1900602E+04  0.7818609E-02  0.8654557E-01
        2   -1    0    0  501    0  0.00000000000E+00  0.00000000000E+00  0.13262575060E+04  0.13262575060E+04  0.25500000920E-02 0. -1.
       -2   -1    0    0    0  501  0.00000000000E+00  0.00000000000E+00 -0.68091770986E+03  0.68091770986E+03  0.25500000920E-02 0.  1.
    10030    2    1    2    0    0  0.00000000000E+00  0.00000000000E+00  0.64533979616E+03  0.20071752159E+04  0.19006022453E+04 0.  0.
        3    1    3    3  502    0 -0.89818762964E+03  0.19366173429E+03  0.66528415866E+02  0.92123391474E+03  0.10100000352E+00 0.  1.
       -3    1    3    3    0  502  0.89818762964E+03 -0.19366173429E+03  0.57881138029E+03  0.10859413011E+04  0.10100000352E+00 0. -1.
</event>
<event>
 5   0  0.2789718E-05  0.1902801E+04  0.7818609E-02  0.8653464E-01
       -2   -1    0    0    0  501  0.00000000000E+00  0.00000000000E+00  0.84446860122E+03  0.84446860122E+03  0.25500000920E-02 0.  1.
        2   -1    0    0  501    0  0.00000000000E+00  0.00000000000E+00 -0.10718723429E+04  0.10718723429E+04  0.25500000920E-02 0. -1.
    10030    2    1    2    0    0  0.00000000000E+00  0.00000000000E+00 -0.22740374170E+03  0.19163409441E+04  0.19028006076E+04 0.  0.
        5    1    3    3  502    0  0.29563672099E+03  0.90146666003E+03 -0.41798879110E+02  0.94963806065E+03  0.46999998093E+01 0.  1.
       -5    1    3    3    0  502 -0.29563672099E+03 -0.90146666003E+03 -0.18560486259E+03  0.96670288349E+03  0.46999998093E+01 0. -1.
</event>
<event>
 5   0  0.2813537E-05  0.1898847E+04  0.7818609E-02  0.8655430E-01
        2   -1    0    0  501    0  0.00000000000E+00  0.00000000000E+00  0.11739959887E+04  0.11739959887E+04  0.25500000920E-02 0.  1.
       -2   -1    0    0    0  501  0.00000000000E+00  0.00000000000E+00 -0.76780932703E+03  0.76780932704E+03  0.25500000920E-02 0. -1.
    10030    2    1    2    0    0  0.00000000000E+00  0.00000000000E+00  0.40618666171E+03  0.19418053158E+04  0.18988470924E+04 0.  0.
        2    1    3    3  502    0 -0.74267581878E+03 -0.54048503452E+03  0.44876488379E+03  0.10222922113E+04  0.25500000920E-02 0.  1.
       -2    1    3    3    0  502  0.74267581878E+03  0.54048503452E+03 -0.42578222077E+02  0.91951310449E+03  0.25500000920E-02 0. -1.
</event>
<event>
 5   0  0.2789718E-05  0.1884194E+04  0.7818609E-02  0.8662764E-01
       -2   -1    0    0    0  501  0.00000000000E+00  0.00000000000E+00  0.45731343437E+03  0.45731343438E+03  0.25500000920E-02 0.  1.
        2   -1    0    0  501    0  0.00000000000E+00  0.00000000000E+00 -0.19407835658E+04  0.19407835658E+04  0.25500000920E-02 0. -1.
    10030    2    1    2    0    0  0.00000000000E+00  0.00000000000E+00 -0.14834701314E+04  0.23980970002E+04  0.18841936183E+04 0.  0.
        5    1    3    3  502    0 -0.53057220555E+03  0.36351961246E+02 -0.17314491648E+04  0.18112886657E+04  0.46999998093E+01 0. -1.
       -5    1    3    3    0  502  0.53057220555E+03 -0.36351961246E+02  0.24797903336E+03  0.58680833444E+03  0.46999998093E+01 0.  1.
</event>
<event>
 5   0  0.2813537E-05  0.1900283E+04  0.7818609E-02  0.8654716E-01
        2   -1    0    0  501    0  0.00000000000E+00  0.00000000000E+00  0.76591414747E+03  0.76591414748E+03  0.25500000920E-02 0.  1.
       -2   -1    0    0    0  501  0.00000000000E+00  0.00000000000E+00 -0.11786812791E+04  0.11786812791E+04  0.25500000920E-02 0. -1.
    10030    2    1    2    0    0  0.00000000000E+00  0.00000000000E+00 -0.41276713166E+03  0.19445954266E+04  0.19002827864E+04 0.  0.
        2    1    3    3  502    0  0.36481306946E+03 -0.77463836694E+02  0.68788214037E+03  0.78247751450E+03  0.25500000920E-02 0.  1.
       -2    1    3    3    0  502 -0.36481306946E+03  0.77463836694E+02 -0.11006492720E+04  0.11621179121E+04  0.25500000920E-02 0. -1.
</event>
<event>
 5   0  0.2879462E-05  0.1899846E+04  0.7818609E-02  0.8654933E-01
        2   -1    0    0  501    0  0.00000000000E+00  0.00000000000E+00  0.10111527587E+04  0.10111527587E+04  0.25500000920E-02 0.  1.
       -2   -1    0    0    0  501  0.00000000000E+00  0.00000000000E+00 -0.89240104104E+03  0.89240104104E+03  0.25500000920E-02 0. -1.
    10030    2    1    2    0    0  0.00000000000E+00  0.00000000000E+00  0.11875171762E+03  0.19035537997E+04  0.18998460722E+04 0.  0.
        4    1    3    3  502    0 -0.60520017811E+03  0.72174342545E+03 -0.64036491289E+02  0.94407791674E+03  0.12699999809E+01 0.  1.
       -4    1    3    3    0  502  0.60520017811E+03 -0.72174342545E+03  0.18278820891E+03  0.95947588296E+03  0.12699999809E+01 0. -1.
</event>
<event>
 5   0  0.2855141E-05  0.1900259E+04  0.7818609E-02  0.8654727E-01
       -2   -1    0    0    0  501  0.00000000000E+00  0.00000000000E+00  0.36851529526E+03  0.36851529526E+03  0.25500000920E-02 0.  1.
        2   -1    0    0  501    0  0.00000000000E+00  0.00000000000E+00 -0.24496844107E+04  0.24496844107E+04  0.25500000920E-02 0. -1.
    10030    2    1    2    0    0  0.00000000000E+00  0.00000000000E+00 -0.20811691155E+04  0.28181997060E+04  0.19002591128E+04 0.  0.
        1    1    3    3  502    0 -0.68420413508E+03 -0.33398107882E+03 -0.19762723724E+03  0.78659721866E+03  0.50400001928E-02 0.  1.
       -1    1    3    3    0  502  0.68420413508E+03  0.33398107882E+03 -0.18835418782E+04  0.20316024873E+04  0.50400001928E-02 0. -1.
</event>
<event>
 5   0  0.1413011E-05  0.1897936E+04  0.7818609E-02  0.8655884E-01
        1   -1    0    0  501    0  0.00000000000E+00  0.00000000000E+00  0.65473301817E+03  0.65473301819E+03  0.50400001928E-02 0.  1.
       -1   -1    0    0    0  501  0.00000000000E+00  0.00000000000E+00 -0.13754317956E+04  0.13754317957E+04  0.50400001928E-02 0. -1.
    10030    2    1    2    0    0  0.00000000000E+00  0.00000000000E+00 -0.72069877747E+03  0.20301648138E+04  0.18979363645E+04 0.  0.
        1    1    3    3  502    0 -0.60901075615E+03 -0.71977078139E+03 -0.47543973267E+03  0.10559389273E+04  0.50400001928E-02 0. -1.
       -1    1    3    3    0  502  0.60901075615E+03  0.71977078139E+03 -0.24525904480E+03  0.97422588650E+03  0.50400001928E-02 0.  1.
</event>
<event>
 5   0  0.1327254E-05  0.1900033E+04  0.7818609E-02  0.8654840E-01
       -1   -1    0    0    0  501  0.00000000000E+00  0.00000000000E+00  0.60094123043E+03  0.60094123045E+03  0.50400001928E-02 0. -1.
        1   -1    0    0  501    0  0.00000000000E+00  0.00000000000E+00 -0.15018625194E+04  0.15018625194E+04  0.50400001928E-02 0.  1.
    10030    2    1    2    0    0  0.00000000000E+00  0.00000000000E+00 -0.90092128893E+03  0.21028037498E+04  0.19000327475E+04 0.  0.
        5    1    3    3  502    0  0.45266917433E+03  0.80324278453E+03 -0.19711930142E+03  0.94286078574E+03  0.46999998093E+01 0. -1.
       -5    1    3    3    0  502 -0.45266917433E+03 -0.80324278453E+03 -0.70380198751E+03  0.11599429641E+04  0.46999998093E+01 0.  1.
</event>
<event>
 5   0  0.1344119E-05  0.1899409E+04  0.7818609E-02  0.8655150E-01
        1   -1    0    0  501    0  0.00000000000E+00  0.00000000000E+00  0.12170795289E+04  0.12170795289E+04  0.50400001928E-02 0.  1.
       -1   -1    0    0    0  501  0.00000000000E+00  0.00000000000E+00 -0.74106823537E+03  0.74106823539E+03  0.50400001928E-02 0. -1.
    10030    2    1    2    0    0  0.00000000000E+00  0.00000000000E+00  0.47601129353E+03  0.19581477643E+04  0.18994093596E+04 0.  0.
        2    1    3    3  502    0  0.36070291458E+03 -0.60720890282E+03 -0.41655411441E+03  0.81995522712E+03  0.25500000920E-02 0. -1.
       -2    1    3    3    0  502 -0.36070291458E+03  0.60720890282E+03  0.89256540794E+03  0.11381925372E+04  0.25500000920E-02 0.  1.
</event>
<event>
 5   0  0.1010725E-05  0.1901052E+04  0.7818609E-02  0.8654333E-01
       -3   -1    0    0    0  501  0.00000000000E+00  0.00000000000E+00  0.12294081439E+04  0.12294081480E+04  0.10100000352E+00 0.  1.
        3   -1    0    0  501    0  0.00000000000E+00  0.00000000000E+00 -0.73490604249E+03  0.73490604943E+03  0.10100000352E+00 0. -1.
    10030    2    1    2    0    0  0.00000000000E+00  0.00000000000E+00  0.49450210141E+03  0.19643141975E+04  0.19010517978E+04 0.  0.
        2    1    3    3  502    0 -0.16821001359E+03  0.29360795647E+03  0.11650663628E+04  0.12132105632E+04  0.25500000920E-02 0.  1.
       -2    1    3    3    0  502  0.16821001359E+03 -0.29360795647E+03 -0.67056426142E+03  0.75110363431E+03  0.25500000920E-02 0. -1.
</event>
<event>
 5   0  0.2888776E-05  0.1900591E+04  0.7818609E-02  0.8654562E-01
        2   -1    0    0  501    0  0.00000000000E+00  0.00000000000E+00  0.11798108908E+04  0.11798108908E+04  0.25500000920E-02 0.  1.
       -2   -1    0    0    0  501  0.00000000000E+00  0.00000000000E+00 -0.76542911913E+03  0.76542911913E+03  0.25500000920E-02 0. -1.
    10030    2    1    2    0    0  0.00000000000E+00  0.00000000000E+00  0.41438177167E+03  0.19452400099E+04  0.19005910774E+04 0.  0.
        3    1    3    3  502    0  0.11532863999E+03  0.83971220132E+03 -0.23260634346E+03  0.87893287427E+03  0.10100000352E+00 0. -1.
       -3    1    3    3    0  502 -0.11532863999E+03 -0.83971220132E+03  0.64698811512E+03  0.10663071357E+04  0.10100000352E+00 0.  1.
</event>
<event>
 5   0  0.2879462E-05  0.1901399E+04  0.7818609E-02  0.8654160E-01
        2   -1    0    0  501    0  0.00000000000E+00  0.00000000000E+00  0.49126743249E+03  0.49126743249E+03  0.25500000920E-02 0. -1.
       -2   -1    0    0    0  501  0.00000000000E+00  0.00000000000E+00 -0.18397922452E+04  0.18397922452E+04  0.25500000920E-02 0.  1.
    10030    2    1    2    0    0  0.00000000000E+00  0.00000000000E+00 -0.13485248127E+04  0.23310596777E+04  0.19013994979E+04 0.  0.
        4    1    3    3  502    0  0.39895099083E+03  0.43019215399E+03 -0.15913680003E+04  0.16960780960E+04  0.12699999809E+01 0. -1.
       -4    1    3    3    0  502 -0.39895099083E+03 -0.43019215399E+03  0.24284318760E+03  0.63498158170E+03  0.12699999809E+01 0.  1.
</event>
<event>
 5   0  0.1471485E-05  0.1893941E+04  0.7818609E-02  0.8657878E-01
        1   -1    0    0  501    0  0.00000000000E+00  0.00000000000E+00  0.79547686025E+03  0.79547686027E+03  0.50400001928E-02 0. -1.
       -1   -1    0    0    0  501  0.00000000000E+00  0.00000000000E+00 -0.11273150831E+04  0.11273150831E+04  0.50400001928E-02 0.  1.
    10030    2    1    2    0    0  0.00000000000E+00  0.00000000000E+00 -0.33183822287E+03  0.19227919434E+04  0.18939409313E+04 0.  0.
        4    1    3    3  502    0  0.42294412655E+03 -0.40364215348E+03  0.59037365394E+03  0.83087386914E+03  0.12699999809E+01 0. -1.
       -4    1    3    3    0  502 -0.42294412655E+03  0.40364215348E+03 -0.92221187682E+03  0.10919180743E+04  0.12699999809E+01 0.  1.
</event>
<event>
 5   0  0.1344119E-05  0.1894616E+04  0.7818609E-02  0.8657541E-01
       -1   -1    0    0    0  501  0.00000000000E+00  0.00000000000E+00  0.12674847086E+04  0.12674847086E+04  0.50400001928E-02 0. -1.
        1   -1    0    0  501    0  0.00000000000E+00  0.00000000000E+00 -0.70801072930E+03  0.70801072932E+03  0.50400001928E-02 0.  1.
    10030    2    1    2    0    0  0.00000000000E+00  0.00000000000E+00  0.55947397929E+03  0.19754954379E+04  0.18946163442E+04 0.  0.
        2    1    3    3  502    0  0.39716916635E+03  0.41482952654E+03 -0.50579322635E+03  0.76528012558E+03  0.25500000920E-02 0.  1.
       -2    1    3    3    0  502 -0.39716916635E+03 -0.41482952654E+03  0.10652672056E+04  0.12102153123E+04  0.25500000920E-02 0. -1.
</event>
<event>
 5   0  0.1344119E-05  0.1900486E+04  0.7818609E-02  0.8654615E-01
       -1   -1    0    0    0  501  0.00000000000E+00  0.00000000000E+00  0.76526977774E+03  0.76526977775E+03  0.50400001928E-02 0.  1.
        1   -1    0    0  501    0  0.00000000000E+00  0.00000000000E+00 -0.11799254963E+04  0.11799254963E+04  0.50400001928E-02 0. -1.
    10030    2    1    2    0    0  0.00000000000E+00  0.00000000000E+00 -0.41465571852E+03  0.19451952740E+04  0.19004855404E+04 0.  0.
        2    1    3    3  502    0  0.55028576961E+03 -0.39295042207E+03 -0.89066953867E+03  0.11182650355E+04  0.25500000920E-02 0. -1.
       -2    1    3    3    0  502 -0.55028576961E+03  0.39295042207E+03  0.47601382015E+03  0.82693023855E+03  0.25500000920E-02 0.  1.
</event>
<event>
 5   0  0.2813537E-05  0.1901351E+04  0.7818609E-02  0.8654184E-01
        2   -1    0    0  501    0  0.00000000000E+00  0.00000000000E+00  0.16534955690E+04  0.16534955690E+04  0.25500000920E-02 0. -1.
       -2   -1    0    0    0  501  0.00000000000E+00  0.00000000000E+00 -0.54659011183E+03  0.54659011184E+03  0.25500000920E-02 0.  1.
    10030    2    1    2    0    0  0.00000000000E+00  0.00000000000E+00  0.11069054572E+04  0.22000856809E+04  0.19013514436E+04 0.  0.
        2    1    3    3  502    0  0.52822746252E+03 -0.40414819241E+03 -0.23255611692E+03  0.70458665976E+03  0.25500000920E-02 0.  1.
       -2    1    3    3    0  502 -0.52822746252E+03  0.40414819241E+03  0.13394615741E+04  0.14954990211E+04  0.25500000920E-02 0. -1.
</event>
<event>
 5   0  0.1413011E-05  0.1895359E+04  0.7818609E-02  0.8657170E-01
        1   -1    0    0  501    0  0.00000000000E+00  0.00000000000E+00  0.13624273749E+04  0.13624273749E+04  0.50400001928E-02 0.  1.
       -1   -1    0    0    0  501  0.00000000000E+00  0.00000000000E+00 -0.65918868197E+03  0.65918868199E+03  0.50400001928E-02 0. -1.
    10030    2    1    2    0    0  0.00000000000E+00  0.00000000000E+00  0.70323869291E+03  0.20216160569E+04  0.18953592858E+04 0.  0.
        1    1    3    3  502    0 -0.62248528745E+03 -0.86978727804E+02 -0.40488232235E+03  0.74765160814E+03  0.50400001928E-02 0. -1.
       -1    1    3    3    0  502  0.62248528745E+03  0.86978727804E+02  0.11081210153E+04  0.12739644487E+04  0.50400001928E-02 0.  1.
</event>
<event>
 5   0  0.1471485E-05  0.1897943E+04  0.7818609E-02  0.8655881E-01
        1   -1    0    0  501    0  0.00000000000E+00  0.00000000000E+00  0.11696057250E+04  0.11696057251E+04  0.50400001928E-02 0.  1.
       -1   -1    0    0    0  501  0.00000000000E+00  0.00000000000E+00 -0.76995737676E+03  0.76995737678E+03  0.50400001928E-02 0. -1.
    10030    2    1    2    0    0  0.00000000000E+00  0.00000000000E+00  0.39964834829E+03  0.19395631018E+04  0.18979426292E+04 0.  0.
        4    1    3    3  502    0 -0.35502310840E+03 -0.53294164223E+03 -0.51587421872E+03  0.82231139111E+03  0.12699999809E+01 0. -1.
       -4    1    3    3    0  502  0.35502310840E+03  0.53294164223E+03  0.91552256701E+03  0.11172517107E+04  0.12699999809E+01 0.  1.
</event>
<event>
 5   0  0.1429067E-05  0.1899967E+04  0.7818609E-02  0.8654873E-01
        1   -1    0    0  501    0  0.00000000000E+00  0.00000000000E+00  0.12024605006E+04  0.12024605007E+04  0.50400001928E-02 0. -1.
       -1   -1    0    0    0  501  0.00000000000E+00  0.00000000000E+00 -0.75051860124E+03  0.75051860126E+03  0.50400001928E-02 0.  1.
    10030    2    1    2    0    0  0.00000000000E+00  0.00000000000E+00  0.45194189940E+03  0.19529791019E+04  0.18999673397E+04 0.  0.
        3    1    3    3  502    0  0.61285560514E+03 -0.47071187208E+03 -0.34199206714E+03  0.84505635520E+03  0.10100000352E+00 0.  1.
       -3    1    3    3    0  502 -0.61285560514E+03  0.47071187208E+03  0.79393396654E+03  0.11079227467E+04  0.10100000352E+00 0. -1.
</event>
<event>
 5   0  0.1471485E-05  0.1900452E+04  0.7818609E-02  0.8654632E-01
       -1   -1    0    0    0  501  0.00000000000E+00  0.00000000000E+00  0.89618194764E+03  0.89618194765E+03  0.50400001928E-02 0. -1.
        1   -1    0    0  501    0  0.00000000000E+00  0.00000000000E+00 -0.10075286985E+04  0.10075286985E+04  0.50400001928E-02 0.  1.
    10030    2    1    2    0    0  0.00000000000E+00  0.00000000000E+00 -0.11134675088E+03  0.19037106462E+04  0.19004515583E+04 0.  0.
        4    1    3    3  502    0 -0.81037125697E+01 -0.54433151094E+03  0.72448502967E+03  0.90622438450E+03  0.12699999809E+01 0. -1.
       -4    1    3    3    0  502  0.81037125697E+01  0.54433151094E+03 -0.83583178054E+03  0.99748626167E+03  0.12699999809E+01 0.  1.
</event>
<event>
 5   0  0.2879462E-05  0.1900656E+04  0.7818609E-02  0.8654530E-01
       -2   -1    0    0    0  501  0.00000000000E+00  0.00000000000E+00  0.18457330141E+04  0.18457330141E+04  0.25500000920E-02 0.  1.
        2   -1    0    0  501    0  0.00000000000E+00  0.00000000000E+00 -0.48930312023E+03  0.48930312024E+03  0.25500000920E-02 0. -1.
    10030    2    1    2    0    0  0.00000000000E+00  0.00000000000E+00  0.13564298939E+04  0.23350361344E+04  0.19006555953E+04 0.  0.
        4    1    3    3  502    0  0.28989678205E+03  0.68224386154E+03  0.14087841111E+04  0.15919080110E+04  0.12699999809E+01 0.  1.
       -4    1    3    3    0  502 -0.28989678205E+03 -0.68224386154E+03 -0.52354217174E+02  0.74312812342E+03  0.12699999809E+01 0. -1.
</event>
<event>
 5   0  0.2813537E-05  0.1901187E+04  0.7818609E-02  0.8654266E-01
        2   -1    0    0  501    0  0.00000000000E+00  0.00000000000E+00  0.19699467025E+04  0.19699467025E+04  0.25500000920E-02 0.  1.
       -2   -1    0    0    0  501  0.00000000000E+00  0.00000000000E+00 -0.45870663668E+03  0.45870663669E+03  0.25500000920E-02 0. -1.
    10030    2    1    2    0    0  0.00000000000E+00  0.00000000000E+00  0.15112400658E+04  0.24286533392E+04  0.19011866046E+04 0.  0.
        2    1    3    3  502    0 -0.66521253717E+03  0.23959078702E+03  0.15672888304E+04  0.17193910965E+04  0.25500000920E-02 0.  1.
       -2    1    3    3    0  502  0.66521253717E+03 -0.23959078702E+03 -0.56048764607E+02  0.70926224266E+03  0.25500000920E-02 0. -1.
</event>
<event>
 5   0  0.2789718E-05  0.1906173E+04  0.7818609E-02  0.8651790E-01
       -2   -1    0    0    0  501  0.00000000000E+00  0.00000000000E+00  0.81927081152E+03  0.81927081153E+03  0.25500000920E-02 0. -1.
        2   -1    0    0  501    0  0.00000000000E+00  0.00000000000E+00 -0.11087592502E+04  0.11087592502E+04  0.25500000920E-02 0.  1.
    10030    2    1    2    0    0  0.00000000000E+00  0.00000000000E+00 -0.28948843864E+03  0.19280300617E+04  0.19061732247E+04 0.  0.
        5    1    3    3  502    0  0.80319630259E+03 -0.49388754801E+03 -0.42166675054E+01  0.94291520343E+03  0.46999998093E+01 0.  1.
       -5    1    3    3    0  502 -0.80319630259E+03  0.49388754801E+03 -0.28527177113E+03  0.98511485826E+03  0.46999998093E+01 0. -1.
</event>
<event>
 5   0  0.2888776E-05  0.1889741E+04  0.7818609E-02  0.8659980E-01
        2   -1    0    0  501    0  0.00000000000E+00  0.00000000000E+00  0.17771371465E+04  0.17771371465E+04  0.25500000920E-02 0. -1.
       -2   -1    0    0    0  501  0.00000000000E+00  0.00000000000E+00 -0.50236977164E+03  0.50236977164E+03  0.25500000920E-02 0.  1.
    10030    2    1    2    0    0  0.00000000000E+00  0.00000000000E+00  0.12747673749E+04  0.22795069182E+04  0.18897407044E+04 0.  0.
        3    1    3    3  502    0 -0.22866948794E+03  0.91657812160E+03  0.61403139392E+03  0.11266941691E+04  0.10100000352E+00 0. -1.
       -3    1    3    3    0  502  0.22866948794E+03 -0.91657812160E+03  0.66073598095E+03  0.11528127491E+04  0.10100000352E+00 0.  1.
</event>
<event>
 5   0  0.2855141E-05  0.1900718E+04  0.7818609E-02  0.8654499E-01
       -2   -1    0    0    0  501  0.00000000000E+00  0.00000000000E+00  0.11104223214E+04  0.11104223214E+04  0.25500000920E-02 0.  1.
        2   -1    0    0  501    0  0.00000000000E+00  0.00000000000E+00 -0.81336804001E+03  0.81336804001E+03  0.25500000920E-02 0. -1.
    10030    2    1    2    0    0  0.00000000000E+00  0.00000000000E+00  0.29705428136E+03  0.19237903614E+04  0.19007177877E+04 0.  0.
        1    1    3    3  502    0 -0.51311629401E+03 -0.75388656817E+03  0.41926007799E+03  0.10036993085E+04  0.50400001928E-02 0.  1.
       -1    1    3    3    0  502  0.51311629401E+03  0.75388656817E+03 -0.12220579663E+03  0.92009105289E+03  0.50400001928E-02 0. -1.
</event>
<event>
 5   0  0.1429067E-05  0.1907121E+04  0.7818609E-02  0.8651320E-01
       -1   -1    0    0    0  501  0.00000000000E+00  0.00000000000E+00  0.45933411725E+03  0.45933411727E+03  0.50400001928E-02 0.  1.
        1   -1    0    0  501    0  0.00000000000E+00  0.00000000000E+00 -0.19795552094E+04  0.19795552094E+04  0.50400001928E-02 0. -1.
    10030    2    1    2    0    0  0.00000000000E+00  0.00000000000E+00 -0.15202210921E+04  0.24388893267E+04  0.19071205989E+04 0.  0.
        3    1    3    3  502    0 -0.27423124969E+03 -0.78434460042E+03 -0.16181606620E+03  0.84651265791E+03  0.10100000352E+00 0.  1.
       -3    1    3    3    0  502  0.27423124969E+03  0.78434460042E+03 -0.13584050259E+04  0.15923766688E+04  0.10100000352E+00 0. -1.
</event>
<event>
 5   0  0.1429067E-05  0.1888007E+04  0.7818609E-02  0.8660849E-01
       -1   -1    0    0    0  501  0.00000000000E+00  0.00000000000E+00  0.37789335627E+03  0.37789335631E+03  0.50400001928E-02 0.  1.
        1   -1    0    0  501    0  0.00000000000E+00  0.00000000000E+00 -0.23581858284E+04  0.23581858284E+04  0.50400001928E-02 0. -1.
    10030    2    1    2    0    0  0.00000000000E+00  0.00000000000E+00 -0.19802924721E+04  0.27360791847E+04  0.18880071583E+04 0.  0.
        3    1    3    3  502    0 -0.71069220137E+03  0.25758920751E+03 -0.18095561137E+04  0.19611040114E+04  0.10100000352E+00 0. -1.
       -3    1    3    3    0  502  0.71069220137E+03 -0.25758920751E+03 -0.17073635846E+03  0.77497517328E+03  0.10100000352E+00 0.  1.
</event>
<event>
 5   0  0.2789718E-05  0.1902066E+04  0.7818609E-02  0.8653829E-01
        2   -1    0    0  501    0  0.00000000000E+00  0.00000000000E+00  0.19253511974E+04  0.19253511974E+04  0.25500000920E-02 0. -1.
       -2   -1    0    0    0  501  0.00000000000E+00  0.00000000000E+00 -0.46976566847E+03  0.46976566847E+03  0.25500000920E-02 0.  1.
    10030    2    1    2    0    0  0.00000000000E+00  0.00000000000E+00  0.14555855289E+04  0.23951168659E+04  0.19020661316E+04 0.  0.
        5    1    3    3  502    0  0.49617684421E+03  0.80474463555E+03  0.59792579840E+03  0.11186343190E+04  0.46999998093E+01 0.  1.
       -5    1    3    3    0  502 -0.49617684421E+03 -0.80474463555E+03  0.85765973052E+03  0.12764825469E+04  0.46999998093E+01 0. -1.
</event>
<event>
 5   0  0.1471485E-05  0.1899158E+04  0.7818609E-02  0.8655276E-01
       -1   -1    0    0    0  501  0.00000000000E+00  0.00000000000E+00  0.67778604440E+03  0.67778604442E+03  0.50400001928E-02 0. -1.
        1   -1    0    0  501    0  0.00000000000E+00  0.00000000000E+00 -0.13303612579E+04  0.13303612579E+04  0.50400001928E-02 0.  1.
    10030    2    1    2    0    0  0.00000000000E+00  0.00000000000E+00 -0.65257521351E+03  0.20081473024E+04  0.18991580183E+04 0.  0.
        4    1    3    3  502    0  0.63483456470E+02  0.23560857776E+03  0.64406824629E+03  0.68874310882E+03  0.12699999809E+01 0. -1.
       -4    1    3    3    0  502 -0.63483456470E+02 -0.23560857776E+03 -0.12966434598E+04  0.13194041935E+04  0.12699999809E+01 0.  1.
</event>
<event>
 5   0  0.2855141E-05  0.1888942E+04  0.7818609E-02  0.8660381E-01
       -2   -1    0    0    0  501  0.00000000000E+00  0.00000000000E+00  0.37348979791E+03  0.37348979792E+03  0.25500000920E-02 0. -1.
        2   -1    0    0  501    0  0.00000000000E+00  0.00000000000E+00 -0.23883519243E+04  0.23883519243E+04  0.25500000920E-02 0.  1.
    10030    2    1    2    0    0  0.00000000000E+00  0.00000000000E+00 -0.20148621264E+04  0.27618417222E+04  0.18889415847E+04 0.  0.
        1    1    3    3  502    0  0.26932209199E+02  0.19433645554E+03 -0.23582291477E+04  0.23663762835E+04  0.50400001928E-02 0.  1.
       -1    1    3    3    0  502 -0.26932209199E+02 -0.19433645554E+03  0.34336702135E+03  0.39546543872E+03  0.50400001928E-02 0. -1.
</event>
<event>
 5   0  0.2888776E-05  0.1901193E+04  0.7818609E-02  0.8654263E-01
        2   -1    0    0  501    0  0.00000000000E+00  0.00000000000E+00  0.11230056341E+04  0.11230056341E+04  0.25500000920E-02 0. -1.
       -2   -1    0    0    0  501  0.00000000000E+00  0.00000000000E+00 -0.80465619786E+03  0.80465619787E+03  0.25500000920E-02 0.  1.
    10030    2    1    2    0    0  0.00000000000E+00  0.00000000000E+00  0.31834943621E+03  0.19276618319E+04  0.19011927243E+04 0.  0.
        3    1    3    3  502    0 -0.78994899205E+03  0.18431502777E+03 -0.34334836056E+03  0.88084025022E+03  0.10100000352E+00 0.  1.
       -3    1    3    3    0  502  0.78994899205E+03 -0.18431502777E+03  0.66169779677E+03  0.10468215817E+04  0.10100000352E+00 0. -1.
</event>
<event>
 5   0  0.1429067E-05  0.1900279E+04  0.7818609E-02  0.8654718E-01
       -1   -1    0    0    0  501  0.00000000000E+00  0.00000000000E+00  0.98373858137E+03  0.98373858139E+03  0.50400001928E-02 0. -1.
        1   -1    0    0  501    0  0.00000000000E+00  0.00000000000E+00 -0.91768793199E+03  0.91768793201E+03  0.50400001928E-02 0.  1.
    10030    2    1    2    0    0  0.00000000000E+00  0.00000000000E+00  0.66050649382E+02  0.19014265134E+04  0.19002789526E+04 0.  0.
        3    1    3    3  502    0 -0.17468516697E+03  0.93384844411E+03  0.19706010163E+02  0.95025057809E+03  0.10100000352E+00 0. -1.
       -3    1    3    3    0  502  0.17468516697E+03 -0.93384844411E+03  0.46344639219E+02  0.95117593531E+03  0.10100000352E+00 0.  1.
</event>
<event>
 5   0  0.2888776E-05  0.1875197E+04  0.7818609E-02  0.8667302E-01
       -2   -1    0    0    0  501  0.00000000000E+00  0.00000000000E+00  0.96118045683E+03  0.96118045683E+03  0.25500000920E-02 0. -1.
        2   -1    0    0  501    0  0.00000000000E+00  0.00000000000E+00 -0.91459558911E+03  0.91459558911E+03  0.25500000920E-02 0.  1.
    10030    2    1    2    0    0  0.00000000000E+00  0.00000000000E+00  0.46584867717E+02  0.18757760459E+04  0.18751974895E+04 0.  0.
        3    1    3    3  502    0 -0.45839891913E+03  0.55461262394E+03  0.62461571152E+03  0.95282187683E+03  0.10100000352E+00 0. -1.
       -3    1    3    3    0  502  0.45839891913E+03 -0.55461262394E+03 -0.57803084381E+03  0.92295416911E+03  0.10100000352E+00 0.  1.
</event>
<event>
 5   0  0.2855141E-05  0.1899786E+04  0.7818609E-02  0.8654963E-01
       -2   -1    0    0    0  501  0.00000000000E+00  0.00000000000E+00  0.47973743600E+03  0.47973743601E+03  0.25500000920E-02 0.  1.
        2   -1    0    0  501    0  0.00000000000E+00  0.00000000000E+00 -0.18808133301E+04  0.18808133301E+04  0.25500000920E-02 0. -1.
    10030    2    1    2    0    0  0.00000000000E+00  0.00000000000E+00 -0.14010758941E+04  0.23605507661E+04  0.18997858454E+04 0.  0.
        1    1    3    3  502    0 -0.30744609587E+03  0.68483319771E+03  0.22674058074E+02  0.75102178629E+03  0.50400001928E-02 0.  1.
       -1    1    3    3    0  502  0.30744609587E+03 -0.68483319771E+03 -0.14237499522E+04  0.16095289798E+04  0.50400001928E-02 0. -1.
</event>
<event>
 5   0  0.1344119E-05  0.1906116E+04  0.7818609E-02  0.8651818E-01
        1   -1    0    0  501    0  0.00000000000E+00  0.00000000000E+00  0.17580727588E+04  0.17580727588E+04  0.50400001928E-02 0.  1.
       -1   -1    0    0    0  501  0.00000000000E+00  0.00000000000E+00 -0.51665628204E+03  0.51665628207E+03  0.50400001928E-02 0. -1.
    10030    2    1    2    0    0  0.00000000000E+00  0.00000000000E+00  0.12414164768E+04  0.22747290409E+04  0.19061157731E+04 0.  0.
        2    1    3    3  502    0  0.83361416179E+03  0.42523849058E+03  0.83610997920E+03  0.12549184204E+04  0.25500000920E-02 0.  1.
       -2    1    3    3    0  502 -0.83361416179E+03 -0.42523849058E+03  0.40530649756E+03  0.10198106204E+04  0.25500000920E-02 0. -1.
</event>
<event>
 5   0  0.2879462E-05  0.1893630E+04  0.7818609E-02  0.8658034E-01
        2   -1    0    0  501    0  0.00000000000E+00  0.00000000000E+00  0.13734579723E+04  0.13734579723E+04  0.25500000920E-02 0. -1.
       -2   -1    0    0    0  501  0.00000000000E+00  0.00000000000E+00 -0.65270170893E+03  0.65270170893E+03  0.25500000920E-02 0.  1.
    10030    2    1    2    0    0  0.00000000000E+00  0.00000000000E+00  0.72075626334E+03  0.20261596812E+04  0.18936297058E+04 0.  0.
        4    1    3    3  502    0  0.37090215381E+03 -0.11656944996E+03  0.12841062103E+04  0.13416732898E+04  0.12699999809E+01 0. -1.
       -4    1    3    3    0  502 -0.37090215381E+03  0.11656944996E+03 -0.56334994696E+03  0.68448639139E+03  0.12699999809E+01 0.  1.
</event>
<event>
 5   0  0.2813537E-05  0.1927017E+04  0.7818609E-02  0.8641524E-01
        2   -1    0    0  501    0  0.00000000000E+00  0.00000000000E+00  0.10238976446E+04  0.10238976446E+04  0.25500000920E-02 0. -1.
       -2   -1    0    0    0  501  0.00000000000E+00  0.00000000000E+00 -0.90668115308E+03  0.90668115309E+03  0.25500000920E-02 0.  1.
    10030    2    1    2    0    0  0.00000000000E+00  0.00000000000E+00  0.11721649148E+03  0.19305787977E+04  0.19270170700E+04 0.  0.
        2    1    3    3  502    0 -0.88435633189E+03 -0.21573212000E+03  0.37498018476E+03  0.98449815049E+03  0.25500000920E-02 0. -1.
       -2    1    3    3    0  502  0.88435633189E+03  0.21573212000E+03 -0.25776369328E+03  0.94608064716E+03  0.25500000920E-02 0.  1.
</event>
<event>
 5   0  0.1429067E-05  0.1900913E+04  0.7818609E-02  0.8654402E-01
       -1   -1    0    0    0  501  0.00000000000E+00  0.00000000000E+00  0.84554932925E+03  0.84554932927E+03  0.50400001928E-02 0. -1.
        1   -1    0    0  501    0  0.00000000000E+00  0.00000000000E+00 -0.10683792556E+04  0.10683792556E+04  0.50400001928E-02 0.  1.
    10030    2    1    2    0    0  0.00000000000E+00  0.00000000000E+00 -0.22282992636E+03  0.19139285849E+04  0.19009127944E+04 0.  0.
        3    1    3    3  502    0 -0.77078482622E+03 -0.54409362921E+03 -0.22718148707E+03  0.97044245783E+03  0.10100000352E+00 0.  1.
       -3    1    3    3    0  502  0.77078482622E+03  0.54409362921E+03  0.43515607046E+01  0.94348612707E+03  0.10100000352E+00 0. -1.
</event>
<event>
 5   0  0.1471485E-05  0.1899491E+04  0.7818609E-02  0.8655110E-01
       -1   -1    0    0    0  501  0.00000000000E+00  0.00000000000E+00  0.49386927261E+03  0.49386927264E+03  0.50400001928E-02 0.  1.
        1   -1    0    0  501    0  0.00000000000E+00  0.00000000000E+00 -0.18264268237E+04  0.18264268237E+04  0.50400001928E-02 0. -1.
    10030    2    1    2    0    0  0.00000000000E+00  0.00000000000E+00 -0.13325575511E+04  0.23202960964E+04  0.18994905495E+04 0.  0.
        4    1    3    3  502    0 -0.93595746929E+03 -0.19974540004E+02 -0.47083642190E+03  0.10479045356E+04  0.12699999809E+01 0.  1.
       -4    1    3    3    0  502  0.93595746929E+03  0.19974540004E+02 -0.86172112919E+03  0.12723915608E+04  0.12699999809E+01 0. -1.
</event>
<event>
 5   0  0.1327254E-05  0.1901820E+04  0.7818609E-02  0.8653951E-01
       -1   -1    0    0    0  501  0.00000000000E+00  0.00000000000E+00  0.85220453472E+03  0.85220453474E+03  0.50400001928E-02 0.  1.
        1   -1    0    0  501    0  0.00000000000E+00  0.00000000000E+00 -0.10610476041E+04  0.10610476041E+04  0.50400001928E-02 0. -1.
    10030    2    1    2    0    0  0.00000000000E+00  0.00000000000E+00 -0.20884306937E+03  0.19132521388E+04  0.19018197389E+04 0.  0.
        5    1    3    3  502    0 -0.27495752668E+03 -0.80591043334E+03 -0.53018450994E+03  0.10031006792E+04  0.46999998093E+01 0. -1.
       -5    1    3    3    0  502  0.27495752668E+03  0.80591043334E+03  0.32134144057E+03  0.91015145963E+03  0.46999998093E+01 0.  1.
</event>
<event>
 5   0  0.1471485E-05  0.1904008E+04  0.7818609E-02  0.8652864E-01
        1   -1    0    0  501    0  0.00000000000E+00  0.00000000000E+00  0.23777935753E+04  0.23777935753E+04  0.50400001928E-02 0. -1.
       -1   -1    0    0    0  501  0.00000000000E+00  0.00000000000E+00 -0.38115646338E+03  0.38115646341E+03  0.50400001928E-02 0.  1.
    10030    2    1    2    0    0  0.00000000000E+00  0.00000000000E+00  0.19966371119E+04  0.27589500387E+04  0.19040077624E+04 0.  0.
        4    1    3    3  502    0  0.71540781285E+03 -0.28509064600E+03  0.18092855243E+04  0.19663673961E+04  0.12699999809E+01 0. -1.
       -4    1    3    3    0  502 -0.71540781285E+03  0.28509064600E+03  0.18735158765E+03  0.79258264264E+03  0.12699999809E+01 0.  1.
</event>
<event>
 5   0  0.1413011E-05  0.1898880E+04  0.7818609E-02  0.8655414E-01
       -1   -1    0    0    0  501  0.00000000000E+00  0.00000000000E+00  0.80974079809E+03  0.80974079810E+03  0.50400001928E-02 0. -1.
        1   -1    0    0  501    0  0.00000000000E+00  0.00000000000E+00 -0.11132400914E+04  0.11132400914E+04  0.50400001928E-02 0.  1.
    10030    2    1    2    0    0  0.00000000000E+00  0.00000000000E+00 -0.30349929331E+03  0.19229808895E+04  0.18988795855E+04 0.  0.
        1    1    3    3  502    0  0.29237512328E+03 -0.48564524769E+03 -0.92306060183E+03  0.10832245354E+04  0.50400001928E-02 0.  1.
       -1    1    3    3    0  502 -0.29237512328E+03  0.48564524769E+03  0.61956130852E+03  0.83975635416E+03  0.50400001928E-02 0. -1.
</event>
<event>
 5   0  0.2789718E-05  0.1904979E+04  0.7818609E-02  0.8652382E-01
        2   -1    0    0  501    0  0.00000000000E+00  0.00000000000E+00  0.99423705104E+03  0.99423705104E+03  0.25500000920E-02 0. -1.
       -2   -1    0    0    0  501  0.00000000000E+00  0.00000000000E+00 -0.91249503870E+03  0.91249503870E+03  0.25500000920E-02 0.  1.
    10030    2    1    2    0    0  0.00000000000E+00  0.00000000000E+00  0.81742012344E+02  0.19067320897E+04  0.19049791352E+04 0.  0.
        5    1    3    3  502    0  0.68709125792E+03 -0.62501390012E+03  0.25196200091E+03  0.96241556095E+03  0.46999998093E+01 0.  1.
       -5    1    3    3    0  502 -0.68709125792E+03  0.62501390012E+03 -0.17021998857E+03  0.94431652880E+03  0.46999998093E+01 0. -1.
</event>
<event>
 5   0  0.1471485E-05  0.1898846E+04  0.7818609E-02  0.8655431E-01
       -1   -1    0    0    0  501  0.00000000000E+00  0.00000000000E+00  0.60133254546E+03  0.60133254549E+03  0.50400001928E-02 0. -1.
        1   -1    0    0  501    0  0.00000000000E+00  0.00000000000E+00 -0.14990103462E+04  0.14990103462E+04  0.50400001928E-02 0.  1.
    10030    2    1    2    0    0  0.00000000000E+00  0.00000000000E+00 -0.89767780077E+03  0.21003428917E+04  0.18988456569E+04 0.  0.
        4    1    3    3  502    0 -0.17296126714E+03 -0.17626306525E+02 -0.14812518400E+04  0.14914204347E+04  0.12699999809E+01 0.  1.
       -4    1    3    3    0  502  0.17296126714E+03  0.17626306525E+02  0.58357403919E+03  0.60892245708E+03  0.12699999809E+01 0. -1.
</event>
<event>
 5   0  0.1010725E-05  0.1902921E+04  0.7818609E-02  0.8653404E-01
        4   -1    0    0  501    0  0.00000000000E+00  0.00000000000E+00  0.78187783607E+03  0.78187886749E+03  0.12699999809E+01 0.  1.
       -4   -1    0    0    0  501  0.00000000000E+00  0.00000000000E+00 -0.11578225060E+04  0.11578232025E+04  0.12699999809E+01 0. -1.
    10030    2    1    2    0    0  0.00000000000E+00  0.00000000000E+00 -0.37594466989E+03  0.19397020700E+04  0.19029213661E+04 0.  0.
        5    1    3    3  502    0 -0.34828824035E+03  0.15580837064E+03  0.70046731242E+03  0.79765750325E+03  0.46999998093E+01 0.  1.
       -5    1    3    3    0  502  0.34828824035E+03 -0.15580837064E+03 -0.10764119823E+04  0.11420445667E+04  0.46999998093E+01 0. -1.
</event>
<event>
 5   0  0.2888776E-05  0.1892723E+04  0.7818609E-02  0.8658487E-01
        2   -1    0    0  501    0  0.00000000000E+00  0.00000000000E+00  0.78316390962E+03  0.78316390962E+03  0.25500000920E-02 0. -1.
       -2   -1    0    0    0  501  0.00000000000E+00  0.00000000000E+00 -0.11435667773E+04  0.11435667773E+04  0.25500000920E-02 0.  1.
    10030    2    1    2    0    0  0.00000000000E+00  0.00000000000E+00 -0.36040286773E+03  0.19267306870E+04  0.18927231475E+04 0.  0.
        3    1    3    3  502    0 -0.17511085294E+03 -0.73719418852E+03  0.39697908981E+03  0.85540136215E+03  0.10100000352E+00 0. -1.
       -3    1    3    3    0  502  0.17511085294E+03  0.73719418852E+03 -0.75738195754E+03  0.10713293248E+04  0.10100000352E+00 0.  1.
</event>
<event>
 5   0  0.2888776E-05  0.1897839E+04  0.7818609E-02  0.8655933E-01
        2   -1    0    0  501    0  0.00000000000E+00  0.00000000000E+00  0.16394954962E+04  0.16394954962E+04  0.25500000920E-02 0.  1.
       -2   -1    0    0    0  501  0.00000000000E+00  0.00000000000E+00 -0.54922301355E+03  0.54922301355E+03  0.25500000920E-02 0. -1.
    10030    2    1    2    0    0  0.00000000000E+00  0.00000000000E+00  0.10902724827E+04  0.21887185098E+04  0.18978394633E+04 0.  0.
        3    1    3    3  502    0 -0.42144573690E+03  0.80156137520E+03  0.21826751200E+03  0.93153521907E+03  0.10100000352E+00 0. -1.
       -3    1    3    3    0  502  0.42144573690E+03 -0.80156137520E+03  0.87200497068E+03  0.12571832907E+04  0.10100000352E+00 0.  1.
</event>
<event>
 5   0  0.1327254E-05  0.1902127E+04  0.7818609E-02  0.8653798E-01
        1   -1    0    0  501    0  0.00000000000E+00  0.00000000000E+00  0.75055602772E+03  0.75055602774E+03  0.50400001928E-02 0.  1.
       -1   -1    0    0    0  501  0.00000000000E+00  0.00000000000E+00 -0.12051359489E+04  0.12051359489E+04  0.50400001928E-02 0. -1.
    10030    2    1    2    0    0  0.00000000000E+00  0.00000000000E+00 -0.45457992117E+03  0.19556919766E+04  0.19021272835E+04 0.  0.
        5    1    3    3  502    0  0.40990871248E+03  0.28400172551E+02  0.65457458410E+03  0.77286589944E+03  0.46999998093E+01 0.  1.
       -5    1    3    3    0  502 -0.40990871248E+03 -0.28400172551E+02 -0.11091545053E+04  0.11828260772E+04  0.46999998093E+01 0. -1.
</event>
<event>
 5   0  0.2789718E-05  0.1904262E+04  0.7818609E-02  0.8652738E-01
        2   -1    0    0  501    0  0.00000000000E+00  0.00000000000E+00  0.14130450365E+04  0.14130450365E+04  0.25500000920E-02 0.  1.
       -2   -1    0    0    0  501  0.00000000000E+00  0.00000000000E+00 -0.64156048762E+03  0.64156048762E+03  0.25500000920E-02 0. -1.
    10030    2    1    2    0    0  0.00000000000E+00  0.00000000000E+00  0.77148454887E+03  0.20546055241E+04  0.19042624427E+04 0.  0.
        5    1    3    3  502    0 -0.75332908976E+02  0.24581053586E+03 -0.60338785734E+03  0.65589394196E+03  0.46999998093E+01 0. -1.
       -5    1    3    3    0  502  0.75332908976E+02 -0.24581053586E+03  0.13748724062E+04  0.13987115822E+04  0.46999998093E+01 0.  1.
</event>
<event>
 5   0  0.2888776E-05  0.1917216E+04  0.7818609E-02  0.8646334E-01
        2   -1    0    0  501    0  0.00000000000E+00  0.00000000000E+00  0.24878401292E+04  0.24878401292E+04  0.25500000920E-02 0. -1.
       -2   -1    0    0    0  501  0.00000000000E+00  0.00000000000E+00 -0.36936831298E+03  0.36936831299E+03  0.25500000920E-02 0.  1.
    10030    2    1    2    0    0  0.00000000000E+00  0.00000000000E+00  0.21184718162E+04  0.28572084421E+04  0.19172160144E+04 0.  0.
        3    1    3    3  502    0  0.72734313083E+03  0.62420304584E+03  0.10838066728E+04  0.14468221683E+04  0.10100000352E+00 0. -1.
       -3    1    3    3    0  502 -0.72734313083E+03 -0.62420304584E+03  0.10346651434E+04  0.14103862739E+04  0.10100000352E+00 0.  1.
</event>
<event>
 5   0  0.1429067E-05  0.1900813E+04  0.7818609E-02  0.8654452E-01
        1   -1    0    0  501    0  0.00000000000E+00  0.00000000000E+00  0.16094988523E+04  0.16094988523E+04  0.50400001928E-02 0.  1.
       -1   -1    0    0    0  501  0.00000000000E+00  0.00000000000E+00 -0.56121380550E+03  0.56121380552E+03  0.50400001928E-02 0. -1.
    10030    2    1    2    0    0  0.00000000000E+00  0.00000000000E+00  0.10482850468E+04  0.21707126579E+04  0.19008134847E+04 0.  0.
        3    1    3    3  502    0  0.96464862117E+02  0.90801388808E+03  0.22312807039E+03  0.93998980663E+03  0.10100000352E+00 0. -1.
       -3    1    3    3    0  502 -0.96464862117E+02 -0.90801388808E+03  0.82515697645E+03  0.12307228512E+04  0.10100000352E+00 0.  1.
</event>
<event>
 5   0  0.1429067E-05  0.1900927E+04  0.7818609E-02  0.8654395E-01
        1   -1    0    0  501    0  0.00000000000E+00  0.00000000000E+00  0.17070367472E+04  0.17070367472E+04  0.50400001928E-02 0. -1.
       -1   -1    0    0    0  501  0.00000000000E+00  0.00000000000E+00 -0.52921004486E+03  0.52921004488E+03  0.50400001928E-02 0.  1.
    10030    2    1    2    0    0  0.00000000000E+00  0.00000000000E+00  0.11778267023E+04  0.22362467921E+04  0.19009271355E+04 0.  0.
        3    1    3    3  502    0 -0.71014486813E+03 -0.53263787183E+03  0.18933242613E+03  0.90766492387E+03  0.10100000352E+00 0.  1.
       -3    1    3    3    0  502  0.71014486813E+03  0.53263787183E+03  0.98849427618E+03  0.13285818682E+04  0.10100000352E+00 0. -1.
</event>
<event>
 5   0  0.1471485E-05  0.1905062E+04  0.7818609E-02  0.8652341E-01
       -1   -1    0    0    0  501  0.00000000000E+00  0.00000000000E+00  0.98453966250E+03  0.98453966252E+03  0.50400001928E-02 0. -1.
        1   -1    0    0  501    0  0.00000000000E+00  0.00000000000E+00 -0.92156262640E+03  0.92156262641E+03  0.50400001928E-02 0.  1.
    10030    2    1    2    0    0  0.00000000000E+00  0.00000000000E+00  0.62977036106E+02  0.19061022889E+04  0.19050616339E+04 0.  0.
        4    1    3    3  502    0  0.57776136510E+03  0.56345214389E+03 -0.47477882300E+03  0.93632422650E+03  0.12699999809E+01 0. -1.
       -4    1    3    3    0  502 -0.57776136510E+03 -0.56345214389E+03  0.53775585911E+03  0.96977806243E+03  0.12699999809E+01 0.  1.
</event>
<event>
 5   0  0.2855141E-05  0.1893584E+04  0.7818609E-02  0.8658056E-01
       -2   -1    0    0    0  501  0.00000000000E+00  0.00000000000E+00  0.58999704492E+03  0.58999704492E+03  0.25500000920E-02 0. -1.
        2   -1    0    0  501    0  0.00000000000E+00  0.00000000000E+00 -0.15193556853E+04  0.15193556853E+04  0.25500000920E-02 0.  1.
    10030    2    1    2    0    0  0.00000000000E+00  0.00000000000E+00 -0.92935864035E+03  0.21093527302E+04  0.18935842886E+04 0.  0.
        1    1    3    3  502    0 -0.68248337319E+03 -0.61785953292E+03 -0.21839519540E+03  0.94616616855E+03  0.50400001928E-02 0.  1.
       -1    1    3    3    0  502  0.68248337319E+03  0.61785953292E+03 -0.71096344495E+03  0.11631865616E+04  0.50400001928E-02 0. -1.
</event>
<event>
 5   0  0.1010725E-05  0.1901377E+04  0.7818609E-02  0.8654171E-01
       -4   -1    0    0    0  501  0.00000000000E+00  0.00000000000E+00  0.91393884048E+03  0.91393972287E+03  0.12699999809E+01 0.  1.
        4   -1    0    0  501    0  0.00000000000E+00  0.00000000000E+00 -0.98891456704E+03  0.98891538253E+03  0.12699999809E+01 0. -1.
    10030    2    1    2    0    0  0.00000000000E+00  0.00000000000E+00 -0.74975726559E+02  0.19028551054E+04  0.19013774461E+04 0.  0.
        3    1    3    3  502    0  0.34944099128E+03  0.32688908990E+03  0.78463917927E+03  0.91903434937E+03  0.10100000352E+00 0.  1.
       -3    1    3    3    0  502 -0.34944099128E+03 -0.32688908990E+03 -0.85961490583E+03  0.98382075603E+03  0.10100000352E+00 0. -1.
</event>
<event>
 5   0  0.2813537E-05  0.1896497E+04  0.7818609E-02  0.8656602E-01
       -2   -1    0    0    0  501  0.00000000000E+00  0.00000000000E+00  0.53558169424E+03  0.53558169424E+03  0.25500000920E-02 0.  1.
        2   -1    0    0  501    0  0.00000000000E+00  0.00000000000E+00 -0.16788764326E+04  0.16788764326E+04  0.25500000920E-02 0. -1.
    10030    2    1    2    0    0  0.00000000000E+00  0.00000000000E+00 -0.11432947384E+04  0.22144581268E+04  0.18964972810E+04 0.  0.
        2    1    3    3  502    0 -0.43676031254E+03 -0.14663610912E+03  0.39610971225E+03  0.60758918954E+03  0.25500000920E-02 0.  1.
       -2    1    3    3    0  502  0.43676031254E+03  0.14663610912E+03 -0.15394044506E+04  0.16068689373E+04  0.25500000920E-02 0. -1.
</event>
<event>
 5   0  0.2888776E-05  0.1900357E+04  0.7818609E-02  0.8654679E-01
       -2   -1    0    0    0  501  0.00000000000E+00  0.00000000000E+00  0.62007119590E+03  0.62007119590E+03  0.25500000920E-02 0. -1.
        2   -1    0    0  501    0  0.00000000000E+00  0.00000000000E+00 -0.14560248745E+04  0.14560248745E+04  0.25500000920E-02 0.  1.
    10030    2    1    2    0    0  0.00000000000E+00  0.00000000000E+00 -0.83595367862E+03  0.20760960704E+04  0.19003568983E+04 0.  0.
        3    1    3    3  502    0 -0.32610823924E+03  0.55253846189E+03  0.34768796857E+03  0.72974808616E+03  0.10100000352E+00 0. -1.
       -3    1    3    3    0  502  0.32610823924E+03 -0.55253846189E+03 -0.11836416472E+04  0.13463479843E+04  0.10100000352E+00 0.  1.
</event>
<event>
 5   0  0.1344119E-05  0.1893475E+04  0.7818609E-02  0.8658111E-01
        1   -1    0    0  501    0  0.00000000000E+00  0.00000000000E+00  0.13120657778E+04  0.13120657778E+04  0.50400001928E-02 0. -1.
       -1   -1    0    0    0  501  0.00000000000E+00  0.00000000000E+00 -0.68313022115E+03  0.68313022117E+03  0.50400001928E-02 0.  1.
    10030    2    1    2    0    0  0.00000000000E+00  0.00000000000E+00  0.62893555664E+03  0.19951959990E+04  0.18934748849E+04 0.  0.
        2    1    3    3  502    0 -0.72128885155E+03  0.45580555347E+03 -0.11780932820E+03  0.86133347071E+03  0.25500000920E-02 0.  1.
       -2    1    3    3    0  502  0.72128885155E+03 -0.45580555347E+03  0.74674488484E+03  0.11338625283E+04  0.25500000920E-02 0. -1.
</event>
<event>
 5   0  0.1413011E-05  0.1904326E+04  0.7818609E-02  0.8652706E-01
        1   -1    0    0  501    0  0.00000000000E+00  0.00000000000E+00  0.10134949308E+04  0.10134949309E+04  0.50400001928E-02 0.  1.
       -1   -1    0    0    0  501  0.00000000000E+00  0.00000000000E+00 -0.89454231403E+03  0.89454231404E+03  0.50400001928E-02 0. -1.
    10030    2    1    2    0    0  0.00000000000E+00  0.00000000000E+00  0.11895261682E+03  0.19080372449E+04  0.19043257082E+04 0.  0.
        1    1    3    3  502    0  0.76187624382E+03  0.37024143612E+03 -0.37620444847E+03  0.92685701108E+03  0.50400001928E-02 0.  1.
       -1    1    3    3    0  502 -0.76187624382E+03 -0.37024143612E+03  0.49515706529E+03  0.98118023382E+03  0.50400001928E-02 0. -1.
</event>
<event>
 5   0  0.2888776E-05  0.1905264E+04  0.7818609E-02  0.8652240E-01
       -2   -1    0    0    0  501  0.00000000000E+00  0.00000000000E+00  0.33953919533E+03  0.33953919534E+03  0.25500000920E-02 0. -1.
        2   -1    0    0  501    0  0.00000000000E+00  0.00000000000E+00 -0.26727634392E+04  0.26727634392E+04  0.25500000920E-02 0.  1.
    10030    2    1    2    0    0  0.00000000000E+00  0.00000000000E+00 -0.23332242439E+04  0.30123026345E+04  0.19052642310E+04 0.  0.
        3    1    3    3  502    0  0.37304079474E+03 -0.73379122511E+03 -0.40853764924E+03  0.91897334979E+03  0.10100000352E+00 0. -1.
       -3    1    3    3    0  502 -0.37304079474E+03  0.73379122511E+03 -0.19246865946E+04  0.20933292847E+04  0.10100000352E+00 0.  1.
</event>
<event>
 5   0  0.2789718E-05  0.1900856E+04  0.7818609E-02  0.8654430E-01
       -2   -1    0    0    0  501  0.00000000000E+00  0.00000000000E+00  0.11331623243E+04  0.11331623243E+04  0.25500000920E-02 0.  1.
        2   -1    0    0  501    0  0.00000000000E+00  0.00000000000E+00 -0.79716170156E+03  0.79716170157E+03  0.25500000920E-02 0. -1.
    10030    2    1    2    0    0  0.00000000000E+00  0.00000000000E+00  0.33600062275E+03  0.19303240259E+04  0.19008562351E+04 0.  0.
        5    1    3    3  502    0  0.65381099153E+03 -0.60733220914E+03  0.50013369855E+03  0.10229745995E+04  0.46999998093E+01 0.  1.
       -5    1    3    3    0  502 -0.65381099153E+03  0.60733220914E+03 -0.16413307581E+03  0.90734942633E+03  0.46999998093E+01 0. -1.
</event>
<event>
 5   0  0.1429067E-05  0.1888368E+04  0.7818609E-02  0.8660668E-01
        1   -1    0    0  501    0  0.00000000000E+00  0.00000000000E+00  0.11177600571E+04  0.11177600571E+04  0.50400001928E-02 0. -1.
       -1   -1    0    0    0  501  0.00000000000E+00  0.00000000000E+00 -0.79756219623E+03  0.79756219625E+03  0.50400001928E-02 0.  1.
    10030    2    1    2    0    0  0.00000000000E+00  0.00000000000E+00  0.32019786089E+03  0.19153222534E+04  0.18883677248E+04 0.  0.
        3    1    3    3  502    0  0.83480273945E+03  0.32841322368E+01 -0.28730599963E+03  0.88286530509E+03  0.10100000352E+00 0.  1.
       -3    1    3    3    0  502 -0.83480273945E+03 -0.32841322368E+01  0.60750386052E+03  0.10324569483E+04  0.10100000352E+00 0. -1.
</event>
<event>
 5   0  0.1471485E-05  0.1899530E+04  0.7818609E-02  0.8655090E-01
       -1   -1    0    0    0  501  0.00000000000E+00  0.00000000000E+00  0.11064801244E+04  0.11064801244E+04  0.50400001928E-02 0. -1.
        1   -1    0    0  501    0  0.00000000000E+00  0.00000000000E+00 -0.81524618378E+03  0.81524618379E+03  0.50400001928E-02 0.  1.
    10030    2    1    2    0    0  0.00000000000E+00  0.00000000000E+00  0.29123394059E+03  0.19217263082E+04  0.18995301512E+04 0.  0.
        4    1    3    3  502    0  0.38840007488E+03  0.58568607588E+03 -0.50072968565E+03  0.86291055657E+03  0.12699999809E+01 0.  1.
       -4    1    3    3    0  502 -0.38840007488E+03 -0.58568607588E+03  0.79196362624E+03  0.10588157516E+04  0.12699999809E+01 0. -1.
</event>
<event>
 5   0  0.1344119E-05  0.1900800E+04  0.7818609E-02  0.8654458E-01
        1   -1    0    0  501    0  0.00000000000E+00  0.00000000000E+00  0.94365732405E+03  0.94365732406E+03  0.50400001928E-02 0. -1.
       -1   -1    0    0    0  501  0.00000000000E+00  0.00000000000E+00 -0.95719126322E+03  0.95719126323E+03  0.50400001928E-02 0.  1.
    10030    2    1    2    0    0  0.00000000000E+00  0.00000000000E+00 -0.13533939167E+02  0.19008485873E+04  0.19008004062E+04 0.  0.
        2    1    3    3  502    0  0.76344545789E+02  0.94539680006E+03 -0.67241197342E+02  0.95085486688E+03  0.25500000920E-02 0.  1.
       -2    1    3    3    0  502 -0.76344545789E+02 -0.94539680006E+03  0.53707258176E+02  0.94999372041E+03  0.25500000920E-02 0. -1.
</event>
<event>
 5   0  0.2879462E-05  0.1896666E+04  0.7818609E-02  0.8656518E-01
        2   -1    0    0  501    0  0.00000000000E+00  0.00000000000E+00  0.16481701057E+04  0.16481701057E+04  0.25500000920E-02 0.  1.
       -2   -1    0    0    0  501  0.00000000000E+00  0.00000000000E+00 -0.54565674278E+03  0.54565674279E+03  0.25500000920E-02 0. -1.
    10030    2    1    2    0    0  0.00000000000E+00  0.00000000000E+00  0.11025133629E+04  0.21938268485E+04  0.18966656336E+04 0.  0.
        4    1    3    3  502    0  0.83887803071E+03  0.24131120119E+03  0.12252761733E+03  0.88145452301E+03  0.12699999809E+01 0.  1.
       -4    1    3    3    0  502 -0.83887803071E+03 -0.24131120119E+03  0.97998574555E+03  0.13123723254E+04  0.12699999809E+01 0. -1.
</event>
<event>
 5   0  0.1327254E-05  0.1906265E+04  0.7818609E-02  0.8651744E-01
        1   -1    0    0  501    0  0.00000000000E+00  0.00000000000E+00  0.14076387739E+04  0.14076387739E+04  0.50400001928E-02 0.  1.
       -1   -1    0    0    0  501  0.00000000000E+00  0.00000000000E+00 -0.64538004505E+03  0.64538004507E+03  0.50400001928E-02 0. -1.
    10030    2    1    2    0    0  0.00000000000E+00  0.00000000000E+00  0.76225872888E+03  0.20530188190E+04  0.19062654331E+04 0.  0.
        5    1    3    3  502    0  0.31422202243E+02 -0.12160674887E+03  0.13986744192E+04  0.14043104276E+04  0.46999998093E+01 0.  1.
       -5    1    3    3    0  502 -0.31422202243E+02  0.12160674887E+03 -0.63641569033E+03  0.64870839139E+03  0.46999998093E+01 0. -1.
</event>
<event>
 5   0  0.2789718E-05  0.1906775E+04  0.7818609E-02  0.8651492E-01
       -2   -1    0    0    0  501  0.00000000000E+00  0.00000000000E+00  0.13455161251E+04  0.13455161251E+04  0.25500000920E-02 0.  1.
        2   -1    0    0  501    0  0.00000000000E+00  0.00000000000E+00 -0.67553806810E+03  0.67553806810E+03  0.25500000920E-02 0. -1.
    10030    2    1    2    0    0  0.00000000000E+00  0.00000000000E+00  0.66997805702E+03  0.20210541932E+04  0.19067746209E+04 0.  0.
        5    1    3    3  502    0  0.88681846590E+03  0.33176529705E+03  0.45306613754E+03  0.10496695760E+04  0.46999998093E+01 0.  1.
       -5    1    3    3    0  502 -0.88681846590E+03 -0.33176529705E+03  0.21691191948E+03  0.97138461723E+03  0.46999998093E+01 0. -1.
</event>
<event>
 5   0  0.1344119E-05  0.1896524E+04  0.7818609E-02  0.8656588E-01
        1   -1    0    0  501    0  0.00000000000E+00  0.00000000000E+00  0.10327823582E+04  0.10327823582E+04  0.50400001928E-02 0. -1.
       -1   -1    0    0    0  501  0.00000000000E+00  0.00000000000E+00 -0.87065888930E+03  0.87065888931E+03  0.50400001928E-02 0.  1.
    10030    2    1    2    0    0  0.00000000000E+00  0.00000000000E+00  0.16212346887E+03  0.19034412475E+04  0.18965243377E+04 0.  0.
        2    1    3    3  502    0 -0.73386225632E+02  0.86475529789E+03 -0.30244952868E+03  0.91905548296E+03  0.25500000920E-02 0.  1.
       -2    1    3    3    0  502  0.73386225632E+02 -0.86475529789E+03  0.46457299755E+03  0.98438576453E+03  0.25500000920E-02 0. -1.
</event>
<event>
 5   0  0.2855141E-05  0.1898831E+04  0.7818609E-02  0.8655438E-01
       -2   -1    0    0    0  501  0.00000000000E+00  0.00000000000E+00  0.86972691260E+03  0.86972691261E+03  0.25500000920E-02 0.  1.
        2   -1    0    0  501    0  0.00000000000E+00  0.00000000000E+00 -0.10364059072E+04  0.10364059072E+04  0.25500000920E-02 0. -1.
    10030    2    1    2    0    0  0.00000000000E+00  0.00000000000E+00 -0.16667899459E+03  0.19061328198E+04  0.18988313352E+04 0.  0.
        1    1    3    3  502    0  0.77438952727E+03 -0.36158582497E+03  0.33173159145E+03  0.91677112605E+03  0.50400001928E-02 0.  1.
       -1    1    3    3    0  502 -0.77438952727E+03  0.36158582497E+03 -0.49841058604E+03  0.98936169375E+03  0.50400001928E-02 0. -1.
</event>
<event>
 5   0  0.1327254E-05  0.1900173E+04  0.7818609E-02  0.8654770E-01
        1   -1    0    0  501    0  0.00000000000E+00  0.00000000000E+00  0.12521972238E+04  0.12521972238E+04  0.50400001928E-02 0. -1.
       -1   -1    0    0    0  501  0.00000000000E+00  0.00000000000E+00 -0.72086409184E+03  0.72086409186E+03  0.50400001928E-02 0.  1.
    10030    2    1    2    0    0  0.00000000000E+00  0.00000000000E+00  0.53133313192E+03  0.19730613156E+04  0.19001726390E+04 0.  0.
        5    1    3    3  502    0  0.29091839048E+03  0.79881646917E+02  0.12011279289E+04  0.12384445805E+04  0.46999998093E+01 0. -1.
       -5    1    3    3    0  502 -0.29091839048E+03 -0.79881646917E+02 -0.66979479698E+03  0.73461673511E+03  0.46999998093E+01 0.  1.
</event>
<event>
 5   0  0.1344119E-05  0.1903406E+04  0.7818609E-02  0.8653163E-01
        1   -1    0    0  501    0  0.00000000000E+00  0.00000000000E+00  0.16333896398E+04  0.16333896398E+04  0.50400001928E-02 0.  1.
       -1   -1    0    0    0  501  0.00000000000E+00  0.00000000000E+00 -0.55451500546E+03  0.55451500548E+03  0.50400001928E-02 0. -1.
    10030    2    1    2    0    0  0.00000000000E+00  0.00000000000E+00  0.10788746343E+04  0.21879046453E+04  0.19034064884E+04 0.  0.
        2    1    3    3  502    0 -0.93087304789E+03 -0.16389407552E+03  0.66719469211E+03  0.11569505851E+04  0.25500000920E-02 0. -1.
       -2    1    3    3    0  502  0.93087304789E+03  0.16389407552E+03  0.41167994222E+03  0.10309540601E+04  0.25500000920E-02 0.  1.
</event>
<event>
 5   0  0.2813537E-05  0.1914092E+04  0.7818609E-02  0.8647873E-01
        2   -1    0    0  501    0  0.00000000000E+00  0.00000000000E+00  0.69936718311E+03  0.69936718312E+03  0.25500000920E-02 0.  1.
       -2   -1    0    0    0  501  0.00000000000E+00  0.00000000000E+00 -0.13096655442E+04  0.13096655443E+04  0.25500000920E-02 0. -1.
    10030    2    1    2    0    0  0.00000000000E+00  0.00000000000E+00 -0.61029836114E+03  0.20090327274E+04  0.19140920589E+04 0.  0.
        2    1    3    3  502    0  0.64007288479E+03 -0.42949178093E+03  0.29024437357E+03  0.82364936965E+03  0.25500000920E-02 0.  1.
       -2    1    3    3    0  502 -0.64007288479E+03  0.42949178093E+03 -0.90054273471E+03  0.11853833577E+04  0.25500000920E-02 0. -1.
</event>
<event>
 5   0  0.2813537E-05  0.1898634E+04  0.7818609E-02  0.8655537E-01
        2   -1    0    0  501    0  0.00000000000E+00  0.00000000000E+00  0.24567009184E+04  0.24567009184E+04  0.25500000920E-02 0.  1.
       -2   -1    0    0    0  501  0.00000000000E+00  0.00000000000E+00 -0.36683451024E+03  0.36683451025E+03  0.25500000920E-02 0. -1.
    10030    2    1    2    0    0  0.00000000000E+00  0.00000000000E+00  0.20898664081E+04  0.28235354286E+04  0.18986339070E+04 0.  0.
        2    1    3    3  502    0 -0.52425182761E+02 -0.84205132296E+03  0.16921449759E+04  0.18908076184E+04  0.25500000920E-02 0.  1.
       -2    1    3    3    0  502  0.52425182761E+02  0.84205132296E+03  0.39772143220E+03  0.93272781020E+03  0.25500000920E-02 0. -1.
</event>
<event>
 5   0  0.2879462E-05  0.1898956E+04  0.7818609E-02  0.8655376E-01
        2   -1    0    0  501    0  0.00000000000E+00  0.00000000000E+00  0.17550922256E+04  0.17550922256E+04  0.25500000920E-02 0.  1.
       -2   -1    0    0    0  501  0.00000000000E+00  0.00000000000E+00 -0.51365314000E+03  0.51365314000E+03  0.25500000920E-02 0. -1.
    10030    2    1    2    0    0  0.00000000000E+00  0.00000000000E+00  0.12414390856E+04  0.22687453656E+04  0.18989561687E+04 0.  0.
        4    1    3    3  502    0  0.56059965373E+02  0.54688257158E+03 -0.30416403155E+03  0.62828388313E+03  0.12699999809E+01 0. -1.
       -4    1    3    3    0  502 -0.56059965373E+02 -0.54688257158E+03  0.15456031172E+04  0.16404614825E+04  0.12699999809E+01 0.  1.
</event>
<event>
 5   0  0.2813537E-05  0.1895676E+04  0.7818609E-02  0.8657012E-01
       -2   -1    0    0    0  501  0.00000000000E+00  0.00000000000E+00  0.41701645155E+03  0.41701645156E+03  0.25500000920E-02 0.  1.
        2   -1    0    0  501    0  0.00000000000E+00  0.00000000000E+00 -0.21543436295E+04  0.21543436295E+04  0.25500000920E-02 0. -1.
    10030    2    1    2    0    0  0.00000000000E+00  0.00000000000E+00 -0.17373271780E+04  0.25713600811E+04  0.18956758540E+04 0.  0.
        2    1    3    3  502    0 -0.59994320041E+03  0.25255865563E+03  0.65878437729E+02  0.65426117630E+03  0.25500000920E-02 0.  1.
       -2    1    3    3    0  502  0.59994320041E+03 -0.25255865563E+03 -0.18032056157E+04  0.19170989048E+04  0.25500000920E-02 0. -1.
</event>
<event>
 5   0  0.2813537E-05  0.1894836E+04  0.7818609E-02  0.8657431E-01
        2   -1    0    0  501    0  0.00000000000E+00  0.00000000000E+00  0.11473436921E+04  0.11473436921E+04  0.25500000920E-02 0.  1.
       -2   -1    0    0    0  501  0.00000000000E+00  0.00000000000E+00 -0.78232995466E+03  0.78232995467E+03  0.25500000920E-02 0. -1.
    10030    2    1    2    0    0  0.00000000000E+00  0.00000000000E+00  0.36501373741E+03  0.19296736467E+04  0.18948364981E+04 0.  0.
        2    1    3    3  502    0  0.37918427171E+03 -0.38230498197E+03  0.97636648428E+03  0.11150019385E+04  0.25500000920E-02 0.  1.
       -2    1    3    3    0  502 -0.37918427171E+03  0.38230498197E+03 -0.61135274687E+03  0.81467170828E+03  0.25500000920E-02 0. -1.
</event>
<event>
 5   0  0.2888776E-05  0.1899740E+04  0.7818609E-02  0.8654986E-01
        2   -1    0    0  501    0  0.00000000000E+00  0.00000000000E+00  0.20457883830E+04  0.20457883830E+04  0.25500000920E-02 0. -1.
       -2   -1    0    0    0  501  0.00000000000E+00  0.00000000000E+00 -0.44102946515E+03  0.44102946516E+03  0.25500000920E-02 0.  1.
    10030    2    1    2    0    0  0.00000000000E+00  0.00000000000E+00  0.16047589179E+04  0.24868178482E+04  0.18997399363E+04 0.  0.
        3    1    3    3  502    0 -0.70998131034E+03  0.29659028381E+03  0.15314680496E+04  0.17138942950E+04  0.10100000352E+00 0. -1.
       -3    1    3    3    0  502  0.70998131034E+03 -0.29659028381E+03  0.73290868325E+02  0.77292355318E+03  0.10100000352E+00 0.  1.
</event>
<event>
 5   0  0.1471485E-05  0.1907053E+04  0.7818609E-02  0.8651354E-01
       -1   -1    0    0    0  501  0.00000000000E+00  0.00000000000E+00  0.66148107350E+03  0.66148107352E+03  0.50400001928E-02 0.  1.
        1   -1    0    0  501    0  0.00000000000E+00  0.00000000000E+00 -0.13745101191E+04  0.13745101191E+04  0.50400001928E-02 0. -1.
    10030    2    1    2    0    0  0.00000000000E+00  0.00000000000E+00 -0.71302904564E+03  0.20359911927E+04  0.19070526256E+04 0.  0.
        4    1    3    3  502    0  0.18272510085E+03  0.74095282634E+03  0.25381127140E+03  0.80425202998E+03  0.12699999809E+01 0.  1.
       -4    1    3    3    0  502 -0.18272510085E+03 -0.74095282634E+03 -0.96684031704E+03  0.12317391627E+04  0.12699999809E+01 0. -1.
</event>
<event>
 5   0  0.1413011E-05  0.1899089E+04  0.7818609E-02  0.8655310E-01
        1   -1    0    0  501    0  0.00000000000E+00  0.00000000000E+00  0.64204348086E+03  0.64204348088E+03  0.50400001928E-02 0.  1.
       -1   -1    0    0    0  501  0.00000000000E+00  0.00000000000E+00 -0.14043204653E+04  0.14043204653E+04  0.50400001928E-02 0. -1.
    10030    2    1    2    0    0  0.00000000000E+00  0.00000000000E+00 -0.76227698443E+03  0.20463639462E+04  0.18990890446E+04 0.  0.
        1    1    3    3  502    0  0.24254401486E+03 -0.19544353142E+03  0.58542413178E+03  0.66313436588E+03  0.50400001928E-02 0.  1.
       -1    1    3    3    0  502 -0.24254401486E+03  0.19544353142E+03 -0.13477011162E+04  0.13832295803E+04  0.50400001928E-02 0. -1.
</event>
<event>
 5   0  0.1429067E-05  0.1902944E+04  0.7818609E-02  0.8653392E-01
        1   -1    0    0  501    0  0.00000000000E+00  0.00000000000E+00  0.20497666412E+04  0.20497666412E+04  0.50400001928E-02 0. -1.
       -1   -1    0    0    0  501  0.00000000000E+00  0.00000000000E+00 -0.44165965726E+03  0.44165965729E+03  0.50400001928E-02 0.  1.
    10030    2    1    2    0    0  0.00000000000E+00  0.00000000000E+00  0.16081069839E+04  0.24914262985E+04  0.19029442790E+04 0.  0.
        3    1    3    3  502    0 -0.58457770167E+03  0.74971485839E+03  0.85468880413E+03  0.12783960342E+04  0.10100000352E+00 0.  1.
       -3    1    3    3    0  502  0.58457770167E+03 -0.74971485839E+03  0.75341817977E+03  0.12130302642E+04  0.10100000352E+00 0. -1.
</event>
<event>
 5   0  0.1344119E-05  0.1842192E+04  0.7818609E-02  0.8684179E-01
        1   -1    0    0  501    0  0.00000000000E+00  0.00000000000E+00  0.10339363915E+04  0.10339363915E+04  0.50400001928E-02 0. -1.
       -1   -1    0    0    0  501  0.00000000000E+00  0.00000000000E+00 -0.82057050474E+03  0.82057050476E+03  0.50400001928E-02 0.  1.
    10030    2    1    2    0    0  0.00000000000E+00  0.00000000000E+00  0.21336588673E+03  0.18545068962E+04  0.18421918539E+04 0.  0.
        2    1    3    3  502    0  0.48714241641E+03  0.51111388677E+03  0.70213738780E+03  0.99576204510E+03  0.25500000920E-02 0. -1.
       -2    1    3    3    0  502 -0.48714241641E+03 -0.51111388677E+03 -0.48877150106E+03  0.85874485115E+03  0.25500000920E-02 0.  1.
</event>
<event>
 5   0  0.1429067E-05  0.1900865E+04  0.7818609E-02  0.8654426E-01
       -1   -1    0    0    0  501  0.00000000000E+00  0.00000000000E+00  0.83292549545E+03  0.83292549546E+03  0.50400001928E-02 0. -1.
        1   -1    0    0  501    0  0.00000000000E+00  0.00000000000E+00 -0.10845173929E+04  0.10845173929E+04  0.50400001928E-02 0.  1.
    10030    2    1    2    0    0  0.00000000000E+00  0.00000000000E+00 -0.25159189743E+03  0.19174428884E+04  0.19008652628E+04 0.  0.
        3    1    3    3  502    0  0.11399915459E+03  0.72880612872E+03 -0.73032881762E+03  0.10380435311E+04  0.10100000352E+00 0.  1.
       -3    1    3    3    0  502 -0.11399915459E+03 -0.72880612872E+03  0.47873692019E+03  0.87939935721E+03  0.10100000352E+00 0. -1.
</event>
<event>
 5   0  0.2879462E-05  0.1902691E+04  0.7818609E-02  0.8653518E-01
        2   -1    0    0  501    0  0.00000000000E+00  0.00000000000E+00  0.58436022168E+03  0.58436022169E+03  0.25500000920E-02 0. -1.
       -2   -1    0    0    0  501  0.00000000000E+00  0.00000000000E+00 -0.15488015914E+04  0.15488015914E+04  0.25500000920E-02 0.  1.
    10030    2    1    2    0    0  0.00000000000E+00  0.00000000000E+00 -0.96444136973E+03  0.21331618131E+04  0.19026907697E+04 0.  0.
        4    1    3    3  502    0  0.27153429127E+03  0.60567066502E+03  0.28186685949E+03  0.72112298894E+03  0.12699999809E+01 0. -1.
       -4    1    3    3    0  502 -0.27153429127E+03 -0.60567066502E+03 -0.12463082292E+04  0.14120388242E+04  0.12699999809E+01 0.  1.
</event>
<event>
 5   0  0.2879462E-05  0.1904056E+04  0.7818609E-02  0.8652840E-01
        2   -1    0    0  501    0  0.00000000000E+00  0.00000000000E+00  0.10028452108E+04  0.10028452108E+04  0.25500000920E-02 0. -1.
       -2   -1    0    0    0  501  0.00000000000E+00  0.00000000000E+00 -0.90378593523E+03  0.90378593523E+03  0.25500000920E-02 0.  1.
    10030    2    1    2    0    0  0.00000000000E+00  0.00000000000E+00  0.99059275521E+02  0.19066311460E+04  0.19040560881E+04 0.  0.
        4    1    3    3  502    0 -0.10467305208E+03 -0.41960660804E+03  0.89880968478E+03  0.99744003113E+03  0.12699999809E+01 0. -1.
       -4    1    3    3    0  502  0.10467305208E+03  0.41960660804E+03 -0.79975040926E+03  0.90919111486E+03  0.12699999809E+01 0.  1.
</event>
<event>
 5   0  0.2813537E-05  0.1899705E+04  0.7818609E-02  0.8655003E-01
       -2   -1    0    0    0  501  0.00000000000E+00  0.00000000000E+00  0.10861246345E+04  0.10861246345E+04  0.25500000920E-02 0. -1.
        2   -1    0    0  501    0  0.00000000000E+00  0.00000000000E+00 -0.83067824162E+03  0.83067824163E+03  0.25500000920E-02 0.  1.
    10030    2    1    2    0    0  0.00000000000E+00  0.00000000000E+00  0.25544639289E+03  0.19168028761E+04  0.18997053472E+04 0.  0.
        2    1    3    3  502    0  0.50469357774E+03 -0.22172351775E+03  0.90821146267E+03  0.10624146962E+04  0.25500000920E-02 0. -1.
       -2    1    3    3    0  502 -0.50469357774E+03  0.22172351775E+03 -0.65276506977E+03  0.85438817996E+03  0.25500000920E-02 0.  1.
</event>
<event>
 5   0  0.1010725E-05  0.1906157E+04  0.7818609E-02  0.8651798E-01
        3   -1    0    0  501    0  0.00000000000E+00  0.00000000000E+00  0.18432938014E+04  0.18432938041E+04  0.10100000352E+00 0.  1.
       -3   -1    0    0    0  501  0.00000000000E+00  0.00000000000E+00 -0.49279092462E+03  0.49279093497E+03  0.10100000352E+00 0. -1.
    10030    2    1    2    0    0  0.00000000000E+00  0.00000000000E+00  0.13505028768E+04  0.23360847391E+04  0.19061568373E+04 0.  0.
        3    1    3    3  502    0 -0.56263726777E+03 -0.76334443372E+03  0.55832216762E+03  0.11004449430E+04  0.10100000352E+00 0. -1.
       -3    1    3    3    0  502  0.56263726777E+03  0.76334443372E+03  0.79218070913E+03  0.12356397961E+04  0.10100000352E+00 0.  1.
</event>
<event>
 5   0  0.1471485E-05  0.1897521E+04  0.7818609E-02  0.8656091E-01
       -1   -1    0    0    0  501  0.00000000000E+00  0.00000000000E+00  0.84548607163E+03  0.84548607164E+03  0.50400001928E-02 0. -1.
        1   -1    0    0  501    0  0.00000000000E+00  0.00000000000E+00 -0.10646493812E+04  0.10646493812E+04  0.50400001928E-02 0.  1.
    10030    2    1    2    0    0  0.00000000000E+00  0.00000000000E+00 -0.21916330955E+03  0.19101354528E+04  0.18975207224E+04 0.  0.
        4    1    3    3  502    0 -0.78396406385E+03  0.53453134559E+01  0.42830795531E+03  0.89335185860E+03  0.12699999809E+01 0. -1.
       -4    1    3    3    0  502  0.78396406385E+03 -0.53453134559E+01 -0.64747126486E+03  0.10167835942E+04  0.12699999809E+01 0.  1.
</event>
<event>
 5   0  0.1429067E-05  0.1899240E+04  0.7818609E-02  0.8655235E-01
        1   -1    0    0  501    0  0.00000000000E+00  0.00000000000E+00  0.73773357754E+03  0.73773357755E+03  0.50400001928E-02 0.  1.
       -1   -1    0    0    0  501  0.00000000000E+00  0.00000000000E+00 -0.12223628199E+04  0.12223628200E+04  0.50400001928E-02 0. -1.
    10030    2    1    2    0    0  0.00000000000E+00  0.00000000000E+00 -0.48462924241E+03  0.19600963975E+04  0.18992399493E+04 0.  0.
        3    1    3    3  502    0 -0.17388399981E+03 -0.36594319276E+03 -0.11286871685E+04  0.11992017346E+04  0.10100000352E+00 0. -1.
       -3    1    3    3    0  502  0.17388399981E+03  0.36594319276E+03  0.64405792608E+03  0.76089466292E+03  0.10100000352E+00 0.  1.
</event>
<event>
 5   0  0.1471485E-05  0.1901979E+04  0.7818609E-02  0.8653872E-01
       -1   -1    0    0    0  501  0.00000000000E+00  0.00000000000E+00  0.10770279069E+04  0.10770279069E+04  0.50400001928E-02 0.  1.
        1   -1    0    0  501    0  0.00000000000E+00  0.00000000000E+00 -0.83970077187E+03  0.83970077189E+03  0.50400001928E-02 0. -1.
    10030    2    1    2    0    0  0.00000000000E+00  0.00000000000E+00  0.23732713502E+03  0.19167286788E+04  0.19019791426E+04 0.  0.
        4    1    3    3  502    0  0.20551614391E+03 -0.72073727885E+03  0.70859230088E+03  0.10314086350E+04  0.12699999809E+01 0.  1.
       -4    1    3    3    0  502 -0.20551614391E+03  0.72073727885E+03 -0.47126516586E+03  0.88532004382E+03  0.12699999809E+01 0. -1.
</event>
<event>
 5   0  0.1471485E-05  0.1896011E+04  0.7818609E-02  0.8656844E-01
       -1   -1    0    0    0  501  0.00000000000E+00  0.00000000000E+00  0.37193882172E+03  0.37193882175E+03  0.50400001928E-02 0.  1.
        1   -1    0    0  501    0  0.00000000000E+00  0.00000000000E+00 -0.24162973845E+04  0.24162973846E+04  0.50400001928E-02 0. -1.
    10030    2    1    2    0    0  0.00000000000E+00  0.00000000000E+00 -0.20443585628E+04  0.27882362063E+04  0.18960113947E+04 0.  0.
        4    1    3    3  502    0  0.38170712106E+03 -0.50105618341E+03  0.19709245467E+02  0.63019655066E+03  0.12699999809E+01 0.  1.
       -4    1    3    3    0  502 -0.38170712106E+03  0.50105618341E+03 -0.20640678083E+04  0.21580396557E+04  0.12699999809E+01 0. -1.
</event>
<event>
 5   0  0.2855141E-05  0.1914901E+04  0.7818609E-02  0.8647474E-01
        2   -1    0    0  501    0  0.00000000000E+00  0.00000000000E+00  0.19082569848E+04  0.19082569848E+04  0.25500000920E-02 0.  1.
       -2   -1    0    0    0  501  0.00000000000E+00  0.00000000000E+00 -0.48039218161E+03  0.48039218161E+03  0.25500000920E-02 0. -1.
    10030    2    1    2    0    0  0.00000000000E+00  0.00000000000E+00  0.14278648032E+04  0.23886491664E+04  0.19149012883E+04 0.  0.
        1    1    3    3  502    0  0.79042548950E+03  0.51663581148E+03  0.51659566510E+03  0.10763624377E+04  0.50400001928E-02 0. -1.
       -1    1    3    3    0  502 -0.79042548950E+03 -0.51663581148E+03  0.91126913806E+03  0.13122867286E+04  0.50400001928E-02 0.  1.
</event>
<event>
 5   0  0.2813537E-05  0.1899787E+04  0.7818609E-02  0.8654962E-01
        2   -1    0    0  501    0  0.00000000000E+00  0.00000000000E+00  0.18313523445E+04  0.18313523445E+04  0.25500000920E-02 0.  1.
       -2   -1    0    0    0  501  0.00000000000E+00  0.00000000000E+00 -0.49269481376E+03  0.49269481377E+03  0.25500000920E-02 0. -1.
    10030    2    1    2    0    0  0.00000000000E+00  0.00000000000E+00  0.13386575307E+04  0.23240471582E+04  0.18997871484E+04 0.  0.
        2    1    3    3  502    0  0.49726145170E+03  0.12679017164E+03 -0.30852628409E+03  0.59877639145E+03  0.25500000920E-02 0. -1.
       -2    1    3    3    0  502 -0.49726145170E+03 -0.12679017164E+03  0.16471838148E+04  0.17252707668E+04  0.25500000920E-02 0.  1.
</event>
<event>
 5   0  0.2888776E-05  0.1900367E+04  0.7818609E-02  0.8654674E-01
       -2   -1    0    0    0  501  0.00000000000E+00  0.00000000000E+00  0.37935467518E+03  0.37935467519E+03  0.25500000920E-02 0. -1.
        2   -1    0    0  501    0  0.00000000000E+00  0.00000000000E+00 -0.23799602367E+04  0.23799602367E+04  0.25500000920E-02 0.  1.
    10030    2    1    2    0    0  0.00000000000E+00  0.00000000000E+00 -0.20006055615E+04  0.27593149119E+04  0.19003673777E+04 0.  0.
        3    1    3    3  502    0  0.91958929623E+03 -0.22301919939E+03 -0.11257718396E+04  0.14706271730E+04  0.10100000352E+00 0. -1.
       -3    1    3    3    0  502 -0.91958929623E+03  0.22301919939E+03 -0.87483372196E+03  0.12886877389E+04  0.10100000352E+00 0.  1.
</event>
<event>
 5   0  0.2789718E-05  0.1900327E+04  0.7818609E-02  0.8654694E-01
       -2   -1    0    0    0  501  0.00000000000E+00  0.00000000000E+00  0.76599463209E+03  0.76599463210E+03  0.25500000920E-02 0. -1.
        2   -1    0    0  501    0  0.00000000000E+00  0.00000000000E+00 -0.11786117943E+04  0.11786117943E+04  0.25500000920E-02 0.  1.
    10030    2    1    2    0    0  0.00000000000E+00  0.00000000000E+00 -0.41261716224E+03  0.19446064264E+04  0.19003266117E+04 0.  0.
        5    1    3    3  502    0  0.13767014355E+03  0.50400885237E+03  0.60578919361E+03  0.79998789290E+03  0.46999998093E+01 0. -1.
       -5    1    3    3    0  502 -0.13767014355E+03 -0.50400885237E+03 -0.10184063558E+04  0.11446185335E+04  0.46999998093E+01 0.  1.
</event>
<event>
 5   0  0.1327254E-05  0.1890670E+04  0.7818609E-02  0.8659515E-01
        1   -1    0    0  501    0  0.00000000000E+00  0.00000000000E+00  0.17121916967E+04  0.17121916967E+04  0.50400001928E-02 0. -1.
       -1   -1    0    0    0  501  0.00000000000E+00  0.00000000000E+00 -0.52193813447E+03  0.52193813450E+03  0.50400001928E-02 0.  1.
    10030    2    1    2    0    0  0.00000000000E+00  0.00000000000E+00  0.11902535622E+04  0.22341298312E+04  0.18906698708E+04 0.  0.
        5    1    3    3  502    0 -0.49791858699E+03  0.28638094646E+03 -0.29206266882E+03  0.64440643873E+03  0.46999998093E+01 0.  1.
       -5    1    3    3    0  502  0.49791858699E+03 -0.28638094646E+03  0.14823162311E+04  0.15897233925E+04  0.46999998093E+01 0. -1.
</event>
<event>
 5   0  0.1344119E-05  0.1899629E+04  0.7818609E-02  0.8655041E-01
        1   -1    0    0  501    0  0.00000000000E+00  0.00000000000E+00  0.71847741949E+03  0.71847741951E+03  0.50400001928E-02 0. -1.
       -1   -1    0    0    0  501  0.00000000000E+00  0.00000000000E+00 -0.12556376207E+04  0.12556376207E+04  0.50400001928E-02 0.  1.
    10030    2    1    2    0    0  0.00000000000E+00  0.00000000000E+00 -0.53716020124E+03  0.19741150402E+04  0.18996286770E+04 0.  0.
        2    1    3    3  502    0 -0.43649724020E-01 -0.93172823775E+03 -0.46028500596E+03  0.10392207646E+04  0.25500000920E-02 0. -1.
       -2    1    3    3    0  502  0.43649724020E-01  0.93172823775E+03 -0.76875195275E+02  0.93489427561E+03  0.25500000920E-02 0.  1.
</event>
<event>
 5   0  0.1327254E-05  0.1902760E+04  0.7818609E-02  0.8653484E-01
        1   -1    0    0  501    0  0.00000000000E+00  0.00000000000E+00  0.68324755587E+03  0.68324755589E+03  0.50400001928E-02 0.  1.
       -1   -1    0    0    0  501  0.00000000000E+00  0.00000000000E+00 -0.13247373180E+04  0.13247373180E+04  0.50400001928E-02 0. -1.
    10030    2    1    2    0    0  0.00000000000E+00  0.00000000000E+00 -0.64148976214E+03  0.20079848739E+04  0.19027596114E+04 0.  0.
        5    1    3    3  502    0  0.80198620759E+03  0.50708434617E+03 -0.39374423239E+03  0.10273134973E+04  0.46999998093E+01 0. -1.
       -5    1    3    3    0  502 -0.80198620759E+03 -0.50708434617E+03 -0.24774552975E+03  0.98067137656E+03  0.46999998093E+01 0.  1.
</event>
<event>
 5   0  0.2813537E-05  0.1900583E+04  0.7818609E-02  0.8654566E-01
        2   -1    0    0  501    0  0.00000000000E+00  0.00000000000E+00  0.20106531076E+04  0.20106531076E+04  0.25500000920E-02 0.  1.
       -2   -1    0    0    0  501  0.00000000000E+00  0.00000000000E+00 -0.44913481289E+03  0.44913481290E+03  0.25500000920E-02 0. -1.
    10030    2    1    2    0    0  0.00000000000E+00  0.00000000000E+00  0.15615182947E+04  0.24597879205E+04  0.19005833918E+04 0.  0.
        2    1    3    3  502    0  0.92067668097E+03  0.42371361791E+02  0.10804320725E+04  0.14201318060E+04  0.25500000920E-02 0.  1.
       -2    1    3    3    0  502 -0.92067668097E+03 -0.42371361791E+02  0.48108622222E+03  0.10396561145E+04  0.25500000920E-02 0. -1.
</event>
<event>
 5   0  0.2855141E-05  0.1899097E+04  0.7818609E-02  0.8655306E-01
       -2   -1    0    0    0  501  0.00000000000E+00  0.00000000000E+00  0.10049935433E+04  0.10049935433E+04  0.25500000920E-02 0. -1.
        2   -1    0    0  501    0  0.00000000000E+00  0.00000000000E+00 -0.89716239532E+03  0.89716239532E+03  0.25500000920E-02 0.  1.
    10030    2    1    2    0    0  0.00000000000E+00  0.00000000000E+00  0.10783114795E+03  0.19021559386E+04  0.18990970639E+04 0.  0.
        1    1    3    3  502    0 -0.78036981626E+02 -0.47273812475E+03  0.87503557912E+03  0.99762636786E+03  0.50400001928E-02 0. -1.
       -1    1    3    3    0  502  0.78036981626E+02  0.47273812475E+03 -0.76720443117E+03  0.90452957073E+03  0.50400001928E-02 0.  1.
</event>
<event>
 5   0  0.2855141E-05  0.1897983E+04  0.7818609E-02  0.8655861E-01
        2   -1    0    0  501    0  0.00000000000E+00  0.00000000000E+00  0.67375073294E+03  0.67375073294E+03  0.25500000920E-02 0. -1.
       -2   -1    0    0    0  501  0.00000000000E+00  0.00000000000E+00 -0.13366733563E+04  0.13366733563E+04  0.25500000920E-02 0.  1.
    10030    2    1    2    0    0  0.00000000000E+00  0.00000000000E+00 -0.66292262332E+03  0.20104240892E+04  0.18979827749E+04 0.  0.
        1    1    3    3  502    0 -0.33142168056E+03 -0.31580424283E+03 -0.12119792507E+04  0.12955563880E+04  0.50400001928E-02 0.  1.
       -1    1    3    3    0  502  0.33142168056E+03  0.31580424283E+03  0.54905662742E+03  0.71486770124E+03  0.50400001928E-02 0. -1.
</event>
<event>
 5   0  0.2888776E-05  0.1899663E+04  0.7818609E-02  0.8655024E-01
       -2   -1    0    0    0  501  0.00000000000E+00  0.00000000000E+00  0.69015201853E+03  0.69015201853E+03  0.25500000920E-02 0.  1.
        2   -1    0    0  501    0  0.00000000000E+00  0.00000000000E+00 -0.13072187539E+04  0.13072187539E+04  0.25500000920E-02 0. -1.
    10030    2    1    2    0    0  0.00000000000E+00  0.00000000000E+00 -0.61706673536E+03  0.19973707724E+04  0.18996627718E+04 0.  0.
        3    1    3    3  502    0 -0.36095456965E+03  0.43406550440E+03  0.49461289055E+03  0.75056177970E+03  0.10100000352E+00 0.  1.
       -3    1    3    3    0  502  0.36095456965E+03 -0.43406550440E+03 -0.11116796259E+04  0.12468089927E+04  0.10100000352E+00 0. -1.
</event>
<event>
 5   0  0.1471485E-05  0.1898936E+04  0.7818609E-02  0.8655386E-01
       -1   -1    0    0    0  501  0.00000000000E+00  0.00000000000E+00  0.11375293718E+04  0.11375293718E+04  0.50400001928E-02 0. -1.
        1   -1    0    0  501    0  0.00000000000E+00  0.00000000000E+00 -0.79249737537E+03  0.79249737538E+03  0.50400001928E-02 0.  1.
    10030    2    1    2    0    0  0.00000000000E+00  0.00000000000E+00  0.34503199642E+03  0.19300267472E+04  0.18989355351E+04 0.  0.
        4    1    3    3  502    0 -0.16634668488E+03  0.31101341278E+03 -0.72344249466E+03  0.80484235629E+03  0.12699999809E+01 0.  1.
       -4    1    3    3    0  502  0.16634668488E+03 -0.31101341278E+03  0.10684744911E+04  0.11251843909E+04  0.12699999809E+01 0. -1.
</event>
<event>
 5   0  0.2888776E-05  0.1903525E+04  0.7818609E-02  0.8653104E-01
       -2   -1    0    0    0  501  0.00000000000E+00  0.00000000000E+00  0.84200776386E+03  0.84200776386E+03  0.25500000920E-02 0. -1.
        2   -1    0    0  501    0  0.00000000000E+00  0.00000000000E+00 -0.10758239303E+04  0.10758239303E+04  0.25500000920E-02 0.  1.
    10030    2    1    2    0    0  0.00000000000E+00  0.00000000000E+00 -0.23381616640E+03  0.19178316941E+04  0.19035252579E+04 0.  0.
        3    1    3    3  502    0  0.25358017603E+03  0.44498912016E+03  0.69132672818E+03  0.86037833424E+03  0.10100000352E+00 0. -1.
       -3    1    3    3    0  502 -0.25358017603E+03 -0.44498912016E+03 -0.92514289458E+03  0.10574533599E+04  0.10100000352E+00 0.  1.
</event>
<event>
 5   0  0.1344119E-05  0.1920038E+04  0.7818609E-02  0.8644946E-01
        1   -1    0    0  501    0  0.00000000000E+00  0.00000000000E+00  0.92419484740E+03  0.92419484742E+03  0.50400001928E-02 0.  1.
       -1   -1    0    0    0  501  0.00000000000E+00  0.00000000000E+00 -0.99723150390E+03  0.99723150391E+03  0.50400001928E-02 0. -1.
    10030    2    1    2    0    0  0.00000000000E+00  0.00000000000E+00 -0.73036656494E+02  0.19214263513E+04  0.19200377263E+04 0.  0.
        2    1    3    3  502    0 -0.93597433953E+03  0.74609818289E+02  0.16368042001E+03  0.95310328357E+03  0.25500000920E-02 0. -1.
       -2    1    3    3    0  502  0.93597433953E+03 -0.74609818289E+02 -0.23671707650E+03  0.96832306776E+03  0.25500000920E-02 0.  1.
</event>
<event>
 5   0  0.1010725E-05  0.1902787E+04  0.7818609E-02  0.8653470E-01
        4   -1    0    0  501    0  0.00000000000E+00  0.00000000000E+00  0.71518377479E+03  0.71518490240E+03  0.12699999809E+01 0. -1.
       -4   -1    0    0    0  501  0.00000000000E+00  0.00000000000E+00 -0.12656154175E+04  0.12656160547E+04  0.12699999809E+01 0.  1.
    10030    2    1    2    0    0  0.00000000000E+00  0.00000000000E+00 -0.55043164274E+03  0.19808009571E+04  0.19027867559E+04 0.  0.
        1    1    3    3  502    0 -0.22189690217E+03 -0.81463323014E+03 -0.73169617773E+03  0.11172487777E+04  0.50400001928E-02 0.  1.
       -1    1    3    3    0  502  0.22189690217E+03  0.81463323014E+03  0.18126453499E+03  0.86355217938E+03  0.50400001928E-02 0. -1.
</event>
<event>
 5   0  0.2888776E-05  0.1881133E+04  0.7818609E-02  0.8664305E-01
       -2   -1    0    0    0  501  0.00000000000E+00  0.00000000000E+00  0.55476215904E+03  0.55476215905E+03  0.25500000920E-02 0.  1.
        2   -1    0    0  501    0  0.00000000000E+00  0.00000000000E+00 -0.15946744769E+04  0.15946744769E+04  0.25500000920E-02 0. -1.
    10030    2    1    2    0    0  0.00000000000E+00  0.00000000000E+00 -0.10399123179E+04  0.21494366360E+04  0.18811326969E+04 0.  0.
        3    1    3    3  502    0 -0.42340872484E+03  0.43552471052E+03  0.30059806490E+03  0.67772850653E+03  0.10100000352E+00 0.  1.
       -3    1    3    3    0  502  0.42340872484E+03 -0.43552471052E+03 -0.13405103828E+04  0.14717081295E+04  0.10100000352E+00 0. -1.
</event>
<event>
 5   0  0.1344119E-05  0.1896687E+04  0.7818609E-02  0.8656507E-01
        1   -1    0    0  501    0  0.00000000000E+00  0.00000000000E+00  0.20840482479E+04  0.20840482479E+04  0.50400001928E-02 0. -1.
       -1   -1    0    0    0  501  0.00000000000E+00  0.00000000000E+00 -0.43154261874E+03  0.43154261877E+03  0.50400001928E-02 0.  1.
    10030    2    1    2    0    0  0.00000000000E+00  0.00000000000E+00  0.16525056292E+04  0.25155908667E+04  0.18966872579E+04 0.  0.
        2    1    3    3  502    0 -0.16644454384E+03  0.93306579092E+03  0.78347898753E+03  0.12296970685E+04  0.25500000920E-02 0. -1.
       -2    1    3    3    0  502  0.16644454384E+03 -0.93306579092E+03  0.86902664167E+03  0.12858937982E+04  0.25500000920E-02 0.  1.
</event>
<event>
 5   0  0.1344119E-05  0.1903984E+04  0.7818609E-02  0.8652876E-01
        1   -1    0    0  501    0  0.00000000000E+00  0.00000000000E+00  0.79471253618E+03  0.79471253620E+03  0.50400001928E-02 0. -1.
       -1   -1    0    0    0  501  0.00000000000E+00  0.00000000000E+00 -0.11403976358E+04  0.11403976358E+04  0.50400001928E-02 0.  1.
    10030    2    1    2    0    0  0.00000000000E+00  0.00000000000E+00 -0.34568509963E+03  0.19351101720E+04  0.19039835056E+04 0.  0.
        2    1    3    3  502    0 -0.52714407922E+03  0.21062148372E+03  0.60388023277E+03  0.82880252486E+03  0.25500000920E-02 0. -1.
       -2    1    3    3    0  502  0.52714407922E+03 -0.21062148372E+03 -0.94956533240E+03  0.11063076472E+04  0.25500000920E-02 0.  1.
</event>
<event>
 5   0  0.1010725E-05  0.1899030E+04  0.7818609E-02  0.8655339E-01
        3   -1    0    0  501    0  0.00000000000E+00  0.00000000000E+00  0.64913294117E+03  0.64913294903E+03  0.10100000352E+00 0. -1.
       -3   -1    0    0    0  501  0.00000000000E+00  0.00000000000E+00 -0.13888975330E+04  0.13888975366E+04  0.10100000352E+00 0.  1.
    10030    2    1    2    0    0  0.00000000000E+00  0.00000000000E+00 -0.73976459179E+03  0.20380304857E+04  0.18990304393E+04 0.  0.
        4    1    3    3  502    0 -0.28021087455E+03 -0.76628105586E+03  0.15133357811E+03  0.82982423172E+03  0.12699999809E+01 0. -1.
       -4    1    3    3    0  502  0.28021087455E+03  0.76628105586E+03 -0.89109816989E+03  0.12082062539E+04  0.12699999809E+01 0.  1.
</event>
<event>
 5   0  0.2813537E-05  0.1899507E+04  0.7818609E-02  0.8655102E-01
       -2   -1    0    0    0  501  0.00000000000E+00  0.00000000000E+00  0.79303360149E+03  0.79303360150E+03  0.25500000920E-02 0.  1.
        2   -1    0    0  501    0  0.00000000000E+00  0.00000000000E+00 -0.11374448184E+04  0.11374448184E+04  0.25500000920E-02 0. -1.
    10030    2    1    2    0    0  0.00000000000E+00  0.00000000000E+00 -0.34441121693E+03  0.19304784199E+04  0.18995072633E+04 0.  0.
        2    1    3    3  502    0 -0.22478109246E+03  0.14049925689E+02  0.76550181739E+03  0.79794546954E+03  0.25500000920E-02 0.  1.
       -2    1    3    3    0  502  0.22478109246E+03 -0.14049925689E+02 -0.11099130343E+04  0.11325329504E+04  0.25500000920E-02 0. -1.
</event>
<event>
 5   0  0.2813537E-05  0.1900413E+04  0.7818609E-02  0.8654651E-01
       -2   -1    0    0    0  501  0.00000000000E+00  0.00000000000E+00  0.50175280028E+03  0.50175280028E+03  0.25500000920E-02 0.  1.
        2   -1    0    0  501    0  0.00000000000E+00  0.00000000000E+00 -0.17994769386E+04  0.17994769386E+04  0.25500000920E-02 0. -1.
    10030    2    1    2    0    0  0.00000000000E+00  0.00000000000E+00 -0.12977241383E+04  0.23012297389E+04  0.19004132108E+04 0.  0.
        2    1    3    3  502    0 -0.53755797039E+03  0.57692291688E+03 -0.12908546009E+04  0.15126513889E+04  0.25500000920E-02 0. -1.
       -2    1    3    3    0  502  0.53755797039E+03 -0.57692291688E+03 -0.68695374025E+01  0.78857835001E+03  0.25500000920E-02 0.  1.
</event>
<event>
 5   0  0.1429067E-05  0.1901531E+04  0.7818609E-02  0.8654094E-01
       -1   -1    0    0    0  501  0.00000000000E+00  0.00000000000E+00  0.14200536582E+04  0.14200536582E+04  0.50400001928E-02 0.  1.
        1   -1    0    0  501    0  0.00000000000E+00  0.00000000000E+00 -0.63656430690E+03  0.63656430692E+03  0.50400001928E-02 0. -1.
    10030    2    1    2    0    0  0.00000000000E+00  0.00000000000E+00  0.78348935133E+03  0.20566179652E+04  0.19015314594E+04 0.  0.
        3    1    3    3  502    0  0.20092803884E+03  0.11123566756E+03 -0.60611270031E+03  0.64816515350E+03  0.10100000352E+00 0. -1.
       -3    1    3    3    0  502 -0.20092803884E+03 -0.11123566756E+03  0.13896020516E+04  0.14084528117E+04  0.10100000352E+00 0.  1.
</event>
<event>
 5   0  0.2879462E-05  0.1898217E+04  0.7818609E-02  0.8655744E-01
        2   -1    0    0  501    0  0.00000000000E+00  0.00000000000E+00  0.10105478632E+04  0.10105478632E+04  0.25500000920E-02 0. -1.
       -2   -1    0    0    0  501  0.00000000000E+00  0.00000000000E+00 -0.89140473367E+03  0.89140473367E+03  0.25500000920E-02 0.  1.
    10030    2    1    2    0    0  0.00000000000E+00  0.00000000000E+00  0.11914312954E+03  0.19019525969E+04  0.18982172150E+04 0.  0.
        4    1    3    3  502    0 -0.88373351690E+03  0.14290472771E+02 -0.28696504766E+03  0.92926836704E+03  0.12699999809E+01 0.  1.
       -4    1    3    3    0  502  0.88373351690E+03 -0.14290472771E+02  0.40610817720E+03  0.97268422984E+03  0.12699999809E+01 0. -1.
</event>
<event>
 5   0  0.1413011E-05  0.1896841E+04  0.7818609E-02  0.8656431E-01
       -1   -1    0    0    0  501  0.00000000000E+00  0.00000000000E+00  0.39030960346E+03  0.39030960350E+03  0.50400001928E-02 0.  1.
        1   -1    0    0  501    0  0.00000000000E+00  0.00000000000E+00 -0.23045834549E+04  0.23045834549E+04  0.50400001928E-02 0. -1.
    10030    2    1    2    0    0  0.00000000000E+00  0.00000000000E+00 -0.19142738514E+04  0.26948930584E+04  0.18968405884E+04 0.  0.
        1    1    3    3  502    0 -0.51384131216E+03  0.77788558057E+03 -0.70957878921E+03  0.11715975967E+04  0.50400001928E-02 0. -1.
       -1    1    3    3    0  502  0.51384131216E+03 -0.77788558057E+03 -0.12046950622E+04  0.15232954616E+04  0.50400001928E-02 0.  1.
</event>
<event>
 5   0  0.2813537E-05  0.1900780E+04  0.7818609E-02  0.8654468E-01
        2   -1    0    0  501    0  0.00000000000E+00  0.00000000000E+00  0.21798123451E+04  0.21798123451E+04  0.25500000920E-02 0. -1.
       -2   -1    0    0    0  501  0.00000000000E+00  0.00000000000E+00 -0.41436659816E+03  0.41436659817E+03  0.25500000920E-02 0.  1.
    10030    2    1    2    0    0  0.00000000000E+00  0.00000000000E+00  0.17654457470E+04  0.25941789433E+04  0.19007802883E+04 0.  0.
        2    1    3    3  502    0  0.58121826940E+03  0.22002135632E+03 -0.98619541157E+02  0.62924549091E+03  0.25500000920E-02 0.  1.
       -2    1    3    3    0  502 -0.58121826940E+03 -0.22002135632E+03  0.18640652881E+04  0.19649334524E+04  0.25500000920E-02 0. -1.
</event>
<event>
 5   0  0.1327254E-05  0.1898564E+04  0.7818609E-02  0.8655571E-01
        1   -1    0    0  501    0  0.00000000000E+00  0.00000000000E+00  0.10736988812E+04  0.10736988812E+04  0.50400001928E-02 0. -1.
       -1   -1    0    0    0  501  0.00000000000E+00  0.00000000000E+00 -0.83928253120E+03  0.83928253122E+03  0.50400001928E-02 0.  1.
    10030    2    1    2    0    0  0.00000000000E+00  0.00000000000E+00  0.23441635002E+03  0.19129814125E+04  0.18985644206E+04 0.  0.
        5    1    3    3  502    0  0.10978823414E+03 -0.48460391739E+03  0.93218900048E+03  0.10563582895E+04  0.46999998093E+01 0. -1.
       -5    1    3    3    0  502 -0.10978823414E+03  0.48460391739E+03 -0.69777265046E+03  0.85662312299E+03  0.46999998093E+01 0.  1.
</event>
<event>
 5   0  0.2855141E-05  0.1898524E+04  0.7818609E-02  0.8655591E-01
        2   -1    0    0  501    0  0.00000000000E+00  0.00000000000E+00  0.24706688961E+04  0.24706688961E+04  0.25500000920E-02 0.  1.
       -2   -1    0    0    0  501  0.00000000000E+00  0.00000000000E+00 -0.36471833191E+03  0.36471833192E+03  0.25500000920E-02 0. -1.
    10030    2    1    2    0    0  0.00000000000E+00  0.00000000000E+00  0.21059505642E+04  0.28353872281E+04  0.18985238882E+04 0.  0.
        1    1    3    3  502    0 -0.72087870778E+03 -0.27951803528E+03  0.18754712983E+04  0.20285928705E+04  0.50400001928E-02 0.  1.
       -1    1    3    3    0  502  0.72087870778E+03  0.27951803528E+03  0.23047926592E+03  0.80679435758E+03  0.50400001928E-02 0. -1.
</event>
<event>
 5   0  0.1010725E-05  0.1900232E+04  0.7818609E-02  0.8654741E-01
        4   -1    0    0  501    0  0.00000000000E+00  0.00000000000E+00  0.88079625681E+03  0.88079717240E+03  0.12699999809E+01 0. -1.
       -4   -1    0    0    0  501  0.00000000000E+00  0.00000000000E+00 -0.10248889451E+04  0.10248897320E+04  0.12699999809E+01 0.  1.
    10030    2    1    2    0    0  0.00000000000E+00  0.00000000000E+00 -0.14409268830E+03  0.19056869044E+04  0.19002315319E+04 0.  0.
        3    1    3    3  502    0  0.88545672219E+03 -0.27104130382E+03 -0.28531377499E+03  0.96896901687E+03  0.10100000352E+00 0.  1.
       -3    1    3    3    0  502 -0.88545672219E+03  0.27104130382E+03  0.14122108669E+03  0.93671788751E+03  0.10100000352E+00 0. -1.
</event>
<event>
 5   0  0.1429067E-05  0.1862673E+04  0.7818609E-02  0.8673663E-01
        1   -1    0    0  501    0  0.00000000000E+00  0.00000000000E+00  0.13404460823E+04  0.13404460824E+04  0.50400001928E-02 0. -1.
       -1   -1    0    0    0  501  0.00000000000E+00  0.00000000000E+00 -0.64708857280E+03  0.64708857282E+03  0.50400001928E-02 0.  1.
    10030    2    1    2    0    0  0.00000000000E+00  0.00000000000E+00  0.69335750955E+03  0.19875346552E+04  0.18626726415E+04 0.  0.
        3    1    3    3  502    0  0.29402125448E+03 -0.65643840616E+03 -0.28461170758E+03  0.77353972973E+03  0.10100000352E+00 0.  1.
       -3    1    3    3    0  502 -0.29402125448E+03  0.65643840616E+03  0.97796921712E+03  0.12139949255E+04  0.10100000352E+00 0. -1.
</event>
<event>
 5   0  0.1471485E-05  0.1900915E+04  0.7818609E-02  0.8654401E-01
       -1   -1    0    0    0  501  0.00000000000E+00  0.00000000000E+00  0.10023518346E+04  0.10023518346E+04  0.50400001928E-02 0.  1.
        1   -1    0    0  501    0  0.00000000000E+00  0.00000000000E+00 -0.90124976474E+03  0.90124976475E+03  0.50400001928E-02 0. -1.
    10030    2    1    2    0    0  0.00000000000E+00  0.00000000000E+00  0.10110206985E+03  0.19036015994E+04  0.19009148904E+04 0.  0.
        4    1    3    3  502    0  0.74588977376E+03 -0.49739428729E+03  0.36661573870E+03  0.96858729312E+03  0.12699999809E+01 0. -1.
       -4    1    3    3    0  502 -0.74588977376E+03  0.49739428729E+03 -0.26551366885E+03  0.93501430624E+03  0.12699999809E+01 0.  1.
</event>
<event>
 5   0  0.1471485E-05  0.1900235E+04  0.7818609E-02  0.8654740E-01
       -1   -1    0    0    0  501  0.00000000000E+00  0.00000000000E+00  0.11300391810E+04  0.11300391810E+04  0.50400001928E-02 0.  1.
        1   -1    0    0  501    0  0.00000000000E+00  0.00000000000E+00 -0.79884206922E+03  0.79884206924E+03  0.50400001928E-02 0. -1.
    10030    2    1    2    0    0  0.00000000000E+00  0.00000000000E+00  0.33119711179E+03  0.19288812503E+04  0.19002345515E+04 0.  0.
        4    1    3    3  502    0 -0.29219118283E+03  0.20156230003E+03 -0.72900375427E+03  0.81083360485E+03  0.12699999809E+01 0. -1.
       -4    1    3    3    0  502  0.29219118283E+03 -0.20156230003E+03  0.10602008661E+04  0.11180476454E+04  0.12699999809E+01 0.  1.
</event>
<event>
 5   0  0.2813537E-05  0.1905037E+04  0.7818609E-02  0.8652353E-01
        2   -1    0    0  501    0  0.00000000000E+00  0.00000000000E+00  0.17106836441E+04  0.17106836441E+04  0.25500000920E-02 0. -1.
       -2   -1    0    0    0  501  0.00000000000E+00  0.00000000000E+00 -0.53036761905E+03  0.53036761906E+03  0.25500000920E-02 0.  1.
    10030    2    1    2    0    0  0.00000000000E+00  0.00000000000E+00  0.11803160251E+04  0.22410512632E+04  0.19050367044E+04 0.  0.
        2    1    3    3  502    0  0.77798206706E+03 -0.23786539803E+03  0.11729781281E+04  0.14274851079E+04  0.25500000920E-02 0. -1.
       -2    1    3    3    0  502 -0.77798206706E+03  0.23786539803E+03  0.73378969376E+01  0.81356615526E+03  0.25500000920E-02 0.  1.
</event>
<event>
 5   0  0.2813537E-05  0.1906342E+04  0.7818609E-02  0.8651706E-01
        2   -1    0    0  501    0  0.00000000000E+00  0.00000000000E+00  0.14727091428E+04  0.14727091428E+04  0.25500000920E-02 0. -1.
       -2   -1    0    0    0  501  0.00000000000E+00  0.00000000000E+00 -0.61691374882E+03  0.61691374883E+03  0.25500000920E-02 0.  1.
    10030    2    1    2    0    0  0.00000000000E+00  0.00000000000E+00  0.85579539401E+03  0.20896228917E+04  0.19063415415E+04 0.  0.
        2    1    3    3  502    0 -0.51601886644E+03  0.37650073551E+03 -0.34758472022E+03  0.72721620726E+03  0.25500000920E-02 0.  1.
       -2    1    3    3    0  502  0.51601886644E+03 -0.37650073551E+03  0.12033801142E+04  0.13624066844E+04  0.25500000920E-02 0. -1.
</event>
<event>
 5   0  0.2879462E-05  0.1897101E+04  0.7818609E-02  0.8656301E-01
       -2   -1    0    0    0  501  0.00000000000E+00  0.00000000000E+00  0.14131956098E+04  0.14131956098E+04  0.25500000920E-02 0. -1.
        2   -1    0    0  501    0  0.00000000000E+00  0.00000000000E+00 -0.63667601979E+03  0.63667601979E+03  0.25500000920E-02 0.  1.
    10030    2    1    2    0    0  0.00000000000E+00  0.00000000000E+00  0.77651959000E+03  0.20498716296E+04  0.18971006890E+04 0.  0.
        4    1    3    3  502    0  0.55651205529E+03 -0.26815533769E+03  0.11660401856E+04  0.13195697330E+04  0.12699999809E+01 0. -1.
       -4    1    3    3    0  502 -0.55651205529E+03  0.26815533769E+03 -0.38952059564E+03  0.73030189658E+03  0.12699999809E+01 0.  1.
</event>
<event>
 5   0  0.2789718E-05  0.1890868E+04  0.7818609E-02  0.8659415E-01
        2   -1    0    0  501    0  0.00000000000E+00  0.00000000000E+00  0.11277857519E+04  0.11277857519E+04  0.25500000920E-02 0. -1.
       -2   -1    0    0    0  501  0.00000000000E+00  0.00000000000E+00 -0.79256684260E+03  0.79256684261E+03  0.25500000920E-02 0.  1.
    10030    2    1    2    0    0  0.00000000000E+00  0.00000000000E+00  0.33521890929E+03  0.19203525945E+04  0.18908681525E+04 0.  0.
        5    1    3    3  502    0 -0.68655632046E+03  0.61920781448E+03 -0.33071334949E+02  0.92514523285E+03  0.46999998093E+01 0.  1.
       -5    1    3    3    0  502  0.68655632046E+03 -0.61920781448E+03  0.36829024424E+03  0.99520736165E+03  0.46999998093E+01 0. -1.
</event>
<event>
 5   0  0.2813537E-05  0.1900532E+04  0.7818609E-02  0.8654592E-01
        2   -1    0    0  501    0  0.00000000000E+00  0.00000000000E+00  0.32872678850E+04  0.32872678850E+04  0.25500000920E-02 0.  1.
       -2   -1    0    0    0  501  0.00000000000E+00  0.00000000000E+00 -0.27469781294E+03  0.27469781295E+03  0.25500000920E-02 0. -1.
    10030    2    1    2    0    0  0.00000000000E+00  0.00000000000E+00  0.30125700720E+04  0.35619656979E+04  0.19005318188E+04 0.  0.
        2    1    3    3  502    0  0.48173019935E+03 -0.20549481837E+03  0.29923605378E+04  0.30378468845E+04  0.25500000920E-02 0.  1.
       -2    1    3    3    0  502 -0.48173019935E+03  0.20549481837E+03  0.20209534258E+02  0.52411881347E+03  0.25500000920E-02 0. -1.
</event>
<event>
 5   0  0.2855141E-05  0.1900660E+04  0.7818609E-02  0.8654528E-01
       -2   -1    0    0    0  501  0.00000000000E+00  0.00000000000E+00  0.71719076173E+03  0.71719076174E+03  0.25500000920E-02 0. -1.
        2   -1    0    0  501    0  0.00000000000E+00  0.00000000000E+00 -0.12592564576E+04  0.12592564576E+04  0.25500000920E-02 0.  1.
    10030    2    1    2    0    0  0.00000000000E+00  0.00000000000E+00 -0.54206569582E+03  0.19764472193E+04  0.19006599885E+04 0.  0.
        1    1    3    3  502    0  0.86410965334E+03  0.39279631809E+03 -0.22278607667E+03  0.97499132124E+03  0.50400001928E-02 0. -1.
       -1    1    3    3    0  502 -0.86410965334E+03 -0.39279631809E+03 -0.31927961915E+03  0.10014558980E+04  0.50400001928E-02 0.  1.
</event>
<event>
 5   0  0.2879462E-05  0.1894960E+04  0.7818609E-02  0.8657369E-01
        2   -1    0    0  501    0  0.00000000000E+00  0.00000000000E+00  0.13745599606E+04  0.13745599606E+04  0.25500000920E-02 0. -1.
       -2   -1    0    0    0  501  0.00000000000E+00  0.00000000000E+00 -0.65309534789E+03  0.65309534789E+03  0.25500000920E-02 0.  1.
    10030    2    1    2    0    0  0.00000000000E+00  0.00000000000E+00  0.72146461273E+03  0.20276553085E+04  0.18949603855E+04 0.  0.
        4    1    3    3  502    0 -0.15281286947E+03  0.75020155887E+03  0.95799707549E+03  0.12263417801E+04  0.12699999809E+01 0. -1.
       -4    1    3    3    0  502  0.15281286947E+03 -0.75020155887E+03 -0.23653246276E+03  0.80131352843E+03  0.12699999809E+01 0.  1.
</event>
<event>
 5   0  0.2879462E-05  0.1887775E+04  0.7818609E-02  0.8660965E-01
       -2   -1    0    0    0  501  0.00000000000E+00  0.00000000000E+00  0.54740797154E+03  0.54740797154E+03  0.25500000920E-02 0. -1.
        2   -1    0    0  501    0  0.00000000000E+00  0.00000000000E+00 -0.16275318613E+04  0.16275318613E+04  0.25500000920E-02 0.  1.
    10030    2    1    2    0    0  0.00000000000E+00  0.00000000000E+00 -0.10801238897E+04  0.21749398328E+04  0.18877753201E+04 0.  0.
        4    1    3    3  502    0  0.10633988097E+03 -0.38630286522E+03  0.44456708595E+03  0.59848106133E+03  0.12699999809E+01 0. -1.
       -4    1    3    3    0  502 -0.10633988097E+03  0.38630286522E+03 -0.15246909757E+04  0.15764587715E+04  0.12699999809E+01 0.  1.
</event>
<event>
 5   0  0.2789718E-05  0.1896663E+04  0.7818609E-02  0.8656519E-01
       -2   -1    0    0    0  501  0.00000000000E+00  0.00000000000E+00  0.89727468552E+03  0.89727468552E+03  0.25500000920E-02 0.  1.
        2   -1    0    0  501    0  0.00000000000E+00  0.00000000000E+00 -0.10022938477E+04  0.10022938477E+04  0.25500000920E-02 0. -1.
    10030    2    1    2    0    0  0.00000000000E+00  0.00000000000E+00 -0.10501916218E+03  0.18995685332E+04  0.18966632774E+04 0.  0.
        5    1    3    3  502    0 -0.38738665675E+03  0.86558631368E+03 -0.54160966598E+02  0.94987556478E+03  0.46999998093E+01 0.  1.
       -5    1    3    3    0  502  0.38738665675E+03 -0.86558631368E+03 -0.50858195578E+02  0.94969296845E+03  0.46999998093E+01 0. -1.
</event>
<event>
 5   0  0.1471485E-05  0.1871221E+04  0.7818609E-02  0.8669316E-01
        1   -1    0    0  501    0  0.00000000000E+00  0.00000000000E+00  0.11435620538E+04  0.11435620539E+04  0.50400001928E-02 0. -1.
       -1   -1    0    0    0  501  0.00000000000E+00  0.00000000000E+00 -0.76547358714E+03  0.76547358716E+03  0.50400001928E-02 0.  1.
    10030    2    1    2    0    0  0.00000000000E+00  0.00000000000E+00  0.37808846671E+03  0.19090356410E+04  0.18712205081E+04 0.  0.
        4    1    3    3  502    0  0.53213031132E+03  0.54849822846E+02  0.97214588252E+03  0.11096127257E+04  0.12699999809E+01 0. -1.
       -4    1    3    3    0  502 -0.53213031132E+03 -0.54849822846E+02 -0.59405741582E+03  0.79942291529E+03  0.12699999809E+01 0.  1.
</event>
<event>
 5   0  0.2789718E-05  0.1901789E+04  0.7818609E-02  0.8653966E-01
       -2   -1    0    0    0  501  0.00000000000E+00  0.00000000000E+00  0.76074172644E+03  0.76074172644E+03  0.25500000920E-02 0.  1.
        2   -1    0    0  501    0  0.00000000000E+00  0.00000000000E+00 -0.11885774343E+04  0.11885774343E+04  0.25500000920E-02 0. -1.
    10030    2    1    2    0    0  0.00000000000E+00  0.00000000000E+00 -0.42783570787E+03  0.19493191608E+04  0.19017891044E+04 0.  0.
        5    1    3    3  502    0 -0.72291685728E+03 -0.58347544564E+01 -0.84704085542E+03  0.11136171369E+04  0.46999998093E+01 0. -1.
       -5    1    3    3    0  502  0.72291685728E+03  0.58347544564E+01  0.41920514755E+03  0.83570202383E+03  0.46999998093E+01 0.  1.
</event>
<event>
 5   0  0.2888776E-05  0.1899119E+04  0.7818609E-02  0.8655295E-01
       -2   -1    0    0    0  501  0.00000000000E+00  0.00000000000E+00  0.11866904555E+04  0.11866904555E+04  0.25500000920E-02 0. -1.
        2   -1    0    0  501    0  0.00000000000E+00  0.00000000000E+00 -0.75981314150E+03  0.75981314150E+03  0.25500000920E-02 0.  1.
    10030    2    1    2    0    0  0.00000000000E+00  0.00000000000E+00  0.42687731400E+03  0.19465035970E+04  0.18991187461E+04 0.  0.
        3    1    3    3  502    0  0.28329455665E+03  0.85178702687E+03  0.53078646409E+03  0.10428476522E+04  0.10100000352E+00 0. -1.
       -3    1    3    3    0  502 -0.28329455665E+03 -0.85178702687E+03 -0.10390915009E+03  0.90365594484E+03  0.10100000352E+00 0.  1.
</event>
<event>
 5   0  0.1344119E-05  0.1905587E+04  0.7818609E-02  0.8652080E-01
       -1   -1    0    0    0  501  0.00000000000E+00  0.00000000000E+00  0.13413955804E+04  0.13413955804E+04  0.50400001928E-02 0. -1.
        1   -1    0    0  501    0  0.00000000000E+00  0.00000000000E+00 -0.67676923740E+03  0.67676923742E+03  0.50400001928E-02 0.  1.
    10030    2    1    2    0    0  0.00000000000E+00  0.00000000000E+00  0.66462634297E+03  0.20181648178E+04  0.19055868010E+04 0.  0.
        2    1    3    3  502    0  0.49879339345E+03 -0.26757676990E+03 -0.47940150884E+03  0.74176679882E+03  0.25500000920E-02 0.  1.
       -2    1    3    3    0  502 -0.49879339345E+03  0.26757676990E+03  0.11440278518E+04  0.12763980190E+04  0.25500000920E-02 0. -1.
</event>
<event>
 5   0  0.1413011E-05  0.1897665E+04  0.7818609E-02  0.8656020E-01
       -1   -1    0    0    0  501  0.00000000000E+00  0.00000000000E+00  0.40983354059E+03  0.40983354062E+03  0.50400001928E-02 0. -1.
        1   -1    0    0  501    0  0.00000000000E+00  0.00000000000E+00 -0.21967033545E+04  0.21967033545E+04  0.50400001928E-02 0.  1.
    10030    2    1    2    0    0  0.00000000000E+00  0.00000000000E+00 -0.17868698140E+04  0.26065368952E+04  0.18976645788E+04 0.  0.
        1    1    3    3  502    0  0.86110422107E+03  0.37955130948E+03 -0.10600994180E+04  0.14175226461E+04  0.50400001928E-02 0.  1.
       -1    1    3    3    0  502 -0.86110422107E+03 -0.37955130948E+03 -0.72677039592E+03  0.11890142491E+04  0.50400001928E-02 0. -1.
</event>
<event>
 5   0  0.1327254E-05  0.1907284E+04  0.7818609E-02  0.8651239E-01
        1   -1    0    0  501    0  0.00000000000E+00  0.00000000000E+00  0.12444429098E+04  0.12444429098E+04  0.50400001928E-02 0.  1.
       -1   -1    0    0    0  501  0.00000000000E+00  0.00000000000E+00 -0.73079538961E+03  0.73079538963E+03  0.50400001928E-02 0. -1.
    10030    2    1    2    0    0  0.00000000000E+00  0.00000000000E+00  0.51364752018E+03  0.19752382994E+04  0.19072840807E+04 0.  0.
        5    1    3    3  502    0  0.80995174709E+03 -0.24543046648E+03 -0.19832667325E+03  0.86926032108E+03  0.46999998093E+01 0. -1.
       -5    1    3    3    0  502 -0.80995174709E+03  0.24543046648E+03  0.71197419343E+03  0.11059779783E+04  0.46999998093E+01 0.  1.
</event>
<event>
 5   0  0.1327254E-05  0.1900395E+04  0.7818609E-02  0.8654660E-01
       -1   -1    0    0    0  501  0.00000000000E+00  0.00000000000E+00  0.24353709181E+04  0.24353709181E+04  0.50400001928E-02 0. -1.
        1   -1    0    0  501    0  0.00000000000E+00  0.00000000000E+00 -0.37073433071E+03  0.37073433074E+03  0.50400001928E-02 0.  1.
    10030    2    1    2    0    0  0.00000000000E+00  0.00000000000E+00  0.20646365874E+04  0.28061052489E+04  0.19003953351E+04 0.  0.
        5    1    3    3  502    0 -0.69747834914E+03  0.48743380572E+03  0.16566659083E+04  0.18624263165E+04  0.46999998093E+01 0. -1.
       -5    1    3    3    0  502  0.69747834914E+03 -0.48743380572E+03  0.40797067910E+03  0.94367893241E+03  0.46999998093E+01 0.  1.
</event>
<event>
 5   0  0.2855141E-05  0.1909182E+04  0.7818609E-02  0.8650299E-01
       -2   -1    0    0    0  501  0.00000000000E+00  0.00000000000E+00  0.39458912559E+03  0.39458912560E+03  0.25500000920E-02 0.  1.
        2   -1    0    0  501    0  0.00000000000E+00  0.00000000000E+00 -0.23093500946E+04  0.23093500946E+04  0.25500000920E-02 0. -1.
    10030    2    1    2    0    0  0.00000000000E+00  0.00000000000E+00 -0.19147609690E+04  0.27039392202E+04  0.19091824790E+04 0.  0.
        1    1    3    3  502    0  0.25470866037E+03  0.15987855698E+03 -0.22405083974E+04  0.22606007019E+04  0.50400001928E-02 0. -1.
       -1    1    3    3    0  502 -0.25470866037E+03 -0.15987855698E+03  0.32574742841E+03  0.44333851828E+03  0.50400001928E-02 0.  1.
</event>
<event>
 5   0  0.2855141E-05  0.1901393E+04  0.7818609E-02  0.8654163E-01
        2   -1    0    0  501    0  0.00000000000E+00  0.00000000000E+00  0.77980309481E+03  0.77980309482E+03  0.25500000920E-02 0. -1.
       -2   -1    0    0    0  501  0.00000000000E+00  0.00000000000E+00 -0.11590407089E+04  0.11590407090E+04  0.25500000920E-02 0.  1.
    10030    2    1    2    0    0  0.00000000000E+00  0.00000000000E+00 -0.37923761413E+03  0.19388438038E+04  0.19013926810E+04 0.  0.
        1    1    3    3  502    0  0.49279587807E+02  0.62849763919E+03 -0.91524299725E+03  0.11113539060E+04  0.50400001928E-02 0.  1.
       -1    1    3    3    0  502 -0.49279587807E+02 -0.62849763919E+03  0.53600538311E+03  0.82748989782E+03  0.50400001928E-02 0. -1.
</event>
<event>
 5   0  0.1413011E-05  0.1897606E+04  0.7818609E-02  0.8656049E-01
        1   -1    0    0  501    0  0.00000000000E+00  0.00000000000E+00  0.98573577756E+03  0.98573577757E+03  0.50400001928E-02 0. -1.
       -1   -1    0    0    0  501  0.00000000000E+00  0.00000000000E+00 -0.91325386211E+03  0.91325386213E+03  0.50400001928E-02 0.  1.
    10030    2    1    2    0    0  0.00000000000E+00  0.00000000000E+00  0.72481915448E+02  0.18989896397E+04  0.18976058663E+04 0.  0.
        1    1    3    3  502    0 -0.17895094373E+03  0.40716904323E+03 -0.80247338178E+03  0.91748220611E+03  0.50400001928E-02 0.  1.
       -1    1    3    3    0  502  0.17895094373E+03 -0.40716904323E+03  0.87495529723E+03  0.98150743360E+03  0.50400001928E-02 0. -1.
</event>
<event>
 5   0  0.2813537E-05  0.1898084E+04  0.7818609E-02  0.8655811E-01
        2   -1    0    0  501    0  0.00000000000E+00  0.00000000000E+00  0.18772910526E+04  0.18772910526E+04  0.25500000920E-02 0. -1.
       -2   -1    0    0    0  501  0.00000000000E+00  0.00000000000E+00 -0.47977698507E+03  0.47977698508E+03  0.25500000920E-02 0.  1.
    10030    2    1    2    0    0  0.00000000000E+00  0.00000000000E+00  0.13975140676E+04  0.23570680377E+04  0.18980843410E+04 0.  0.
        2    1    3    3  502    0 -0.86927887913E+03 -0.32279796928E+03  0.94970412105E+03  0.13273214442E+04  0.25500000920E-02 0. -1.
       -2    1    3    3    0  502  0.86927887913E+03  0.32279796928E+03  0.44780994652E+03  0.10297465935E+04  0.25500000920E-02 0.  1.
</event>
<event>
 5   0  0.2789718E-05  0.1900742E+04  0.7818609E-02  0.8654487E-01
       -2   -1    0    0    0  501  0.00000000000E+00  0.00000000000E+00  0.93673859003E+03  0.93673859003E+03  0.25500000920E-02 0. -1.
        2   -1    0    0  501    0  0.00000000000E+00  0.00000000000E+00 -0.96420199486E+03  0.96420199487E+03  0.25500000920E-02 0.  1.
    10030    2    1    2    0    0  0.00000000000E+00  0.00000000000E+00 -0.27463404838E+02  0.19009405849E+04  0.19007421889E+04 0.  0.
        5    1    3    3  502    0  0.48853447243E+02 -0.65688240074E+03 -0.69885939442E+03  0.96036851826E+03  0.46999998093E+01 0.  1.
       -5    1    3    3    0  502 -0.48853447243E+02  0.65688240074E+03  0.67139598958E+03  0.94057206663E+03  0.46999998093E+01 0. -1.
</event>
<event>
 5   0  0.2789718E-05  0.1897265E+04  0.7818609E-02  0.8656219E-01
        2   -1    0    0  501    0  0.00000000000E+00  0.00000000000E+00  0.10607333558E+04  0.10607333558E+04  0.25500000920E-02 0. -1.
       -2   -1    0    0    0  501  0.00000000000E+00  0.00000000000E+00 -0.84837876588E+03  0.84837876589E+03  0.25500000920E-02 0.  1.
    10030    2    1    2    0    0  0.00000000000E+00  0.00000000000E+00  0.21235458989E+03  0.19091121217E+04  0.18972650372E+04 0.  0.
        5    1    3    3  502    0  0.32763195312E+03  0.22855418921E+03 -0.75960330328E+03  0.85825344885E+03  0.46999998093E+01 0.  1.
       -5    1    3    3    0  502 -0.32763195312E+03 -0.22855418921E+03  0.97195789317E+03  0.10508586728E+04  0.46999998093E+01 0. -1.
</event>
<event>
 5   0  0.1413011E-05  0.1900483E+04  0.7818609E-02  0.8654616E-01
       -1   -1    0    0    0  501  0.00000000000E+00  0.00000000000E+00  0.48934086105E+03  0.48934086108E+03  0.50400001928E-02 0. -1.
        1   -1    0    0  501    0  0.00000000000E+00  0.00000000000E+00 -0.18452550959E+04  0.18452550959E+04  0.50400001928E-02 0.  1.
    10030    2    1    2    0    0  0.00000000000E+00  0.00000000000E+00 -0.13559142348E+04  0.23345959570E+04  0.19004827992E+04 0.  0.
        1    1    3    3  502    0 -0.19352186602E+03  0.27683449762E+02  0.46437127098E+03  0.50384299474E+03  0.50400001928E-02 0. -1.
       -1    1    3    3    0  502  0.19352186602E+03 -0.27683449762E+02 -0.18202855058E+04  0.18307529622E+04  0.50400001928E-02 0.  1.
</event>
<event>
 5   0  0.1471485E-05  0.1902170E+04  0.7818609E-02  0.8653777E-01
        1   -1    0    0  501    0  0.00000000000E+00  0.00000000000E+00  0.29205719180E+04  0.29205719180E+04  0.50400001928E-02 0.  1.
       -1   -1    0    0    0  501  0.00000000000E+00  0.00000000000E+00 -0.30972097232E+03  0.30972097236E+03  0.50400001928E-02 0. -1.
    10030    2    1    2    0    0  0.00000000000E+00  0.00000000000E+00  0.26108509456E+04  0.32302928903E+04  0.19021696814E+04 0.  0.
        4    1    3    3  502    0  0.77222478072E+03 -0.14901285437E+03  0.39719826955E+03  0.88108116593E+03  0.12699999809E+01 0. -1.
       -4    1    3    3    0  502 -0.77222478072E+03  0.14901285437E+03  0.22136526761E+04  0.23492117244E+04  0.12699999809E+01 0.  1.
</event>
<event>
 5   0  0.2888776E-05  0.1882429E+04  0.7818609E-02  0.8663653E-01
        2   -1    0    0  501    0  0.00000000000E+00  0.00000000000E+00  0.10186708207E+04  0.10186708207E+04  0.25500000920E-02 0.  1.
       -2   -1    0    0    0  501  0.00000000000E+00  0.00000000000E+00 -0.86964735775E+03  0.86964735776E+03  0.25500000920E-02 0. -1.
    10030    2    1    2    0    0  0.00000000000E+00  0.00000000000E+00  0.14902346298E+03  0.18883181785E+04  0.18824286310E+04 0.  0.
        3    1    3    3  502    0  0.28485635615E+03  0.56041564750E+03  0.77718568749E+03  0.99961314750E+03  0.10100000352E+00 0.  1.
       -3    1    3    3    0  502 -0.28485635615E+03 -0.56041564750E+03 -0.62816222452E+03  0.88870503099E+03  0.10100000352E+00 0. -1.
</event>
<event>
 5   0  0.2855141E-05  0.1898395E+04  0.7818609E-02  0.8655655E-01
        2   -1    0    0  501    0  0.00000000000E+00  0.00000000000E+00  0.74251465045E+03  0.74251465045E+03  0.25500000920E-02 0. -1.
       -2   -1    0    0    0  501  0.00000000000E+00  0.00000000000E+00 -0.12134121665E+04  0.12134121665E+04  0.25500000920E-02 0.  1.
    10030    2    1    2    0    0  0.00000000000E+00  0.00000000000E+00 -0.47089751600E+03  0.19559268169E+04  0.18983954389E+04 0.  0.
        1    1    3    3  502    0  0.32457294931E+03  0.64205494425E+03  0.40250421528E+03  0.82437357685E+03  0.50400001928E-02 0. -1.
       -1    1    3    3    0  502 -0.32457294931E+03 -0.64205494425E+03 -0.87340173128E+03  0.11315532401E+04  0.50400001928E-02 0.  1.
</event>
<event>
 5   0  0.2789718E-05  0.1897013E+04  0.7818609E-02  0.8656345E-01
       -2   -1    0    0    0  501  0.00000000000E+00  0.00000000000E+00  0.10740060362E+04  0.10740060362E+04  0.25500000920E-02 0.  1.
        2   -1    0    0  501    0  0.00000000000E+00  0.00000000000E+00 -0.83767172294E+03  0.83767172294E+03  0.25500000920E-02 0. -1.
    10030    2    1    2    0    0  0.00000000000E+00  0.00000000000E+00  0.23633431330E+03  0.19116777592E+04  0.18970129012E+04 0.  0.
        5    1    3    3  502    0  0.63873517363E+03 -0.42689476662E+03 -0.44238888563E+03  0.88653921510E+03  0.46999998093E+01 0. -1.
       -5    1    3    3    0  502 -0.63873517363E+03  0.42689476662E+03  0.67872319893E+03  0.10251385441E+04  0.46999998093E+01 0.  1.
</event>
<event>
 5   0  0.1344119E-05  0.1900675E+04  0.7818609E-02  0.8654520E-01
        1   -1    0    0  501    0  0.00000000000E+00  0.00000000000E+00  0.93553280582E+03  0.93553280583E+03  0.50400001928E-02 0. -1.
       -1   -1    0    0    0  501  0.00000000000E+00  0.00000000000E+00 -0.96537681701E+03  0.96537681702E+03  0.50400001928E-02 0.  1.
    10030    2    1    2    0    0  0.00000000000E+00  0.00000000000E+00 -0.29844011190E+02  0.19009096228E+04  0.19006753350E+04 0.  0.
        2    1    3    3  502    0 -0.57762394150E+03  0.63368944973E+03  0.39492107207E+03  0.94402033329E+03  0.25500000920E-02 0. -1.
       -2    1    3    3    0  502  0.57762394150E+03 -0.63368944973E+03 -0.42476508326E+03  0.95688928955E+03  0.25500000920E-02 0.  1.
</event>
<event>
 5   0  0.2888776E-05  0.1904593E+04  0.7818609E-02  0.8652574E-01
       -2   -1    0    0    0  501  0.00000000000E+00  0.00000000000E+00  0.49232454576E+03  0.49232454577E+03  0.25500000920E-02 0. -1.
        2   -1    0    0  501    0  0.00000000000E+00  0.00000000000E+00 -0.18420136370E+04  0.18420136370E+04  0.25500000920E-02 0.  1.
    10030    2    1    2    0    0  0.00000000000E+00  0.00000000000E+00 -0.13496890913E+04  0.23343381828E+04  0.19045928984E+04 0.  0.
        3    1    3    3  502    0  0.43264265085E+03  0.75125627723E+03 -0.19183986500E+03  0.88790100879E+03  0.10100000352E+00 0. -1.
       -3    1    3    3    0  502 -0.43264265085E+03 -0.75125627723E+03 -0.11578492263E+04  0.14464371740E+04  0.10100000352E+00 0.  1.
</event>
<event>
 5   0  0.2879462E-05  0.1900019E+04  0.7818609E-02  0.8654847E-01
        2   -1    0    0  501    0  0.00000000000E+00  0.00000000000E+00  0.83744778518E+03  0.83744778519E+03  0.25500000920E-02 0. -1.
       -2   -1    0    0    0  501  0.00000000000E+00  0.00000000000E+00 -0.10777003348E+04  0.10777003348E+04  0.25500000920E-02 0.  1.
    10030    2    1    2    0    0  0.00000000000E+00  0.00000000000E+00 -0.24025254957E+03  0.19151481199E+04  0.19000186930E+04 0.  0.
        4    1    3    3  502    0  0.47051358127E+03  0.41822423576E+03  0.59703170073E+03  0.86760763374E+03  0.12699999809E+01 0. -1.
       -4    1    3    3    0  502 -0.47051358127E+03 -0.41822423576E+03 -0.83728425030E+03  0.10475404862E+04  0.12699999809E+01 0.  1.
</event>
<event>
 5   0  0.1010725E-05  0.1902419E+04  0.7818609E-02  0.8653653E-01
        3   -1    0    0  501    0  0.00000000000E+00  0.00000000000E+00  0.16093402549E+04  0.16093402580E+04  0.10100000352E+00 0.  1.
       -3   -1    0    0    0  501  0.00000000000E+00  0.00000000000E+00 -0.56221738964E+03  0.56221739871E+03  0.10100000352E+00 0. -1.
    10030    2    1    2    0    0  0.00000000000E+00  0.00000000000E+00  0.10471228652E+04  0.21715576567E+04  0.19024185559E+04 0.  0.
        3    1    3    3  502    0 -0.48408482925E+03 -0.17333754117E+03 -0.38991228815E+03  0.64530274116E+03  0.10100000352E+00 0. -1.
       -3    1    3    3    0  502  0.48408482925E+03  0.17333754117E+03  0.14370351534E+04  0.15262549156E+04  0.10100000352E+00 0.  1.
</event>
<event>
 5   0  0.2888776E-05  0.1900162E+04  0.7818609E-02  0.8654776E-01
        2   -1    0    0  501    0  0.00000000000E+00  0.00000000000E+00  0.22109734212E+04  0.22109734212E+04  0.25500000920E-02 0.  1.
       -2   -1    0    0    0  501  0.00000000000E+00  0.00000000000E+00 -0.40826082544E+03  0.40826082544E+03  0.25500000920E-02 0. -1.
    10030    2    1    2    0    0  0.00000000000E+00  0.00000000000E+00  0.18027125958E+04  0.26192342467E+04  0.19001619236E+04 0.  0.
        3    1    3    3  502    0 -0.24793326734E+03  0.25699482378E+03  0.21149486903E+04  0.21448834973E+04  0.10100000352E+00 0.  1.
       -3    1    3    3    0  502  0.24793326734E+03 -0.25699482378E+03 -0.31223609447E+03  0.47435074933E+03  0.10100000352E+00 0. -1.
</event>
<event>
 5   0  0.2879462E-05  0.1899605E+04  0.7818609E-02  0.8655053E-01
        2   -1    0    0  501    0  0.00000000000E+00  0.00000000000E+00  0.10373357761E+04  0.10373357761E+04  0.25500000920E-02 0.  1.
       -2   -1    0    0    0  501  0.00000000000E+00  0.00000000000E+00 -0.86965552786E+03  0.86965552787E+03  0.25500000920E-02 0. -1.
    10030    2    1    2    0    0  0.00000000000E+00  0.00000000000E+00  0.16768024822E+03  0.19069913040E+04  0.18996050031E+04 0.  0.
        4    1    3    3  502    0  0.77977008584E+03  0.23231027986E+03 -0.40807922062E+03  0.91024157019E+03  0.12699999809E+01 0. -1.
       -4    1    3    3    0  502 -0.77977008584E+03 -0.23231027986E+03  0.57575946884E+03  0.99674973376E+03  0.12699999809E+01 0.  1.
</event>
<event>
 5   0  0.2855141E-05  0.1905705E+04  0.7818609E-02  0.8652022E-01
       -2   -1    0    0    0  501  0.00000000000E+00  0.00000000000E+00  0.15519593262E+04  0.15519593262E+04  0.25500000920E-02 0.  1.
        2   -1    0    0  501    0  0.00000000000E+00  0.00000000000E+00 -0.58502043999E+03  0.58502043999E+03  0.25500000920E-02 0. -1.
    10030    2    1    2    0    0  0.00000000000E+00  0.00000000000E+00  0.96693888618E+03  0.21369797662E+04  0.19057050431E+04 0.  0.
        1    1    3    3  502    0  0.10996800246E+03  0.15231228124E+03 -0.56404802410E+03  0.59451002187E+03  0.50400001928E-02 0. -1.
       -1    1    3    3    0  502 -0.10996800246E+03 -0.15231228124E+03  0.15309869103E+04  0.15424697443E+04  0.50400001928E-02 0.  1.
</event>
<event>
 5   0  0.1471485E-05  0.1901528E+04  0.7818609E-02  0.8654096E-01
        1   -1    0    0  501    0  0.00000000000E+00  0.00000000000E+00  0.16689944755E+04  0.16689944755E+04  0.50400001928E-02 0. -1.
       -1   -1    0    0    0  501  0.00000000000E+00  0.00000000000E+00 -0.54161456186E+03  0.54161456188E+03  0.50400001928E-02 0.  1.
    10030    2    1    2    0    0  0.00000000000E+00  0.00000000000E+00  0.11273799136E+04  0.22106090374E+04  0.19015275035E+04 0.  0.
        4    1    3    3  502    0 -0.92840812879E+01  0.23699724407E+03  0.16340489213E+04  0.16511727281E+04  0.12699999809E+01 0. -1.
       -4    1    3    3    0  502  0.92840812879E+01 -0.23699724407E+03 -0.50666900770E+03  0.55943630926E+03  0.12699999809E+01 0.  1.
</event>
<event>
 5   0  0.2888776E-05  0.1899319E+04  0.7818609E-02  0.8655195E-01
       -2   -1    0    0    0  501  0.00000000000E+00  0.00000000000E+00  0.52052930389E+03  0.52052930390E+03  0.25500000920E-02 0. -1.
        2   -1    0    0  501    0  0.00000000000E+00  0.00000000000E+00 -0.17325702212E+04  0.17325702212E+04  0.25500000920E-02 0.  1.
    10030    2    1    2    0    0  0.00000000000E+00  0.00000000000E+00 -0.12120409173E+04  0.22530995251E+04  0.18993194267E+04 0.  0.
        3    1    3    3  502    0 -0.31600231518E+03 -0.84113231458E+03 -0.97067455597E+03  0.13227131729E+04  0.10100000352E+00 0.  1.
       -3    1    3    3    0  502  0.31600231518E+03  0.84113231458E+03 -0.24136636133E+03  0.93038635223E+03  0.10100000352E+00 0. -1.
</event>
<event>
 5   0  0.2789718E-05  0.1901464E+04  0.7818609E-02  0.8654128E-01
       -2   -1    0    0    0  501  0.00000000000E+00  0.00000000000E+00  0.15227908040E+04  0.15227908040E+04  0.25500000920E-02 0.  1.
        2   -1    0    0  501    0  0.00000000000E+00  0.00000000000E+00 -0.59357552444E+03  0.59357552444E+03  0.25500000920E-02 0. -1.
    10030    2    1    2    0    0  0.00000000000E+00  0.00000000000E+00  0.92921527959E+03  0.21163663285E+04  0.19014640150E+04 0.  0.
        5    1    3    3  502    0  0.72247889145E+03 -0.18501228449E+02 -0.22290257228E+03  0.75632380022E+03  0.46999998093E+01 0. -1.
       -5    1    3    3    0  502 -0.72247889145E+03  0.18501228449E+02  0.11521178519E+04  0.13600425282E+04  0.46999998093E+01 0.  1.
</event>
<event>
 5   0  0.1429067E-05  0.1895565E+04  0.7818609E-02  0.8657067E-01
       -1   -1    0    0    0  501  0.00000000000E+00  0.00000000000E+00  0.10361631133E+04  0.10361631133E+04  0.50400001928E-02 0. -1.
        1   -1    0    0  501    0  0.00000000000E+00  0.00000000000E+00 -0.86694007062E+03  0.86694007063E+03  0.50400001928E-02 0.  1.
    10030    2    1    2    0    0  0.00000000000E+00  0.00000000000E+00  0.16922304266E+03  0.19031031839E+04  0.18955646363E+04 0.  0.
        3    1    3    3  502    0  0.25731553846E+03 -0.43662495628E+03 -0.71947227121E+03  0.88005283820E+03  0.10100000352E+00 0.  1.
       -3    1    3    3    0  502 -0.25731553846E+03  0.43662495628E+03  0.88869531387E+03  0.10230503457E+04  0.10100000352E+00 0. -1.
</event>
<event>
 5   0  0.1471485E-05  0.1900509E+04  0.7818609E-02  0.8654603E-01
       -1   -1    0    0    0  501  0.00000000000E+00  0.00000000000E+00  0.59422517607E+03  0.59422517609E+03  0.50400001928E-02 0. -1.
        1   -1    0    0  501    0  0.00000000000E+00  0.00000000000E+00 -0.15195978773E+04  0.15195978774E+04  0.50400001928E-02 0.  1.
    10030    2    1    2    0    0  0.00000000000E+00  0.00000000000E+00 -0.92537270127E+03  0.21138230534E+04  0.19005086859E+04 0.  0.
        4    1    3    3  502    0  0.19338946473E+03 -0.31504581069E+03  0.51097116157E+03  0.63067145866E+03  0.12699999809E+01 0. -1.
       -4    1    3    3    0  502 -0.19338946473E+03  0.31504581069E+03 -0.14363438628E+04  0.14831515948E+04  0.12699999809E+01 0.  1.
</event>
<event>
 5   0  0.2879462E-05  0.1902692E+04  0.7818609E-02  0.8653517E-01
        2   -1    0    0  501    0  0.00000000000E+00  0.00000000000E+00  0.16468332840E+04  0.16468332840E+04  0.25500000920E-02 0. -1.
       -2   -1    0    0    0  501  0.00000000000E+00  0.00000000000E+00 -0.54957573688E+03  0.54957573688E+03  0.25500000920E-02 0.  1.
    10030    2    1    2    0    0  0.00000000000E+00  0.00000000000E+00  0.10972575471E+04  0.21964090209E+04  0.19026924245E+04 0.  0.
        4    1    3    3  502    0  0.69312823644E+03  0.60589782737E+03  0.82548262520E+03  0.12365120730E+04  0.12699999809E+01 0. -1.
       -4    1    3    3    0  502 -0.69312823644E+03 -0.60589782737E+03  0.27177492190E+03  0.95989694783E+03  0.12699999809E+01 0.  1.
</event>
<event>
 5   0  0.1429067E-05  0.1887269E+04  0.7818609E-02  0.8661219E-01
        1   -1    0    0  501    0  0.00000000000E+00  0.00000000000E+00  0.62987881457E+03  0.62987881459E+03  0.50400001928E-02 0.  1.
       -1   -1    0    0    0  501  0.00000000000E+00  0.00000000000E+00 -0.14136788003E+04  0.14136788003E+04  0.50400001928E-02 0. -1.
    10030    2    1    2    0    0  0.00000000000E+00  0.00000000000E+00 -0.78379998576E+03  0.20435576149E+04  0.18872692727E+04 0.  0.
        3    1    3    3  502    0 -0.57987921088E+03  0.63325219132E+03 -0.81569060100E+03  0.11843223395E+04  0.10100000352E+00 0. -1.
       -3    1    3    3    0  502  0.57987921088E+03 -0.63325219132E+03  0.31890615245E+02  0.85923527544E+03  0.10100000352E+00 0.  1.
</event>
<event>
 5   0  0.2789718E-05  0.1898722E+04  0.7818609E-02  0.8655493E-01
       -2   -1    0    0    0  501  0.00000000000E+00  0.00000000000E+00  0.87309411237E+03  0.87309411237E+03  0.25500000920E-02 0. -1.
        2   -1    0    0  501    0  0.00000000000E+00  0.00000000000E+00 -0.10322896550E+04  0.10322896550E+04  0.25500000920E-02 0.  1.
    10030    2    1    2    0    0  0.00000000000E+00  0.00000000000E+00 -0.15919554262E+03  0.19053837674E+04  0.18987216963E+04 0.  0.
        5    1    3    3  502    0  0.89785122610E+02  0.32951117599E+03  0.80930079154E+03  0.87842406873E+03  0.46999998093E+01 0. -1.
       -5    1    3    3    0  502 -0.89785122610E+02 -0.32951117599E+03 -0.96849633416E+03  0.10269596986E+04  0.46999998093E+01 0.  1.
</event>
<event>
 5   0  0.2813537E-05  0.1903908E+04  0.7818609E-02  0.8652914E-01
        2   -1    0    0  501    0  0.00000000000E+00  0.00000000000E+00  0.11621223185E+04  0.11621223185E+04  0.25500000920E-02 0. -1.
       -2   -1    0    0    0  501  0.00000000000E+00  0.00000000000E+00 -0.77979435365E+03  0.77979435365E+03  0.25500000920E-02 0.  1.
    10030    2    1    2    0    0  0.00000000000E+00  0.00000000000E+00  0.38232796487E+03  0.19419166722E+04  0.19039080043E+04 0.  0.
        2    1    3    3  502    0 -0.14921284087E+03  0.89203403610E+03  0.49412444121E+03  0.10306057233E+04  0.25500000920E-02 0. -1.
       -2    1    3    3    0  502  0.14921284087E+03 -0.89203403610E+03 -0.11179647634E+03  0.91131094889E+03  0.25500000920E-02 0.  1.
</event>
<event>
 5   0  0.2789718E-05  0.1899886E+04  0.7818609E-02  0.8654913E-01
       -2   -1    0    0    0  501  0.00000000000E+00  0.00000000000E+00  0.14452694883E+04  0.14452694883E+04  0.25500000920E-02 0.  1.
        2   -1    0    0  501    0  0.00000000000E+00  0.00000000000E+00 -0.62437638853E+03  0.62437638854E+03  0.25500000920E-02 0. -1.
    10030    2    1    2    0    0  0.00000000000E+00  0.00000000000E+00  0.82089309978E+03  0.20696458769E+04  0.18998864635E+04 0.  0.
        5    1    3    3  502    0  0.52697916616E+03  0.25797227524E+03  0.12242688514E+04  0.13576129960E+04  0.46999998093E+01 0.  1.
       -5    1    3    3    0  502 -0.52697916616E+03 -0.25797227524E+03 -0.40337575167E+03  0.71203288083E+03  0.46999998093E+01 0. -1.
</event>
<event>
 5   0  0.1327254E-05  0.1899652E+04  0.7818609E-02  0.8655030E-01
       -1   -1    0    0    0  501  0.00000000000E+00  0.00000000000E+00  0.87469794263E+03  0.87469794264E+03  0.50400001928E-02 0. -1.
        1   -1    0    0  501    0  0.00000000000E+00  0.00000000000E+00 -0.10314065828E+04  0.10314065828E+04  0.50400001928E-02 0.  1.
    10030    2    1    2    0    0  0.00000000000E+00  0.00000000000E+00 -0.15670864018E+03  0.19061045255E+04  0.18996517744E+04 0.  0.
        5    1    3    3  502    0  0.66507579018E+03 -0.62675590748E+03  0.18136530915E+03  0.93169965096E+03  0.46999998093E+01 0. -1.
       -5    1    3    3    0  502 -0.66507579018E+03  0.62675590748E+03 -0.33807394933E+03  0.97440487450E+03  0.46999998093E+01 0.  1.
</event>
<event>
 5   0  0.1471485E-05  0.1903707E+04  0.7818609E-02  0.8653013E-01
        1   -1    0    0  501    0  0.00000000000E+00  0.00000000000E+00  0.94002889416E+03  0.94002889417E+03  0.50400001928E-02 0. -1.
       -1   -1    0    0    0  501  0.00000000000E+00  0.00000000000E+00 -0.96382678047E+03  0.96382678049E+03  0.50400001928E-02 0.  1.
    10030    2    1    2    0    0  0.00000000000E+00  0.00000000000E+00 -0.23797886314E+02  0.19038556747E+04  0.19037069340E+04 0.  0.
        4    1    3    3  502    0 -0.77150193992E+02 -0.94808216166E+03  0.22909983363E+02  0.95149273141E+03  0.12699999809E+01 0. -1.
       -4    1    3    3    0  502  0.77150193992E+02  0.94808216166E+03 -0.46707869677E+02  0.95236294325E+03  0.12699999809E+01 0.  1.
</event>
<event>
 5   0  0.2888776E-05  0.1882372E+04  0.7818609E-02  0.8663681E-01
       -2   -1    0    0    0  501  0.00000000000E+00  0.00000000000E+00  0.73073767774E+03  0.73073767774E+03  0.25500000920E-02 0. -1.
        2   -1    0    0  501    0  0.00000000000E+00  0.00000000000E+00 -0.12122426528E+04  0.12122426528E+04  0.25500000920E-02 0.  1.
    10030    2    1    2    0    0  0.00000000000E+00  0.00000000000E+00 -0.48150497507E+03  0.19429803306E+04  0.18823723128E+04 0.  0.
        3    1    3    3  502    0  0.14346183502E+03  0.63410225479E+03 -0.94322682726E+03  0.11455757616E+04  0.10100000352E+00 0. -1.
       -3    1    3    3    0  502 -0.14346183502E+03 -0.63410225479E+03  0.46172185219E+03  0.79740456898E+03  0.10100000352E+00 0.  1.
</event>
<event>
 5   0  0.1344119E-05  0.1903605E+04  0.7818609E-02  0.8653064E-01
       -1   -1    0    0    0  501  0.00000000000E+00  0.00000000000E+00  0.61627370327E+03  0.61627370329E+03  0.50400001928E-02 0. -1.
        1   -1    0    0  501    0  0.00000000000E+00  0.00000000000E+00 -0.14700084080E+04  0.14700084080E+04  0.50400001928E-02 0.  1.
    10030    2    1    2    0    0  0.00000000000E+00  0.00000000000E+00 -0.85373470469E+03  0.20862821113E+04  0.19036045025E+04 0.  0.
        2    1    3    3  502    0  0.23829098351E+03 -0.73454802761E+03 -0.10366648728E+04  0.12926784040E+04  0.25500000920E-02 0.  1.
       -2    1    3    3    0  502 -0.23829098351E+03  0.73454802761E+03  0.18293016815E+03  0.79360370722E+03  0.25500000920E-02 0. -1.
</event>
<event>
 5   0  0.2879462E-05  0.1895347E+04  0.7818609E-02  0.8657176E-01
       -2   -1    0    0    0  501  0.00000000000E+00  0.00000000000E+00  0.87351539806E+03  0.87351539806E+03  0.25500000920E-02 0. -1.
        2   -1    0    0  501    0  0.00000000000E+00  0.00000000000E+00 -0.10281274058E+04  0.10281274058E+04  0.25500000920E-02 0.  1.
    10030    2    1    2    0    0  0.00000000000E+00  0.00000000000E+00 -0.15461200771E+03  0.19016428038E+04  0.18953470607E+04 0.  0.
        4    1    3    3  502    0  0.57125769014E+03 -0.74220549526E+03 -0.22228220802E+03  0.96260861135E+03  0.12699999809E+01 0. -1.
       -4    1    3    3    0  502 -0.57125769014E+03  0.74220549526E+03  0.67670200317E+02  0.93903419248E+03  0.12699999809E+01 0.  1.
</event>
<event>
 5   0  0.1471485E-05  0.1879527E+04  0.7818609E-02  0.8665115E-01
        1   -1    0    0  501    0  0.00000000000E+00  0.00000000000E+00  0.14670652033E+04  0.14670652033E+04  0.50400001928E-02 0. -1.
       -1   -1    0    0    0  501  0.00000000000E+00  0.00000000000E+00 -0.60198780472E+03  0.60198780474E+03  0.50400001928E-02 0.  1.
    10030    2    1    2    0    0  0.00000000000E+00  0.00000000000E+00  0.86507739861E+03  0.20690530081E+04  0.18795269204E+04 0.  0.
        4    1    3    3  502    0 -0.68230650500E+01  0.91445849461E+03  0.19420592228E+03  0.93487884014E+03  0.12699999809E+01 0. -1.
       -4    1    3    3    0  502  0.68230650500E+01 -0.91445849461E+03  0.67087147632E+03  0.11341741679E+04  0.12699999809E+01 0.  1.
</event>
<event>
 5   0  0.1413011E-05  0.1897406E+04  0.7818609E-02  0.8656148E-01
        1   -1    0    0  501    0  0.00000000000E+00  0.00000000000E+00  0.10947452017E+04  0.10947452017E+04  0.50400001928E-02 0. -1.
       -1   -1    0    0    0  501  0.00000000000E+00  0.00000000000E+00 -0.82214366744E+03  0.82214366746E+03  0.50400001928E-02 0.  1.
    10030    2    1    2    0    0  0.00000000000E+00  0.00000000000E+00  0.27260153421E+03  0.19168888691E+04  0.18974064773E+04 0.  0.
        1    1    3    3  502    0 -0.89014339829E+03  0.25273396486E+03 -0.75152211791E+02  0.92837362170E+03  0.50400001928E-02 0. -1.
       -1    1    3    3    0  502  0.89014339829E+03 -0.25273396486E+03  0.34775374600E+03  0.98851524742E+03  0.50400001928E-02 0.  1.
</event>
<event>
 5   0  0.1327254E-05  0.1900128E+04  0.7818609E-02  0.8654793E-01
        1   -1    0    0  501    0  0.00000000000E+00  0.00000000000E+00  0.17199920330E+04  0.17199920330E+04  0.50400001928E-02 0. -1.
       -1   -1    0    0    0  501  0.00000000000E+00  0.00000000000E+00 -0.52478257072E+03  0.52478257075E+03  0.50400001928E-02 0.  1.
    10030    2    1    2    0    0  0.00000000000E+00  0.00000000000E+00  0.11952094623E+04  0.22447746037E+04  0.19001282491E+04 0.  0.
        5    1    3    3  502    0 -0.75279308684E+02  0.56778054120E+03  0.14930865575E+04  0.15991783126E+04  0.46999998093E+01 0. -1.
       -5    1    3    3    0  502  0.75279308684E+02 -0.56778054120E+03 -0.29787709524E+03  0.64559629115E+03  0.46999998093E+01 0.  1.
</event>
<event>
 5   0  0.1429067E-05  0.1909474E+04  0.7818609E-02  0.8650155E-01
       -1   -1    0    0    0  501  0.00000000000E+00  0.00000000000E+00  0.10454829800E+04  0.10454829801E+04  0.50400001928E-02 0.  1.
        1   -1    0    0  501    0  0.00000000000E+00  0.00000000000E+00 -0.87186725139E+03  0.87186725141E+03  0.50400001928E-02 0. -1.
    10030    2    1    2    0    0  0.00000000000E+00  0.00000000000E+00  0.17361572864E+03  0.19173502315E+04  0.19094736156E+04 0.  0.
        3    1    3    3  502    0 -0.79076097198E+03 -0.25971476822E+03 -0.38284759536E+03  0.91614789587E+03  0.10100000352E+00 0. -1.
       -3    1    3    3    0  502  0.79076097198E+03  0.25971476822E+03  0.55646332400E+03  0.10012023356E+04  0.10100000352E+00 0.  1.
</event>
<event>
 5   0  0.2813537E-05  0.1898087E+04  0.7818609E-02  0.8655809E-01
        2   -1    0    0  501    0  0.00000000000E+00  0.00000000000E+00  0.68363641368E+03  0.68363641368E+03  0.25500000920E-02 0.  1.
       -2   -1    0    0    0  501  0.00000000000E+00  0.00000000000E+00 -0.13174884869E+04  0.13174884869E+04  0.25500000920E-02 0. -1.
    10030    2    1    2    0    0  0.00000000000E+00  0.00000000000E+00 -0.63385207321E+03  0.20011249006E+04  0.18980865146E+04 0.  0.
        2    1    3    3  502    0  0.87162709381E+02 -0.94023975658E+03 -0.21671363616E+03  0.96882038473E+03  0.25500000920E-02 0.  1.
       -2    1    3    3    0  502 -0.87162709381E+02  0.94023975658E+03 -0.41713843705E+03  0.10323045158E+04  0.25500000920E-02 0. -1.
</event>
<event>
 5   0  0.1471485E-05  0.1899494E+04  0.7818609E-02  0.8655108E-01
        1   -1    0    0  501    0  0.00000000000E+00  0.00000000000E+00  0.65150570389E+03  0.65150570391E+03  0.50400001928E-02 0. -1.
       -1   -1    0    0    0  501  0.00000000000E+00  0.00000000000E+00 -0.13845146663E+04  0.13845146664E+04  0.50400001928E-02 0.  1.
    10030    2    1    2    0    0  0.00000000000E+00  0.00000000000E+00 -0.73300896246E+03  0.20360203703E+04  0.18994938297E+04 0.  0.
        4    1    3    3  502    0 -0.27794903710E+03 -0.12539620273E+03 -0.13306189829E+04  0.13651111183E+04  0.12699999809E+01 0.  1.
       -4    1    3    3    0  502  0.27794903710E+03  0.12539620273E+03  0.59761002044E+03  0.67090925192E+03  0.12699999809E+01 0. -1.
</event>
<event>
 5   0  0.2789718E-05  0.1901193E+04  0.7818609E-02  0.8654263E-01
       -2   -1    0    0    0  501  0.00000000000E+00  0.00000000000E+00  0.92335647941E+03  0.92335647942E+03  0.25500000920E-02 0. -1.
        2   -1    0    0  501    0  0.00000000000E+00  0.00000000000E+00 -0.97863963765E+03  0.97863963765E+03  0.25500000920E-02 0.  1.
    10030    2    1    2    0    0  0.00000000000E+00  0.00000000000E+00 -0.55283158234E+02  0.19019961171E+04  0.19011925210E+04 0.  0.
        5    1    3    3  502    0  0.39382079583E+03 -0.47608863024E+03  0.69505974701E+03  0.92999212092E+03  0.46999998093E+01 0. -1.
       -5    1    3    3    0  502 -0.39382079583E+03  0.47608863024E+03 -0.75034290524E+03  0.97200399614E+03  0.46999998093E+01 0.  1.
</event>
<event>
 5   0  0.2879462E-05  0.1901160E+04  0.7818609E-02  0.8654279E-01
       -2   -1    0    0    0  501  0.00000000000E+00  0.00000000000E+00  0.17046367463E+04  0.17046367463E+04  0.25500000920E-02 0.  1.
        2   -1    0    0  501    0  0.00000000000E+00  0.00000000000E+00 -0.53008516235E+03  0.53008516236E+03  0.25500000920E-02 0. -1.
    10030    2    1    2    0    0  0.00000000000E+00  0.00000000000E+00  0.11745515840E+04  0.22347219087E+04  0.19011603262E+04 0.  0.
        4    1    3    3  502    0  0.39085100375E+03 -0.25581171684E+03 -0.38586529508E+03  0.60588594674E+03  0.12699999809E+01 0. -1.
       -4    1    3    3    0  502 -0.39085100375E+03  0.25581171684E+03  0.15604168790E+04  0.16288359619E+04  0.12699999809E+01 0.  1.
</event>
<event>
 5   0  0.1429067E-05  0.1895419E+04  0.7818609E-02  0.8657140E-01
        1   -1    0    0  501    0  0.00000000000E+00  0.00000000000E+00  0.89134656549E+03  0.89134656550E+03  0.50400001928E-02 0.  1.
       -1   -1    0    0    0  501  0.00000000000E+00  0.00000000000E+00 -0.10076360813E+04  0.10076360813E+04  0.50400001928E-02 0. -1.
    10030    2    1    2    0    0  0.00000000000E+00  0.00000000000E+00 -0.11628951583E+03  0.18989826468E+04  0.18954186454E+04 0.  0.
        3    1    3    3  502    0 -0.68007537541E+03 -0.20052633991E+03 -0.68816708162E+03  0.98807250324E+03  0.10100000352E+00 0. -1.
       -3    1    3    3    0  502  0.68007537541E+03  0.20052633991E+03  0.57187756580E+03  0.91091014359E+03  0.10100000352E+00 0.  1.
</event>
<event>
 5   0  0.2789718E-05  0.1889141E+04  0.7818609E-02  0.8660281E-01
        2   -1    0    0  501    0  0.00000000000E+00  0.00000000000E+00  0.70370385503E+03  0.70370385503E+03  0.25500000920E-02 0. -1.
       -2   -1    0    0    0  501  0.00000000000E+00  0.00000000000E+00 -0.12678818918E+04  0.12678818918E+04  0.25500000920E-02 0.  1.
    10030    2    1    2    0    0  0.00000000000E+00  0.00000000000E+00 -0.56417803673E+03  0.19715857468E+04  0.18891409423E+04 0.  0.
        5    1    3    3  502    0  0.10721532343E+03 -0.90755187285E+03 -0.32823052495E+02  0.91446430781E+03  0.46999998093E+01 0. -1.
       -5    1    3    3    0  502 -0.10721532343E+03  0.90755187285E+03 -0.53135498423E+03  0.10571214390E+04  0.46999998093E+01 0.  1.
</event>
<event>
 5   0  0.2855141E-05  0.1905417E+04  0.7818609E-02  0.8652165E-01
        2   -1    0    0  501    0  0.00000000000E+00  0.00000000000E+00  0.71171332992E+03  0.71171332992E+03  0.25500000920E-02 0. -1.
       -2   -1    0    0    0  501  0.00000000000E+00  0.00000000000E+00 -0.12753075654E+04  0.12753075654E+04  0.25500000920E-02 0.  1.
    10030    2    1    2    0    0  0.00000000000E+00  0.00000000000E+00 -0.56359423552E+03  0.19870208954E+04  0.19054169035E+04 0.  0.
        1    1    3    3  502    0 -0.56583413413E+03  0.64105681955E+03  0.15635332671E+03  0.86923441950E+03  0.50400001928E-02 0. -1.
       -1    1    3    3    0  502  0.56583413413E+03 -0.64105681955E+03 -0.71994756223E+03  0.11177864759E+04  0.50400001928E-02 0.  1.
</event>
<event>
 5   0  0.2888776E-05  0.1904263E+04  0.7818609E-02  0.8652737E-01
        2   -1    0    0  501    0  0.00000000000E+00  0.00000000000E+00  0.71641336197E+03  0.71641336197E+03  0.25500000920E-02 0.  1.
       -2   -1    0    0    0  501  0.00000000000E+00  0.00000000000E+00 -0.12654073383E+04  0.12654073383E+04  0.25500000920E-02 0. -1.
    10030    2    1    2    0    0  0.00000000000E+00  0.00000000000E+00 -0.54899397629E+03  0.19818207002E+04  0.19042633489E+04 0.  0.
        3    1    3    3  502    0  0.47321104767E+03  0.32093197160E+03 -0.10668382782E+04  0.12104007386E+04  0.10100000352E+00 0. -1.
       -3    1    3    3    0  502 -0.47321104767E+03 -0.32093197160E+03  0.51784430187E+03  0.77141996164E+03  0.10100000352E+00 0.  1.
</event>
<event>
 5   0  0.1413011E-05  0.1892936E+04  0.7818609E-02  0.8658381E-01
       -1   -1    0    0    0  501  0.00000000000E+00  0.00000000000E+00  0.19298733221E+04  0.19298733221E+04  0.50400001928E-02 0.  1.
        1   -1    0    0  501    0  0.00000000000E+00  0.00000000000E+00 -0.46417638580E+03  0.46417638583E+03  0.50400001928E-02 0. -1.
    10030    2    1    2    0    0  0.00000000000E+00  0.00000000000E+00  0.14656969363E+04  0.23940497079E+04  0.18929359458E+04 0.  0.
        1    1    3    3  502    0  0.75038871293E+02  0.16039475382E+03 -0.44303898459E+03  0.47711722999E+03  0.50400001928E-02 0. -1.
       -1    1    3    3    0  502 -0.75038871293E+02 -0.16039475382E+03  0.19087359209E+04  0.19169324779E+04  0.50400001928E-02 0.  1.
</event>
<event>
 5   0  0.1344119E-05  0.1901373E+04  0.7818609E-02  0.8654173E-01
       -1   -1    0    0    0  501  0.00000000000E+00  0.00000000000E+00  0.46371879211E+03  0.46371879214E+03  0.50400001928E-02 0. -1.
        1   -1    0    0  501    0  0.00000000000E+00  0.00000000000E+00 -0.19490370714E+04  0.19490370714E+04  0.50400001928E-02 0.  1.
    10030    2    1    2    0    0  0.00000000000E+00  0.00000000000E+00 -0.14853182793E+04  0.24127558636E+04  0.19013733106E+04 0.  0.
        2    1    3    3  502    0  0.77823491910E+03  0.37134962252E+03 -0.12506451595E+04  0.15190995512E+04  0.25500000920E-02 0.  1.
       -2    1    3    3    0  502 -0.77823491910E+03 -0.37134962252E+03 -0.23467311978E+03  0.89365631235E+03  0.25500000920E-02 0. -1.
</event>
<event>
 5   0  0.2855141E-05  0.1899338E+04  0.7818609E-02  0.8655186E-01
        2   -1    0    0  501    0  0.00000000000E+00  0.00000000000E+00  0.12522571596E+04  0.12522571596E+04  0.25500000920E-02 0. -1.
       -2   -1    0    0    0  501  0.00000000000E+00  0.00000000000E+00 -0.72019615471E+03  0.72019615472E+03  0.25500000920E-02 0.  1.
    10030    2    1    2    0    0  0.00000000000E+00  0.00000000000E+00  0.53206100487E+03  0.19724533143E+04  0.18993375593E+04 0.  0.
        1    1    3    3  502    0 -0.28282484195E+03  0.27208052935E+03  0.11641057385E+04  0.12284786837E+04  0.50400001928E-02 0. -1.
       -1    1    3    3    0  502  0.28282484195E+03 -0.27208052935E+03 -0.63204473366E+03  0.74397463065E+03  0.50400001928E-02 0.  1.
</event>
<event>
 5   0  0.2888776E-05  0.1903420E+04  0.7818609E-02  0.8653156E-01
        2   -1    0    0  501    0  0.00000000000E+00  0.00000000000E+00  0.11287346264E+04  0.11287346264E+04  0.25500000920E-02 0. -1.
       -2   -1    0    0    0  501  0.00000000000E+00  0.00000000000E+00 -0.80244921185E+03  0.80244921185E+03  0.25500000920E-02 0.  1.
    10030    2    1    2    0    0  0.00000000000E+00  0.00000000000E+00  0.32628541457E+03  0.19311838383E+04  0.19034203018E+04 0.  0.
        3    1    3    3  502    0  0.36221053826E+03 -0.78212661415E+03 -0.24626974614E+03  0.89641916124E+03  0.10100000352E+00 0.  1.
       -3    1    3    3    0  502 -0.36221053826E+03  0.78212661415E+03  0.57255516071E+03  0.10347646770E+04  0.10100000352E+00 0. -1.
</event>
<event>
 5   0  0.1327254E-05  0.1898153E+04  0.7818609E-02  0.8655776E-01
       -1   -1    0    0    0  501  0.00000000000E+00  0.00000000000E+00  0.88549869021E+03  0.88549869023E+03  0.50400001928E-02 0.  1.
        1   -1    0    0  501    0  0.00000000000E+00  0.00000000000E+00 -0.10172187768E+04  0.10172187769E+04  0.50400001928E-02 0. -1.
    10030    2    1    2    0    0  0.00000000000E+00  0.00000000000E+00 -0.13172008663E+03  0.19027174671E+04  0.18981526752E+04 0.  0.
        5    1    3    3  502    0  0.88096691656E+03  0.34027126527E+03  0.28369012944E+02  0.94483550575E+03  0.46999998093E+01 0.  1.
       -5    1    3    3    0  502 -0.88096691656E+03 -0.34027126527E+03 -0.16008909958E+03  0.95788196133E+03  0.46999998093E+01 0. -1.
</event>
<event>
 5   0  0.2888776E-05  0.1899237E+04  0.7818609E-02  0.8655236E-01
       -2   -1    0    0    0  501  0.00000000000E+00  0.00000000000E+00  0.80628753973E+03  0.80628753973E+03  0.25500000920E-02 0.  1.
        2   -1    0    0  501    0  0.00000000000E+00  0.00000000000E+00 -0.11184284507E+04  0.11184284507E+04  0.25500000920E-02 0. -1.
    10030    2    1    2    0    0  0.00000000000E+00  0.00000000000E+00 -0.31214091100E+03  0.19247159905E+04  0.18992366086E+04 0.  0.
        3    1    3    3  502    0  0.28909172846E+03  0.22669346319E+03 -0.10434956150E+04  0.11062762144E+04  0.10100000352E+00 0. -1.
       -3    1    3    3    0  502 -0.28909172846E+03 -0.22669346319E+03  0.73135470405E+03  0.81843977607E+03  0.10100000352E+00 0.  1.
</event>
<event>
 5   0  0.1471485E-05  0.1895185E+04  0.7818609E-02  0.8657257E-01
       -1   -1    0    0    0  501  0.00000000000E+00  0.00000000000E+00  0.76429134428E+03  0.76429134430E+03  0.50400001928E-02 0. -1.
        1   -1    0    0  501    0  0.00000000000E+00  0.00000000000E+00 -0.11748556251E+04  0.11748556251E+04  0.50400001928E-02 0.  1.
    10030    2    1    2    0    0  0.00000000000E+00  0.00000000000E+00 -0.41056428086E+03  0.19391469694E+04  0.18951854633E+04 0.  0.
        4    1    3    3  502    0 -0.52381842679E+03 -0.75602866717E+03  0.27964638541E+02  0.92018950425E+03  0.12699999809E+01 0. -1.
       -4    1    3    3    0  502  0.52381842679E+03  0.75602866717E+03 -0.43852891940E+03  0.10189574652E+04  0.12699999809E+01 0.  1.
</event>
<event>
 5   0  0.1471485E-05  0.1899870E+04  0.7818609E-02  0.8654921E-01
       -1   -1    0    0    0  501  0.00000000000E+00  0.00000000000E+00  0.13573947233E+04  0.13573947233E+04  0.50400001928E-02 0.  1.
        1   -1    0    0  501    0  0.00000000000E+00  0.00000000000E+00 -0.66478590881E+03  0.66478590883E+03  0.50400001928E-02 0. -1.
    10030    2    1    2    0    0  0.00000000000E+00  0.00000000000E+00  0.69260881447E+03  0.20221806321E+04  0.18998704006E+04 0.  0.
        4    1    3    3  502    0  0.28636667154E+03 -0.76147941913E+03  0.86830405412E+03  0.11898782793E+04  0.12699999809E+01 0.  1.
       -4    1    3    3    0  502 -0.28636667154E+03  0.76147941913E+03 -0.17569523965E+03  0.83230235279E+03  0.12699999809E+01 0. -1.
</event>
<event>
 5   0  0.2888776E-05  0.1902133E+04  0.7818609E-02  0.8653795E-01
        2   -1    0    0  501    0  0.00000000000E+00  0.00000000000E+00  0.17897971242E+04  0.17897971242E+04  0.25500000920E-02 0.  1.
       -2   -1    0    0    0  501  0.00000000000E+00  0.00000000000E+00 -0.50538010241E+03  0.50538010241E+03  0.25500000920E-02 0. -1.
    10030    2    1    2    0    0  0.00000000000E+00  0.00000000000E+00  0.12844170218E+04  0.22951772267E+04  0.19021333854E+04 0.  0.
        3    1    3    3  502    0 -0.37746916972E+03 -0.87282115229E+03  0.62398452416E+03  0.11373901857E+04  0.10100000352E+00 0.  1.
       -3    1    3    3    0  502  0.37746916972E+03  0.87282115229E+03  0.66043249767E+03  0.11577870409E+04  0.10100000352E+00 0. -1.
</event>
<event>
 5   0  0.1327254E-05  0.1899333E+04  0.7818609E-02  0.8655189E-01
       -1   -1    0    0    0  501  0.00000000000E+00  0.00000000000E+00  0.71503277021E+03  0.71503277023E+03  0.50400001928E-02 0. -1.
        1   -1    0    0  501    0  0.00000000000E+00  0.00000000000E+00 -0.12612934195E+04  0.12612934195E+04  0.50400001928E-02 0.  1.
    10030    2    1    2    0    0  0.00000000000E+00  0.00000000000E+00 -0.54626064932E+03  0.19763261898E+04  0.18993326490E+04 0.  0.
        5    1    3    3  502    0 -0.56694342131E+03  0.43178465593E+03 -0.92625387624E+03  0.11686877963E+04  0.46999998093E+01 0.  1.
       -5    1    3    3    0  502  0.56694342131E+03 -0.43178465593E+03  0.37999322692E+03  0.80763839344E+03  0.46999998093E+01 0. -1.
</event>
<event>
 5   0  0.1413011E-05  0.1898739E+04  0.7818609E-02  0.8655484E-01
        1   -1    0    0  501    0  0.00000000000E+00  0.00000000000E+00  0.14069660740E+04  0.14069660740E+04  0.50400001928E-02 0.  1.
       -1   -1    0    0    0  501  0.00000000000E+00  0.00000000000E+00 -0.64060017375E+03  0.64060017377E+03  0.50400001928E-02 0. -1.
    10030    2    1    2    0    0  0.00000000000E+00  0.00000000000E+00  0.76636590023E+03  0.20475662478E+04  0.18987392780E+04 0.  0.
        1    1    3    3  502    0 -0.57697554475E+03  0.67213728878E+03  0.75146800078E+03  0.11616253572E+04  0.50400001928E-02 0.  1.
       -1    1    3    3    0  502  0.57697554475E+03 -0.67213728878E+03  0.14897899454E+02  0.88594089060E+03  0.50400001928E-02 0. -1.
</event>
<event>
 5   0  0.1471485E-05  0.1898464E+04  0.7818609E-02  0.8655621E-01
       -1   -1    0    0    0  501  0.00000000000E+00  0.00000000000E+00  0.75295583733E+03  0.75295583734E+03  0.50400001928E-02 0.  1.
        1   -1    0    0  501    0  0.00000000000E+00  0.00000000000E+00 -0.11966718747E+04  0.11966718747E+04  0.50400001928E-02 0. -1.
    10030    2    1    2    0    0  0.00000000000E+00  0.00000000000E+00 -0.44371603737E+03  0.19496277120E+04  0.18984636667E+04 0.  0.
        4    1    3    3  502    0 -0.58239518366E+03 -0.55515538481E+03  0.29535984730E+03  0.85710017124E+03  0.12699999809E+01 0. -1.
       -4    1    3    3    0  502  0.58239518366E+03  0.55515538481E+03 -0.73907588467E+03  0.10925275408E+04  0.12699999809E+01 0.  1.
</event>
<event>
 5   0  0.2813537E-05  0.1898640E+04  0.7818609E-02  0.8655534E-01
        2   -1    0    0  501    0  0.00000000000E+00  0.00000000000E+00  0.88717808296E+03  0.88717808297E+03  0.25500000920E-02 0. -1.
       -2   -1    0    0    0  501  0.00000000000E+00  0.00000000000E+00 -0.10158144897E+04  0.10158144897E+04  0.25500000920E-02 0.  1.
    10030    2    1    2    0    0  0.00000000000E+00  0.00000000000E+00 -0.12863640673E+03  0.19029925727E+04  0.18986398833E+04 0.  0.
        2    1    3    3  502    0 -0.31160343334E+03  0.81522562802E+03  0.31006029882E+03  0.92618945856E+03  0.25500000920E-02 0. -1.
       -2    1    3    3    0  502  0.31160343334E+03 -0.81522562802E+03 -0.43869670555E+03  0.97680311410E+03  0.25500000920E-02 0.  1.
</event>
<event>
 5   0  0.2813537E-05  0.1899604E+04  0.7818609E-02  0.8655053E-01
        2   -1    0    0  501    0  0.00000000000E+00  0.00000000000E+00  0.15587928810E+04  0.15587928810E+04  0.25500000920E-02 0.  1.
       -2   -1    0    0    0  501  0.00000000000E+00  0.00000000000E+00 -0.57873238646E+03  0.57873238646E+03  0.25500000920E-02 0. -1.
    10030    2    1    2    0    0  0.00000000000E+00  0.00000000000E+00  0.98006049454E+03  0.21375252675E+04  0.18996040893E+04 0.  0.
        2    1    3    3  502    0  0.21375613771E+03 -0.53509939719E+03  0.13396488527E+04  0.14583148151E+04  0.25500000920E-02 0.  1.
       -2    1    3    3    0  502 -0.21375613771E+03  0.53509939719E+03 -0.35958835818E+03  0.67921045238E+03  0.25500000920E-02 0. -1.
</event>
<event>
 5   0  0.2813537E-05  0.1901350E+04  0.7818609E-02  0.8654184E-01
       -2   -1    0    0    0  501  0.00000000000E+00  0.00000000000E+00  0.12781856033E+04  0.12781856033E+04  0.25500000920E-02 0. -1.
        2   -1    0    0  501    0  0.00000000000E+00  0.00000000000E+00 -0.70708304010E+03  0.70708304011E+03  0.25500000920E-02 0.  1.
    10030    2    1    2    0    0  0.00000000000E+00  0.00000000000E+00  0.57110256322E+03  0.19852686434E+04  0.19013504277E+04 0.  0.
        2    1    3    3  502    0 -0.28107430857E+03  0.19958981014E+03 -0.63952296907E+03  0.72651805706E+03  0.25500000920E-02 0.  1.
       -2    1    3    3    0  502  0.28107430857E+03 -0.19958981014E+03  0.12106255323E+04  0.12587505864E+04  0.25500000920E-02 0. -1.
</event>
<event>
 5   0  0.1344119E-05  0.1903401E+04  0.7818609E-02  0.8653165E-01
        1   -1    0    0  501    0  0.00000000000E+00  0.00000000000E+00  0.10791291565E+04  0.10791291565E+04  0.50400001928E-02 0.  1.
       -1   -1    0    0    0  501  0.00000000000E+00  0.00000000000E+00 -0.83931936684E+03  0.83931936686E+03  0.50400001928E-02 0. -1.
    10030    2    1    2    0    0  0.00000000000E+00  0.00000000000E+00  0.23980978962E+03  0.19184485233E+04  0.19034011667E+04 0.  0.
        2    1    3    3  502    0  0.21447018491E+03  0.39087462227E+03 -0.72754741012E+03  0.85329107842E+03  0.25500000920E-02 0. -1.
       -2    1    3    3    0  502 -0.21447018491E+03 -0.39087462227E+03  0.96735719974E+03  0.10651574449E+04  0.25500000920E-02 0.  1.
</event>
<event>
 5   0  0.1471485E-05  0.1898826E+04  0.7818609E-02  0.8655441E-01
       -1   -1    0    0    0  501  0.00000000000E+00  0.00000000000E+00  0.10791431184E+04  0.10791431184E+04  0.50400001928E-02 0.  1.
        1   -1    0    0  501    0  0.00000000000E+00  0.00000000000E+00 -0.83527825395E+03  0.83527825397E+03  0.50400001928E-02 0. -1.
    10030    2    1    2    0    0  0.00000000000E+00  0.00000000000E+00  0.24386486444E+03  0.19144213724E+04  0.18988257210E+04 0.  0.
        4    1    3    3  502    0 -0.59583207727E+03 -0.65932485567E+03 -0.21496478427E+03  0.91429568575E+03  0.12699999809E+01 0. -1.
       -4    1    3    3    0  502  0.59583207727E+03  0.65932485567E+03  0.45882964871E+03  0.10001256866E+04  0.12699999809E+01 0.  1.
</event>
<event>
 5   0  0.1429067E-05  0.1883356E+04  0.7818609E-02  0.8663186E-01
       -1   -1    0    0    0  501  0.00000000000E+00  0.00000000000E+00  0.50813039212E+03  0.50813039215E+03  0.50400001928E-02 0. -1.
        1   -1    0    0  501    0  0.00000000000E+00  0.00000000000E+00 -0.17451379483E+04  0.17451379483E+04  0.50400001928E-02 0.  1.
    10030    2    1    2    0    0  0.00000000000E+00  0.00000000000E+00 -0.12370075562E+04  0.22532683405E+04  0.18833561851E+04 0.  0.
        3    1    3    3  502    0 -0.51480244088E+03  0.65005752973E+03 -0.84575527094E+02  0.83351627163E+03  0.10100000352E+00 0. -1.
       -3    1    3    3    0  502  0.51480244088E+03 -0.65005752973E+03 -0.11524320291E+04  0.14197520689E+04  0.10100000352E+00 0.  1.
</event>
<event>
 5   0  0.2789718E-05  0.1899933E+04  0.7818609E-02  0.8654890E-01
        2   -1    0    0  501    0  0.00000000000E+00  0.00000000000E+00  0.10650910752E+04  0.10650910752E+04  0.25500000920E-02 0. -1.
       -2   -1    0    0    0  501  0.00000000000E+00  0.00000000000E+00 -0.84728535109E+03  0.84728535109E+03  0.25500000920E-02 0.  1.
    10030    2    1    2    0    0  0.00000000000E+00  0.00000000000E+00  0.21780572416E+03  0.19123764263E+04  0.18999326995E+04 0.  0.
        5    1    3    3  502    0  0.20596586164E+03 -0.38916092867E+03  0.95616759917E+03  0.10526854859E+04  0.46999998093E+01 0. -1.
       -5    1    3    3    0  502 -0.20596586164E+03  0.38916092867E+03 -0.73836187501E+03  0.85969094042E+03  0.46999998093E+01 0.  1.
</event>
<event>
 5   0  0.1471485E-05  0.1897926E+04  0.7818609E-02  0.8655889E-01
        1   -1    0    0  501    0  0.00000000000E+00  0.00000000000E+00  0.11420126051E+04  0.11420126051E+04  0.50400001928E-02 0.  1.
       -1   -1    0    0    0  501  0.00000000000E+00  0.00000000000E+00 -0.78854755322E+03  0.78854755323E+03  0.50400001928E-02 0. -1.
    10030    2    1    2    0    0  0.00000000000E+00  0.00000000000E+00  0.35346505191E+03  0.19305601584E+04  0.18979264955E+04 0.  0.
        4    1    3    3  502    0  0.20884650683E+03  0.15106881191E+03  0.11057217231E+04  0.11353681302E+04  0.12699999809E+01 0.  1.
       -4    1    3    3    0  502 -0.20884650683E+03 -0.15106881191E+03 -0.75225667119E+03  0.79519202813E+03  0.12699999809E+01 0. -1.
</event>
<event>
 5   0  0.2789718E-05  0.1904990E+04  0.7818609E-02  0.8652377E-01
        2   -1    0    0  501    0  0.00000000000E+00  0.00000000000E+00  0.15592841350E+04  0.15592841350E+04  0.25500000920E-02 0. -1.
       -2   -1    0    0    0  501  0.00000000000E+00  0.00000000000E+00 -0.58183543488E+03  0.58183543489E+03  0.25500000920E-02 0.  1.
    10030    2    1    2    0    0  0.00000000000E+00  0.00000000000E+00  0.97744870009E+03  0.21411195699E+04  0.19049900396E+04 0.  0.
        5    1    3    3  502    0 -0.92528366812E+03  0.18480144735E+03  0.63493865271E+03  0.11373085000E+04  0.46999998093E+01 0. -1.
       -5    1    3    3    0  502  0.92528366812E+03 -0.18480144735E+03  0.34251004738E+03  0.10038110699E+04  0.46999998093E+01 0.  1.
</event>
<event>
 5   0  0.1471485E-05  0.1900866E+04  0.7818609E-02  0.8654425E-01
        1   -1    0    0  501    0  0.00000000000E+00  0.00000000000E+00  0.14982490390E+04  0.14982490390E+04  0.50400001928E-02 0. -1.
       -1   -1    0    0    0  501  0.00000000000E+00  0.00000000000E+00 -0.60291932986E+03  0.60291932989E+03  0.50400001928E-02 0.  1.
    10030    2    1    2    0    0  0.00000000000E+00  0.00000000000E+00  0.89532970914E+03  0.21011683689E+04  0.19008664410E+04 0.  0.
        4    1    3    3  502    0  0.40148066317E+03 -0.13829592713E+03  0.13875638054E+04  0.14510849090E+04  0.12699999809E+01 0. -1.
       -4    1    3    3    0  502 -0.40148066317E+03  0.13829592713E+03 -0.49223409625E+03  0.65008345985E+03  0.12699999809E+01 0.  1.
</event>
<event>
 5   0  0.1010725E-05  0.1897366E+04  0.7818609E-02  0.8656169E-01
       -3   -1    0    0    0  501  0.00000000000E+00  0.00000000000E+00  0.10113259680E+04  0.10113259730E+04  0.10100000352E+00 0. -1.
        3   -1    0    0  501    0  0.00000000000E+00  0.00000000000E+00 -0.88992001373E+03  0.88992001946E+03  0.10100000352E+00 0.  1.
    10030    2    1    2    0    0  0.00000000000E+00  0.00000000000E+00  0.12140595424E+03  0.19012459925E+04  0.18973657840E+04 0.  0.
        4    1    3    3  502    0  0.41194791559E+03 -0.39871016084E+03 -0.69670438515E+03  0.90225799564E+03  0.12699999809E+01 0.  1.
       -4    1    3    3    0  502 -0.41194791559E+03  0.39871016084E+03  0.81811033938E+03  0.99898799683E+03  0.12699999809E+01 0. -1.
</event>
<event>
 5   0  0.1429067E-05  0.1897313E+04  0.7818609E-02  0.8656195E-01
       -1   -1    0    0    0  501  0.00000000000E+00  0.00000000000E+00  0.15955874801E+04  0.15955874801E+04  0.50400001928E-02 0. -1.
        1   -1    0    0  501    0  0.00000000000E+00  0.00000000000E+00 -0.56402382430E+03  0.56402382432E+03  0.50400001928E-02 0.  1.
    10030    2    1    2    0    0  0.00000000000E+00  0.00000000000E+00  0.10315636558E+04  0.21596113044E+04  0.18973132083E+04 0.  0.
        3    1    3    3  502    0 -0.80553229500E+03 -0.31700110722E+03  0.74093010169E+02  0.86882781069E+03  0.10100000352E+00 0.  1.
       -3    1    3    3    0  502  0.80553229500E+03  0.31700110722E+03  0.95747064561E+03  0.12907834937E+04  0.10100000352E+00 0. -1.
</event>
<event>
 5   0  0.1429067E-05  0.1901717E+04  0.7818609E-02  0.8654002E-01
        1   -1    0    0  501    0  0.00000000000E+00  0.00000000000E+00  0.91734058949E+03  0.91734058950E+03  0.50400001928E-02 0. -1.
       -1   -1    0    0    0  501  0.00000000000E+00  0.00000000000E+00 -0.98560111539E+03  0.98560111540E+03  0.50400001928E-02 0.  1.
    10030    2    1    2    0    0  0.00000000000E+00  0.00000000000E+00 -0.68260525900E+02  0.19029417049E+04  0.19017170223E+04 0.  0.
        3    1    3    3  502    0  0.24576092977E+03  0.18554822057E+03  0.86606306209E+03  0.91917996849E+03  0.10100000352E+00 0. -1.
       -3    1    3    3    0  502 -0.24576092977E+03 -0.18554822057E+03 -0.93432358799E+03  0.98376173641E+03  0.10100000352E+00 0.  1.
</event>
<event>
 5   0  0.2879462E-05  0.1899267E+04  0.7818609E-02  0.8655221E-01
       -2   -1    0    0    0  501  0.00000000000E+00  0.00000000000E+00  0.47563542556E+03  0.47563542557E+03  0.25500000920E-02 0.  1.
        2   -1    0    0  501    0  0.00000000000E+00  0.00000000000E+00 -0.18959987217E+04  0.18959987217E+04  0.25500000920E-02 0. -1.
    10030    2    1    2    0    0  0.00000000000E+00  0.00000000000E+00 -0.14203632961E+04  0.23716341473E+04  0.18992673944E+04 0.  0.
        4    1    3    3  502    0 -0.17570912149E+03  0.19706214233E+03  0.42888236973E+03  0.50363566522E+03  0.12699999809E+01 0.  1.
       -4    1    3    3    0  502  0.17570912149E+03 -0.19706214233E+03 -0.18492456659E+04  0.18679984820E+04  0.12699999809E+01 0. -1.
</event>
<event>
 5   0  0.2813537E-05  0.1899732E+04  0.7818609E-02  0.8654990E-01
        2   -1    0    0  501    0  0.00000000000E+00  0.00000000000E+00  0.12082832497E+04  0.12082832497E+04  0.25500000920E-02 0. -1.
       -2   -1    0    0    0  501  0.00000000000E+00  0.00000000000E+00 -0.74671696043E+03  0.74671696043E+03  0.25500000920E-02 0.  1.
    10030    2    1    2    0    0  0.00000000000E+00  0.00000000000E+00  0.46156628926E+03  0.19550002101E+04  0.18997321870E+04 0.  0.
        2    1    3    3  502    0  0.41583258422E+03 -0.66958089688E+02 -0.64536418666E+03  0.77064587023E+03  0.25500000920E-02 0.  1.
       -2    1    3    3    0  502 -0.41583258422E+03  0.66958089688E+02  0.11069304759E+04  0.11843543399E+04  0.25500000920E-02 0. -1.
</event>
<event>
 5   0  0.1429067E-05  0.1900680E+04  0.7818609E-02  0.8654518E-01
       -1   -1    0    0    0  501  0.00000000000E+00  0.00000000000E+00  0.10946636529E+04  0.10946636529E+04  0.50400001928E-02 0.  1.
        1   -1    0    0  501    0  0.00000000000E+00  0.00000000000E+00 -0.82504411282E+03  0.82504411284E+03  0.50400001928E-02 0. -1.
    10030    2    1    2    0    0  0.00000000000E+00  0.00000000000E+00  0.26961954008E+03  0.19197077658E+04  0.19006796704E+04 0.  0.
        3    1    3    3  502    0 -0.82787237129E+03 -0.42010107550E+03  0.34003901533E+03  0.98867796523E+03  0.10100000352E+00 0.  1.
       -3    1    3    3    0  502  0.82787237129E+03  0.42010107550E+03 -0.70419475246E+02  0.93102980053E+03  0.10100000352E+00 0. -1.
</event>
<event>
 5   0  0.2888776E-05  0.1903907E+04  0.7818609E-02  0.8652914E-01
        2   -1    0    0  501    0  0.00000000000E+00  0.00000000000E+00  0.87838390466E+03  0.87838390467E+03  0.25500000920E-02 0.  1.
       -2   -1    0    0    0  501  0.00000000000E+00  0.00000000000E+00 -0.10316849315E+04  0.10316849315E+04  0.25500000920E-02 0. -1.
    10030    2    1    2    0    0  0.00000000000E+00  0.00000000000E+00 -0.15330102684E+03  0.19100688362E+04  0.19039069710E+04 0.  0.
        3    1    3    3  502    0 -0.33999791556E+01  0.94204243223E+02 -0.10269910415E+04  0.10313082026E+04  0.10100000352E+00 0. -1.
       -3    1    3    3    0  502  0.33999791556E+01 -0.94204243223E+02  0.87369001461E+03  0.87876063358E+03  0.10100000352E+00 0.  1.
</event>
<event>
 5   0  0.1413011E-05  0.1898405E+04  0.7818609E-02  0.8655651E-01
        1   -1    0    0  501    0  0.00000000000E+00  0.00000000000E+00  0.11593925843E+04  0.11593925843E+04  0.50400001928E-02 0.  1.
       -1   -1    0    0    0  501  0.00000000000E+00  0.00000000000E+00 -0.77711817001E+03  0.77711817003E+03  0.50400001928E-02 0. -1.
    10030    2    1    2    0    0  0.00000000000E+00  0.00000000000E+00  0.38227441432E+03  0.19365107544E+04  0.18984046391E+04 0.  0.
        1    1    3    3  502    0 -0.34956720399E+03 -0.77083610292E+03 -0.24713749718E+03  0.88173832298E+03  0.50400001928E-02 0. -1.
       -1    1    3    3    0  502  0.34956720399E+03  0.77083610292E+03  0.62941191150E+03  0.10547724314E+04  0.50400001928E-02 0.  1.
</event>
<event>
 5   0  0.1471485E-05  0.1887066E+04  0.7818609E-02  0.8661321E-01
       -1   -1    0    0    0  501  0.00000000000E+00  0.00000000000E+00  0.11339068183E+04  0.11339068183E+04  0.50400001928E-02 0.  1.
        1   -1    0    0  501    0  0.00000000000E+00  0.00000000000E+00 -0.78512131907E+03  0.78512131909E+03  0.50400001928E-02 0. -1.
    10030    2    1    2    0    0  0.00000000000E+00  0.00000000000E+00  0.34878549924E+03  0.19190281374E+04  0.18870658885E+04 0.  0.
        4    1    3    3  502    0 -0.71716851418E+02  0.99753483162E+02 -0.77695149571E+03  0.78660619357E+03  0.12699999809E+01 0. -1.
       -4    1    3    3    0  502  0.71716851418E+02 -0.99753483162E+02  0.11257369949E+04  0.11324219438E+04  0.12699999809E+01 0.  1.
</event>
<event>
 5   0  0.1327254E-05  0.1900790E+04  0.7818609E-02  0.8654463E-01
        1   -1    0    0  501    0  0.00000000000E+00  0.00000000000E+00  0.10814821147E+04  0.10814821147E+04  0.50400001928E-02 0. -1.
       -1   -1    0    0    0  501  0.00000000000E+00  0.00000000000E+00 -0.83519662143E+03  0.83519662144E+03  0.50400001928E-02 0.  1.
    10030    2    1    2    0    0  0.00000000000E+00  0.00000000000E+00  0.24628549329E+03  0.19166787362E+04  0.19007895290E+04 0.  0.
        5    1    3    3  502    0 -0.91113638781E+02  0.74032193384E+03  0.71700545431E+03  0.10346483327E+04  0.46999998093E+01 0. -1.
       -5    1    3    3    0  502  0.91113638781E+02 -0.74032193384E+03 -0.47071996102E+03  0.88203040345E+03  0.46999998093E+01 0.  1.
</event>
<event>
 5   0  0.2888776E-05  0.1900030E+04  0.7818609E-02  0.8654842E-01
       -2   -1    0    0    0  501  0.00000000000E+00  0.00000000000E+00  0.70535108378E+03  0.70535108378E+03  0.25500000920E-02 0.  1.
        2   -1    0    0  501    0  0.00000000000E+00  0.00000000000E+00 -0.12795445506E+04  0.12795445506E+04  0.25500000920E-02 0. -1.
    10030    2    1    2    0    0  0.00000000000E+00  0.00000000000E+00 -0.57419346681E+03  0.19848956344E+04  0.19000296161E+04 0.  0.
        3    1    3    3  502    0  0.57377373513E+03  0.42329384441E+03  0.36874543642E+03  0.80272485007E+03  0.10100000352E+00 0.  1.
       -3    1    3    3    0  502 -0.57377373513E+03 -0.42329384441E+03 -0.94293890323E+03  0.11821707843E+04  0.10100000352E+00 0. -1.
</event>
<event>
 5   0  0.1413011E-05  0.1900783E+04  0.7818609E-02  0.8654467E-01
        1   -1    0    0  501    0  0.00000000000E+00  0.00000000000E+00  0.78175749544E+03  0.78175749545E+03  0.50400001928E-02 0.  1.
       -1   -1    0    0    0  501  0.00000000000E+00  0.00000000000E+00 -0.11554013650E+04  0.11554013650E+04  0.50400001928E-02 0. -1.
    10030    2    1    2    0    0  0.00000000000E+00  0.00000000000E+00 -0.37364386960E+03  0.19371588605E+04  0.19007826571E+04 0.  0.
        1    1    3    3  502    0 -0.25303450744E+03  0.90136763205E+03 -0.20126406186E+02  0.93642679495E+03  0.50400001928E-02 0.  1.
       -1    1    3    3    0  502  0.25303450744E+03 -0.90136763205E+03 -0.35351746341E+03  0.10007320655E+04  0.50400001928E-02 0. -1.
</event>
<event>
 5   0  0.2855141E-05  0.1902169E+04  0.7818609E-02  0.8653777E-01
       -2   -1    0    0    0  501  0.00000000000E+00  0.00000000000E+00  0.42224395230E+03  0.42224395231E+03  0.25500000920E-02 0. -1.
        2   -1    0    0  501    0  0.00000000000E+00  0.00000000000E+00 -0.21422736174E+04  0.21422736174E+04  0.25500000920E-02 0.  1.
    10030    2    1    2    0    0  0.00000000000E+00  0.00000000000E+00 -0.17200296651E+04  0.25645175697E+04  0.19021693711E+04 0.  0.
        1    1    3    3  502    0  0.28121529473E+03 -0.86118870095E+03 -0.46965354656E+03  0.10204422935E+04  0.50400001928E-02 0. -1.
       -1    1    3    3    0  502 -0.28121529473E+03  0.86118870095E+03 -0.12503761185E+04  0.15440752762E+04  0.50400001928E-02 0.  1.
</event>
<event>
 5   0  0.1471485E-05  0.1899184E+04  0.7818609E-02  0.8655263E-01
        1   -1    0    0  501    0  0.00000000000E+00  0.00000000000E+00  0.17807743006E+04  0.17807743007E+04  0.50400001928E-02 0. -1.
       -1   -1    0    0    0  501  0.00000000000E+00  0.00000000000E+00 -0.50636668546E+03  0.50636668548E+03  0.50400001928E-02 0.  1.
    10030    2    1    2    0    0  0.00000000000E+00  0.00000000000E+00  0.12744076152E+04  0.22871409861E+04  0.18991838038E+04 0.  0.
        4    1    3    3  502    0  0.43188685507E+03 -0.11289494679E+03 -0.37212845379E+03  0.58116497108E+03  0.12699999809E+01 0.  1.
       -4    1    3    3    0  502 -0.43188685507E+03  0.11289494679E+03  0.16465360690E+04  0.17059760151E+04  0.12699999809E+01 0. -1.
</event>
<event>
 5   0  0.1327254E-05  0.1887471E+04  0.7818609E-02  0.8661118E-01
       -1   -1    0    0    0  501  0.00000000000E+00  0.00000000000E+00  0.14028713319E+04  0.14028713319E+04  0.50400001928E-02 0. -1.
        1   -1    0    0  501    0  0.00000000000E+00  0.00000000000E+00 -0.63486731228E+03  0.63486731230E+03  0.50400001928E-02 0.  1.
    10030    2    1    2    0    0  0.00000000000E+00  0.00000000000E+00  0.76800401962E+03  0.20377386442E+04  0.18874714853E+04 0.  0.
        5    1    3    3  502    0  0.78150067136E+03  0.19032967052E+03  0.91690488468E+03  0.12197152702E+04  0.46999998093E+01 0.  1.
       -5    1    3    3    0  502 -0.78150067136E+03 -0.19032967052E+03 -0.14890086506E+03  0.81802337401E+03  0.46999998093E+01 0. -1.
</event>
<event>
 5   0  0.1344119E-05  0.1899189E+04  0.7818609E-02  0.8655260E-01
       -1   -1    0    0    0  501  0.00000000000E+00  0.00000000000E+00  0.70814262714E+03  0.70814262716E+03  0.50400001928E-02 0. -1.
        1   -1    0    0  501    0  0.00000000000E+00  0.00000000000E+00 -0.12733733821E+04  0.12733733821E+04  0.50400001928E-02 0.  1.
    10030    2    1    2    0    0  0.00000000000E+00  0.00000000000E+00 -0.56523075499E+03  0.19815160093E+04  0.18991892714E+04 0.  0.
        2    1    3    3  502    0  0.44239104555E+03  0.59928623852E+03 -0.89710782663E+03  0.11660430033E+04  0.25500000920E-02 0.  1.
       -2    1    3    3    0  502 -0.44239104555E+03 -0.59928623852E+03  0.33187707164E+03  0.81547300603E+03  0.25500000920E-02 0. -1.
</event>
<event>
 5   0  0.1471485E-05  0.1899910E+04  0.7818609E-02  0.8654901E-01
        1   -1    0    0  501    0  0.00000000000E+00  0.00000000000E+00  0.21116659007E+04  0.21116659007E+04  0.50400001928E-02 0. -1.
       -1   -1    0    0    0  501  0.00000000000E+00  0.00000000000E+00 -0.42734724573E+03  0.42734724576E+03  0.50400001928E-02 0.  1.
    10030    2    1    2    0    0  0.00000000000E+00  0.00000000000E+00  0.16843186549E+04  0.25390131464E+04  0.18999101101E+04 0.  0.
        4    1    3    3  502    0  0.81663562840E+01 -0.63381941716E+03 -0.10339321934E+03  0.64225035123E+03  0.12699999809E+01 0.  1.
       -4    1    3    3    0  502 -0.81663562840E+01  0.63381941716E+03  0.17877118743E+04  0.18967627952E+04  0.12699999809E+01 0. -1.
</event>
<event>
 5   0  0.1327254E-05  0.1901859E+04  0.7818609E-02  0.8653932E-01
        1   -1    0    0  501    0  0.00000000000E+00  0.00000000000E+00  0.16437037108E+04  0.16437037108E+04  0.50400001928E-02 0.  1.
       -1   -1    0    0    0  501  0.00000000000E+00  0.00000000000E+00 -0.55013986000E+03  0.55013986002E+03  0.50400001928E-02 0. -1.
    10030    2    1    2    0    0  0.00000000000E+00  0.00000000000E+00  0.10935638508E+04  0.21938435708E+04  0.19018590162E+04 0.  0.
        5    1    3    3  502    0  0.24098281525E+03  0.64289247904E+03  0.13057119924E+04  0.14752251875E+04  0.46999998093E+01 0.  1.
       -5    1    3    3    0  502 -0.24098281525E+03 -0.64289247904E+03 -0.21214814159E+03  0.71861838331E+03  0.46999998093E+01 0. -1.
</event>
<event>
 5   0  0.2813537E-05  0.1903211E+04  0.7818609E-02  0.8653260E-01
        2   -1    0    0  501    0  0.00000000000E+00  0.00000000000E+00  0.16370320067E+04  0.16370320067E+04  0.25500000920E-02 0.  1.
       -2   -1    0    0    0  501  0.00000000000E+00  0.00000000000E+00 -0.55316737482E+03  0.55316737483E+03  0.25500000920E-02 0. -1.
    10030    2    1    2    0    0  0.00000000000E+00  0.00000000000E+00  0.10838646319E+04  0.21901993815E+04  0.19032106532E+04 0.  0.
        2    1    3    3  502    0  0.57110959157E+03  0.72701976153E+03  0.28248348779E+03  0.96670617052E+03  0.25500000920E-02 0. -1.
       -2    1    3    3    0  502 -0.57110959157E+03 -0.72701976153E+03  0.80138114407E+03  0.12234932110E+04  0.25500000920E-02 0.  1.
</event>
<event>
 5   0  0.1413011E-05  0.1899654E+04  0.7818609E-02  0.8655029E-01
        1   -1    0    0  501    0  0.00000000000E+00  0.00000000000E+00  0.87544088719E+03  0.87544088721E+03  0.50400001928E-02 0.  1.
       -1   -1    0    0    0  501  0.00000000000E+00  0.00000000000E+00 -0.10305338113E+04  0.10305338114E+04  0.50400001928E-02 0. -1.
    10030    2    1    2    0    0  0.00000000000E+00  0.00000000000E+00 -0.15509292415E+03  0.19059746986E+04  0.18996541097E+04 0.  0.
        1    1    3    3  502    0  0.42141263572E+03 -0.14765887463E+03 -0.91865530325E+03  0.10214300363E+04  0.50400001928E-02 0. -1.
       -1    1    3    3    0  502 -0.42141263572E+03  0.14765887463E+03  0.76356237909E+03  0.88454466229E+03  0.50400001928E-02 0.  1.
</event>
<event>
 5   0  0.1413011E-05  0.1898238E+04  0.7818609E-02  0.8655734E-01
        1   -1    0    0  501    0  0.00000000000E+00  0.00000000000E+00  0.89495887262E+03  0.89495887263E+03  0.50400001928E-02 0.  1.
       -1   -1    0    0    0  501  0.00000000000E+00  0.00000000000E+00 -0.10065566550E+04  0.10065566551E+04  0.50400001928E-02 0. -1.
    10030    2    1    2    0    0  0.00000000000E+00  0.00000000000E+00 -0.11159778243E+03  0.19015155277E+04  0.18982379295E+04 0.  0.
        1    1    3    3  502    0  0.41101171337E+03 -0.72486809356E+03 -0.51096481823E+03  0.97747093413E+03  0.50400001928E-02 0. -1.
       -1    1    3    3    0  502 -0.41101171337E+03  0.72486809356E+03  0.39936703580E+03  0.92404459356E+03  0.50400001928E-02 0.  1.
</event>
<event>
 5   0  0.1413011E-05  0.1902381E+04  0.7818609E-02  0.8653672E-01
       -1   -1    0    0    0  501  0.00000000000E+00  0.00000000000E+00  0.12672529920E+04  0.12672529920E+04  0.50400001928E-02 0.  1.
        1   -1    0    0  501    0  0.00000000000E+00  0.00000000000E+00 -0.71395646591E+03  0.71395646593E+03  0.50400001928E-02 0. -1.
    10030    2    1    2    0    0  0.00000000000E+00  0.00000000000E+00  0.55329652607E+03  0.19812094579E+04  0.19023811055E+04 0.  0.
        1    1    3    3  502    0  0.49897441773E+02 -0.59870042162E+03 -0.49135851969E+03  0.77612186185E+03  0.50400001928E-02 0. -1.
       -1    1    3    3    0  502 -0.49897441773E+02  0.59870042162E+03  0.10446550458E+04  0.12050875961E+04  0.50400001928E-02 0.  1.
</event>
<event>
 5   0  0.2879462E-05  0.1904735E+04  0.7818609E-02  0.8652503E-01
        2   -1    0    0  501    0  0.00000000000E+00  0.00000000000E+00  0.18690854434E+04  0.18690854434E+04  0.25500000920E-02 0. -1.
       -2   -1    0    0    0  501  0.00000000000E+00  0.00000000000E+00 -0.48526604241E+03  0.48526604241E+03  0.25500000920E-02 0.  1.
    10030    2    1    2    0    0  0.00000000000E+00  0.00000000000E+00  0.13838194010E+04  0.23543514858E+04  0.19047348330E+04 0.  0.
        4    1    3    3  502    0  0.80900437649E+03  0.45202392444E+03  0.42057339289E+03  0.10176921446E+04  0.12699999809E+01 0.  1.
       -4    1    3    3    0  502 -0.80900437649E+03 -0.45202392444E+03  0.96324600808E+03  0.13366593412E+04  0.12699999809E+01 0. -1.
</event>
<event>
 5   0  0.1429067E-05  0.1909093E+04  0.7818609E-02  0.8650343E-01
        1   -1    0    0  501    0  0.00000000000E+00  0.00000000000E+00  0.90297350459E+03  0.90297350460E+03  0.50400001928E-02 0. -1.
       -1   -1    0    0    0  501  0.00000000000E+00  0.00000000000E+00 -0.10090651711E+04  0.10090651711E+04  0.50400001928E-02 0.  1.
    10030    2    1    2    0    0  0.00000000000E+00  0.00000000000E+00 -0.10609166655E+03  0.19120386758E+04  0.19090930977E+04 0.  0.
        3    1    3    3  502    0 -0.73162849314E+03 -0.10098252196E+03 -0.65869481317E+03  0.98962446859E+03  0.10100000352E+00 0.  1.
       -3    1    3    3    0  502  0.73162849314E+03  0.10098252196E+03  0.55260314663E+03  0.92241420717E+03  0.10100000352E+00 0. -1.
</event>
<event>
 5   0  0.2879462E-05  0.1900129E+04  0.7818609E-02  0.8654792E-01
        2   -1    0    0  501    0  0.00000000000E+00  0.00000000000E+00  0.65144768138E+03  0.65144768138E+03  0.25500000920E-02 0. -1.
       -2   -1    0    0    0  501  0.00000000000E+00  0.00000000000E+00 -0.13855647403E+04  0.13855647403E+04  0.25500000920E-02 0.  1.
    10030    2    1    2    0    0  0.00000000000E+00  0.00000000000E+00 -0.73411705888E+03  0.20370124216E+04  0.19001294034E+04 0.  0.
        4    1    3    3  502    0  0.40771290169E+03  0.85331782146E+03 -0.26974356312E+03  0.98343495838E+03  0.12699999809E+01 0. -1.
       -4    1    3    3    0  502 -0.40771290169E+03 -0.85331782146E+03 -0.46437349576E+03  0.10535774633E+04  0.12699999809E+01 0.  1.
</event>
<event>
 5   0  0.2888776E-05  0.1895961E+04  0.7818609E-02  0.8656869E-01
        2   -1    0    0  501    0  0.00000000000E+00  0.00000000000E+00  0.52253119053E+03  0.52253119053E+03  0.25500000920E-02 0. -1.
       -2   -1    0    0    0  501  0.00000000000E+00  0.00000000000E+00 -0.17198341254E+04  0.17198341254E+04  0.25500000920E-02 0.  1.
    10030    2    1    2    0    0  0.00000000000E+00  0.00000000000E+00 -0.11973029349E+04  0.22423653160E+04  0.18959609417E+04 0.  0.
        3    1    3    3  502    0 -0.77977414780E+03  0.35703700849E+03 -0.12094371521E+03  0.86611231342E+03  0.10100000352E+00 0. -1.
       -3    1    3    3    0  502  0.77977414780E+03 -0.35703700849E+03 -0.10763592197E+04  0.13762530025E+04  0.10100000352E+00 0.  1.
</event>
<event>
 5   0  0.2855141E-05  0.1906073E+04  0.7818609E-02  0.8651839E-01
        2   -1    0    0  501    0  0.00000000000E+00  0.00000000000E+00  0.16285327373E+04  0.16285327373E+04  0.25500000920E-02 0. -1.
       -2   -1    0    0    0  501  0.00000000000E+00  0.00000000000E+00 -0.55772830621E+03  0.55772830622E+03  0.25500000920E-02 0.  1.
    10030    2    1    2    0    0  0.00000000000E+00  0.00000000000E+00  0.10708044311E+04  0.21862610435E+04  0.19060732464E+04 0.  0.
        1    1    3    3  502    0 -0.73704149642E+03 -0.48331307189E+03  0.11953520117E+03  0.88944384716E+03  0.50400001928E-02 0.  1.
       -1    1    3    3    0  502  0.73704149642E+03  0.48331307189E+03  0.95126922988E+03  0.12968171963E+04  0.50400001928E-02 0. -1.
</event>
<event>
 5   0  0.2879462E-05  0.1903173E+04  0.7818609E-02  0.8653279E-01
       -2   -1    0    0    0  501  0.00000000000E+00  0.00000000000E+00  0.71353897296E+03  0.71353897296E+03  0.25500000920E-02 0. -1.
        2   -1    0    0  501    0  0.00000000000E+00  0.00000000000E+00 -0.12690497497E+04  0.12690497497E+04  0.25500000920E-02 0.  1.
    10030    2    1    2    0    0  0.00000000000E+00  0.00000000000E+00 -0.55551077677E+03  0.19825887227E+04  0.19031725671E+04 0.  0.
        4    1    3    3  502    0  0.54798149501E+03 -0.29049397816E+03 -0.10295659982E+04  0.12019476809E+04  0.12699999809E+01 0.  1.
       -4    1    3    3    0  502 -0.54798149501E+03  0.29049397816E+03  0.47405522141E+03  0.78064104175E+03  0.12699999809E+01 0. -1.
</event>
<event>
 5   0  0.1429067E-05  0.1903908E+04  0.7818609E-02  0.8652914E-01
       -1   -1    0    0    0  501  0.00000000000E+00  0.00000000000E+00  0.75618858771E+03  0.75618858772E+03  0.50400001928E-02 0. -1.
        1   -1    0    0  501    0  0.00000000000E+00  0.00000000000E+00 -0.11983997825E+04  0.11983997825E+04  0.50400001928E-02 0.  1.
    10030    2    1    2    0    0  0.00000000000E+00  0.00000000000E+00 -0.44221119475E+03  0.19545883702E+04  0.19039078119E+04 0.  0.
        3    1    3    3  502    0 -0.83787822685E+03  0.34768431753E+03 -0.51739139503E+03  0.10443266604E+04  0.10100000352E+00 0.  1.
       -3    1    3    3    0  502  0.83787822685E+03 -0.34768431753E+03  0.75180200277E+02  0.91026170983E+03  0.10100000352E+00 0. -1.
</event>
<event>
 5   0  0.2888776E-05  0.1901546E+04  0.7818609E-02  0.8654087E-01
       -2   -1    0    0    0  501  0.00000000000E+00  0.00000000000E+00  0.79694697231E+03  0.79694697232E+03  0.25500000920E-02 0. -1.
        2   -1    0    0  501    0  0.00000000000E+00  0.00000000000E+00 -0.11342907495E+04  0.11342907495E+04  0.25500000920E-02 0.  1.
    10030    2    1    2    0    0  0.00000000000E+00  0.00000000000E+00 -0.33734377719E+03  0.19312377218E+04  0.19015462956E+04 0.  0.
        3    1    3    3  502    0 -0.99213847708E+02 -0.65625752736E+02  0.78935958625E+03  0.79827231795E+03  0.10100000352E+00 0. -1.
       -3    1    3    3    0  502  0.99213847708E+02  0.65625752736E+02 -0.11267033634E+04  0.11329654039E+04  0.10100000352E+00 0.  1.
</event>
<event>
 5   0  0.1429067E-05  0.1897785E+04  0.7818609E-02  0.8655960E-01
       -1   -1    0    0    0  501  0.00000000000E+00  0.00000000000E+00  0.60542213646E+03  0.60542213648E+03  0.50400001928E-02 0. -1.
        1   -1    0    0  501    0  0.00000000000E+00  0.00000000000E+00 -0.14872214566E+04  0.14872214566E+04  0.50400001928E-02 0.  1.
    10030    2    1    2    0    0  0.00000000000E+00  0.00000000000E+00 -0.88179932012E+03  0.20926435931E+04  0.18977848051E+04 0.  0.
        3    1    3    3  502    0 -0.63383718542E+02  0.54940539753E+03  0.40933006408E+03  0.68805152291E+03  0.10100000352E+00 0. -1.
       -3    1    3    3    0  502  0.63383718542E+02 -0.54940539753E+03 -0.12911293842E+04  0.14045920702E+04  0.10100000352E+00 0.  1.
</event>
<event>
 5   0  0.2879462E-05  0.1899986E+04  0.7818609E-02  0.8654864E-01
        2   -1    0    0  501    0  0.00000000000E+00  0.00000000000E+00  0.13445408225E+04  0.13445408226E+04  0.25500000920E-02 0.  1.
       -2   -1    0    0    0  501  0.00000000000E+00  0.00000000000E+00 -0.67122267672E+03  0.67122267673E+03  0.25500000920E-02 0. -1.
    10030    2    1    2    0    0  0.00000000000E+00  0.00000000000E+00  0.67331814583E+03  0.20157634993E+04  0.18999855682E+04 0.  0.
        4    1    3    3  502    0  0.83668649445E+03 -0.32346401988E+02  0.81277492728E+03  0.11669169958E+04  0.12699999809E+01 0.  1.
       -4    1    3    3    0  502 -0.83668649445E+03  0.32346401988E+02 -0.13945678145E+03  0.84884650350E+03  0.12699999809E+01 0. -1.
</event>
<event>
 5   0  0.2813537E-05  0.1900851E+04  0.7818609E-02  0.8654433E-01
       -2   -1    0    0    0  501  0.00000000000E+00  0.00000000000E+00  0.39570080690E+03  0.39570080691E+03  0.25500000920E-02 0.  1.
        2   -1    0    0  501    0  0.00000000000E+00  0.00000000000E+00 -0.22828060351E+04  0.22828060351E+04  0.25500000920E-02 0. -1.
    10030    2    1    2    0    0  0.00000000000E+00  0.00000000000E+00 -0.18871052282E+04  0.26785068421E+04  0.19008505361E+04 0.  0.
        2    1    3    3  502    0  0.61570677366E+03  0.66079754447E+03 -0.13605156711E+04  0.16330190193E+04  0.25500000920E-02 0. -1.
       -2    1    3    3    0  502 -0.61570677366E+03 -0.66079754447E+03 -0.52658955710E+03  0.10454878228E+04  0.25500000920E-02 0.  1.
</event>
<event>
 5   0  0.2855141E-05  0.1902156E+04  0.7818609E-02  0.8653784E-01
        2   -1    0    0  501    0  0.00000000000E+00  0.00000000000E+00  0.19610671063E+04  0.19610671063E+04  0.25500000920E-02 0. -1.
       -2   -1    0    0    0  501  0.00000000000E+00  0.00000000000E+00 -0.46125363702E+03  0.46125363703E+03  0.25500000920E-02 0.  1.
    10030    2    1    2    0    0  0.00000000000E+00  0.00000000000E+00  0.14998134693E+04  0.24223207434E+04  0.19021559718E+04 0.  0.
        1    1    3    3  502    0 -0.72160006533E+03 -0.61931997598E+03  0.72839134325E+03  0.11978388188E+04  0.50400001928E-02 0. -1.
       -1    1    3    3    0  502  0.72160006533E+03  0.61931997598E+03  0.77142212606E+03  0.12244819245E+04  0.50400001928E-02 0.  1.
</event>
<event>
 5   0  0.2888776E-05  0.1940499E+04  0.7818609E-02  0.8634956E-01
        2   -1    0    0  501    0  0.00000000000E+00  0.00000000000E+00  0.76755222929E+03  0.76755222929E+03  0.25500000920E-02 0.  1.
       -2   -1    0    0    0  501  0.00000000000E+00  0.00000000000E+00 -0.12264754442E+04  0.12264754442E+04  0.25500000920E-02 0. -1.
    10030    2    1    2    0    0  0.00000000000E+00  0.00000000000E+00 -0.45892321490E+03  0.19940276735E+04  0.19404988651E+04 0.  0.
        3    1    3    3  502    0 -0.73547159035E+03  0.40457540209E+03 -0.72948944155E+03  0.11120946775E+04  0.10100000352E+00 0. -1.
       -3    1    3    3    0  502  0.73547159035E+03 -0.40457540209E+03  0.27056622665E+03  0.88193299598E+03  0.10100000352E+00 0.  1.
</event>
<event>
 5   0  0.2813537E-05  0.1902452E+04  0.7818609E-02  0.8653637E-01
        2   -1    0    0  501    0  0.00000000000E+00  0.00000000000E+00  0.14867941415E+04  0.14867941415E+04  0.25500000920E-02 0.  1.
       -2   -1    0    0    0  501  0.00000000000E+00  0.00000000000E+00 -0.60857816213E+03  0.60857816214E+03  0.25500000920E-02 0. -1.
    10030    2    1    2    0    0  0.00000000000E+00  0.00000000000E+00  0.87821597941E+03  0.20953723037E+04  0.19024515196E+04 0.  0.
        2    1    3    3  502    0 -0.38215315380E+03  0.50443247334E+03  0.12212905747E+04  0.13755158381E+04  0.25500000920E-02 0.  1.
       -2    1    3    3    0  502  0.38215315380E+03 -0.50443247334E+03 -0.34307459525E+03  0.71985646557E+03  0.25500000920E-02 0. -1.
</event>
<event>
 5   0  0.1344119E-05  0.1902009E+04  0.7818609E-02  0.8653857E-01
       -1   -1    0    0    0  501  0.00000000000E+00  0.00000000000E+00  0.62294630525E+03  0.62294630527E+03  0.50400001928E-02 0. -1.
        1   -1    0    0  501    0  0.00000000000E+00  0.00000000000E+00 -0.14518260822E+04  0.14518260822E+04  0.50400001928E-02 0.  1.
    10030    2    1    2    0    0  0.00000000000E+00  0.00000000000E+00 -0.82887977698E+03  0.20747723875E+04  0.19020091417E+04 0.  0.
        2    1    3    3  502    0  0.31453093354E+03  0.17541578708E+02 -0.13932586082E+04  0.14284281447E+04  0.25500000920E-02 0.  1.
       -2    1    3    3    0  502 -0.31453093354E+03 -0.17541578708E+02  0.56437883122E+03  0.64634424285E+03  0.25500000920E-02 0. -1.
</event>
<event>
 5   0  0.1344119E-05  0.1901115E+04  0.7818609E-02  0.8654302E-01
        1   -1    0    0  501    0  0.00000000000E+00  0.00000000000E+00  0.11635394284E+04  0.11635394284E+04  0.50400001928E-02 0.  1.
       -1   -1    0    0    0  501  0.00000000000E+00  0.00000000000E+00 -0.77656103927E+03  0.77656103928E+03  0.50400001928E-02 0. -1.
    10030    2    1    2    0    0  0.00000000000E+00  0.00000000000E+00  0.38697838912E+03  0.19401004677E+04  0.19011148180E+04 0.  0.
        2    1    3    3  502    0 -0.78526474118E+03 -0.33329891725E+03  0.62140958993E+03  0.10554045482E+04  0.25500000920E-02 0. -1.
       -2    1    3    3    0  502  0.78526474118E+03  0.33329891725E+03 -0.23443120081E+03  0.88469591945E+03  0.25500000920E-02 0.  1.
</event>
<event>
 5   0  0.1471485E-05  0.1898005E+04  0.7818609E-02  0.8655850E-01
       -1   -1    0    0    0  501  0.00000000000E+00  0.00000000000E+00  0.51021259526E+03  0.51021259528E+03  0.50400001928E-02 0.  1.
        1   -1    0    0  501    0  0.00000000000E+00  0.00000000000E+00 -0.17651574151E+04  0.17651574151E+04  0.50400001928E-02 0. -1.
    10030    2    1    2    0    0  0.00000000000E+00  0.00000000000E+00 -0.12549448198E+04  0.22753700103E+04  0.18980047901E+04 0.  0.
        4    1    3    3  502    0 -0.54607288462E+03 -0.19282826157E+03 -0.15287646606E+04  0.16347786805E+04  0.12699999809E+01 0. -1.
       -4    1    3    3    0  502  0.54607288462E+03  0.19282826157E+03  0.27381984080E+03  0.64059132986E+03  0.12699999809E+01 0.  1.
</event>
<event>
 5   0  0.1327254E-05  0.1901340E+04  0.7818609E-02  0.8654190E-01
       -1   -1    0    0    0  501  0.00000000000E+00  0.00000000000E+00  0.81365053696E+03  0.81365053698E+03  0.50400001928E-02 0.  1.
        1   -1    0    0  501    0  0.00000000000E+00  0.00000000000E+00 -0.11107632956E+04  0.11107632957E+04  0.50400001928E-02 0. -1.
    10030    2    1    2    0    0  0.00000000000E+00  0.00000000000E+00 -0.29711275868E+03  0.19244138326E+04  0.19013396877E+04 0.  0.
        5    1    3    3  502    0 -0.69288827622E+02 -0.79875252201E+03 -0.66558294001E+03  0.10420313206E+04  0.46999998093E+01 0. -1.
       -5    1    3    3    0  502  0.69288827622E+02  0.79875252201E+03  0.36847018132E+03  0.88238251205E+03  0.46999998093E+01 0.  1.
</event>
<event>
 5   0  0.1327254E-05  0.1899199E+04  0.7818609E-02  0.8655255E-01
       -1   -1    0    0    0  501  0.00000000000E+00  0.00000000000E+00  0.43639328624E+03  0.43639328627E+03  0.50400001928E-02 0.  1.
        1   -1    0    0  501    0  0.00000000000E+00  0.00000000000E+00 -0.20663462316E+04  0.20663462317E+04  0.50400001928E-02 0. -1.
    10030    2    1    2    0    0  0.00000000000E+00  0.00000000000E+00 -0.16299529454E+04  0.25027395179E+04  0.18991994341E+04 0.  0.
        5    1    3    3  502    0  0.57718655040E+03 -0.61626410938E+03 -0.13875570387E+04  0.16242728811E+04  0.46999998093E+01 0. -1.
       -5    1    3    3    0  502 -0.57718655040E+03  0.61626410938E+03 -0.24239590666E+03  0.87846663683E+03  0.46999998093E+01 0.  1.
</event>
<event>
 5   0  0.2888776E-05  0.1903399E+04  0.7818609E-02  0.8653166E-01
       -2   -1    0    0    0  501  0.00000000000E+00  0.00000000000E+00  0.66224873669E+03  0.66224873670E+03  0.25500000920E-02 0. -1.
        2   -1    0    0  501    0  0.00000000000E+00  0.00000000000E+00 -0.13676609245E+04  0.13676609245E+04  0.25500000920E-02 0.  1.
    10030    2    1    2    0    0  0.00000000000E+00  0.00000000000E+00 -0.70541218781E+03  0.20299096612E+04  0.19033987701E+04 0.  0.
        3    1    3    3  502    0  0.75807776251E+02  0.94133133371E+03 -0.22706116855E+03  0.97129206896E+03  0.10100000352E+00 0.  1.
       -3    1    3    3    0  502 -0.75807776251E+02 -0.94133133371E+03 -0.47835101926E+03  0.10586175922E+04  0.10100000352E+00 0. -1.
</event>
<event>
 5   0  0.2888776E-05  0.1902344E+04  0.7818609E-02  0.8653691E-01
        2   -1    0    0  501    0  0.00000000000E+00  0.00000000000E+00  0.10648134925E+04  0.10648134925E+04  0.25500000920E-02 0.  1.
       -2   -1    0    0    0  501  0.00000000000E+00  0.00000000000E+00 -0.84965862544E+03  0.84965862544E+03  0.25500000920E-02 0. -1.
    10030    2    1    2    0    0  0.00000000000E+00  0.00000000000E+00  0.21515486710E+03  0.19144721180E+04  0.19023437843E+04 0.  0.
        3    1    3    3  502    0 -0.44652106784E+03  0.71367939427E+03 -0.33797377244E+03  0.90716350395E+03  0.10100000352E+00 0. -1.
       -3    1    3    3    0  502  0.44652106784E+03 -0.71367939427E+03  0.55312863954E+03  0.10073086140E+04  0.10100000352E+00 0.  1.
</event>
<event>
 5   0  0.1010725E-05  0.1897857E+04  0.7818609E-02  0.8655924E-01
        3   -1    0    0  501    0  0.00000000000E+00  0.00000000000E+00  0.76538998667E+03  0.76538999333E+03  0.10100000352E+00 0.  1.
       -3   -1    0    0    0  501  0.00000000000E+00  0.00000000000E+00 -0.11764795926E+04  0.11764795970E+04  0.10100000352E+00 0. -1.
    10030    2    1    2    0    0  0.00000000000E+00  0.00000000000E+00 -0.41108960595E+03  0.19418695903E+04  0.18978574345E+04 0.  0.
        4    1    3    3  502    0  0.68282883327E+03 -0.65772674975E+03 -0.16456088939E+03  0.96225858899E+03  0.12699999809E+01 0.  1.
       -4    1    3    3    0  502 -0.68282883327E+03  0.65772674975E+03 -0.24652871656E+03  0.97961100130E+03  0.12699999809E+01 0. -1.
</event>
<event>
 5   0  0.2855141E-05  0.1898192E+04  0.7818609E-02  0.8655757E-01
       -2   -1    0    0    0  501  0.00000000000E+00  0.00000000000E+00  0.44930916633E+03  0.44930916633E+03  0.25500000920E-02 0. -1.
        2   -1    0    0  501    0  0.00000000000E+00  0.00000000000E+00 -0.20048180603E+04  0.20048180603E+04  0.25500000920E-02 0.  1.
    10030    2    1    2    0    0  0.00000000000E+00  0.00000000000E+00 -0.15555088940E+04  0.24541272267E+04  0.18981919095E+04 0.  0.
        1    1    3    3  502    0 -0.42322461001E+03  0.64181642503E+03 -0.58218303389E+02  0.77099725345E+03  0.50400001928E-02 0. -1.
       -1    1    3    3    0  502  0.42322461001E+03 -0.64181642503E+03 -0.14972905906E+04  0.16831299732E+04  0.50400001928E-02 0.  1.
</event>
<event>
 5   0  0.1344119E-05  0.1898216E+04  0.7818609E-02  0.8655745E-01
        1   -1    0    0  501    0  0.00000000000E+00  0.00000000000E+00  0.94756997277E+03  0.94756997278E+03  0.50400001928E-02 0. -1.
       -1   -1    0    0    0  501  0.00000000000E+00  0.00000000000E+00 -0.95064823574E+03  0.95064823576E+03  0.50400001928E-02 0.  1.
    10030    2    1    2    0    0  0.00000000000E+00  0.00000000000E+00 -0.30782629758E+01  0.18982182085E+04  0.18982157126E+04 0.  0.
        2    1    3    3  502    0  0.42913887095E+03  0.84654838351E+03 -0.36155395951E+00  0.94910719464E+03  0.25500000920E-02 0.  1.
       -2    1    3    3    0  502 -0.42913887095E+03 -0.84654838351E+03 -0.27167090163E+01  0.94911101390E+03  0.25500000920E-02 0. -1.
</event>
<event>
 5   0  0.2888776E-05  0.1897520E+04  0.7818609E-02  0.8656092E-01
       -2   -1    0    0    0  501  0.00000000000E+00  0.00000000000E+00  0.46462621282E+03  0.46462621283E+03  0.25500000920E-02 0. -1.
        2   -1    0    0  501    0  0.00000000000E+00  0.00000000000E+00 -0.19373551491E+04  0.19373551491E+04  0.25500000920E-02 0.  1.
    10030    2    1    2    0    0  0.00000000000E+00  0.00000000000E+00 -0.14727289363E+04  0.24019813620E+04  0.18975204724E+04 0.  0.
        3    1    3    3  502    0 -0.43520623955E+03 -0.76593719754E+03 -0.29046489646E+03  0.92759588604E+03  0.10100000352E+00 0. -1.
       -3    1    3    3    0  502  0.43520623955E+03  0.76593719754E+03 -0.11822640398E+04  0.14743854759E+04  0.10100000352E+00 0.  1.
</event>
<event>
 5   0  0.2879462E-05  0.1900750E+04  0.7818609E-02  0.8654483E-01
        2   -1    0    0  501    0  0.00000000000E+00  0.00000000000E+00  0.19757437414E+04  0.19757437414E+04  0.25500000920E-02 0. -1.
       -2   -1    0    0    0  501  0.00000000000E+00  0.00000000000E+00 -0.45715061934E+03  0.45715061935E+03  0.25500000920E-02 0.  1.
    10030    2    1    2    0    0  0.00000000000E+00  0.00000000000E+00  0.15185931220E+04  0.24328943607E+04  0.19007498258E+04 0.  0.
        4    1    3    3  502    0 -0.57675612836E+03  0.60880625857E+03  0.18699566439E+03  0.85922155669E+03  0.12699999809E+01 0.  1.
       -4    1    3    3    0  502  0.57675612836E+03 -0.60880625857E+03  0.13315974576E+04  0.15736728040E+04  0.12699999809E+01 0. -1.
</event>
<event>
 5   0  0.2789718E-05  0.1898598E+04  0.7818609E-02  0.8655555E-01
       -2   -1    0    0    0  501  0.00000000000E+00  0.00000000000E+00  0.50195010266E+03  0.50195010266E+03  0.25500000920E-02 0.  1.
        2   -1    0    0  501    0  0.00000000000E+00  0.00000000000E+00 -0.17953341030E+04  0.17953341031E+04  0.25500000920E-02 0. -1.
    10030    2    1    2    0    0  0.00000000000E+00  0.00000000000E+00 -0.12933840004E+04  0.22972842057E+04  0.18985975217E+04 0.  0.
        5    1    3    3  502    0  0.18309396556E+03  0.92415912052E+03 -0.50583040580E+03  0.10693362285E+04  0.46999998093E+01 0. -1.
       -5    1    3    3    0  502 -0.18309396556E+03 -0.92415912052E+03 -0.78755359460E+03  0.12279479772E+04  0.46999998093E+01 0.  1.
</event>
<event>
 5   0  0.1413011E-05  0.1897134E+04  0.7818609E-02  0.8656284E-01
        1   -1    0    0  501    0  0.00000000000E+00  0.00000000000E+00  0.85159326527E+03  0.85159326528E+03  0.50400001928E-02 0.  1.
       -1   -1    0    0    0  501  0.00000000000E+00  0.00000000000E+00 -0.10565831661E+04  0.10565831661E+04  0.50400001928E-02 0. -1.
    10030    2    1    2    0    0  0.00000000000E+00  0.00000000000E+00 -0.20498990078E+03  0.19081764313E+04  0.18971337417E+04 0.  0.
        1    1    3    3  502    0  0.75290643891E+03  0.41221878655E+03 -0.50856095157E+03  0.99771071720E+03  0.50400001928E-02 0. -1.
       -1    1    3    3    0  502 -0.75290643891E+03 -0.41221878655E+03  0.30357105078E+03  0.91046571414E+03  0.50400001928E-02 0.  1.
</event>
<event>
 5   0  0.1429067E-05  0.1898137E+04  0.7818609E-02  0.8655784E-01
       -1   -1    0    0    0  501  0.00000000000E+00  0.00000000000E+00  0.41521382630E+03  0.41521382633E+03  0.50400001928E-02 0.  1.
        1   -1    0    0  501    0  0.00000000000E+00  0.00000000000E+00 -0.21693176770E+04  0.21693176770E+04  0.50400001928E-02 0. -1.
    10030    2    1    2    0    0  0.00000000000E+00  0.00000000000E+00 -0.17541038507E+04  0.25845315033E+04  0.18981366581E+04 0.  0.
        3    1    3    3  502    0 -0.12977118895E+03  0.85737666620E+03 -0.14022813736E+04  0.16487353851E+04  0.10100000352E+00 0. -1.
       -3    1    3    3    0  502  0.12977118895E+03 -0.85737666620E+03 -0.35182247708E+03  0.93579611819E+03  0.10100000352E+00 0.  1.
</event>
<event>
 5   0  0.1471485E-05  0.1899261E+04  0.7818609E-02  0.8655224E-01
        1   -1    0    0  501    0  0.00000000000E+00  0.00000000000E+00  0.11140612149E+04  0.11140612149E+04  0.50400001928E-02 0.  1.
       -1   -1    0    0    0  501  0.00000000000E+00  0.00000000000E+00 -0.80946901129E+03  0.80946901130E+03  0.50400001928E-02 0. -1.
    10030    2    1    2    0    0  0.00000000000E+00  0.00000000000E+00  0.30459220359E+03  0.19235302262E+04  0.18992609406E+04 0.  0.
        4    1    3    3  502    0 -0.39858383801E+03 -0.73952954534E+02 -0.71743121907E+03  0.82404325275E+03  0.12699999809E+01 0. -1.
       -4    1    3    3    0  502  0.39858383801E+03  0.73952954534E+02  0.10220234227E+04  0.10994869734E+04  0.12699999809E+01 0.  1.
</event>
<event>
 5   0  0.1327254E-05  0.1897804E+04  0.7818609E-02  0.8655950E-01
       -1   -1    0    0    0  501  0.00000000000E+00  0.00000000000E+00  0.12411889914E+04  0.12411889914E+04  0.50400001928E-02 0.  1.
        1   -1    0    0  501    0  0.00000000000E+00  0.00000000000E+00 -0.72544590730E+03  0.72544590731E+03  0.50400001928E-02 0. -1.
    10030    2    1    2    0    0  0.00000000000E+00  0.00000000000E+00  0.51574308407E+03  0.19666348987E+04  0.18978044936E+04 0.  0.
        5    1    3    3  502    0 -0.22960269643E+03 -0.36646740432E+03  0.11331213286E+04  0.12128486270E+04  0.46999998093E+01 0.  1.
       -5    1    3    3    0  502  0.22960269643E+03  0.36646740432E+03 -0.61737824452E+03  0.75378627172E+03  0.46999998093E+01 0. -1.
</event>
<event>
 5   0  0.2888776E-05  0.1898466E+04  0.7818609E-02  0.8655620E-01
       -2   -1    0    0    0  501  0.00000000000E+00  0.00000000000E+00  0.27123697167E+04  0.27123697167E+04  0.25500000920E-02 0.  1.
        2   -1    0    0  501    0  0.00000000000E+00  0.00000000000E+00 -0.33219787823E+03  0.33219787824E+03  0.25500000920E-02 0. -1.
    10030    2    1    2    0    0  0.00000000000E+00  0.00000000000E+00  0.23801718384E+04  0.30445675949E+04  0.18984661860E+04 0.  0.
        3    1    3    3  502    0 -0.19222327961E+03  0.53278294201E+03  0.24116748547E+04  0.24772934965E+04  0.10100000352E+00 0.  1.
       -3    1    3    3    0  502  0.19222327961E+03 -0.53278294201E+03 -0.31503016281E+02  0.56727409844E+03  0.10100000352E+00 0. -1.
</event>
<event>
 5   0  0.1344119E-05  0.1897623E+04  0.7818609E-02  0.8656040E-01
       -1   -1    0    0    0  501  0.00000000000E+00  0.00000000000E+00  0.12131388748E+04  0.12131388748E+04  0.50400001928E-02 0.  1.
        1   -1    0    0  501    0  0.00000000000E+00  0.00000000000E+00 -0.74207799634E+03  0.74207799636E+03  0.50400001928E-02 0. -1.
    10030    2    1    2    0    0  0.00000000000E+00  0.00000000000E+00  0.47106087848E+03  0.19552168712E+04  0.18976234248E+04 0.  0.
        2    1    3    3  502    0 -0.50653407287E+03 -0.48228944469E+03 -0.42507099821E+03  0.81845294854E+03  0.25500000920E-02 0. -1.
       -2    1    3    3    0  502  0.50653407287E+03  0.48228944469E+03  0.89613187669E+03  0.11367639227E+04  0.25500000920E-02 0.  1.
</event>
<event>
 5   0  0.1471485E-05  0.1901468E+04  0.7818609E-02  0.8654126E-01
       -1   -1    0    0    0  501  0.00000000000E+00  0.00000000000E+00  0.81358046881E+03  0.81358046883E+03  0.50400001928E-02 0. -1.
        1   -1    0    0  501    0  0.00000000000E+00  0.00000000000E+00 -0.11110091390E+04  0.11110091390E+04  0.50400001928E-02 0.  1.
    10030    2    1    2    0    0  0.00000000000E+00  0.00000000000E+00 -0.29742867020E+03  0.19245896078E+04  0.19014682077E+04 0.  0.
        4    1    3    3  502    0 -0.22293781141E+03 -0.19326459397E+03 -0.10634969432E+04  0.11036665403E+04  0.12699999809E+01 0.  1.
       -4    1    3    3    0  502  0.22293781141E+03  0.19326459397E+03  0.76606827301E+03  0.82092306756E+03  0.12699999809E+01 0. -1.
</event>
<event>
 5   0  0.1429067E-05  0.1899343E+04  0.7818609E-02  0.8655183E-01
       -1   -1    0    0    0  501  0.00000000000E+00  0.00000000000E+00  0.71331822638E+03  0.71331822640E+03  0.50400001928E-02 0. -1.
        1   -1    0    0  501    0  0.00000000000E+00  0.00000000000E+00 -0.12643388906E+04  0.12643388906E+04  0.50400001928E-02 0.  1.
    10030    2    1    2    0    0  0.00000000000E+00  0.00000000000E+00 -0.55102066421E+03  0.19776571170E+04  0.18993430180E+04 0.  0.
        3    1    3    3  502    0 -0.33254954644E+03  0.38770827026E+03 -0.11091264929E+04  0.12210931541E+04  0.10100000352E+00 0.  1.
       -3    1    3    3    0  502  0.33254954644E+03 -0.38770827026E+03  0.55810582869E+03  0.75656396285E+03  0.10100000352E+00 0. -1.
</event>
<event>
 5   0  0.1471485E-05  0.1904886E+04  0.7818609E-02  0.8652428E-01
       -1   -1    0    0    0  501  0.00000000000E+00  0.00000000000E+00  0.57653999826E+03  0.57653999829E+03  0.50400001928E-02 0. -1.
        1   -1    0    0  501    0  0.00000000000E+00  0.00000000000E+00 -0.15734344250E+04  0.15734344250E+04  0.50400001928E-02 0.  1.
    10030    2    1    2    0    0  0.00000000000E+00  0.00000000000E+00 -0.99689442671E+03  0.21499744233E+04  0.19048862230E+04 0.  0.
        4    1    3    3  502    0  0.36904523164E+03 -0.21324064794E+02  0.49227015412E+03  0.61561401566E+03  0.12699999809E+01 0. -1.
       -4    1    3    3    0  502 -0.36904523164E+03  0.21324064794E+02 -0.14891645808E+04  0.15343604076E+04  0.12699999809E+01 0.  1.
</event>
<event>
 5   0  0.2813537E-05  0.1900937E+04  0.7818609E-02  0.8654390E-01
       -2   -1    0    0    0  501  0.00000000000E+00  0.00000000000E+00  0.40563718283E+03  0.40563718283E+03  0.25500000920E-02 0.  1.
        2   -1    0    0  501    0  0.00000000000E+00  0.00000000000E+00 -0.22270885740E+04  0.22270885740E+04  0.25500000920E-02 0. -1.
    10030    2    1    2    0    0  0.00000000000E+00  0.00000000000E+00 -0.18214513912E+04  0.26327257569E+04  0.19009365430E+04 0.  0.
        2    1    3    3  502    0  0.58890011661E+03 -0.66490459443E+03 -0.44210779412E+03  0.99214956971E+03  0.25500000920E-02 0.  1.
       -2    1    3    3    0  502 -0.58890011661E+03  0.66490459443E+03 -0.13793435971E+04  0.16405761872E+04  0.25500000920E-02 0. -1.
</event>
<event>
 5   0  0.2789718E-05  0.1909661E+04  0.7818609E-02  0.8650062E-01
        2   -1    0    0  501    0  0.00000000000E+00  0.00000000000E+00  0.15775454083E+04  0.15775454083E+04  0.25500000920E-02 0. -1.
       -2   -1    0    0    0  501  0.00000000000E+00  0.00000000000E+00 -0.57792380917E+03  0.57792380917E+03  0.25500000920E-02 0.  1.
    10030    2    1    2    0    0  0.00000000000E+00  0.00000000000E+00  0.99962159917E+03  0.21554692175E+04  0.19096607568E+04 0.  0.
        5    1    3    3  502    0 -0.42472865195E+03 -0.41036731858E+03  0.13466378921E+04  0.14704596106E+04  0.46999998093E+01 0. -1.
       -5    1    3    3    0  502  0.42472865195E+03  0.41036731858E+03 -0.34701629296E+03  0.68500960689E+03  0.46999998093E+01 0.  1.
</event>
<event>
 5   0  0.2888776E-05  0.1901889E+04  0.7818609E-02  0.8653917E-01
        2   -1    0    0  501    0  0.00000000000E+00  0.00000000000E+00  0.85797327464E+03  0.85797327465E+03  0.25500000920E-02 0. -1.
       -2   -1    0    0    0  501  0.00000000000E+00  0.00000000000E+00 -0.10539904756E+04  0.10539904756E+04  0.25500000920E-02 0.  1.
    10030    2    1    2    0    0  0.00000000000E+00  0.00000000000E+00 -0.19601720092E+03  0.19119637502E+04  0.19018892289E+04 0.  0.
        3    1    3    3  502    0  0.89847583334E+03 -0.23163042697E+02  0.21428189501E+03  0.92396541622E+03  0.10100000352E+00 0. -1.
       -3    1    3    3    0  502 -0.89847583334E+03  0.23163042697E+02 -0.41029909593E+03  0.98799833399E+03  0.10100000352E+00 0.  1.
</event>
<event>
 5   0  0.2789718E-05  0.1894451E+04  0.7818609E-02  0.8657623E-01
        2   -1    0    0  501    0  0.00000000000E+00  0.00000000000E+00  0.12986515920E+04  0.12986515920E+04  0.25500000920E-02 0. -1.
       -2   -1    0    0    0  501  0.00000000000E+00  0.00000000000E+00 -0.69089825697E+03  0.69089825698E+03  0.25500000920E-02 0.  1.
    10030    2    1    2    0    0  0.00000000000E+00  0.00000000000E+00  0.60775333506E+03  0.19895498490E+04  0.18944509720E+04 0.  0.
        5    1    3    3  502    0  0.16099830472E+03 -0.56040735372E+02  0.12823964120E+04  0.12936860769E+04  0.46999998093E+01 0. -1.
       -5    1    3    3    0  502 -0.16099830472E+03  0.56040735372E+02 -0.67464307690E+03  0.69586377212E+03  0.46999998093E+01 0.  1.
</event>
<event>
 5   0  0.1471485E-05  0.1900654E+04  0.7818609E-02  0.8654531E-01
       -1   -1    0    0    0  501  0.00000000000E+00  0.00000000000E+00  0.78548508585E+03  0.78548508587E+03  0.50400001928E-02 0.  1.
        1   -1    0    0  501    0  0.00000000000E+00  0.00000000000E+00 -0.11497628337E+04  0.11497628338E+04  0.50400001928E-02 0. -1.
    10030    2    1    2    0    0  0.00000000000E+00  0.00000000000E+00 -0.36427774789E+03  0.19352479196E+04  0.19006541592E+04 0.  0.
        4    1    3    3  502    0  0.52021618023E+03 -0.77450539458E+03 -0.36608263595E+03  0.10022482675E+04  0.12699999809E+01 0.  1.
       -4    1    3    3    0  502 -0.52021618023E+03  0.77450539458E+03  0.18048880593E+01  0.93299965216E+03  0.12699999809E+01 0. -1.
</event>
<event>
 5   0  0.1327254E-05  0.1888319E+04  0.7818609E-02  0.8660693E-01
        1   -1    0    0  501    0  0.00000000000E+00  0.00000000000E+00  0.89967336962E+03  0.89967336963E+03  0.50400001928E-02 0. -1.
       -1   -1    0    0    0  501  0.00000000000E+00  0.00000000000E+00 -0.99084497114E+03  0.99084497115E+03  0.50400001928E-02 0.  1.
    10030    2    1    2    0    0  0.00000000000E+00  0.00000000000E+00 -0.91171601521E+02  0.18905183408E+04  0.18883186532E+04 0.  0.
        5    1    3    3  502    0 -0.63357713036E+01 -0.20984506760E+03 -0.96716863375E+03  0.98970316282E+03  0.46999998093E+01 0.  1.
       -5    1    3    3    0  502  0.63357713036E+01  0.20984506760E+03  0.87599703222E+03  0.90081517797E+03  0.46999998093E+01 0. -1.
</event>
<event>
 5   0  0.1429067E-05  0.1899607E+04  0.7818609E-02  0.8655052E-01
       -1   -1    0    0    0  501  0.00000000000E+00  0.00000000000E+00  0.13622206033E+04  0.13622206033E+04  0.50400001928E-02 0.  1.
        1   -1    0    0  501    0  0.00000000000E+00  0.00000000000E+00 -0.66224694596E+03  0.66224694598E+03  0.50400001928E-02 0. -1.
    10030    2    1    2    0    0  0.00000000000E+00  0.00000000000E+00  0.69997365737E+03  0.20244675493E+04  0.18996067323E+04 0.  0.
        3    1    3    3  502    0 -0.14555557130E+03  0.80416677093E+03  0.86579984828E+03  0.11905796938E+04  0.10100000352E+00 0.  1.
       -3    1    3    3    0  502  0.14555557130E+03 -0.80416677093E+03 -0.16582619091E+03  0.83388785553E+03  0.10100000352E+00 0. -1.
</event>
<event>
 5   0  0.1327254E-05  0.1902820E+04  0.7818609E-02  0.8653454E-01
        1   -1    0    0  501    0  0.00000000000E+00  0.00000000000E+00  0.55351810735E+03  0.55351810737E+03  0.50400001928E-02 0.  1.
       -1   -1    0    0    0  501  0.00000000000E+00  0.00000000000E+00 -0.16353240018E+04  0.16353240018E+04  0.50400001928E-02 0. -1.
    10030    2    1    2    0    0  0.00000000000E+00  0.00000000000E+00 -0.10818058944E+04  0.21888421091E+04  0.19028204817E+04 0.  0.
        5    1    3    3  502    0  0.83299776638E+03  0.16734236506E+03 -0.48451939066E+02  0.85103373984E+03  0.46999998093E+01 0.  1.
       -5    1    3    3    0  502 -0.83299776638E+03 -0.16734236506E+03 -0.10333539554E+04  0.13378083693E+04  0.46999998093E+01 0. -1.
</event>
<event>
 5   0  0.2813537E-05  0.1901343E+04  0.7818609E-02  0.8654188E-01
        2   -1    0    0  501    0  0.00000000000E+00  0.00000000000E+00  0.15708116601E+04  0.15708116601E+04  0.25500000920E-02 0.  1.
       -2   -1    0    0    0  501  0.00000000000E+00  0.00000000000E+00 -0.57535605457E+03  0.57535605458E+03  0.25500000920E-02 0. -1.
    10030    2    1    2    0    0  0.00000000000E+00  0.00000000000E+00  0.99545560554E+03  0.21461677147E+04  0.19013426827E+04 0.  0.
        2    1    3    3  502    0  0.62144303106E+03  0.60804674397E+03  0.63683492860E+02  0.87176136126E+03  0.25500000920E-02 0.  1.
       -2    1    3    3    0  502 -0.62144303106E+03 -0.60804674397E+03  0.93177211268E+03  0.12744063534E+04  0.25500000920E-02 0. -1.
</event>
<event>
 5   0  0.2888776E-05  0.1900310E+04  0.7818609E-02  0.8654702E-01
        2   -1    0    0  501    0  0.00000000000E+00  0.00000000000E+00  0.18563548961E+04  0.18563548961E+04  0.25500000920E-02 0. -1.
       -2   -1    0    0    0  501  0.00000000000E+00  0.00000000000E+00 -0.48632646861E+03  0.48632646862E+03  0.25500000920E-02 0.  1.
    10030    2    1    2    0    0  0.00000000000E+00  0.00000000000E+00  0.13700284275E+04  0.23426813648E+04  0.19003099970E+04 0.  0.
        3    1    3    3  502    0  0.28019581970E+03 -0.82962322064E+02  0.17995823820E+04  0.18231536425E+04  0.10100000352E+00 0. -1.
       -3    1    3    3    0  502 -0.28019581970E+03  0.82962322064E+02 -0.42955395445E+03  0.51952772231E+03  0.10100000352E+00 0.  1.
</event>
<event>
 5   0  0.2888776E-05  0.1907223E+04  0.7818609E-02  0.8651269E-01
       -2   -1    0    0    0  501  0.00000000000E+00  0.00000000000E+00  0.59499520571E+03  0.59499520572E+03  0.25500000920E-02 0. -1.
        2   -1    0    0  501    0  0.00000000000E+00  0.00000000000E+00 -0.15283733825E+04  0.15283733825E+04  0.25500000920E-02 0.  1.
    10030    2    1    2    0    0  0.00000000000E+00  0.00000000000E+00 -0.93337817678E+03  0.21233685882E+04  0.19072229394E+04 0.  0.
        3    1    3    3  502    0  0.57064841696E+03  0.24221830532E+03 -0.12734236613E+04  0.14163040473E+04  0.10100000352E+00 0.  1.
       -3    1    3    3    0  502 -0.57064841696E+03 -0.24221830532E+03  0.34004548450E+03  0.70706454086E+03  0.10100000352E+00 0. -1.
</event>
<event>
 5   0  0.1344119E-05  0.1900317E+04  0.7818609E-02  0.8654698E-01
        1   -1    0    0  501    0  0.00000000000E+00  0.00000000000E+00  0.15456526458E+04  0.15456526459E+04  0.50400001928E-02 0.  1.
       -1   -1    0    0    0  501  0.00000000000E+00  0.00000000000E+00 -0.58409084799E+03  0.58409084801E+03  0.50400001928E-02 0. -1.
    10030    2    1    2    0    0  0.00000000000E+00  0.00000000000E+00  0.96156179786E+03  0.21297434939E+04  0.19003174100E+04 0.  0.
        2    1    3    3  502    0 -0.17731866141E+03 -0.73589315913E+03  0.11244167835E+04  0.13554680935E+04  0.25500000920E-02 0.  1.
       -2    1    3    3    0  502  0.17731866141E+03  0.73589315913E+03 -0.16285498565E+03  0.77427540042E+03  0.25500000920E-02 0. -1.
</event>
<event>
 5   0  0.2879462E-05  0.1932743E+04  0.7818609E-02  0.8638727E-01
        2   -1    0    0  501    0  0.00000000000E+00  0.00000000000E+00  0.11141518525E+04  0.11141518525E+04  0.25500000920E-02 0. -1.
       -2   -1    0    0    0  501  0.00000000000E+00  0.00000000000E+00 -0.83819287785E+03  0.83819287786E+03  0.25500000920E-02 0.  1.
    10030    2    1    2    0    0  0.00000000000E+00  0.00000000000E+00  0.27595897460E+03  0.19523447303E+04  0.19327432810E+04 0.  0.
        4    1    3    3  502    0 -0.90130005305E+02  0.13732465706E+03 -0.82398688737E+03  0.84020085857E+03  0.12699999809E+01 0.  1.
       -4    1    3    3    0  502  0.90130005305E+02 -0.13732465706E+03  0.10999458620E+04  0.11121438717E+04  0.12699999809E+01 0. -1.
</event>
<event>
 5   0  0.2888776E-05  0.1900753E+04  0.7818609E-02  0.8654481E-01
       -2   -1    0    0    0  501  0.00000000000E+00  0.00000000000E+00  0.18261856251E+04  0.18261856251E+04  0.25500000920E-02 0. -1.
        2   -1    0    0  501    0  0.00000000000E+00  0.00000000000E+00 -0.49459147445E+03  0.49459147446E+03  0.25500000920E-02 0.  1.
    10030    2    1    2    0    0  0.00000000000E+00  0.00000000000E+00  0.13315941506E+04  0.23207770995E+04  0.19007533674E+04 0.  0.
        3    1    3    3  502    0 -0.89304966070E+03  0.31187650029E+03  0.55381817504E+03  0.10961383257E+04  0.10100000352E+00 0.  1.
       -3    1    3    3    0  502  0.89304966070E+03 -0.31187650029E+03  0.77777597557E+03  0.12246387738E+04  0.10100000352E+00 0. -1.
</event>
<event>
 5   0  0.2888776E-05  0.1900517E+04  0.7818609E-02  0.8654599E-01
        2   -1    0    0  501    0  0.00000000000E+00  0.00000000000E+00  0.14255997050E+04  0.14255997050E+04  0.25500000920E-02 0.  1.
       -2   -1    0    0    0  501  0.00000000000E+00  0.00000000000E+00 -0.63341126935E+03  0.63341126936E+03  0.25500000920E-02 0. -1.
    10030    2    1    2    0    0  0.00000000000E+00  0.00000000000E+00  0.79218843560E+03  0.20590109743E+04  0.19005166863E+04 0.  0.
        3    1    3    3  502    0 -0.55157447026E+03  0.31701521857E+03  0.11608346551E+04  0.13237334142E+04  0.10100000352E+00 0.  1.
       -3    1    3    3    0  502  0.55157447026E+03 -0.31701521857E+03 -0.36864621954E+03  0.73527756013E+03  0.10100000352E+00 0. -1.
</event>
<event>
 5   0  0.2888776E-05  0.1901058E+04  0.7818609E-02  0.8654330E-01
        2   -1    0    0  501    0  0.00000000000E+00  0.00000000000E+00  0.19218692173E+04  0.19218692173E+04  0.25500000920E-02 0. -1.
       -2   -1    0    0    0  501  0.00000000000E+00  0.00000000000E+00 -0.47011782122E+03  0.47011782123E+03  0.25500000920E-02 0.  1.
    10030    2    1    2    0    0  0.00000000000E+00  0.00000000000E+00  0.14517513961E+04  0.23919870385E+04  0.19010575679E+04 0.  0.
        3    1    3    3  502    0  0.90983815348E+02  0.93669573870E+03  0.89387784601E+03  0.12979578481E+04  0.10100000352E+00 0. -1.
       -3    1    3    3    0  502 -0.90983815348E+02 -0.93669573870E+03  0.55787355008E+03  0.10940291905E+04  0.10100000352E+00 0.  1.
</event>
<event>
 5   0  0.2789718E-05  0.1897805E+04  0.7818609E-02  0.8655950E-01
        2   -1    0    0  501    0  0.00000000000E+00  0.00000000000E+00  0.10818773768E+04  0.10818773768E+04  0.25500000920E-02 0. -1.
       -2   -1    0    0    0  501  0.00000000000E+00  0.00000000000E+00 -0.83227156179E+03  0.83227156179E+03  0.25500000920E-02 0.  1.
    10030    2    1    2    0    0  0.00000000000E+00  0.00000000000E+00  0.24960581504E+03  0.19141489386E+04  0.18978048099E+04 0.  0.
        5    1    3    3  502    0  0.16370330385E+03  0.29369410673E+03 -0.77015988241E+03  0.84037095053E+03  0.46999998093E+01 0.  1.
       -5    1    3    3    0  502 -0.16370330385E+03 -0.29369410673E+03  0.10197656975E+04  0.10737779881E+04  0.46999998093E+01 0. -1.
</event>
<event>
 5   0  0.1429067E-05  0.1901358E+04  0.7818609E-02  0.8654181E-01
       -1   -1    0    0    0  501  0.00000000000E+00  0.00000000000E+00  0.10172383155E+04  0.10172383155E+04  0.50400001928E-02 0. -1.
        1   -1    0    0  501    0  0.00000000000E+00  0.00000000000E+00 -0.88847500612E+03  0.88847500614E+03  0.50400001928E-02 0.  1.
    10030    2    1    2    0    0  0.00000000000E+00  0.00000000000E+00  0.12876330939E+03  0.19057133217E+04  0.19013582710E+04 0.  0.
        3    1    3    3  502    0  0.43220294865E+03  0.25178672180E+03  0.87468555217E+03  0.10076064547E+04  0.10100000352E+00 0. -1.
       -3    1    3    3    0  502 -0.43220294865E+03 -0.25178672180E+03 -0.74592224278E+03  0.89810686701E+03  0.10100000352E+00 0.  1.
</event>
<event>
 5   0  0.1344119E-05  0.1902398E+04  0.7818609E-02  0.8653664E-01
       -1   -1    0    0    0  501  0.00000000000E+00  0.00000000000E+00  0.56277099484E+03  0.56277099486E+03  0.50400001928E-02 0.  1.
        1   -1    0    0  501    0  0.00000000000E+00  0.00000000000E+00 -0.16077216230E+04  0.16077216230E+04  0.50400001928E-02 0. -1.
    10030    2    1    2    0    0  0.00000000000E+00  0.00000000000E+00 -0.10449506282E+04  0.21704926179E+04  0.19023975370E+04 0.  0.
        2    1    3    3  502    0 -0.19762102144E+02  0.22475043919E+03 -0.15767514832E+04  0.15928115207E+04  0.25500000920E-02 0. -1.
       -2    1    3    3    0  502  0.19762102144E+02 -0.22475043919E+03  0.53180085505E+03  0.57768109718E+03  0.25500000920E-02 0.  1.
</event>
<event>
 5   0  0.1471485E-05  0.1901482E+04  0.7818609E-02  0.8654119E-01
        1   -1    0    0  501    0  0.00000000000E+00  0.00000000000E+00  0.95844356348E+03  0.95844356349E+03  0.50400001928E-02 0. -1.
       -1   -1    0    0    0  501  0.00000000000E+00  0.00000000000E+00 -0.94309986195E+03  0.94309986196E+03  0.50400001928E-02 0.  1.
    10030    2    1    2    0    0  0.00000000000E+00  0.00000000000E+00  0.15343701532E+02  0.19015434255E+04  0.19014815197E+04 0.  0.
        4    1    3    3  502    0  0.64052494783E+03 -0.70247646519E+03  0.20360313133E+02  0.95087409692E+03  0.12699999809E+01 0.  1.
       -4    1    3    3    0  502 -0.64052494783E+03  0.70247646519E+03 -0.50166116011E+01  0.95066932854E+03  0.12699999809E+01 0. -1.
</event>
<event>
 5   0  0.2888776E-05  0.1899959E+04  0.7818609E-02  0.8654877E-01
        2   -1    0    0  501    0  0.00000000000E+00  0.00000000000E+00  0.17031877910E+04  0.17031877910E+04  0.25500000920E-02 0.  1.
       -2   -1    0    0    0  501  0.00000000000E+00  0.00000000000E+00 -0.52986606858E+03  0.52986606859E+03  0.25500000920E-02 0. -1.
    10030    2    1    2    0    0  0.00000000000E+00  0.00000000000E+00  0.11733217224E+04  0.22330538596E+04  0.18999593879E+04 0.  0.
        3    1    3    3  502    0 -0.75468321994E+03 -0.32842366326E+03  0.29094142001E+02  0.82356259285E+03  0.10100000352E+00 0. -1.
       -3    1    3    3    0  502  0.75468321994E+03  0.32842366326E+03  0.11442275804E+04  0.14094912668E+04  0.10100000352E+00 0.  1.
</event>
<event>
 5   0  0.2888776E-05  0.1899278E+04  0.7818609E-02  0.8655216E-01
       -2   -1    0    0    0  501  0.00000000000E+00  0.00000000000E+00  0.10762387782E+04  0.10762387782E+04  0.25500000920E-02 0.  1.
        2   -1    0    0  501    0  0.00000000000E+00  0.00000000000E+00 -0.83793153901E+03  0.83793153902E+03  0.25500000920E-02 0. -1.
    10030    2    1    2    0    0  0.00000000000E+00  0.00000000000E+00  0.23830723916E+03  0.19141703172E+04  0.18992781953E+04 0.  0.
        3    1    3    3  502    0  0.38968793057E+03 -0.72334026331E+03  0.59905588097E+03  0.10168312439E+04  0.10100000352E+00 0. -1.
       -3    1    3    3    0  502 -0.38968793057E+03  0.72334026331E+03 -0.36074864181E+03  0.89733907333E+03  0.10100000352E+00 0.  1.
</event>
<event>
 5   0  0.2855141E-05  0.1901346E+04  0.7818609E-02  0.8654186E-01
        2   -1    0    0  501    0  0.00000000000E+00  0.00000000000E+00  0.83103356031E+03  0.83103356032E+03  0.25500000920E-02 0. -1.
       -2   -1    0    0    0  501  0.00000000000E+00  0.00000000000E+00 -0.10875367022E+04  0.10875367022E+04  0.25500000920E-02 0.  1.
    10030    2    1    2    0    0  0.00000000000E+00  0.00000000000E+00 -0.25650314191E+03  0.19185702625E+04  0.19013463626E+04 0.  0.
        1    1    3    3  502    0  0.22391219196E+03  0.40579843577E+03  0.70931005348E+03  0.84730737763E+03  0.50400001928E-02 0. -1.
       -1    1    3    3    0  502 -0.22391219196E+03 -0.40579843577E+03 -0.96581319540E+03  0.10712628849E+04  0.50400001928E-02 0.  1.
</event>
<event>
 5   0  0.1413011E-05  0.1897664E+04  0.7818609E-02  0.8656020E-01
       -1   -1    0    0    0  501  0.00000000000E+00  0.00000000000E+00  0.52748235412E+03  0.52748235414E+03  0.50400001928E-02 0.  1.
        1   -1    0    0  501    0  0.00000000000E+00  0.00000000000E+00 -0.17067535952E+04  0.17067535952E+04  0.50400001928E-02 0. -1.
    10030    2    1    2    0    0  0.00000000000E+00  0.00000000000E+00 -0.11792712411E+04  0.22342359493E+04  0.18976642530E+04 0.  0.
        1    1    3    3  502    0 -0.75792966582E+03  0.43071698267E+03 -0.14862329085E+03  0.88434347406E+03  0.50400001928E-02 0.  1.
       -1    1    3    3    0  502  0.75792966582E+03 -0.43071698267E+03 -0.10306479502E+04  0.13498924753E+04  0.50400001928E-02 0. -1.
</event>
<event>
 5   0  0.2813537E-05  0.1906835E+04  0.7818609E-02  0.8651462E-01
        2   -1    0    0  501    0  0.00000000000E+00  0.00000000000E+00  0.23847347884E+04  0.23847347884E+04  0.25500000920E-02 0. -1.
       -2   -1    0    0    0  501  0.00000000000E+00  0.00000000000E+00 -0.38117655452E+03  0.38117655453E+03  0.25500000920E-02 0.  1.
    10030    2    1    2    0    0  0.00000000000E+00  0.00000000000E+00  0.20035582339E+04  0.27659113429E+04  0.19068350638E+04 0.  0.
        2    1    3    3  502    0 -0.59322411618E+03  0.50488967830E+03  0.17991410642E+04  0.19605450793E+04  0.25500000920E-02 0. -1.
       -2    1    3    3    0  502  0.59322411618E+03 -0.50488967830E+03  0.20441716970E+03  0.80536626360E+03  0.25500000920E-02 0.  1.
</event>
<event>
 5   0  0.2888776E-05  0.1900302E+04  0.7818609E-02  0.8654706E-01
        2   -1    0    0  501    0  0.00000000000E+00  0.00000000000E+00  0.14762204090E+04  0.14762204090E+04  0.25500000920E-02 0. -1.
       -2   -1    0    0    0  501  0.00000000000E+00  0.00000000000E+00 -0.61155322768E+03  0.61155322769E+03  0.25500000920E-02 0.  1.
    10030    2    1    2    0    0  0.00000000000E+00  0.00000000000E+00  0.86466718133E+03  0.20877736367E+04  0.19003024558E+04 0.  0.
        3    1    3    3  502    0 -0.54769374856E+03  0.64996278403E+03 -0.34260851207E+02  0.85064321484E+03  0.10100000352E+00 0.  1.
       -3    1    3    3    0  502  0.54769374856E+03 -0.64996278403E+03  0.89892803254E+03  0.12371304219E+04  0.10100000352E+00 0. -1.
</event>
<event>
 5   0  0.1413011E-05  0.1898761E+04  0.7818609E-02  0.8655473E-01
        1   -1    0    0  501    0  0.00000000000E+00  0.00000000000E+00  0.88508057558E+03  0.88508057559E+03  0.50400001928E-02 0.  1.
       -1   -1    0    0    0  501  0.00000000000E+00  0.00000000000E+00 -0.10183514980E+04  0.10183514980E+04  0.50400001928E-02 0. -1.
    10030    2    1    2    0    0  0.00000000000E+00  0.00000000000E+00 -0.13327092243E+03  0.19034320736E+04  0.18987607854E+04 0.  0.
        1    1    3    3  502    0  0.23893719816E+03 -0.70022617883E+03  0.52973604663E+03  0.90996041964E+03  0.50400001928E-02 0.  1.
       -1    1    3    3    0  502 -0.23893719816E+03  0.70022617883E+03 -0.66300696906E+03  0.99347165397E+03  0.50400001928E-02 0. -1.
</event>
<event>
 5   0  0.2879462E-05  0.1899190E+04  0.7818609E-02  0.8655260E-01
        2   -1    0    0  501    0  0.00000000000E+00  0.00000000000E+00  0.13416351282E+04  0.13416351282E+04  0.25500000920E-02 0. -1.
       -2   -1    0    0    0  501  0.00000000000E+00  0.00000000000E+00 -0.67211287930E+03  0.67211287931E+03  0.25500000920E-02 0.  1.
    10030    2    1    2    0    0  0.00000000000E+00  0.00000000000E+00  0.66952224888E+03  0.20137480075E+04  0.18991895629E+04 0.  0.
        4    1    3    3  502    0  0.57063915038E+03 -0.13715677122E+03 -0.45678550701E+03  0.74370399498E+03  0.12699999809E+01 0.  1.
       -4    1    3    3    0  502 -0.57063915038E+03  0.13715677122E+03  0.11263077559E+04  0.12700440125E+04  0.12699999809E+01 0. -1.
</event>
<event>
 5   0  0.1010725E-05  0.1905061E+04  0.7818609E-02  0.8652341E-01
        3   -1    0    0  501    0  0.00000000000E+00  0.00000000000E+00  0.88094329565E+03  0.88094330144E+03  0.10100000352E+00 0.  1.
       -3   -1    0    0    0  501  0.00000000000E+00  0.00000000000E+00 -0.10299347775E+04  0.10299347824E+04  0.10100000352E+00 0. -1.
    10030    2    1    2    0    0  0.00000000000E+00  0.00000000000E+00 -0.14899148184E+03  0.19108780839E+04  0.19050607837E+04 0.  0.
        1    1    3    3  502    0 -0.54005866562E+03  0.62644186725E+03  0.39941006468E+03  0.91848852750E+03  0.50400001928E-02 0.  1.
       -1    1    3    3    0  502  0.54005866562E+03 -0.62644186725E+03 -0.54840154652E+03  0.99238955638E+03  0.50400001928E-02 0. -1.
</event>
<event>
 5   0  0.2789718E-05  0.1896335E+04  0.7818609E-02  0.8656683E-01
       -2   -1    0    0    0  501  0.00000000000E+00  0.00000000000E+00  0.73169748521E+03  0.73169748522E+03  0.25500000920E-02 0.  1.
        2   -1    0    0  501    0  0.00000000000E+00  0.00000000000E+00 -0.12286790015E+04  0.12286790015E+04  0.25500000920E-02 0. -1.
    10030    2    1    2    0    0  0.00000000000E+00  0.00000000000E+00 -0.49698151630E+03  0.19603764867E+04  0.18963347126E+04 0.  0.
        5    1    3    3  502    0 -0.25851414274E+03  0.16010278330E+03  0.67991233571E+03  0.74482570946E+03  0.46999998093E+01 0.  1.
       -5    1    3    3    0  502  0.25851414274E+03 -0.16010278330E+03 -0.11768938520E+04  0.12155507773E+04  0.46999998093E+01 0. -1.
</event>
<event>
 5   0  0.2879462E-05  0.1878992E+04  0.7818609E-02  0.8665385E-01
        2   -1    0    0  501    0  0.00000000000E+00  0.00000000000E+00  0.99463288476E+03  0.99463288476E+03  0.25500000920E-02 0. -1.
       -2   -1    0    0    0  501  0.00000000000E+00  0.00000000000E+00 -0.88741521681E+03  0.88741521682E+03  0.25500000920E-02 0.  1.
    10030    2    1    2    0    0  0.00000000000E+00  0.00000000000E+00  0.10721766795E+03  0.18820481016E+04  0.18789915988E+04 0.  0.
        4    1    3    3  502    0  0.19281007686E+03  0.85490261152E+03 -0.28549252780E+03  0.92170591691E+03  0.12699999809E+01 0.  1.
       -4    1    3    3    0  502 -0.19281007686E+03 -0.85490261152E+03  0.39271019574E+03  0.96034218468E+03  0.12699999809E+01 0. -1.
</event>
<event>
 5   0  0.2888776E-05  0.1905695E+04  0.7818609E-02  0.8652027E-01
       -2   -1    0    0    0  501  0.00000000000E+00  0.00000000000E+00  0.66056872304E+03  0.66056872304E+03  0.25500000920E-02 0.  1.
        2   -1    0    0  501    0  0.00000000000E+00  0.00000000000E+00 -0.13744501699E+04  0.13744501699E+04  0.25500000920E-02 0. -1.
    10030    2    1    2    0    0  0.00000000000E+00  0.00000000000E+00 -0.71388144682E+03  0.20350188929E+04  0.19056954569E+04 0.  0.
        3    1    3    3  502    0 -0.93784223974E+03  0.14508468107E+03 -0.26557050550E+03  0.98545691682E+03  0.10100000352E+00 0. -1.
       -3    1    3    3    0  502  0.93784223974E+03 -0.14508468107E+03 -0.44831094133E+03  0.10495619761E+04  0.10100000352E+00 0.  1.
</event>
<event>
 5   0  0.2789718E-05  0.1902336E+04  0.7818609E-02  0.8653695E-01
       -2   -1    0    0    0  501  0.00000000000E+00  0.00000000000E+00  0.44888261631E+03  0.44888261631E+03  0.25500000920E-02 0.  1.
        2   -1    0    0  501    0  0.00000000000E+00  0.00000000000E+00 -0.20154944135E+04  0.20154944135E+04  0.25500000920E-02 0. -1.
    10030    2    1    2    0    0  0.00000000000E+00  0.00000000000E+00 -0.15666117972E+04  0.24643770298E+04  0.19023358331E+04 0.  0.
        5    1    3    3  502    0  0.43809067349E+03  0.72314747816E+03 -0.21888203918E+03  0.87338259110E+03  0.46999998093E+01 0.  1.
       -5    1    3    3    0  502 -0.43809067349E+03 -0.72314747816E+03 -0.13477297580E+04  0.15909944387E+04  0.46999998093E+01 0. -1.
</event>
<event>
 5   0  0.2879462E-05  0.1909181E+04  0.7818609E-02  0.8650300E-01
        2   -1    0    0  501    0  0.00000000000E+00  0.00000000000E+00  0.82574445942E+03  0.82574445943E+03  0.25500000920E-02 0. -1.
       -2   -1    0    0    0  501  0.00000000000E+00  0.00000000000E+00 -0.11035410533E+04  0.11035410533E+04  0.25500000920E-02 0.  1.
    10030    2    1    2    0    0  0.00000000000E+00  0.00000000000E+00 -0.27779659390E+03  0.19292855128E+04  0.19091808825E+04 0.  0.
        4    1    3    3  502    0  0.71743227060E+02 -0.93554233618E+03  0.38606625618E+02  0.93908393547E+03  0.12699999809E+01 0. -1.
       -4    1    3    3    0  502 -0.71743227060E+02  0.93554233618E+03 -0.31640321952E+03  0.99020157728E+03  0.12699999809E+01 0.  1.
</event>
<event>
 5   0  0.2888776E-05  0.1901391E+04  0.7818609E-02  0.8654164E-01
        2   -1    0    0  501    0  0.00000000000E+00  0.00000000000E+00  0.11605372891E+04  0.11605372891E+04  0.25500000920E-02 0. -1.
       -2   -1    0    0    0  501  0.00000000000E+00  0.00000000000E+00 -0.77879605806E+03  0.77879605806E+03  0.25500000920E-02 0.  1.
    10030    2    1    2    0    0  0.00000000000E+00  0.00000000000E+00  0.38174123107E+03  0.19393333472E+04  0.19013909288E+04 0.  0.
        3    1    3    3  502    0 -0.75028362896E+02  0.91989049353E+03 -0.41701690316E+02  0.92388679853E+03  0.10100000352E+00 0.  1.
       -3    1    3    3    0  502  0.75028362896E+02 -0.91989049353E+03  0.42344292138E+03  0.10154465487E+04  0.10100000352E+00 0. -1.
</event>
<event>
 5   0  0.1327254E-05  0.1902155E+04  0.7818609E-02  0.8653784E-01
        1   -1    0    0  501    0  0.00000000000E+00  0.00000000000E+00  0.67515123782E+03  0.67515123784E+03  0.50400001928E-02 0. -1.
       -1   -1    0    0    0  501  0.00000000000E+00  0.00000000000E+00 -0.13397720748E+04  0.13397720748E+04  0.50400001928E-02 0.  1.
    10030    2    1    2    0    0  0.00000000000E+00  0.00000000000E+00 -0.66462083693E+03  0.20149233126E+04  0.19021553824E+04 0.  0.
        5    1    3    3  502    0  0.48460733363E+03 -0.72718324307E+03 -0.72991182458E+03  0.11386101609E+04  0.46999998093E+01 0.  1.
       -5    1    3    3    0  502 -0.48460733363E+03  0.72718324307E+03  0.65290987647E+02  0.87631315172E+03  0.46999998093E+01 0. -1.
</event>
<event>
 5   0  0.2855141E-05  0.1898726E+04  0.7818609E-02  0.8655491E-01
       -2   -1    0    0    0  501  0.00000000000E+00  0.00000000000E+00  0.10459244517E+04  0.10459244517E+04  0.25500000920E-02 0. -1.
        2   -1    0    0  501    0  0.00000000000E+00  0.00000000000E+00 -0.86171633417E+03  0.86171633417E+03  0.25500000920E-02 0.  1.
    10030    2    1    2    0    0  0.00000000000E+00  0.00000000000E+00  0.18420811750E+03  0.19076407858E+04  0.18987260827E+04 0.  0.
        1    1    3    3  502    0 -0.39064819238E+03 -0.69232017554E+03 -0.42934813326E+03  0.90346724081E+03  0.50400001928E-02 0.  1.
       -1    1    3    3    0  502  0.39064819238E+03  0.69232017554E+03  0.61355625076E+03  0.10041735450E+04  0.50400001928E-02 0. -1.
</event>
<event>
 5   0  0.1429067E-05  0.1888553E+04  0.7818609E-02  0.8660576E-01
        1   -1    0    0  501    0  0.00000000000E+00  0.00000000000E+00  0.11853136896E+04  0.11853136896E+04  0.50400001928E-02 0. -1.
       -1   -1    0    0    0  501  0.00000000000E+00  0.00000000000E+00 -0.75225460568E+03  0.75225460569E+03  0.50400001928E-02 0.  1.
    10030    2    1    2    0    0  0.00000000000E+00  0.00000000000E+00  0.43305908394E+03  0.19375682953E+04  0.18885525486E+04 0.  0.
        3    1    3    3  502    0 -0.27225020358E+03 -0.13500263999E+03 -0.70071693909E+03  0.76377360853E+03  0.10100000352E+00 0.  1.
       -3    1    3    3    0  502  0.27225020358E+03  0.13500263999E+03  0.11337760230E+04  0.11737946868E+04  0.10100000352E+00 0. -1.
</event>
<event>
 5   0  0.2879462E-05  0.1902555E+04  0.7818609E-02  0.8653586E-01
       -2   -1    0    0    0  501  0.00000000000E+00  0.00000000000E+00  0.44583315069E+03  0.44583315070E+03  0.25500000920E-02 0. -1.
        2   -1    0    0  501    0  0.00000000000E+00  0.00000000000E+00 -0.20297471827E+04  0.20297471827E+04  0.25500000920E-02 0.  1.
    10030    2    1    2    0    0  0.00000000000E+00  0.00000000000E+00 -0.15839140320E+04  0.24755803334E+04  0.19025546842E+04 0.  0.
        4    1    3    3  502    0 -0.12731494301E+03 -0.36263548144E+03  0.34031041610E+03  0.51334820475E+03  0.12699999809E+01 0. -1.
       -4    1    3    3    0  502  0.12731494301E+03  0.36263548144E+03 -0.19242244481E+04  0.19622321287E+04  0.12699999809E+01 0.  1.
</event>
<event>
 5   0  0.2879462E-05  0.1944610E+04  0.7818609E-02  0.8632964E-01
        2   -1    0    0  501    0  0.00000000000E+00  0.00000000000E+00  0.19405682312E+04  0.19405682312E+04  0.25500000920E-02 0. -1.
       -2   -1    0    0    0  501  0.00000000000E+00  0.00000000000E+00 -0.48716502802E+03  0.48716502803E+03  0.25500000920E-02 0.  1.
    10030    2    1    2    0    0  0.00000000000E+00  0.00000000000E+00  0.14534032032E+04  0.24277332592E+04  0.19446099627E+04 0.  0.
        4    1    3    3  502    0 -0.81653504170E+03 -0.48117273193E+03  0.45570423370E+03  0.10516295136E+04  0.12699999809E+01 0. -1.
       -4    1    3    3    0  502  0.81653504170E+03  0.48117273193E+03  0.99769896949E+03  0.13761037457E+04  0.12699999809E+01 0.  1.
</event>
<event>
 5   0  0.2879462E-05  0.1955747E+04  0.7818609E-02  0.8627594E-01
       -2   -1    0    0    0  501  0.00000000000E+00  0.00000000000E+00  0.95441410404E+03  0.95441410404E+03  0.25500000920E-02 0. -1.
        2   -1    0    0  501    0  0.00000000000E+00  0.00000000000E+00 -0.10019096886E+04  0.10019096886E+04  0.25500000920E-02 0.  1.
    10030    2    1    2    0    0  0.00000000000E+00  0.00000000000E+00 -0.47495584538E+02  0.19563237926E+04  0.19557471593E+04 0.  0.
        4    1    3    3  502    0  0.62978038247E+02  0.61175270650E+03 -0.78425316350E+03  0.99662542842E+03  0.12699999809E+01 0.  1.
       -4    1    3    3    0  502 -0.62978038247E+02 -0.61175270650E+03  0.73675757896E+03  0.95969836421E+03  0.12699999809E+01 0. -1.
</event>
<event>
 5   0  0.2855141E-05  0.1902578E+04  0.7818609E-02  0.8653574E-01
        2   -1    0    0  501    0  0.00000000000E+00  0.00000000000E+00  0.13549133881E+04  0.13549133881E+04  0.25500000920E-02 0.  1.
       -2   -1    0    0    0  501  0.00000000000E+00  0.00000000000E+00 -0.66790287894E+03  0.66790287894E+03  0.25500000920E-02 0. -1.
    10030    2    1    2    0    0  0.00000000000E+00  0.00000000000E+00  0.68701050913E+03  0.20228162670E+04  0.19025777804E+04 0.  0.
        1    1    3    3  502    0 -0.50182736155E+01 -0.93353586312E+03  0.53791687757E+03  0.10774362895E+04  0.50400001928E-02 0.  1.
       -1    1    3    3    0  502  0.50182736155E+01  0.93353586312E+03  0.14909363156E+03  0.94537997747E+03  0.50400001928E-02 0. -1.
</event>
<event>
 5   0  0.1471485E-05  0.1904048E+04  0.7818609E-02  0.8652844E-01
       -1   -1    0    0    0  501  0.00000000000E+00  0.00000000000E+00  0.12846868630E+04  0.12846868630E+04  0.50400001928E-02 0.  1.
        1   -1    0    0  501    0  0.00000000000E+00  0.00000000000E+00 -0.70550239266E+03  0.70550239268E+03  0.50400001928E-02 0. -1.
    10030    2    1    2    0    0  0.00000000000E+00  0.00000000000E+00  0.57918447036E+03  0.19901892557E+04  0.19040479571E+04 0.  0.
        4    1    3    3  502    0 -0.18753460249E+03  0.54175382420E+03  0.10840316186E+04  0.12262922148E+04  0.12699999809E+01 0.  1.
       -4    1    3    3    0  502  0.18753460249E+03 -0.54175382420E+03 -0.50484714819E+03  0.76389704091E+03  0.12699999809E+01 0. -1.
</event>
<event>
 5   0  0.1327254E-05  0.1898720E+04  0.7818609E-02  0.8655494E-01
       -1   -1    0    0    0  501  0.00000000000E+00  0.00000000000E+00  0.13518261384E+04  0.13518261384E+04  0.50400001928E-02 0. -1.
        1   -1    0    0  501    0  0.00000000000E+00  0.00000000000E+00 -0.66671614144E+03  0.66671614146E+03  0.50400001928E-02 0.  1.
    10030    2    1    2    0    0  0.00000000000E+00  0.00000000000E+00  0.68510999692E+03  0.20185422798E+04  0.18987198918E+04 0.  0.
        5    1    3    3  502    0  0.23389484090E+03  0.88669446022E+03  0.60367352722E+03  0.10978969350E+04  0.46999998093E+01 0. -1.
       -5    1    3    3    0  502 -0.23389484090E+03 -0.88669446022E+03  0.81436469700E+02  0.92064534484E+03  0.46999998093E+01 0.  1.
</event>
<event>
 5   0  0.2879462E-05  0.1900328E+04  0.7818609E-02  0.8654693E-01
       -2   -1    0    0    0  501  0.00000000000E+00  0.00000000000E+00  0.56404568735E+03  0.56404568735E+03  0.25500000920E-02 0. -1.
        2   -1    0    0  501    0  0.00000000000E+00  0.00000000000E+00 -0.16006004447E+04  0.16006004447E+04  0.25500000920E-02 0.  1.
    10030    2    1    2    0    0  0.00000000000E+00  0.00000000000E+00 -0.10365547574E+04  0.21646461321E+04  0.19003281590E+04 0.  0.
        4    1    3    3  502    0 -0.87799685038E+03 -0.16918235039E+03 -0.88440074260E+03  0.12576435995E+04  0.12699999809E+01 0.  1.
       -4    1    3    3    0  502  0.87799685038E+03  0.16918235039E+03 -0.15215401475E+03  0.90700253255E+03  0.12699999809E+01 0. -1.
</event>
<event>
 5   0  0.2855141E-05  0.1899596E+04  0.7818609E-02  0.8655057E-01
       -2   -1    0    0    0  501  0.00000000000E+00  0.00000000000E+00  0.26706408992E+04  0.26706408992E+04  0.25500000920E-02 0. -1.
        2   -1    0    0  501    0  0.00000000000E+00  0.00000000000E+00 -0.33779025156E+03  0.33779025157E+03  0.25500000920E-02 0.  1.
    10030    2    1    2    0    0  0.00000000000E+00  0.00000000000E+00  0.23328506477E+04  0.30084311508E+04  0.18995962320E+04 0.  0.
        1    1    3    3  502    0 -0.11968285344E+03 -0.88688850334E+03  0.66255979988E+03  0.11134993000E+04  0.50400001928E-02 0.  1.
       -1    1    3    3    0  502  0.11968285344E+03  0.88688850334E+03  0.16702908478E+04  0.18949318507E+04  0.50400001928E-02 0. -1.
</event>
<event>
 5   0  0.2813537E-05  0.1898647E+04  0.7818609E-02  0.8655530E-01
        2   -1    0    0  501    0  0.00000000000E+00  0.00000000000E+00  0.12672484346E+04  0.12672484346E+04  0.25500000920E-02 0.  1.
       -2   -1    0    0    0  501  0.00000000000E+00  0.00000000000E+00 -0.71115869862E+03  0.71115869863E+03  0.25500000920E-02 0. -1.
    10030    2    1    2    0    0  0.00000000000E+00  0.00000000000E+00  0.55608973596E+03  0.19784071332E+04  0.18986466207E+04 0.  0.
        2    1    3    3  502    0 -0.75036314230E+03 -0.48108797946E+03  0.61845548843E+03  0.10848860219E+04  0.25500000920E-02 0.  1.
       -2    1    3    3    0  502  0.75036314230E+03  0.48108797946E+03 -0.62365752473E+02  0.89352111133E+03  0.25500000920E-02 0. -1.
</event>
<event>
 5   0  0.2789718E-05  0.1905435E+04  0.7818609E-02  0.8652156E-01
       -2   -1    0    0    0  501  0.00000000000E+00  0.00000000000E+00  0.90657483756E+03  0.90657483757E+03  0.25500000920E-02 0. -1.
        2   -1    0    0  501    0  0.00000000000E+00  0.00000000000E+00 -0.10012088314E+04  0.10012088314E+04  0.25500000920E-02 0.  1.
    10030    2    1    2    0    0  0.00000000000E+00  0.00000000000E+00 -0.94633993877E+02  0.19077836690E+04  0.19054351038E+04 0.  0.
        5    1    3    3  502    0  0.23091307854E+02 -0.83391113994E+03 -0.50800111080E+03  0.97674367999E+03  0.46999998093E+01 0.  1.
       -5    1    3    3    0  502 -0.23091307854E+02  0.83391113994E+03  0.41336711693E+03  0.93103998903E+03  0.46999998093E+01 0. -1.
</event>
<event>
 5   0  0.2813537E-05  0.1893519E+04  0.7818609E-02  0.8658089E-01
        2   -1    0    0  501    0  0.00000000000E+00  0.00000000000E+00  0.82596277706E+03  0.82596277707E+03  0.25500000920E-02 0. -1.
       -2   -1    0    0    0  501  0.00000000000E+00  0.00000000000E+00 -0.10852232056E+04  0.10852232056E+04  0.25500000920E-02 0.  1.
    10030    2    1    2    0    0  0.00000000000E+00  0.00000000000E+00 -0.25926042856E+03  0.19111859827E+04  0.18935194455E+04 0.  0.
        2    1    3    3  502    0 -0.65785940778E+03 -0.45132615978E+03  0.38491001430E+03  0.88579344207E+03  0.25500000920E-02 0. -1.
       -2    1    3    3    0  502  0.65785940778E+03  0.45132615978E+03 -0.64417044286E+03  0.10253925406E+04  0.25500000920E-02 0.  1.
</event>
<event>
 5   0  0.1429067E-05  0.1901129E+04  0.7818609E-02  0.8654295E-01
        1   -1    0    0  501    0  0.00000000000E+00  0.00000000000E+00  0.80874612548E+03  0.80874612550E+03  0.50400001928E-02 0.  1.
       -1   -1    0    0    0  501  0.00000000000E+00  0.00000000000E+00 -0.11172510010E+04  0.11172510010E+04  0.50400001928E-02 0. -1.
    10030    2    1    2    0    0  0.00000000000E+00  0.00000000000E+00 -0.30850487554E+03  0.19259971265E+04  0.19011285262E+04 0.  0.
        3    1    3    3  502    0 -0.10085376769E+03 -0.18553912191E+03  0.78468079686E+03  0.81260089304E+03  0.10100000352E+00 0.  1.
       -3    1    3    3    0  502  0.10085376769E+03  0.18553912191E+03 -0.10931856724E+04  0.11133962335E+04  0.10100000352E+00 0. -1.
</event>
<event>
 5   0  0.2855141E-05  0.1899995E+04  0.7818609E-02  0.8654859E-01
       -2   -1    0    0    0  501  0.00000000000E+00  0.00000000000E+00  0.85844165334E+03  0.85844165334E+03  0.25500000920E-02 0.  1.
        2   -1    0    0  501    0  0.00000000000E+00  0.00000000000E+00 -0.10513178506E+04  0.10513178506E+04  0.25500000920E-02 0. -1.
    10030    2    1    2    0    0  0.00000000000E+00  0.00000000000E+00 -0.19287619727E+03  0.19097595040E+04  0.18999947725E+04 0.  0.
        1    1    3    3  502    0  0.47116327846E+03 -0.15702439314E+02  0.73257560329E+03  0.87115349745E+03  0.50400001928E-02 0.  1.
       -1    1    3    3    0  502 -0.47116327846E+03  0.15702439314E+02 -0.92545180055E+03  0.10386060065E+04  0.50400001928E-02 0. -1.
</event>
<event>
 5   0  0.1344119E-05  0.1900843E+04  0.7818609E-02  0.8654437E-01
       -1   -1    0    0    0  501  0.00000000000E+00  0.00000000000E+00  0.65048543863E+03  0.65048543865E+03  0.50400001928E-02 0. -1.
        1   -1    0    0  501    0  0.00000000000E+00  0.00000000000E+00 -0.13886562154E+04  0.13886562154E+04  0.50400001928E-02 0.  1.
    10030    2    1    2    0    0  0.00000000000E+00  0.00000000000E+00 -0.73817077675E+03  0.20391416540E+04  0.19008425999E+04 0.  0.
        2    1    3    3  502    0  0.41697240948E+03 -0.80737272857E+03 -0.70280884548E+02  0.91140337713E+03  0.25500000920E-02 0.  1.
       -2    1    3    3    0  502 -0.41697240948E+03  0.80737272857E+03 -0.66788989221E+03  0.11277382769E+04  0.25500000920E-02 0. -1.
</event>
<event>
 5   0  0.1471485E-05  0.1904165E+04  0.7818609E-02  0.8652786E-01
        1   -1    0    0  501    0  0.00000000000E+00  0.00000000000E+00  0.54775075542E+03  0.54775075544E+03  0.50400001928E-02 0. -1.
       -1   -1    0    0    0  501  0.00000000000E+00  0.00000000000E+00 -0.16548780412E+04  0.16548780412E+04  0.50400001928E-02 0.  1.
    10030    2    1    2    0    0  0.00000000000E+00  0.00000000000E+00 -0.11071272858E+04  0.22026287967E+04  0.19041645908E+04 0.  0.
        4    1    3    3  502    0  0.53249137235E+03  0.74795190240E+03 -0.26211958887E+03  0.95482323060E+03  0.12699999809E+01 0. -1.
       -4    1    3    3    0  502 -0.53249137235E+03 -0.74795190240E+03 -0.84500769692E+03  0.12478055661E+04  0.12699999809E+01 0.  1.
</event>
<event>
 5   0  0.2888776E-05  0.1896013E+04  0.7818609E-02  0.8656843E-01
       -2   -1    0    0    0  501  0.00000000000E+00  0.00000000000E+00  0.95720475949E+03  0.95720475949E+03  0.25500000920E-02 0.  1.
        2   -1    0    0  501    0  0.00000000000E+00  0.00000000000E+00 -0.93889668151E+03  0.93889668151E+03  0.25500000920E-02 0. -1.
    10030    2    1    2    0    0  0.00000000000E+00  0.00000000000E+00  0.18308077980E+02  0.18961014410E+04  0.18960130508E+04 0.  0.
        3    1    3    3  502    0  0.75407877464E+03 -0.57289879409E+03  0.52382612753E+02  0.94846812016E+03  0.10100000352E+00 0.  1.
       -3    1    3    3    0  502 -0.75407877464E+03  0.57289879409E+03 -0.34074534773E+02  0.94763332084E+03  0.10100000352E+00 0. -1.
</event>
<event>
 5   0  0.2789718E-05  0.1899608E+04  0.7818609E-02  0.8655052E-01
       -2   -1    0    0    0  501  0.00000000000E+00  0.00000000000E+00  0.12551723481E+04  0.12551723481E+04  0.25500000920E-02 0.  1.
        2   -1    0    0  501    0  0.00000000000E+00  0.00000000000E+00 -0.71872795156E+03  0.71872795157E+03  0.25500000920E-02 0. -1.
    10030    2    1    2    0    0  0.00000000000E+00  0.00000000000E+00  0.53644439655E+03  0.19739002997E+04  0.18996078023E+04 0.  0.
        5    1    3    3  502    0  0.88722356485E+03 -0.28111827491E+03  0.46513883406E+03  0.10404659358E+04  0.46999998093E+01 0. -1.
       -5    1    3    3    0  502 -0.88722356485E+03  0.28111827491E+03  0.71305562497E+02  0.93343436393E+03  0.46999998093E+01 0.  1.
</event>
<event>
 5   0  0.2789718E-05  0.1896466E+04  0.7818609E-02  0.8656618E-01
        2   -1    0    0  501    0  0.00000000000E+00  0.00000000000E+00  0.16669564123E+04  0.16669564123E+04  0.25500000920E-02 0.  1.
       -2   -1    0    0    0  501  0.00000000000E+00  0.00000000000E+00 -0.53939344548E+03  0.53939344549E+03  0.25500000920E-02 0. -1.
    10030    2    1    2    0    0  0.00000000000E+00  0.00000000000E+00  0.11275629668E+04  0.22063498578E+04  0.18964655153E+04 0.  0.
        5    1    3    3  502    0 -0.32735433168E+03  0.17390170251E+03  0.15791583926E+04  0.16220869211E+04  0.46999998093E+01 0.  1.
       -5    1    3    3    0  502  0.32735433168E+03 -0.17390170251E+03 -0.45159542580E+03  0.58426293670E+03  0.46999998093E+01 0. -1.
</event>
<event>
 5   0  0.2855141E-05  0.1898859E+04  0.7818609E-02  0.8655425E-01
       -2   -1    0    0    0  501  0.00000000000E+00  0.00000000000E+00  0.50659854874E+03  0.50659854874E+03  0.25500000920E-02 0. -1.
        2   -1    0    0  501    0  0.00000000000E+00  0.00000000000E+00 -0.17793496128E+04  0.17793496128E+04  0.25500000920E-02 0.  1.
    10030    2    1    2    0    0  0.00000000000E+00  0.00000000000E+00 -0.12727510641E+04  0.22859481616E+04  0.18988585325E+04 0.  0.
        1    1    3    3  502    0 -0.13224730422E+03 -0.79083004351E+02 -0.17641960803E+04  0.17709125560E+04  0.50400001928E-02 0.  1.
       -1    1    3    3    0  502  0.13224730422E+03  0.79083004351E+02  0.49144501622E+03  0.51503560561E+03  0.50400001928E-02 0. -1.
</event>
<event>
 5   0  0.1413011E-05  0.1898644E+04  0.7818609E-02  0.8655532E-01
       -1   -1    0    0    0  501  0.00000000000E+00  0.00000000000E+00  0.17110962619E+04  0.17110962619E+04  0.50400001928E-02 0. -1.
        1   -1    0    0  501    0  0.00000000000E+00  0.00000000000E+00 -0.52668717709E+03  0.52668717712E+03  0.50400001928E-02 0.  1.
    10030    2    1    2    0    0  0.00000000000E+00  0.00000000000E+00  0.11844090848E+04  0.22377834390E+04  0.18986442109E+04 0.  0.
        1    1    3    3  502    0  0.76595513350E+03  0.38877830687E+03  0.11580709974E+03  0.86674513140E+03  0.50400001928E-02 0.  1.
       -1    1    3    3    0  502 -0.76595513350E+03 -0.38877830687E+03  0.10686019850E+04  0.13710383076E+04  0.50400001928E-02 0. -1.
</event>
<event>
 5   0  0.1010725E-05  0.1901847E+04  0.7818609E-02  0.8653938E-01
       -3   -1    0    0    0  501  0.00000000000E+00  0.00000000000E+00  0.10299136123E+04  0.10299136173E+04  0.10100000352E+00 0. -1.
        3   -1    0    0  501    0  0.00000000000E+00  0.00000000000E+00 -0.87799149574E+03  0.87799150155E+03  0.10100000352E+00 0.  1.
    10030    2    1    2    0    0  0.00000000000E+00  0.00000000000E+00  0.15192211660E+03  0.19079051188E+04  0.19018468952E+04 0.  0.
        1    1    3    3  502    0  0.26280438208E+03  0.40197195290E+03  0.89931160444E+03  0.10195140784E+04  0.50400001928E-02 0. -1.
       -1    1    3    3    0  502 -0.26280438208E+03 -0.40197195290E+03 -0.74738948784E+03  0.88839104043E+03  0.50400001928E-02 0.  1.
</event>
<event>
 5   0  0.2789718E-05  0.1903621E+04  0.7818609E-02  0.8653056E-01
       -2   -1    0    0    0  501  0.00000000000E+00  0.00000000000E+00  0.57266635929E+03  0.57266635930E+03  0.25500000920E-02 0. -1.
        2   -1    0    0  501    0  0.00000000000E+00  0.00000000000E+00 -0.15819732176E+04  0.15819732177E+04  0.25500000920E-02 0.  1.
    10030    2    1    2    0    0  0.00000000000E+00  0.00000000000E+00 -0.10093068584E+04  0.21546395770E+04  0.19036205957E+04 0.  0.
        5    1    3    3  502    0 -0.43100597129E+02  0.48582224203E+03  0.42046092559E+03  0.64396458930E+03  0.46999998093E+01 0. -1.
       -5    1    3    3    0  502  0.43100597129E+02 -0.48582224203E+03 -0.14297677839E+04  0.15106749877E+04  0.46999998093E+01 0.  1.
</event>
<event>
 5   0  0.2813537E-05  0.1899618E+04  0.7818609E-02  0.8655047E-01
       -2   -1    0    0    0  501  0.00000000000E+00  0.00000000000E+00  0.15221819184E+04  0.15221819184E+04  0.25500000920E-02 0. -1.
        2   -1    0    0  501    0  0.00000000000E+00  0.00000000000E+00 -0.59266038143E+03  0.59266038143E+03  0.25500000920E-02 0.  1.
    10030    2    1    2    0    0  0.00000000000E+00  0.00000000000E+00  0.92952153693E+03  0.21148422998E+04  0.18996177682E+04 0.  0.
        2    1    3    3  502    0 -0.35688634355E+03  0.19615879287E+03 -0.49053190481E+03  0.63754818161E+03  0.25500000920E-02 0.  1.
       -2    1    3    3    0  502  0.35688634355E+03 -0.19615879287E+03  0.14200534417E+04  0.14772941182E+04  0.25500000920E-02 0. -1.
</event>
<event>
 5   0  0.2888776E-05  0.1894780E+04  0.7818609E-02  0.8657459E-01
        2   -1    0    0  501    0  0.00000000000E+00  0.00000000000E+00  0.38491918007E+03  0.38491918008E+03  0.25500000920E-02 0.  1.
       -2   -1    0    0    0  501  0.00000000000E+00  0.00000000000E+00 -0.23317835735E+04  0.23317835735E+04  0.25500000920E-02 0. -1.
    10030    2    1    2    0    0  0.00000000000E+00  0.00000000000E+00 -0.19468643934E+04  0.27167027536E+04  0.18947804318E+04 0.  0.
        3    1    3    3  502    0  0.53409940544E+03  0.74787850594E+03 -0.13034008650E+04  0.15948160583E+04  0.10100000352E+00 0. -1.
       -3    1    3    3    0  502 -0.53409940544E+03 -0.74787850594E+03 -0.64346352841E+03  0.11218866953E+04  0.10100000352E+00 0.  1.
</event>
<event>
 5   0  0.1413011E-05  0.1908716E+04  0.7818609E-02  0.8650530E-01
        1   -1    0    0  501    0  0.00000000000E+00  0.00000000000E+00  0.16952556054E+04  0.16952556054E+04  0.50400001928E-02 0. -1.
       -1   -1    0    0    0  501  0.00000000000E+00  0.00000000000E+00 -0.53726367646E+03  0.53726367648E+03  0.50400001928E-02 0.  1.
    10030    2    1    2    0    0  0.00000000000E+00  0.00000000000E+00  0.11579919290E+04  0.22325192819E+04  0.19087160702E+04 0.  0.
        1    1    3    3  502    0  0.59443193015E+03 -0.22172871061E+03  0.14128846831E+04  0.15487918093E+04  0.50400001928E-02 0. -1.
       -1    1    3    3    0  502 -0.59443193015E+03  0.22172871061E+03 -0.25489275415E+03  0.68372747263E+03  0.50400001928E-02 0.  1.
</event>
<event>
 5   0  0.2888776E-05  0.1898801E+04  0.7818609E-02  0.8655453E-01
       -2   -1    0    0    0  501  0.00000000000E+00  0.00000000000E+00  0.41858169140E+03  0.41858169141E+03  0.25500000920E-02 0. -1.
        2   -1    0    0  501    0  0.00000000000E+00  0.00000000000E+00 -0.21533702393E+04  0.21533702393E+04  0.25500000920E-02 0.  1.
    10030    2    1    2    0    0  0.00000000000E+00  0.00000000000E+00 -0.17347885479E+04  0.25719519307E+04  0.18988010501E+04 0.  0.
        3    1    3    3  502    0 -0.23056457654E+02 -0.16773495629E+03  0.39796706494E+03  0.43248631282E+03  0.10100000352E+00 0. -1.
       -3    1    3    3    0  502  0.23056457654E+02  0.16773495629E+03 -0.21327556128E+04  0.21394656179E+04  0.10100000352E+00 0.  1.
</event>
<event>
 5   0  0.2789718E-05  0.1911020E+04  0.7818609E-02  0.8649391E-01
       -2   -1    0    0    0  501  0.00000000000E+00  0.00000000000E+00  0.88337519886E+03  0.88337519886E+03  0.25500000920E-02 0.  1.
        2   -1    0    0  501    0  0.00000000000E+00  0.00000000000E+00 -0.10335347564E+04  0.10335347564E+04  0.25500000920E-02 0. -1.
    10030    2    1    2    0    0  0.00000000000E+00  0.00000000000E+00 -0.15015955753E+03  0.19169099552E+04  0.19110195927E+04 0.  0.
        5    1    3    3  502    0 -0.74187436789E+03  0.41655813215E+02  0.52749147663E+03  0.91125305620E+03  0.46999998093E+01 0. -1.
       -5    1    3    3    0  502  0.74187436789E+03 -0.41655813215E+02 -0.67765103416E+03  0.10056568990E+04  0.46999998093E+01 0.  1.
</event>
<event>
 5   0  0.1413011E-05  0.1879740E+04  0.7818609E-02  0.8665007E-01
       -1   -1    0    0    0  501  0.00000000000E+00  0.00000000000E+00  0.12430915805E+04  0.12430915806E+04  0.50400001928E-02 0. -1.
        1   -1    0    0  501    0  0.00000000000E+00  0.00000000000E+00 -0.71061171214E+03  0.71061171216E+03  0.50400001928E-02 0.  1.
    10030    2    1    2    0    0  0.00000000000E+00  0.00000000000E+00  0.53247986840E+03  0.19537032927E+04  0.18797398080E+04 0.  0.
        1    1    3    3  502    0 -0.46150338436E+03 -0.73764136132E+03 -0.10306546112E+03  0.87619783212E+03  0.50400001928E-02 0. -1.
       -1    1    3    3    0  502  0.46150338436E+03  0.73764136132E+03  0.63554532952E+03  0.10775054606E+04  0.50400001928E-02 0.  1.
</event>
<event>
 5   0  0.1344119E-05  0.1894486E+04  0.7818609E-02  0.8657606E-01
        1   -1    0    0  501    0  0.00000000000E+00  0.00000000000E+00  0.27362063274E+04  0.27362063274E+04  0.50400001928E-02 0. -1.
       -1   -1    0    0    0  501  0.00000000000E+00  0.00000000000E+00 -0.32792446874E+03  0.32792446878E+03  0.50400001928E-02 0.  1.
    10030    2    1    2    0    0  0.00000000000E+00  0.00000000000E+00  0.24082818586E+04  0.30641307962E+04  0.18944856889E+04 0.  0.
        2    1    3    3  502    0  0.24200843165E+03  0.24164228586E+01  0.26853556520E+04  0.26962397701E+04  0.25500000920E-02 0. -1.
       -2    1    3    3    0  502 -0.24200843165E+03 -0.24164228586E+01 -0.27707379336E+03  0.36789102607E+03  0.25500000920E-02 0.  1.
</event>
<event>
 5   0  0.2879462E-05  0.1899891E+04  0.7818609E-02  0.8654911E-01
        2   -1    0    0  501    0  0.00000000000E+00  0.00000000000E+00  0.19405080613E+04  0.19405080613E+04  0.25500000920E-02 0. -1.
       -2   -1    0    0    0  501  0.00000000000E+00  0.00000000000E+00 -0.46503111934E+03  0.46503111935E+03  0.25500000920E-02 0.  1.
    10030    2    1    2    0    0  0.00000000000E+00  0.00000000000E+00  0.14754769419E+04  0.24055391806E+04  0.18998911925E+04 0.  0.
        4    1    3    3  502    0 -0.17465896676E+03 -0.31181141629E+03 -0.37665892002E+03  0.51923565838E+03  0.12699999809E+01 0.  1.
       -4    1    3    3    0  502  0.17465896676E+03  0.31181141629E+03  0.18521358619E+04  0.18863035222E+04  0.12699999809E+01 0. -1.
</event>
<event>
 5   0  0.2879462E-05  0.1909343E+04  0.7818609E-02  0.8650220E-01
        2   -1    0    0  501    0  0.00000000000E+00  0.00000000000E+00  0.76352137446E+03  0.76352137446E+03  0.25500000920E-02 0. -1.
       -2   -1    0    0    0  501  0.00000000000E+00  0.00000000000E+00 -0.11936762482E+04  0.11936762482E+04  0.25500000920E-02 0.  1.
    10030    2    1    2    0    0  0.00000000000E+00  0.00000000000E+00 -0.43015487379E+03  0.19571976227E+04  0.19093426405E+04 0.  0.
        4    1    3    3  502    0  0.58110505992E+03 -0.19903069069E+02 -0.99123166238E+03  0.11491827723E+04  0.12699999809E+01 0.  1.
       -4    1    3    3    0  502 -0.58110505992E+03  0.19903069069E+02  0.56107678859E+03  0.80801485037E+03  0.12699999809E+01 0. -1.
</event>
<event>
 5   0  0.2813537E-05  0.1914538E+04  0.7818609E-02  0.8647653E-01
        2   -1    0    0  501    0  0.00000000000E+00  0.00000000000E+00  0.14567684327E+04  0.14567684327E+04  0.25500000920E-02 0.  1.
       -2   -1    0    0    0  501  0.00000000000E+00  0.00000000000E+00 -0.62903891724E+03  0.62903891724E+03  0.25500000920E-02 0. -1.
    10030    2    1    2    0    0  0.00000000000E+00  0.00000000000E+00  0.82772951544E+03  0.20858073499E+04  0.19145381036E+04 0.  0.
        2    1    3    3  502    0 -0.87697428347E+03  0.26363592075E+03  0.71769686453E+03  0.11634760771E+04  0.25500000920E-02 0.  1.
       -2    1    3    3    0  502  0.87697428347E+03 -0.26363592075E+03  0.11003265091E+03  0.92233127284E+03  0.25500000920E-02 0. -1.
</event>
<event>
 5   0  0.2855141E-05  0.1896794E+04  0.7818609E-02  0.8656454E-01
        2   -1    0    0  501    0  0.00000000000E+00  0.00000000000E+00  0.99301611688E+03  0.99301611689E+03  0.25500000920E-02 0.  1.
       -2   -1    0    0    0  501  0.00000000000E+00  0.00000000000E+00 -0.90578233127E+03  0.90578233127E+03  0.25500000920E-02 0. -1.
    10030    2    1    2    0    0  0.00000000000E+00  0.00000000000E+00  0.87233785614E+02  0.18987984482E+04  0.18967935611E+04 0.  0.
        1    1    3    3  502    0  0.14806719213E+03  0.84386263481E+03 -0.36354193351E+03  0.93069370755E+03  0.50400001928E-02 0. -1.
       -1    1    3    3    0  502 -0.14806719213E+03 -0.84386263481E+03  0.45077571912E+03  0.96810474061E+03  0.50400001928E-02 0.  1.
</event>
<event>
 5   0  0.2879462E-05  0.1900095E+04  0.7818609E-02  0.8654809E-01
       -2   -1    0    0    0  501  0.00000000000E+00  0.00000000000E+00  0.96781152016E+03  0.96781152016E+03  0.25500000920E-02 0.  1.
        2   -1    0    0  501    0  0.00000000000E+00  0.00000000000E+00 -0.93260927675E+03  0.93260927676E+03  0.25500000920E-02 0. -1.
    10030    2    1    2    0    0  0.00000000000E+00  0.00000000000E+00  0.35202243407E+02  0.19004207969E+04  0.19000947364E+04 0.  0.
        4    1    3    3  502    0  0.18578625205E+03  0.34219258865E+03 -0.84913635310E+03  0.93415547862E+03  0.12699999809E+01 0. -1.
       -4    1    3    3    0  502 -0.18578625205E+03 -0.34219258865E+03  0.88433859651E+03  0.96626531830E+03  0.12699999809E+01 0.  1.
</event>
<event>
 5   0  0.2789718E-05  0.1904002E+04  0.7818609E-02  0.8652867E-01
        2   -1    0    0  501    0  0.00000000000E+00  0.00000000000E+00  0.18619389773E+04  0.18619389773E+04  0.25500000920E-02 0.  1.
       -2   -1    0    0    0  501  0.00000000000E+00  0.00000000000E+00 -0.48675378145E+03  0.48675378145E+03  0.25500000920E-02 0. -1.
    10030    2    1    2    0    0  0.00000000000E+00  0.00000000000E+00  0.13751851958E+04  0.23486927587E+04  0.19040019307E+04 0.  0.
        5    1    3    3  502    0  0.62260815815E+03  0.15802734978E+03  0.15543095168E+04  0.16818185770E+04  0.46999998093E+01 0.  1.
       -5    1    3    3    0  502 -0.62260815815E+03 -0.15802734978E+03 -0.17912432100E+03  0.66687418172E+03  0.46999998093E+01 0. -1.
</event>
<event>
 5   0  0.1429067E-05  0.1905676E+04  0.7818609E-02  0.8652036E-01
        1   -1    0    0  501    0  0.00000000000E+00  0.00000000000E+00  0.18931676738E+04  0.18931676738E+04  0.50400001928E-02 0. -1.
       -1   -1    0    0    0  501  0.00000000000E+00  0.00000000000E+00 -0.47956658473E+03  0.47956658475E+03  0.50400001928E-02 0.  1.
    10030    2    1    2    0    0  0.00000000000E+00  0.00000000000E+00  0.14136010891E+04  0.23727342586E+04  0.19056756867E+04 0.  0.
        3    1    3    3  502    0  0.38613311980E+03 -0.63344204721E+02  0.17885154005E+04  0.18308191125E+04  0.10100000352E+00 0. -1.
       -3    1    3    3    0  502 -0.38613311980E+03  0.63344204721E+02 -0.37491431143E+03  0.54191514612E+03  0.10100000352E+00 0.  1.
</event>
<event>
 5   0  0.1429067E-05  0.1889331E+04  0.7818609E-02  0.8660185E-01
       -1   -1    0    0    0  501  0.00000000000E+00  0.00000000000E+00  0.10235002814E+04  0.10235002814E+04  0.50400001928E-02 0.  1.
        1   -1    0    0  501    0  0.00000000000E+00  0.00000000000E+00 -0.87190327507E+03  0.87190327508E+03  0.50400001928E-02 0. -1.
    10030    2    1    2    0    0  0.00000000000E+00  0.00000000000E+00  0.15159700633E+03  0.18954035565E+04  0.18893313605E+04 0.  0.
        3    1    3    3  502    0  0.26169733808E+03 -0.90509027783E+02 -0.83027412331E+03  0.87523283240E+03  0.10100000352E+00 0. -1.
       -3    1    3    3    0  502 -0.26169733808E+03  0.90509027783E+02  0.98187112964E+03  0.10201707241E+04  0.10100000352E+00 0.  1.
</event>
<event>
 5   0  0.1471485E-05  0.1901681E+04  0.7818609E-02  0.8654020E-01
        1   -1    0    0  501    0  0.00000000000E+00  0.00000000000E+00  0.15782626865E+04  0.15782626865E+04  0.50400001928E-02 0. -1.
       -1   -1    0    0    0  501  0.00000000000E+00  0.00000000000E+00 -0.57284385038E+03  0.57284385040E+03  0.50400001928E-02 0.  1.
    10030    2    1    2    0    0  0.00000000000E+00  0.00000000000E+00  0.10054188361E+04  0.21511065369E+04  0.19016814394E+04 0.  0.
        4    1    3    3  502    0  0.16359035674E+02  0.11626417582E+03  0.15700306285E+04  0.15744150546E+04  0.12699999809E+01 0. -1.
       -4    1    3    3    0  502 -0.16359035674E+02 -0.11626417582E+03 -0.56461179248E+03  0.57669148228E+03  0.12699999809E+01 0.  1.
</event>
<event>
 5   0  0.1413011E-05  0.1902199E+04  0.7818609E-02  0.8653763E-01
        1   -1    0    0  501    0  0.00000000000E+00  0.00000000000E+00  0.22648336153E+04  0.22648336153E+04  0.50400001928E-02 0. -1.
       -1   -1    0    0    0  501  0.00000000000E+00  0.00000000000E+00 -0.39940686069E+03  0.39940686072E+03  0.50400001928E-02 0.  1.
    10030    2    1    2    0    0  0.00000000000E+00  0.00000000000E+00  0.18654267546E+04  0.26642404760E+04  0.19021988165E+04 0.  0.
        1    1    3    3  502    0  0.84824624534E+03 -0.13384311077E+02  0.15349585774E+04  0.17537955031E+04  0.50400001928E-02 0.  1.
       -1    1    3    3    0  502 -0.84824624534E+03  0.13384311077E+02  0.33046817725E+03  0.91044497292E+03  0.50400001928E-02 0. -1.
</event>
<event>
 5   0  0.2855141E-05  0.1891494E+04  0.7818609E-02  0.8659102E-01
        2   -1    0    0  501    0  0.00000000000E+00  0.00000000000E+00  0.10187824242E+04  0.10187824242E+04  0.25500000920E-02 0.  1.
       -2   -1    0    0    0  501  0.00000000000E+00  0.00000000000E+00 -0.87794696711E+03  0.87794696711E+03  0.25500000920E-02 0. -1.
    10030    2    1    2    0    0  0.00000000000E+00  0.00000000000E+00  0.14083545713E+03  0.18967293914E+04  0.18914935258E+04 0.  0.
        1    1    3    3  502    0 -0.15292838429E+03  0.57487066088E+03 -0.66685457549E+03  0.89362094444E+03  0.50400001928E-02 0. -1.
       -1    1    3    3    0  502  0.15292838429E+03 -0.57487066088E+03  0.80769003263E+03  0.10031084469E+04  0.50400001928E-02 0.  1.
</event>
<event>
 5   0  0.2879462E-05  0.1899265E+04  0.7818609E-02  0.8655222E-01
       -2   -1    0    0    0  501  0.00000000000E+00  0.00000000000E+00  0.11298365506E+04  0.11298365506E+04  0.25500000920E-02 0.  1.
        2   -1    0    0  501    0  0.00000000000E+00  0.00000000000E+00 -0.79817056655E+03  0.79817056655E+03  0.25500000920E-02 0. -1.
    10030    2    1    2    0    0  0.00000000000E+00  0.00000000000E+00  0.33166598410E+03  0.19280071172E+04  0.18992654156E+04 0.  0.
        4    1    3    3  502    0 -0.67344450017E+03  0.20859534697E+03  0.81166919327E+03  0.10751037186E+04  0.12699999809E+01 0. -1.
       -4    1    3    3    0  502  0.67344450017E+03 -0.20859534697E+03 -0.48000320917E+03  0.85290339858E+03  0.12699999809E+01 0.  1.
</event>
<event>
 5   0  0.2813537E-05  0.1898731E+04  0.7818609E-02  0.8655488E-01
       -2   -1    0    0    0  501  0.00000000000E+00  0.00000000000E+00  0.52766426432E+03  0.52766426432E+03  0.25500000920E-02 0.  1.
        2   -1    0    0  501    0  0.00000000000E+00  0.00000000000E+00 -0.17080839138E+04  0.17080839138E+04  0.25500000920E-02 0. -1.
    10030    2    1    2    0    0  0.00000000000E+00  0.00000000000E+00 -0.11804196495E+04  0.22357481781E+04  0.18987309886E+04 0.  0.
        2    1    3    3  502    0 -0.20145360713E+03  0.54436816306E+03 -0.14748021615E+04  0.15849169279E+04  0.25500000920E-02 0. -1.
       -2    1    3    3    0  502  0.20145360713E+03 -0.54436816306E+03  0.29438251207E+03  0.65083125017E+03  0.25500000920E-02 0.  1.
</event>
<event>
 5   0  0.1010725E-05  0.1902053E+04  0.7818609E-02  0.8653835E-01
        3   -1    0    0  501    0  0.00000000000E+00  0.00000000000E+00  0.81910402806E+03  0.81910403429E+03  0.10100000352E+00 0. -1.
       -3   -1    0    0    0  501  0.00000000000E+00  0.00000000000E+00 -0.11041960285E+04  0.11041960332E+04  0.10100000352E+00 0.  1.
    10030    2    1    2    0    0  0.00000000000E+00  0.00000000000E+00 -0.28509200048E+03  0.19233000675E+04  0.19020530226E+04 0.  0.
        2    1    3    3  502    0  0.13092018499E+03 -0.94052451071E+03 -0.19533041314E+03  0.96947430105E+03  0.25500000920E-02 0. -1.
       -2    1    3    3    0  502 -0.13092018499E+03  0.94052451071E+03 -0.89761587344E+02  0.95382576641E+03  0.25500000920E-02 0.  1.
</event>
<event>
 5   0  0.1429067E-05  0.1897231E+04  0.7818609E-02  0.8656236E-01
       -1   -1    0    0    0  501  0.00000000000E+00  0.00000000000E+00  0.41050152671E+03  0.41050152674E+03  0.50400001928E-02 0.  1.
        1   -1    0    0  501    0  0.00000000000E+00  0.00000000000E+00 -0.21921269721E+04  0.21921269721E+04  0.50400001928E-02 0. -1.
    10030    2    1    2    0    0  0.00000000000E+00  0.00000000000E+00 -0.17816254454E+04  0.26026284989E+04  0.18972311075E+04 0.  0.
        3    1    3    3  502    0 -0.57666234355E+03 -0.39252283584E+03 -0.89469514748E+01  0.69763435500E+03  0.10100000352E+00 0.  1.
       -3    1    3    3    0  502  0.57666234355E+03  0.39252283584E+03 -0.17726784940E+04  0.19049941439E+04  0.10100000352E+00 0. -1.
</event>
<event>
 5   0  0.2855141E-05  0.1906608E+04  0.7818609E-02  0.8651574E-01
       -2   -1    0    0    0  501  0.00000000000E+00  0.00000000000E+00  0.85233560588E+03  0.85233560588E+03  0.25500000920E-02 0.  1.
        2   -1    0    0  501    0  0.00000000000E+00  0.00000000000E+00 -0.10662335246E+04  0.10662335246E+04  0.25500000920E-02 0. -1.
    10030    2    1    2    0    0  0.00000000000E+00  0.00000000000E+00 -0.21389791871E+03  0.19185691305E+04  0.19066082945E+04 0.  0.
        1    1    3    3  502    0  0.88084565146E+03 -0.36261330391E+03 -0.14475227091E+03  0.96349919036E+03  0.50400001928E-02 0. -1.
       -1    1    3    3    0  502 -0.88084565146E+03  0.36261330391E+03 -0.69145647802E+02  0.95506994011E+03  0.50400001928E-02 0.  1.
</event>
<event>
 5   0  0.1471485E-05  0.1902115E+04  0.7818609E-02  0.8653804E-01
        1   -1    0    0  501    0  0.00000000000E+00  0.00000000000E+00  0.15689219608E+04  0.15689219608E+04  0.50400001928E-02 0. -1.
       -1   -1    0    0    0  501  0.00000000000E+00  0.00000000000E+00 -0.57651732735E+03  0.57651732738E+03  0.50400001928E-02 0.  1.
    10030    2    1    2    0    0  0.00000000000E+00  0.00000000000E+00  0.99240463344E+03  0.21454392882E+04  0.19021153442E+04 0.  0.
        4    1    3    3  502    0 -0.50682257792E+02 -0.46138535777E+03 -0.44008500550E+03  0.63962611312E+03  0.12699999809E+01 0.  1.
       -4    1    3    3    0  502  0.50682257792E+02  0.46138535777E+03  0.14324896389E+04  0.15058131751E+04  0.12699999809E+01 0. -1.
</event>
<event>
 5   0  0.1429067E-05  0.1903505E+04  0.7818609E-02  0.8653114E-01
       -1   -1    0    0    0  501  0.00000000000E+00  0.00000000000E+00  0.11068586865E+04  0.11068586865E+04  0.50400001928E-02 0. -1.
        1   -1    0    0  501    0  0.00000000000E+00  0.00000000000E+00 -0.81838137287E+03  0.81838137289E+03  0.50400001928E-02 0.  1.
    10030    2    1    2    0    0  0.00000000000E+00  0.00000000000E+00  0.28847731358E+03  0.19252400593E+04  0.19035046955E+04 0.  0.
        3    1    3    3  502    0 -0.17937566288E+03 -0.31686508158E+03 -0.74515056068E+03  0.82935425280E+03  0.10100000352E+00 0.  1.
       -3    1    3    3    0  502  0.17937566288E+03  0.31686508158E+03  0.10336278743E+04  0.10958858066E+04  0.10100000352E+00 0. -1.
</event>
<event>
 5   0  0.1413011E-05  0.1901438E+04  0.7818609E-02  0.8654141E-01
        1   -1    0    0  501    0  0.00000000000E+00  0.00000000000E+00  0.68621570985E+03  0.68621570986E+03  0.50400001928E-02 0.  1.
       -1   -1    0    0    0  501  0.00000000000E+00  0.00000000000E+00 -0.13171758697E+04  0.13171758697E+04  0.50400001928E-02 0. -1.
    10030    2    1    2    0    0  0.00000000000E+00  0.00000000000E+00 -0.63096015982E+03  0.20033915795E+04  0.19014381656E+04 0.  0.
        1    1    3    3  502    0  0.66687922274E+03 -0.20591600364E+03  0.36468591559E+03  0.78748023171E+03  0.50400001928E-02 0.  1.
       -1    1    3    3    0  502 -0.66687922274E+03  0.20591600364E+03 -0.99564607541E+03  0.12159113478E+04  0.50400001928E-02 0. -1.
</event>
<event>
 5   0  0.1010725E-05  0.1899503E+04  0.7818609E-02  0.8655104E-01
       -3   -1    0    0    0  501  0.00000000000E+00  0.00000000000E+00  0.16954522196E+04  0.16954522226E+04  0.10100000352E+00 0. -1.
        3   -1    0    0  501    0  0.00000000000E+00  0.00000000000E+00 -0.53202784565E+03  0.53202785524E+03  0.10100000352E+00 0.  1.
    10030    2    1    2    0    0  0.00000000000E+00  0.00000000000E+00  0.11634243740E+04  0.22274800779E+04  0.18995028885E+04 0.  0.
        2    1    3    3  502    0 -0.35591737629E+03  0.48543414141E+03  0.14432053158E+04  0.15637023592E+04  0.25500000920E-02 0. -1.
       -2    1    3    3    0  502  0.35591737629E+03 -0.48543414141E+03 -0.27978094188E+03  0.66377771870E+03  0.25500000920E-02 0.  1.
</event>
<event>
 5   0  0.1429067E-05  0.1901079E+04  0.7818609E-02  0.8654319E-01
        1   -1    0    0  501    0  0.00000000000E+00  0.00000000000E+00  0.78610056075E+03  0.78610056076E+03  0.50400001928E-02 0.  1.
       -1   -1    0    0    0  501  0.00000000000E+00  0.00000000000E+00 -0.11493766233E+04  0.11493766233E+04  0.50400001928E-02 0. -1.
    10030    2    1    2    0    0  0.00000000000E+00  0.00000000000E+00 -0.36327606252E+03  0.19354771840E+04  0.19010792809E+04 0.  0.
        3    1    3    3  502    0 -0.25244142007E+03 -0.41151118711E+03  0.65199217828E+03  0.81127180305E+03  0.10100000352E+00 0.  1.
       -3    1    3    3    0  502  0.25244142007E+03  0.41151118711E+03 -0.10152682408E+04  0.11242053810E+04  0.10100000352E+00 0. -1.
</event>
<event>
 5   0  0.2879462E-05  0.1900741E+04  0.7818609E-02  0.8654487E-01
       -2   -1    0    0    0  501  0.00000000000E+00  0.00000000000E+00  0.14944658840E+04  0.14944658840E+04  0.25500000920E-02 0.  1.
        2   -1    0    0  501    0  0.00000000000E+00  0.00000000000E+00 -0.60436600335E+03  0.60436600336E+03  0.25500000920E-02 0. -1.
    10030    2    1    2    0    0  0.00000000000E+00  0.00000000000E+00  0.89009988067E+03  0.20988318874E+04  0.19007413012E+04 0.  0.
        4    1    3    3  502    0  0.38888967558E+03  0.43731029480E+03 -0.38180721237E+03  0.69875162542E+03  0.12699999809E+01 0. -1.
       -4    1    3    3    0  502 -0.38888967558E+03 -0.43731029480E+03  0.12719070930E+04  0.14000802620E+04  0.12699999809E+01 0.  1.
</event>
<event>
 5   0  0.2855141E-05  0.1899681E+04  0.7818609E-02  0.8655015E-01
        2   -1    0    0  501    0  0.00000000000E+00  0.00000000000E+00  0.85402437959E+03  0.85402437960E+03  0.25500000920E-02 0.  1.
       -2   -1    0    0    0  501  0.00000000000E+00  0.00000000000E+00 -0.10564065935E+04  0.10564065935E+04  0.25500000920E-02 0. -1.
    10030    2    1    2    0    0  0.00000000000E+00  0.00000000000E+00 -0.20238221387E+03  0.19104309731E+04  0.18996810107E+04 0.  0.
        1    1    3    3  502    0 -0.52211826939E+03  0.19609071258E+03  0.67201465647E+03  0.87330564714E+03  0.50400001928E-02 0.  1.
       -1    1    3    3    0  502  0.52211826939E+03 -0.19609071258E+03 -0.87439687034E+03  0.10371253259E+04  0.50400001928E-02 0. -1.
</event>
<event>
 5   0  0.1471485E-05  0.1909808E+04  0.7818609E-02  0.8649990E-01
        1   -1    0    0  501    0  0.00000000000E+00  0.00000000000E+00  0.18899265312E+04  0.18899265312E+04  0.50400001928E-02 0.  1.
       -1   -1    0    0    0  501  0.00000000000E+00  0.00000000000E+00 -0.48247457988E+03  0.48247457991E+03  0.50400001928E-02 0. -1.
    10030    2    1    2    0    0  0.00000000000E+00  0.00000000000E+00  0.14074519513E+04  0.23724011111E+04  0.19098078534E+04 0.  0.
        4    1    3    3  502    0 -0.73435692126E+03 -0.33431833053E+03  0.13380991294E+04  0.15625491119E+04  0.12699999809E+01 0.  1.
       -4    1    3    3    0  502  0.73435692126E+03  0.33431833053E+03  0.69352821935E+02  0.80985199929E+03  0.12699999809E+01 0. -1.
</event>
<event>
 5   0  0.2789718E-05  0.1893264E+04  0.7818609E-02  0.8658217E-01
       -2   -1    0    0    0  501  0.00000000000E+00  0.00000000000E+00  0.89440158354E+03  0.89440158354E+03  0.25500000920E-02 0. -1.
        2   -1    0    0  501    0  0.00000000000E+00  0.00000000000E+00 -0.10019123723E+04  0.10019123723E+04  0.25500000920E-02 0.  1.
    10030    2    1    2    0    0  0.00000000000E+00  0.00000000000E+00 -0.10751078881E+03  0.18963139559E+04  0.18932638616E+04 0.  0.
        5    1    3    3  502    0  0.70015911272E+03 -0.28527076113E+03  0.51680055343E+03  0.91580952840E+03  0.46999998093E+01 0. -1.
       -5    1    3    3    0  502 -0.70015911272E+03  0.28527076113E+03 -0.62431134224E+03  0.98050442749E+03  0.46999998093E+01 0.  1.
</event>
<event>
 5   0  0.1471485E-05  0.1899134E+04  0.7818609E-02  0.8655288E-01
        1   -1    0    0  501    0  0.00000000000E+00  0.00000000000E+00  0.19335961482E+04  0.19335961482E+04  0.50400001928E-02 0.  1.
       -1   -1    0    0    0  501  0.00000000000E+00  0.00000000000E+00 -0.46632140145E+03  0.46632140147E+03  0.50400001928E-02 0. -1.
    10030    2    1    2    0    0  0.00000000000E+00  0.00000000000E+00  0.14672747467E+04  0.23999175497E+04  0.18991337664E+04 0.  0.
        4    1    3    3  502    0 -0.26977288067E+03 -0.63340153775E+03 -0.92801554512E+02  0.69468601295E+03  0.12699999809E+01 0. -1.
       -4    1    3    3    0  502  0.26977288067E+03  0.63340153775E+03  0.15600763013E+04  0.17052315367E+04  0.12699999809E+01 0.  1.
</event>
<event>
 5   0  0.1413011E-05  0.1898082E+04  0.7818609E-02  0.8655812E-01
        1   -1    0    0  501    0  0.00000000000E+00  0.00000000000E+00  0.11478264026E+04  0.11478264026E+04  0.50400001928E-02 0.  1.
       -1   -1    0    0    0  501  0.00000000000E+00  0.00000000000E+00 -0.78468231914E+03  0.78468231916E+03  0.50400001928E-02 0. -1.
    10030    2    1    2    0    0  0.00000000000E+00  0.00000000000E+00  0.36314408349E+03  0.19325087218E+04  0.18980822781E+04 0.  0.
        1    1    3    3  502    0  0.17874381264E+02 -0.69750600367E+03 -0.47340377665E+03  0.84317569606E+03  0.50400001928E-02 0. -1.
       -1    1    3    3    0  502 -0.17874381264E+02  0.69750600367E+03  0.83654786014E+03  0.10893330257E+04  0.50400001928E-02 0.  1.
</event>
<event>
 5   0  0.1429067E-05  0.1898629E+04  0.7818609E-02  0.8655539E-01
       -1   -1    0    0    0  501  0.00000000000E+00  0.00000000000E+00  0.64873788731E+03  0.64873788733E+03  0.50400001928E-02 0.  1.
        1   -1    0    0  501    0  0.00000000000E+00  0.00000000000E+00 -0.13891563131E+04  0.13891563131E+04  0.50400001928E-02 0. -1.
    10030    2    1    2    0    0  0.00000000000E+00  0.00000000000E+00 -0.74041842580E+03  0.20378942005E+04  0.18986293285E+04 0.  0.
        3    1    3    3  502    0  0.70088992196E+03  0.64021983981E+03 -0.36121638526E+03  0.10156797788E+04  0.10100000352E+00 0.  1.
       -3    1    3    3    0  502 -0.70088992196E+03 -0.64021983981E+03 -0.37920204054E+03  0.10222144216E+04  0.10100000352E+00 0. -1.
</event>
<event>
 5   0  0.1429067E-05  0.1902644E+04  0.7818609E-02  0.8653541E-01
        1   -1    0    0  501    0  0.00000000000E+00  0.00000000000E+00  0.16602947639E+04  0.16602947639E+04  0.50400001928E-02 0.  1.
       -1   -1    0    0    0  501  0.00000000000E+00  0.00000000000E+00 -0.54509223448E+03  0.54509223450E+03  0.50400001928E-02 0. -1.
    10030    2    1    2    0    0  0.00000000000E+00  0.00000000000E+00  0.11152025294E+04  0.22053869984E+04  0.19026442471E+04 0.  0.
        3    1    3    3  502    0 -0.74730960488E+03  0.40913878856E+03  0.66995452462E+02  0.85460786019E+03  0.10100000352E+00 0. -1.
       -3    1    3    3    0  502  0.74730960488E+03 -0.40913878856E+03  0.10482070770E+04  0.13507791382E+04  0.10100000352E+00 0.  1.
</event>
<event>
 5   0  0.2789718E-05  0.1909702E+04  0.7818609E-02  0.8650042E-01
       -2   -1    0    0    0  501  0.00000000000E+00  0.00000000000E+00  0.94316820830E+03  0.94316820831E+03  0.25500000920E-02 0.  1.
        2   -1    0    0  501    0  0.00000000000E+00  0.00000000000E+00 -0.96667811057E+03  0.96667811057E+03  0.25500000920E-02 0. -1.
    10030    2    1    2    0    0  0.00000000000E+00  0.00000000000E+00 -0.23509902265E+02  0.19098463189E+04  0.19097016118E+04 0.  0.
        5    1    3    3  502    0 -0.13031859831E+03  0.32839297546E+03 -0.89889211405E+03  0.96584367581E+03  0.46999998093E+01 0. -1.
       -5    1    3    3    0  502  0.13031859831E+03 -0.32839297546E+03  0.87538221179E+03  0.94400264306E+03  0.46999998093E+01 0.  1.
</event>
<event>
 5   0  0.2855141E-05  0.1903336E+04  0.7818609E-02  0.8653198E-01
       -2   -1    0    0    0  501  0.00000000000E+00  0.00000000000E+00  0.95209892405E+03  0.95209892405E+03  0.25500000920E-02 0. -1.
        2   -1    0    0  501    0  0.00000000000E+00  0.00000000000E+00 -0.95123684450E+03  0.95123684451E+03  0.25500000920E-02 0.  1.
    10030    2    1    2    0    0  0.00000000000E+00  0.00000000000E+00  0.86207954733E+00  0.19033357686E+04  0.19033355733E+04 0.  0.
        1    1    3    3  502    0  0.59370722963E+03  0.63299193962E+03 -0.39008725340E+03  0.95149100648E+03  0.50400001928E-02 0.  1.
       -1    1    3    3    0  502 -0.59370722963E+03 -0.63299193962E+03  0.39094933294E+03  0.95184476207E+03  0.50400001928E-02 0. -1.
</event>
<event>
 5   0  0.1471485E-05  0.1902116E+04  0.7818609E-02  0.8653804E-01
       -1   -1    0    0    0  501  0.00000000000E+00  0.00000000000E+00  0.55223033647E+03  0.55223033649E+03  0.50400001928E-02 0.  1.
        1   -1    0    0  501    0  0.00000000000E+00  0.00000000000E+00 -0.16379231546E+04  0.16379231546E+04  0.50400001928E-02 0. -1.
    10030    2    1    2    0    0  0.00000000000E+00  0.00000000000E+00 -0.10856928182E+04  0.21901534911E+04  0.19021155116E+04 0.  0.
        4    1    3    3  502    0 -0.82061677116E+02 -0.77291241778E+03 -0.11739116626E+04  0.14079055114E+04  0.12699999809E+01 0. -1.
       -4    1    3    3    0  502  0.82061677116E+02  0.77291241778E+03  0.88218844468E+02  0.78224797975E+03  0.12699999809E+01 0.  1.
</event>
<event>
 5   0  0.1429067E-05  0.1892163E+04  0.7818609E-02  0.8658767E-01
        1   -1    0    0  501    0  0.00000000000E+00  0.00000000000E+00  0.68941927100E+03  0.68941927102E+03  0.50400001928E-02 0. -1.
       -1   -1    0    0    0  501  0.00000000000E+00  0.00000000000E+00 -0.12982955111E+04  0.12982955111E+04  0.50400001928E-02 0.  1.
    10030    2    1    2    0    0  0.00000000000E+00  0.00000000000E+00 -0.60887624009E+03  0.19877147821E+04  0.18921627254E+04 0.  0.
        3    1    3    3  502    0 -0.92779368172E+03 -0.38713945873E+02 -0.49460467161E+03  0.10521091563E+04  0.10100000352E+00 0.  1.
       -3    1    3    3    0  502  0.92779368172E+03  0.38713945873E+02 -0.11427156848E+03  0.93560562579E+03  0.10100000352E+00 0. -1.
</event>
<event>
 5   0  0.2789718E-05  0.1902065E+04  0.7818609E-02  0.8653829E-01
       -2   -1    0    0    0  501  0.00000000000E+00  0.00000000000E+00  0.35525758475E+03  0.35525758476E+03  0.25500000920E-02 0.  1.
        2   -1    0    0  501    0  0.00000000000E+00  0.00000000000E+00 -0.25459353244E+04  0.25459353244E+04  0.25500000920E-02 0. -1.
    10030    2    1    2    0    0  0.00000000000E+00  0.00000000000E+00 -0.21906777397E+04  0.29011929092E+04  0.19020650192E+04 0.  0.
        5    1    3    3  502    0  0.49043418781E+03 -0.13862077961E+03 -0.23200392668E+04  0.23753622256E+04  0.46999998093E+01 0. -1.
       -5    1    3    3    0  502 -0.49043418781E+03  0.13862077961E+03  0.12936152715E+03  0.52583068361E+03  0.46999998093E+01 0.  1.
</event>
<event>
 5   0  0.1327254E-05  0.1900880E+04  0.7818609E-02  0.8654419E-01
        1   -1    0    0  501    0  0.00000000000E+00  0.00000000000E+00  0.10927273986E+04  0.10927273986E+04  0.50400001928E-02 0.  1.
       -1   -1    0    0    0  501  0.00000000000E+00  0.00000000000E+00 -0.82668016995E+03  0.82668016996E+03  0.50400001928E-02 0. -1.
    10030    2    1    2    0    0  0.00000000000E+00  0.00000000000E+00  0.26604722866E+03  0.19194075686E+04  0.19008798717E+04 0.  0.
        5    1    3    3  502    0 -0.59026641937E+03  0.66788993641E+03 -0.20007437971E+03  0.91353339316E+03  0.46999998093E+01 0.  1.
       -5    1    3    3    0  502  0.59026641937E+03 -0.66788993641E+03  0.46612160837E+03  0.10058741754E+04  0.46999998093E+01 0. -1.
</event>
<event>
 5   0  0.1429067E-05  0.1900016E+04  0.7818609E-02  0.8654849E-01
       -1   -1    0    0    0  501  0.00000000000E+00  0.00000000000E+00  0.78361545098E+03  0.78361545099E+03  0.50400001928E-02 0.  1.
        1   -1    0    0  501    0  0.00000000000E+00  0.00000000000E+00 -0.11517318629E+04  0.11517318629E+04  0.50400001928E-02 0. -1.
    10030    2    1    2    0    0  0.00000000000E+00  0.00000000000E+00 -0.36811641194E+03  0.19353473139E+04  0.19000156664E+04 0.  0.
        3    1    3    3  502    0  0.67016746179E+03 -0.66656612156E+03 -0.86996952990E+02  0.94921193697E+03  0.10100000352E+00 0. -1.
       -3    1    3    3    0  502 -0.67016746179E+03  0.66656612156E+03 -0.28111945895E+03  0.98613537695E+03  0.10100000352E+00 0.  1.
</event>
<event>
 5   0  0.2879462E-05  0.1914177E+04  0.7818609E-02  0.8647831E-01
        2   -1    0    0  501    0  0.00000000000E+00  0.00000000000E+00  0.82822779624E+03  0.82822779624E+03  0.25500000920E-02 0.  1.
       -2   -1    0    0    0  501  0.00000000000E+00  0.00000000000E+00 -0.11059985044E+04  0.11059985044E+04  0.25500000920E-02 0. -1.
    10030    2    1    2    0    0  0.00000000000E+00  0.00000000000E+00 -0.27777070813E+03  0.19342263006E+04  0.19141773209E+04 0.  0.
        4    1    3    3  502    0  0.69772467469E+03  0.65195161782E+03 -0.73739499862E+02  0.95775767311E+03  0.12699999809E+01 0.  1.
       -4    1    3    3    0  502 -0.69772467469E+03 -0.65195161782E+03 -0.20403120827E+03  0.97646862750E+03  0.12699999809E+01 0. -1.
</event>
<event>
 5   0  0.2813537E-05  0.1898531E+04  0.7818609E-02  0.8655588E-01
        2   -1    0    0  501    0  0.00000000000E+00  0.00000000000E+00  0.17689815291E+04  0.17689815291E+04  0.25500000920E-02 0.  1.
       -2   -1    0    0    0  501  0.00000000000E+00  0.00000000000E+00 -0.50939173748E+03  0.50939173749E+03  0.25500000920E-02 0. -1.
    10030    2    1    2    0    0  0.00000000000E+00  0.00000000000E+00  0.12595897916E+04  0.22783732666E+04  0.18985305630E+04 0.  0.
        2    1    3    3  502    0  0.79528270992E+02 -0.57156357715E+03  0.15343139726E+04  0.16392464839E+04  0.25500000920E-02 0.  1.
       -2    1    3    3    0  502 -0.79528270992E+02  0.57156357715E+03 -0.27472418102E+03  0.63912678261E+03  0.25500000920E-02 0. -1.
</event>
<event>
 5   0  0.1344119E-05  0.1888548E+04  0.7818609E-02  0.8660578E-01
        1   -1    0    0  501    0  0.00000000000E+00  0.00000000000E+00  0.60454127898E+03  0.60454127900E+03  0.50400001928E-02 0. -1.
       -1   -1    0    0    0  501  0.00000000000E+00  0.00000000000E+00 -0.14749253365E+04  0.14749253366E+04  0.50400001928E-02 0.  1.
    10030    2    1    2    0    0  0.00000000000E+00  0.00000000000E+00 -0.87038405757E+03  0.20794666156E+04  0.18885478542E+04 0.  0.
        2    1    3    3  502    0 -0.12035197706E+02  0.22854922758E+03  0.57353986768E+03  0.61751726715E+03  0.25500000920E-02 0. -1.
       -2    1    3    3    0  502  0.12035197706E+02 -0.22854922758E+03 -0.14439239252E+04  0.14619493484E+04  0.25500000920E-02 0.  1.
</event>
<event>
 5   0  0.2813537E-05  0.1898263E+04  0.7818609E-02  0.8655722E-01
       -2   -1    0    0    0  501  0.00000000000E+00  0.00000000000E+00  0.84502225428E+03  0.84502225429E+03  0.25500000920E-02 0. -1.
        2   -1    0    0  501    0  0.00000000000E+00  0.00000000000E+00 -0.10660668543E+04  0.10660668543E+04  0.25500000920E-02 0.  1.
    10030    2    1    2    0    0  0.00000000000E+00  0.00000000000E+00 -0.22104460003E+03  0.19110891086E+04  0.18982625914E+04 0.  0.
        2    1    3    3  502    0 -0.91994932621E+03 -0.22404944209E+03 -0.17688661078E+03  0.96322052947E+03  0.25500000920E-02 0.  1.
       -2    1    3    3    0  502  0.91994932621E+03  0.22404944209E+03 -0.44157989253E+02  0.94786857914E+03  0.25500000920E-02 0. -1.
</event>
<event>
 5   0  0.1344119E-05  0.1902613E+04  0.7818609E-02  0.8653557E-01
        1   -1    0    0  501    0  0.00000000000E+00  0.00000000000E+00  0.91919233869E+03  0.91919233871E+03  0.50400001928E-02 0.  1.
       -1   -1    0    0    0  501  0.00000000000E+00  0.00000000000E+00 -0.98454258036E+03  0.98454258037E+03  0.50400001928E-02 0. -1.
    10030    2    1    2    0    0  0.00000000000E+00  0.00000000000E+00 -0.65350241665E+02  0.19037349191E+04  0.19026129370E+04 0.  0.
        2    1    3    3  502    0 -0.13526971176E+03 -0.90087796807E+03  0.24153938383E+03  0.94245439264E+03  0.25500000920E-02 0.  1.
       -2    1    3    3    0  502  0.13526971176E+03  0.90087796807E+03 -0.30688962549E+03  0.96128052644E+03  0.25500000920E-02 0. -1.
</event>
<event>
 5   0  0.1413011E-05  0.1901265E+04  0.7818609E-02  0.8654227E-01
        1   -1    0    0  501    0  0.00000000000E+00  0.00000000000E+00  0.24294257696E+04  0.24294257696E+04  0.50400001928E-02 0. -1.
       -1   -1    0    0    0  501  0.00000000000E+00  0.00000000000E+00 -0.37198193581E+03  0.37198193584E+03  0.50400001928E-02 0.  1.
    10030    2    1    2    0    0  0.00000000000E+00  0.00000000000E+00  0.20574438338E+04  0.28014077054E+04  0.19012653689E+04 0.  0.
        1    1    3    3  502    0  0.45868758944E+03  0.70362972491E+03  0.16847162589E+04  0.18824871759E+04  0.50400001928E-02 0.  1.
       -1    1    3    3    0  502 -0.45868758944E+03 -0.70362972491E+03  0.37272757490E+03  0.91892052954E+03  0.50400001928E-02 0. -1.
</event>
<event>
 5   0  0.2813537E-05  0.1891083E+04  0.7818609E-02  0.8659308E-01
        2   -1    0    0  501    0  0.00000000000E+00  0.00000000000E+00  0.11083469075E+04  0.11083469075E+04  0.25500000920E-02 0.  1.
       -2   -1    0    0    0  501  0.00000000000E+00  0.00000000000E+00 -0.80665087001E+03  0.80665087001E+03  0.25500000920E-02 0. -1.
    10030    2    1    2    0    0  0.00000000000E+00  0.00000000000E+00  0.30169603750E+03  0.19149977775E+04  0.18910832845E+04 0.  0.
        2    1    3    3  502    0 -0.33736770118E+03  0.63169423557E+03 -0.47436913950E+03  0.85899979835E+03  0.25500000920E-02 0. -1.
       -2    1    3    3    0  502  0.33736770118E+03 -0.63169423557E+03  0.77606517699E+03  0.10559979792E+04  0.25500000920E-02 0.  1.
</event>
<event>
 5   0  0.2879462E-05  0.1901060E+04  0.7818609E-02  0.8654329E-01
        2   -1    0    0  501    0  0.00000000000E+00  0.00000000000E+00  0.18848892118E+04  0.18848892118E+04  0.25500000920E-02 0. -1.
       -2   -1    0    0    0  501  0.00000000000E+00  0.00000000000E+00 -0.47934258229E+03  0.47934258229E+03  0.25500000920E-02 0.  1.
    10030    2    1    2    0    0  0.00000000000E+00  0.00000000000E+00  0.14055466295E+04  0.23642317941E+04  0.19010604011E+04 0.  0.
        4    1    3    3  502    0  0.12390691759E+03  0.18263695045E+03  0.18525820381E+04  0.18656824491E+04  0.12699999809E+01 0. -1.
       -4    1    3    3    0  502 -0.12390691759E+03 -0.18263695045E+03 -0.44703540865E+03  0.49854934499E+03  0.12699999809E+01 0.  1.
</event>
<event>
 5   0  0.2855141E-05  0.1903058E+04  0.7818609E-02  0.8653336E-01
        2   -1    0    0  501    0  0.00000000000E+00  0.00000000000E+00  0.22885986557E+04  0.22885986557E+04  0.25500000920E-02 0. -1.
       -2   -1    0    0    0  501  0.00000000000E+00  0.00000000000E+00 -0.39561640633E+03  0.39561640633E+03  0.25500000920E-02 0.  1.
    10030    2    1    2    0    0  0.00000000000E+00  0.00000000000E+00  0.18929822494E+04  0.26842150620E+04  0.19030577245E+04 0.  0.
        1    1    3    3  502    0  0.29689670977E+03 -0.16123745895E+03  0.22011495356E+04  0.22269271323E+04  0.50400001928E-02 0. -1.
       -1    1    3    3    0  502 -0.29689670977E+03  0.16123745895E+03 -0.30816728618E+03  0.45728792979E+03  0.50400001928E-02 0.  1.
</event>
<event>
 5   0  0.2855141E-05  0.1899130E+04  0.7818609E-02  0.8655290E-01
       -2   -1    0    0    0  501  0.00000000000E+00  0.00000000000E+00  0.23315595904E+04  0.23315595904E+04  0.25500000920E-02 0. -1.
        2   -1    0    0  501    0  0.00000000000E+00  0.00000000000E+00 -0.38672547395E+03  0.38672547395E+03  0.25500000920E-02 0.  1.
    10030    2    1    2    0    0  0.00000000000E+00  0.00000000000E+00  0.19448341164E+04  0.27182850643E+04  0.18991297877E+04 0.  0.
        1    1    3    3  502    0  0.33439416829E+03 -0.67403761373E+03  0.18015120642E+04  0.19523298599E+04  0.50400001928E-02 0. -1.
       -1    1    3    3    0  502 -0.33439416829E+03  0.67403761373E+03  0.14332205228E+03  0.76595520444E+03  0.50400001928E-02 0.  1.
</event>
<event>
 5   0  0.1344119E-05  0.1905446E+04  0.7818609E-02  0.8652150E-01
       -1   -1    0    0    0  501  0.00000000000E+00  0.00000000000E+00  0.57513551025E+03  0.57513551027E+03  0.50400001928E-02 0. -1.
        1   -1    0    0  501    0  0.00000000000E+00  0.00000000000E+00 -0.15782041395E+04  0.15782041395E+04  0.50400001928E-02 0.  1.
    10030    2    1    2    0    0  0.00000000000E+00  0.00000000000E+00 -0.10030686292E+04  0.21533396498E+04  0.19054461347E+04 0.  0.
        2    1    3    3  502    0 -0.78131663355E+03  0.54444594466E+03 -0.53358158322E+03  0.10915980828E+04  0.25500000920E-02 0.  1.
       -2    1    3    3    0  502  0.78131663355E+03 -0.54444594466E+03 -0.46948704601E+03  0.10617415669E+04  0.25500000920E-02 0. -1.
</event>
<event>
 5   0  0.1344119E-05  0.1900268E+04  0.7818609E-02  0.8654723E-01
       -1   -1    0    0    0  501  0.00000000000E+00  0.00000000000E+00  0.21526151239E+04  0.21526151239E+04  0.50400001928E-02 0. -1.
        1   -1    0    0  501    0  0.00000000000E+00  0.00000000000E+00 -0.41937591135E+03  0.41937591138E+03  0.50400001928E-02 0.  1.
    10030    2    1    2    0    0  0.00000000000E+00  0.00000000000E+00  0.17332392126E+04  0.25719910353E+04  0.19002683278E+04 0.  0.
        2    1    3    3  502    0  0.26836947062E+02 -0.59325485021E+03  0.18704695211E+04  0.19624800046E+04  0.25500000920E-02 0. -1.
       -2    1    3    3    0  502 -0.26836947062E+02  0.59325485021E+03 -0.13723030850E+03  0.60951103074E+03  0.25500000920E-02 0.  1.
</event>
<event>
 5   0  0.2855141E-05  0.1896432E+04  0.7818609E-02  0.8656634E-01
       -2   -1    0    0    0  501  0.00000000000E+00  0.00000000000E+00  0.87123419576E+03  0.87123419577E+03  0.25500000920E-02 0.  1.
        2   -1    0    0  501    0  0.00000000000E+00  0.00000000000E+00 -0.10320001330E+04  0.10320001330E+04  0.25500000920E-02 0. -1.
    10030    2    1    2    0    0  0.00000000000E+00  0.00000000000E+00 -0.16076593721E+03  0.19032343287E+04  0.18964322354E+04 0.  0.
        1    1    3    3  502    0  0.65655487008E+03  0.13737299072E+03 -0.75299441582E+03  0.10084325591E+04  0.50400001928E-02 0. -1.
       -1    1    3    3    0  502 -0.65655487008E+03 -0.13737299072E+03  0.59222847861E+03  0.89480176962E+03  0.50400001928E-02 0.  1.
</event>
<event>
 5   0  0.2789718E-05  0.1902359E+04  0.7818609E-02  0.8653683E-01
       -2   -1    0    0    0  501  0.00000000000E+00  0.00000000000E+00  0.64146906040E+03  0.64146906041E+03  0.25500000920E-02 0. -1.
        2   -1    0    0  501    0  0.00000000000E+00  0.00000000000E+00 -0.14104228482E+04  0.14104228482E+04  0.25500000920E-02 0.  1.
    10030    2    1    2    0    0  0.00000000000E+00  0.00000000000E+00 -0.76895378776E+03  0.20518919086E+04  0.19023591871E+04 0.  0.
        5    1    3    3  502    0  0.37762886938E+03  0.82249077144E+03 -0.68856886181E+02  0.90766623429E+03  0.46999998093E+01 0. -1.
       -5    1    3    3    0  502 -0.37762886938E+03 -0.82249077144E+03 -0.70009690158E+03  0.11442256743E+04  0.46999998093E+01 0.  1.
</event>
<event>
 5   0  0.2879462E-05  0.1904247E+04  0.7818609E-02  0.8652745E-01
       -2   -1    0    0    0  501  0.00000000000E+00  0.00000000000E+00  0.66257207614E+03  0.66257207614E+03  0.25500000920E-02 0.  1.
        2   -1    0    0  501    0  0.00000000000E+00  0.00000000000E+00 -0.13682115048E+04  0.13682115048E+04  0.25500000920E-02 0. -1.
    10030    2    1    2    0    0  0.00000000000E+00  0.00000000000E+00 -0.70563942867E+03  0.20307835810E+04  0.19042465569E+04 0.  0.
        4    1    3    3  502    0 -0.81684101320E+03 -0.40047525895E+03 -0.53210957977E+02  0.91128628478E+03  0.12699999809E+01 0.  1.
       -4    1    3    3    0  502  0.81684101320E+03  0.40047525895E+03 -0.65242847069E+03  0.11194972962E+04  0.12699999809E+01 0. -1.
</event>
<event>
 5   0  0.1413011E-05  0.1900733E+04  0.7818609E-02  0.8654492E-01
       -1   -1    0    0    0  501  0.00000000000E+00  0.00000000000E+00  0.78596057174E+03  0.78596057176E+03  0.50400001928E-02 0.  1.
        1   -1    0    0  501    0  0.00000000000E+00  0.00000000000E+00 -0.11491625173E+04  0.11491625173E+04  0.50400001928E-02 0. -1.
    10030    2    1    2    0    0  0.00000000000E+00  0.00000000000E+00 -0.36320194554E+03  0.19351230890E+04  0.19007329419E+04 0.  0.
        1    1    3    3  502    0  0.54203602377E+03  0.50535119370E+03  0.42415462364E+03  0.85386768578E+03  0.50400001928E-02 0.  1.
       -1    1    3    3    0  502 -0.54203602377E+03 -0.50535119370E+03 -0.78735656918E+03  0.10812554033E+04  0.50400001928E-02 0. -1.
</event>
<event>
 5   0  0.2888776E-05  0.1897198E+04  0.7818609E-02  0.8656252E-01
        2   -1    0    0  501    0  0.00000000000E+00  0.00000000000E+00  0.63315497146E+03  0.63315497146E+03  0.25500000920E-02 0. -1.
       -2   -1    0    0    0  501  0.00000000000E+00  0.00000000000E+00 -0.14212005926E+04  0.14212005926E+04  0.25500000920E-02 0.  1.
    10030    2    1    2    0    0  0.00000000000E+00  0.00000000000E+00 -0.78804562118E+03  0.20543555641E+04  0.18971981664E+04 0.  0.
        3    1    3    3  502    0 -0.49610198842E+03 -0.49593387099E+03 -0.10854905915E+04  0.12924230816E+04  0.10100000352E+00 0.  1.
       -3    1    3    3    0  502  0.49610198842E+03  0.49593387099E+03  0.29744497036E+03  0.76193248251E+03  0.10100000352E+00 0. -1.
</event>
<event>
 5   0  0.2855141E-05  0.1900353E+04  0.7818609E-02  0.8654681E-01
       -2   -1    0    0    0  501  0.00000000000E+00  0.00000000000E+00  0.14543662664E+04  0.14543662664E+04  0.25500000920E-02 0.  1.
        2   -1    0    0  501    0  0.00000000000E+00  0.00000000000E+00 -0.62077595421E+03  0.62077595421E+03  0.25500000920E-02 0. -1.
    10030    2    1    2    0    0  0.00000000000E+00  0.00000000000E+00  0.83359031222E+03  0.20751422206E+04  0.19003532375E+04 0.  0.
        1    1    3    3  502    0  0.61758221495E+03  0.16102272008E+03  0.11854566773E+04  0.13463445481E+04  0.50400001928E-02 0.  1.
       -1    1    3    3    0  502 -0.61758221495E+03 -0.16102272008E+03 -0.35186636503E+03  0.72879767252E+03  0.50400001928E-02 0. -1.
</event>
<event>
 5   0  0.1471485E-05  0.1907536E+04  0.7818609E-02  0.8651114E-01
        1   -1    0    0  501    0  0.00000000000E+00  0.00000000000E+00  0.13436175834E+04  0.13436175834E+04  0.50400001928E-02 0.  1.
       -1   -1    0    0    0  501  0.00000000000E+00  0.00000000000E+00 -0.67703308920E+03  0.67703308922E+03  0.50400001928E-02 0. -1.
    10030    2    1    2    0    0  0.00000000000E+00  0.00000000000E+00  0.66658449421E+03  0.20206506726E+04  0.19075361734E+04 0.  0.
        4    1    3    3  502    0  0.33456757391E+03  0.24346259591E+03  0.12435883149E+04  0.13106193219E+04  0.12699999809E+01 0.  1.
       -4    1    3    3    0  502 -0.33456757391E+03 -0.24346259591E+03 -0.57700382065E+03  0.71003135076E+03  0.12699999809E+01 0. -1.
</event>
<event>
 5   0  0.2888776E-05  0.1897751E+04  0.7818609E-02  0.8655977E-01
        2   -1    0    0  501    0  0.00000000000E+00  0.00000000000E+00  0.47996609632E+03  0.47996609633E+03  0.25500000920E-02 0. -1.
       -2   -1    0    0    0  501  0.00000000000E+00  0.00000000000E+00 -0.18758926227E+04  0.18758926227E+04  0.25500000920E-02 0.  1.
    10030    2    1    2    0    0  0.00000000000E+00  0.00000000000E+00 -0.13959265264E+04  0.23558587191E+04  0.18977511526E+04 0.  0.
        3    1    3    3  502    0  0.69511534308E+03  0.56091037410E+03 -0.30040846765E+03  0.94236460332E+03  0.10100000352E+00 0. -1.
       -3    1    3    3    0  502 -0.69511534308E+03 -0.56091037410E+03 -0.10955180588E+04  0.14134941158E+04  0.10100000352E+00 0.  1.
</event>
<event>
 5   0  0.2855141E-05  0.1903226E+04  0.7818609E-02  0.8653252E-01
        2   -1    0    0  501    0  0.00000000000E+00  0.00000000000E+00  0.10668118876E+04  0.10668118876E+04  0.25500000920E-02 0.  1.
       -2   -1    0    0    0  501  0.00000000000E+00  0.00000000000E+00 -0.84885375061E+03  0.84885375062E+03  0.25500000920E-02 0. -1.
    10030    2    1    2    0    0  0.00000000000E+00  0.00000000000E+00  0.21795813703E+03  0.19156656383E+04  0.19032259687E+04 0.  0.
        1    1    3    3  502    0  0.63504365161E+03 -0.19783560236E+03 -0.57601877981E+03  0.87989601643E+03  0.50400001928E-02 0. -1.
       -1    1    3    3    0  502 -0.63504365161E+03  0.19783560236E+03  0.79397691683E+03  0.10357696218E+04  0.50400001928E-02 0.  1.
</event>
<event>
 5   0  0.1344119E-05  0.1899326E+04  0.7818609E-02  0.8655192E-01
       -1   -1    0    0    0  501  0.00000000000E+00  0.00000000000E+00  0.10168521635E+04  0.10168521636E+04  0.50400001928E-02 0. -1.
        1   -1    0    0  501    0  0.00000000000E+00  0.00000000000E+00 -0.88691330434E+03  0.88691330436E+03  0.50400001928E-02 0.  1.
    10030    2    1    2    0    0  0.00000000000E+00  0.00000000000E+00  0.12993885920E+03  0.19037654679E+04  0.18993258935E+04 0.  0.
        2    1    3    3  502    0 -0.56972154094E+03 -0.34383538917E+03  0.74408859592E+03  0.99823506633E+03  0.25500000920E-02 0. -1.
       -2    1    3    3    0  502  0.56972154094E+03  0.34383538917E+03 -0.61414973673E+03  0.90553040158E+03  0.25500000920E-02 0.  1.
</event>
<event>
 5   0  0.2789718E-05  0.1901344E+04  0.7818609E-02  0.8654188E-01
       -2   -1    0    0    0  501  0.00000000000E+00  0.00000000000E+00  0.15506021693E+04  0.15506021693E+04  0.25500000920E-02 0.  1.
        2   -1    0    0  501    0  0.00000000000E+00  0.00000000000E+00 -0.58285574429E+03  0.58285574430E+03  0.25500000920E-02 0. -1.
    10030    2    1    2    0    0  0.00000000000E+00  0.00000000000E+00  0.96774642499E+03  0.21334579136E+04  0.19013441366E+04 0.  0.
        5    1    3    3  502    0  0.12822040763E+03  0.68145454812E+03  0.12135993729E+04  0.13977361346E+04  0.46999998093E+01 0.  1.
       -5    1    3    3    0  502 -0.12822040763E+03 -0.68145454812E+03 -0.24585294789E+03  0.73572177899E+03  0.46999998093E+01 0. -1.
</event>
<event>
 5   0  0.1413011E-05  0.1908041E+04  0.7818609E-02  0.8650864E-01
       -1   -1    0    0    0  501  0.00000000000E+00  0.00000000000E+00  0.11169086981E+04  0.11169086981E+04  0.50400001928E-02 0.  1.
        1   -1    0    0  501    0  0.00000000000E+00  0.00000000000E+00 -0.81488731067E+03  0.81488731069E+03  0.50400001928E-02 0. -1.
    10030    2    1    2    0    0  0.00000000000E+00  0.00000000000E+00  0.30202138741E+03  0.19317960088E+04  0.19080405921E+04 0.  0.
        1    1    3    3  502    0  0.50382595317E+03 -0.80715117444E+03  0.80711970923E+02  0.95490734198E+03  0.50400001928E-02 0. -1.
       -1    1    3    3    0  502 -0.50382595317E+03  0.80715117444E+03  0.22130941649E+03  0.97688866681E+03  0.50400001928E-02 0.  1.
</event>
<event>
 5   0  0.2855141E-05  0.1915033E+04  0.7818609E-02  0.8647409E-01
       -2   -1    0    0    0  501  0.00000000000E+00  0.00000000000E+00  0.13293501144E+04  0.13293501144E+04  0.25500000920E-02 0. -1.
        2   -1    0    0  501    0  0.00000000000E+00  0.00000000000E+00 -0.68968891525E+03  0.68968891525E+03  0.25500000920E-02 0.  1.
    10030    2    1    2    0    0  0.00000000000E+00  0.00000000000E+00  0.63966119917E+03  0.20190390297E+04  0.19150331991E+04 0.  0.
        1    1    3    3  502    0  0.16124486132E+03 -0.47609178937E+03 -0.53939970225E+03  0.73730274381E+03  0.50400001928E-02 0.  1.
       -1    1    3    3    0  502 -0.16124486132E+03  0.47609178937E+03  0.11790609014E+04  0.12817362859E+04  0.50400001928E-02 0. -1.
</event>
<event>
 5   0  0.2813537E-05  0.1899531E+04  0.7818609E-02  0.8655090E-01
       -2   -1    0    0    0  501  0.00000000000E+00  0.00000000000E+00  0.98310673742E+03  0.98310673743E+03  0.25500000920E-02 0.  1.
        2   -1    0    0  501    0  0.00000000000E+00  0.00000000000E+00 -0.91755510066E+03  0.91755510067E+03  0.25500000920E-02 0. -1.
    10030    2    1    2    0    0  0.00000000000E+00  0.00000000000E+00  0.65551636762E+02  0.19006618381E+04  0.18995311015E+04 0.  0.
        2    1    3    3  502    0 -0.11691038447E+03  0.41284895254E+03 -0.81504332582E+03  0.92109061366E+03  0.25500000920E-02 0. -1.
       -2    1    3    3    0  502  0.11691038447E+03 -0.41284895254E+03  0.88059496258E+03  0.97957122443E+03  0.25500000920E-02 0.  1.
</event>
<event>
 5   0  0.1010725E-05  0.1896264E+04  0.7818609E-02  0.8656718E-01
        3   -1    0    0  501    0  0.00000000000E+00  0.00000000000E+00  0.18317483016E+04  0.18317483044E+04  0.10100000352E+00 0. -1.
       -3   -1    0    0    0  501  0.00000000000E+00  0.00000000000E+00 -0.49076282192E+03  0.49076283231E+03  0.10100000352E+00 0.  1.
    10030    2    1    2    0    0  0.00000000000E+00  0.00000000000E+00  0.13409854797E+04  0.23225111367E+04  0.18962636745E+04 0.  0.
        2    1    3    3  502    0 -0.77405613553E+03 -0.18018714569E+03  0.13037465170E+04  0.15268874513E+04  0.25500000920E-02 0. -1.
       -2    1    3    3    0  502  0.77405613553E+03  0.18018714569E+03  0.37238962715E+02  0.79562368540E+03  0.25500000920E-02 0.  1.
</event>
<event>
 5   0  0.1429067E-05  0.1898920E+04  0.7818609E-02  0.8655394E-01
        1   -1    0    0  501    0  0.00000000000E+00  0.00000000000E+00  0.14345771912E+04  0.14345771912E+04  0.50400001928E-02 0. -1.
       -1   -1    0    0    0  501  0.00000000000E+00  0.00000000000E+00 -0.62839054106E+03  0.62839054108E+03  0.50400001928E-02 0.  1.
    10030    2    1    2    0    0  0.00000000000E+00  0.00000000000E+00  0.80618665014E+03  0.20629677323E+04  0.18989204695E+04 0.  0.
        3    1    3    3  502    0 -0.31730198382E+03  0.87706904758E+03  0.59604319133E+03  0.11068866967E+04  0.10100000352E+00 0. -1.
       -3    1    3    3    0  502  0.31730198382E+03 -0.87706904758E+03  0.21014345880E+03  0.95608103560E+03  0.10100000352E+00 0.  1.
</event>
<event>
 5   0  0.2888776E-05  0.1898782E+04  0.7818609E-02  0.8655463E-01
       -2   -1    0    0    0  501  0.00000000000E+00  0.00000000000E+00  0.90994965519E+03  0.90994965520E+03  0.25500000920E-02 0. -1.
        2   -1    0    0  501    0  0.00000000000E+00  0.00000000000E+00 -0.99054242255E+03  0.99054242255E+03  0.25500000920E-02 0.  1.
    10030    2    1    2    0    0  0.00000000000E+00  0.00000000000E+00 -0.80592767358E+02  0.19004920778E+04  0.18987824898E+04 0.  0.
        3    1    3    3  502    0  0.81249261985E+03 -0.27080001579E+02  0.45051860085E+03  0.92943240943E+03  0.10100000352E+00 0. -1.
       -3    1    3    3    0  502 -0.81249261985E+03  0.27080001579E+02 -0.53111136821E+03  0.97105966832E+03  0.10100000352E+00 0.  1.
</event>
<event>
 5   0  0.2789718E-05  0.1899859E+04  0.7818609E-02  0.8654927E-01
        2   -1    0    0  501    0  0.00000000000E+00  0.00000000000E+00  0.10088711327E+04  0.10088711327E+04  0.25500000920E-02 0.  1.
       -2   -1    0    0    0  501  0.00000000000E+00  0.00000000000E+00 -0.89443117082E+03  0.89443117083E+03  0.25500000920E-02 0. -1.
    10030    2    1    2    0    0  0.00000000000E+00  0.00000000000E+00  0.11443996191E+03  0.19033023036E+04  0.18998587195E+04 0.  0.
        5    1    3    3  502    0 -0.36224774162E+03  0.16927229071E+03  0.92044713354E+03  0.10035544581E+04  0.46999998093E+01 0.  1.
       -5    1    3    3    0  502  0.36224774162E+03 -0.16927229071E+03 -0.80600717163E+03  0.89974784547E+03  0.46999998093E+01 0. -1.
</event>
<event>
 5   0  0.1010725E-05  0.1896075E+04  0.7818609E-02  0.8656812E-01
       -3   -1    0    0    0  501  0.00000000000E+00  0.00000000000E+00  0.13765516043E+04  0.13765516080E+04  0.10100000352E+00 0.  1.
        3   -1    0    0  501    0  0.00000000000E+00  0.00000000000E+00 -0.65291801310E+03  0.65291802092E+03  0.10100000352E+00 0. -1.
    10030    2    1    2    0    0  0.00000000000E+00  0.00000000000E+00  0.72363359118E+03  0.20294696289E+04  0.18960752623E+04 0.  0.
        2    1    3    3  502    0 -0.84938529999E+03 -0.21329157592E+03 -0.26806310403E+02  0.87616622993E+03  0.25500000920E-02 0. -1.
       -2    1    3    3    0  502  0.84938529999E+03  0.21329157592E+03  0.75043990159E+03  0.11533033990E+04  0.25500000920E-02 0.  1.
</event>
<event>
 5   0  0.2855141E-05  0.1900068E+04  0.7818609E-02  0.8654822E-01
        2   -1    0    0  501    0  0.00000000000E+00  0.00000000000E+00  0.14290295325E+04  0.14290295325E+04  0.25500000920E-02 0.  1.
       -2   -1    0    0    0  501  0.00000000000E+00  0.00000000000E+00 -0.63159286778E+03  0.63159286778E+03  0.25500000920E-02 0. -1.
    10030    2    1    2    0    0  0.00000000000E+00  0.00000000000E+00  0.79743666473E+03  0.20606224003E+04  0.19000682731E+04 0.  0.
        1    1    3    3  502    0  0.21402387634E+03  0.34395111593E+03  0.13306661629E+04  0.13909640639E+04  0.50400001928E-02 0.  1.
       -1    1    3    3    0  502 -0.21402387634E+03 -0.34395111593E+03 -0.53322949818E+03  0.66965833643E+03  0.50400001928E-02 0. -1.
</event>
<event>
 5   0  0.1413011E-05  0.1900760E+04  0.7818609E-02  0.8654478E-01
        1   -1    0    0  501    0  0.00000000000E+00  0.00000000000E+00  0.72188788600E+03  0.72188788602E+03  0.50400001928E-02 0.  1.
       -1   -1    0    0    0  501  0.00000000000E+00  0.00000000000E+00 -0.12511945331E+04  0.12511945331E+04  0.50400001928E-02 0. -1.
    10030    2    1    2    0    0  0.00000000000E+00  0.00000000000E+00 -0.52930664706E+03  0.19730824191E+04  0.19007600337E+04 0.  0.
        1    1    3    3  502    0 -0.52680650625E+03  0.40350369408E+02 -0.10846917724E+04  0.12065278647E+04  0.50400001928E-02 0. -1.
       -1    1    3    3    0  502  0.52680650625E+03 -0.40350369408E+02  0.55538512531E+03  0.76655455434E+03  0.50400001928E-02 0.  1.
</event>
<event>
 5   0  0.2888776E-05  0.1902366E+04  0.7818609E-02  0.8653680E-01
        2   -1    0    0  501    0  0.00000000000E+00  0.00000000000E+00  0.11810580308E+04  0.11810580308E+04  0.25500000920E-02 0.  1.
       -2   -1    0    0    0  501  0.00000000000E+00  0.00000000000E+00 -0.76604927823E+03  0.76604927823E+03  0.25500000920E-02 0. -1.
    10030    2    1    2    0    0  0.00000000000E+00  0.00000000000E+00  0.41500875254E+03  0.19471073090E+04  0.19023655296E+04 0.  0.
        3    1    3    3  502    0  0.53342647963E+03  0.69173274316E+03 -0.17779397968E+03  0.89143070765E+03  0.10100000352E+00 0. -1.
       -3    1    3    3    0  502 -0.53342647963E+03 -0.69173274316E+03  0.59280273222E+03  0.10556766014E+04  0.10100000352E+00 0.  1.
</event>
<event>
 5   0  0.2879462E-05  0.1900347E+04  0.7818609E-02  0.8654684E-01
       -2   -1    0    0    0  501  0.00000000000E+00  0.00000000000E+00  0.17202750801E+04  0.17202750801E+04  0.25500000920E-02 0.  1.
        2   -1    0    0  501    0  0.00000000000E+00  0.00000000000E+00 -0.52481689231E+03  0.52481689232E+03  0.25500000920E-02 0. -1.
    10030    2    1    2    0    0  0.00000000000E+00  0.00000000000E+00  0.11954581878E+04  0.22450919725E+04  0.19003467278E+04 0.  0.
        4    1    3    3  502    0 -0.41400785943E+03  0.36310494836E+03 -0.31706824750E+03  0.63543811474E+03  0.12699999809E+01 0. -1.
       -4    1    3    3    0  502  0.41400785943E+03 -0.36310494836E+03  0.15125264353E+04  0.16096538577E+04  0.12699999809E+01 0.  1.
</event>
<event>
 5   0  0.2813537E-05  0.1902343E+04  0.7818609E-02  0.8653691E-01
       -2   -1    0    0    0  501  0.00000000000E+00  0.00000000000E+00  0.36458464895E+03  0.36458464896E+03  0.25500000920E-02 0. -1.
        2   -1    0    0  501    0  0.00000000000E+00  0.00000000000E+00 -0.24815281007E+04  0.24815281007E+04  0.25500000920E-02 0.  1.
    10030    2    1    2    0    0  0.00000000000E+00  0.00000000000E+00 -0.21169434518E+04  0.28461127497E+04  0.19023428203E+04 0.  0.
        2    1    3    3  502    0 -0.42542325308E+03 -0.28805640255E+03  0.13913138859E+03  0.53227716334E+03  0.25500000920E-02 0. -1.
       -2    1    3    3    0  502  0.42542325308E+03  0.28805640255E+03 -0.22560748404E+04  0.23138355863E+04  0.25500000920E-02 0.  1.
</event>
<event>
 5   0  0.2813537E-05  0.1900919E+04  0.7818609E-02  0.8654399E-01
       -2   -1    0    0    0  501  0.00000000000E+00  0.00000000000E+00  0.13967910115E+04  0.13967910115E+04  0.25500000920E-02 0. -1.
        2   -1    0    0  501    0  0.00000000000E+00  0.00000000000E+00 -0.64674874786E+03  0.64674874787E+03  0.25500000920E-02 0.  1.
    10030    2    1    2    0    0  0.00000000000E+00  0.00000000000E+00  0.75004226368E+03  0.20435397594E+04  0.19009185545E+04 0.  0.
        2    1    3    3  502    0 -0.46909429130E+03 -0.80931867787E+03  0.19408834328E+03  0.95536195313E+03  0.25500000920E-02 0.  1.
       -2    1    3    3    0  502  0.46909429130E+03  0.80931867787E+03  0.55595392040E+03  0.10881778063E+04  0.25500000920E-02 0. -1.
</event>
<event>
 5   0  0.2855141E-05  0.1896665E+04  0.7818609E-02  0.8656518E-01
       -2   -1    0    0    0  501  0.00000000000E+00  0.00000000000E+00  0.13768968413E+04  0.13768968413E+04  0.25500000920E-02 0.  1.
        2   -1    0    0  501    0  0.00000000000E+00  0.00000000000E+00 -0.65316027949E+03  0.65316027949E+03  0.25500000920E-02 0. -1.
    10030    2    1    2    0    0  0.00000000000E+00  0.00000000000E+00  0.72373656180E+03  0.20300571208E+04  0.18966647840E+04 0.  0.
        1    1    3    3  502    0  0.45800690049E+03 -0.83012263303E+03  0.38483475086E+03  0.10232163468E+04  0.50400001928E-02 0. -1.
       -1    1    3    3    0  502 -0.45800690049E+03  0.83012263303E+03  0.33890181094E+03  0.10068407740E+04  0.50400001928E-02 0.  1.
</event>
<event>
 5   0  0.1010725E-05  0.1895601E+04  0.7818609E-02  0.8657049E-01
        3   -1    0    0  501    0  0.00000000000E+00  0.00000000000E+00  0.70109180997E+03  0.70109181725E+03  0.10100000352E+00 0. -1.
       -3   -1    0    0    0  501  0.00000000000E+00  0.00000000000E+00 -0.12813237100E+04  0.12813237139E+04  0.10100000352E+00 0.  1.
    10030    2    1    2    0    0  0.00000000000E+00  0.00000000000E+00 -0.58023189999E+03  0.19824155312E+04  0.18956007703E+04 0.  0.
        2    1    3    3  502    0  0.40672448149E+03  0.83467222638E+03 -0.91075993793E+02  0.93295089152E+03  0.25500000920E-02 0.  1.
       -2    1    3    3    0  502 -0.40672448149E+03 -0.83467222638E+03 -0.48915590619E+03  0.10494646397E+04  0.25500000920E-02 0. -1.
</event>
<event>
 5   0  0.1413011E-05  0.1899128E+04  0.7818609E-02  0.8655290E-01
        1   -1    0    0  501    0  0.00000000000E+00  0.00000000000E+00  0.16522529143E+04  0.16522529143E+04  0.50400001928E-02 0.  1.
       -1   -1    0    0    0  501  0.00000000000E+00  0.00000000000E+00 -0.54572290403E+03  0.54572290405E+03  0.50400001928E-02 0. -1.
    10030    2    1    2    0    0  0.00000000000E+00  0.00000000000E+00  0.11065300103E+04  0.21979758184E+04  0.18991284934E+04 0.  0.
        1    1    3    3  502    0 -0.67755358768E+03  0.45708191348E+02 -0.21488062684E+03  0.71227928985E+03  0.50400001928E-02 0. -1.
       -1    1    3    3    0  502  0.67755358768E+03 -0.45708191348E+02  0.13214106371E+04  0.14856965285E+04  0.50400001928E-02 0.  1.
</event>
<event>
 5   0  0.2855141E-05  0.1898484E+04  0.7818609E-02  0.8655611E-01
        2   -1    0    0  501    0  0.00000000000E+00  0.00000000000E+00  0.15380838772E+04  0.15380838772E+04  0.25500000920E-02 0. -1.
       -2   -1    0    0    0  501  0.00000000000E+00  0.00000000000E+00 -0.58583299101E+03  0.58583299102E+03  0.25500000920E-02 0.  1.
    10030    2    1    2    0    0  0.00000000000E+00  0.00000000000E+00  0.95225088614E+03  0.21239168682E+04  0.18984838985E+04 0.  0.
        1    1    3    3  502    0  0.15223552771E+03  0.93545911497E+03  0.41691793278E+03  0.10354129487E+04  0.50400001928E-02 0.  1.
       -1    1    3    3    0  502 -0.15223552771E+03 -0.93545911497E+03  0.53533295336E+03  0.10885039195E+04  0.50400001928E-02 0. -1.
</event>
<event>
 5   0  0.1344119E-05  0.1900329E+04  0.7818609E-02  0.8654693E-01
       -1   -1    0    0    0  501  0.00000000000E+00  0.00000000000E+00  0.11782756251E+04  0.11782756251E+04  0.50400001928E-02 0. -1.
        1   -1    0    0  501    0  0.00000000000E+00  0.00000000000E+00 -0.76621489000E+03  0.76621489001E+03  0.50400001928E-02 0.  1.
    10030    2    1    2    0    0  0.00000000000E+00  0.00000000000E+00  0.41206073506E+03  0.19444905151E+04  0.19003287384E+04 0.  0.
        2    1    3    3  502    0  0.48206870712E+02 -0.46297145398E+03  0.10536193761E+04  0.11518594789E+04  0.25500000920E-02 0. -1.
       -2    1    3    3    0  502 -0.48206870712E+02  0.46297145398E+03 -0.64155864102E+03  0.79263103614E+03  0.25500000920E-02 0.  1.
</event>
<event>
 5   0  0.1327254E-05  0.1898934E+04  0.7818609E-02  0.8655387E-01
       -1   -1    0    0    0  501  0.00000000000E+00  0.00000000000E+00  0.11018775144E+04  0.11018775144E+04  0.50400001928E-02 0. -1.
        1   -1    0    0  501    0  0.00000000000E+00  0.00000000000E+00 -0.81813801881E+03  0.81813801883E+03  0.50400001928E-02 0.  1.
    10030    2    1    2    0    0  0.00000000000E+00  0.00000000000E+00  0.28373949559E+03  0.19200155332E+04  0.18989343186E+04 0.  0.
        5    1    3    3  502    0  0.72365911484E+03  0.51910683457E+03  0.47463030002E+03  0.10091830517E+04  0.46999998093E+01 0. -1.
       -5    1    3    3    0  502 -0.72365911484E+03 -0.51910683457E+03 -0.19089080443E+03  0.91083248152E+03  0.46999998093E+01 0.  1.
</event>
<event>
 5   0  0.1471485E-05  0.1899620E+04  0.7818609E-02  0.8655046E-01
        1   -1    0    0  501    0  0.00000000000E+00  0.00000000000E+00  0.88256285778E+03  0.88256285779E+03  0.50400001928E-02 0.  1.
       -1   -1    0    0    0  501  0.00000000000E+00  0.00000000000E+00 -0.10221806635E+04  0.10221806635E+04  0.50400001928E-02 0. -1.
    10030    2    1    2    0    0  0.00000000000E+00  0.00000000000E+00 -0.13961780568E+03  0.19047435213E+04  0.18996196330E+04 0.  0.
        4    1    3    3  502    0  0.12978708208E+03 -0.17495385085E+02 -0.10130834792E+04  0.10215138394E+04  0.12699999809E+01 0. -1.
       -4    1    3    3    0  502 -0.12978708208E+03  0.17495385085E+02  0.87346567357E+03  0.88322968190E+03  0.12699999809E+01 0.  1.
</event>
<event>
 5   0  0.2855141E-05  0.1903120E+04  0.7818609E-02  0.8653305E-01
        2   -1    0    0  501    0  0.00000000000E+00  0.00000000000E+00  0.16098529055E+04  0.16098529055E+04  0.25500000920E-02 0.  1.
       -2   -1    0    0    0  501  0.00000000000E+00  0.00000000000E+00 -0.56245318034E+03  0.56245318035E+03  0.25500000920E-02 0. -1.
    10030    2    1    2    0    0  0.00000000000E+00  0.00000000000E+00  0.10473997252E+04  0.21723060859E+04  0.19031204761E+04 0.  0.
        1    1    3    3  502    0  0.19235373656E+03 -0.65866012291E+03  0.12762171303E+04  0.14489869845E+04  0.50400001928E-02 0.  1.
       -1    1    3    3    0  502 -0.19235373656E+03  0.65866012291E+03 -0.22881740515E+03  0.72331910137E+03  0.50400001928E-02 0. -1.
</event>
<event>
 5   0  0.1344119E-05  0.1897665E+04  0.7818609E-02  0.8656020E-01
       -1   -1    0    0    0  501  0.00000000000E+00  0.00000000000E+00  0.43514463235E+03  0.43514463238E+03  0.50400001928E-02 0. -1.
        1   -1    0    0  501    0  0.00000000000E+00  0.00000000000E+00 -0.20689277381E+04  0.20689277381E+04  0.50400001928E-02 0.  1.
    10030    2    1    2    0    0  0.00000000000E+00  0.00000000000E+00 -0.16337831057E+04  0.25040723705E+04  0.18976646701E+04 0.  0.
        2    1    3    3  502    0 -0.13990866649E+03  0.54887832228E+03 -0.18213500504E+04  0.19073955682E+04  0.25500000920E-02 0.  1.
       -2    1    3    3    0  502  0.13990866649E+03 -0.54887832228E+03  0.18756694464E+03  0.59667680226E+03  0.25500000920E-02 0. -1.
</event>
<event>
 5   0  0.1327254E-05  0.1901270E+04  0.7818609E-02  0.8654224E-01
       -1   -1    0    0    0  501  0.00000000000E+00  0.00000000000E+00  0.45786184772E+03  0.45786184775E+03  0.50400001928E-02 0. -1.
        1   -1    0    0  501    0  0.00000000000E+00  0.00000000000E+00 -0.19737552082E+04  0.19737552082E+04  0.50400001928E-02 0.  1.
    10030    2    1    2    0    0  0.00000000000E+00  0.00000000000E+00 -0.15158933605E+04  0.24316170560E+04  0.19012703192E+04 0.  0.
        5    1    3    3  502    0  0.78509539341E+02 -0.10662454896E+03 -0.19618886776E+04  0.19663574994E+04  0.46999998093E+01 0.  1.
       -5    1    3    3    0  502 -0.78509539341E+02  0.10662454896E+03  0.44599531704E+03  0.46525955663E+03  0.46999998093E+01 0. -1.
</event>
<event>
 5   0  0.1327254E-05  0.1906583E+04  0.7818609E-02  0.8651587E-01
       -1   -1    0    0    0  501  0.00000000000E+00  0.00000000000E+00  0.51899738557E+03  0.51899738559E+03  0.50400001928E-02 0.  1.
        1   -1    0    0  501    0  0.00000000000E+00  0.00000000000E+00 -0.17509999903E+04  0.17509999903E+04  0.50400001928E-02 0. -1.
    10030    2    1    2    0    0  0.00000000000E+00  0.00000000000E+00 -0.12320026048E+04  0.22699973759E+04  0.19065827201E+04 0.  0.
        5    1    3    3  502    0  0.18324511101E+03  0.50364239011E+03  0.32262566801E+03  0.62557480727E+03  0.46999998093E+01 0.  1.
       -5    1    3    3    0  502 -0.18324511101E+03 -0.50364239011E+03 -0.15546282728E+04  0.16444225687E+04  0.46999998093E+01 0. -1.
</event>
<event>
 5   0  0.2855141E-05  0.1885403E+04  0.7818609E-02  0.8662157E-01
        2   -1    0    0  501    0  0.00000000000E+00  0.00000000000E+00  0.13067625840E+04  0.13067625840E+04  0.25500000920E-02 0. -1.
       -2   -1    0    0    0  501  0.00000000000E+00  0.00000000000E+00 -0.68006679790E+03  0.68006679791E+03  0.25500000920E-02 0.  1.
    10030    2    1    2    0    0  0.00000000000E+00  0.00000000000E+00  0.62669578607E+03  0.19868293819E+04  0.18854027115E+04 0.  0.
        1    1    3    3  502    0 -0.77435749046E+03  0.51781136849E+03  0.46579433685E+03  0.10415001203E+04  0.50400001928E-02 0.  1.
       -1    1    3    3    0  502  0.77435749046E+03 -0.51781136849E+03  0.16090144923E+03  0.94532926156E+03  0.50400001928E-02 0. -1.
</event>
<event>
 5   0  0.1327254E-05  0.1897041E+04  0.7818609E-02  0.8656331E-01
       -1   -1    0    0    0  501  0.00000000000E+00  0.00000000000E+00  0.45732384260E+03  0.45732384263E+03  0.50400001928E-02 0. -1.
        1   -1    0    0  501    0  0.00000000000E+00  0.00000000000E+00 -0.19672952420E+04  0.19672952420E+04  0.50400001928E-02 0.  1.
    10030    2    1    2    0    0  0.00000000000E+00  0.00000000000E+00 -0.15099713994E+04  0.24246190847E+04  0.18970408743E+04 0.  0.
        5    1    3    3  502    0  0.58211279529E+03  0.18188361102E+03 -0.16834677992E+04  0.17905370355E+04  0.46999998093E+01 0.  1.
       -5    1    3    3    0  502 -0.58211279529E+03 -0.18188361102E+03  0.17349639977E+03  0.63408204921E+03  0.46999998093E+01 0. -1.
</event>
<event>
 5   0  0.2813537E-05  0.1897432E+04  0.7818609E-02  0.8656136E-01
       -2   -1    0    0    0  501  0.00000000000E+00  0.00000000000E+00  0.34930493621E+03  0.34930493622E+03  0.25500000920E-02 0. -1.
        2   -1    0    0  501    0  0.00000000000E+00  0.00000000000E+00 -0.25767216897E+04  0.25767216897E+04  0.25500000920E-02 0.  1.
    10030    2    1    2    0    0  0.00000000000E+00  0.00000000000E+00 -0.22274167535E+04  0.29260266259E+04  0.18974315329E+04 0.  0.
        2    1    3    3  502    0 -0.73129677203E+03 -0.44806160672E+03 -0.17391761288E+04  0.19391461470E+04  0.25500000920E-02 0.  1.
       -2    1    3    3    0  502  0.73129677203E+03  0.44806160672E+03 -0.48824062468E+03  0.98688047898E+03  0.25500000920E-02 0. -1.
</event>
<event>
 5   0  0.1344119E-05  0.1899927E+04  0.7818609E-02  0.8654893E-01
        1   -1    0    0  501    0  0.00000000000E+00  0.00000000000E+00  0.50489538230E+03  0.50489538233E+03  0.50400001928E-02 0.  1.
       -1   -1    0    0    0  501  0.00000000000E+00  0.00000000000E+00 -0.17873623913E+04  0.17873623913E+04  0.50400001928E-02 0. -1.
    10030    2    1    2    0    0  0.00000000000E+00  0.00000000000E+00 -0.12824670090E+04  0.22922577736E+04  0.18999273859E+04 0.  0.
        2    1    3    3  502    0  0.22030859450E+03  0.55565979991E+03  0.24956486191E+03  0.64774710370E+03  0.25500000920E-02 0.  1.
       -2    1    3    3    0  502 -0.22030859450E+03 -0.55565979991E+03 -0.15320318709E+04  0.16445106699E+04  0.25500000920E-02 0. -1.
</event>
<event>
 5   0  0.2789718E-05  0.1895654E+04  0.7818609E-02  0.8657023E-01
        2   -1    0    0  501    0  0.00000000000E+00  0.00000000000E+00  0.73150276490E+03  0.73150276491E+03  0.25500000920E-02 0.  1.
       -2   -1    0    0    0  501  0.00000000000E+00  0.00000000000E+00 -0.12281234355E+04  0.12281234355E+04  0.25500000920E-02 0. -1.
    10030    2    1    2    0    0  0.00000000000E+00  0.00000000000E+00 -0.49662067057E+03  0.19596262004E+04  0.18956536484E+04 0.  0.
        5    1    3    3  502    0  0.85004442384E+03 -0.13939819626E+03 -0.65706049737E+03  0.10834011108E+04  0.46999998093E+01 0. -1.
       -5    1    3    3    0  502 -0.85004442384E+03  0.13939819626E+03  0.16043982681E+03  0.87622508960E+03  0.46999998093E+01 0.  1.
</event>
<event>
 5   0  0.2879462E-05  0.1900391E+04  0.7818609E-02  0.8654662E-01
        2   -1    0    0  501    0  0.00000000000E+00  0.00000000000E+00  0.13502168818E+04  0.13502168818E+04  0.25500000920E-02 0. -1.
       -2   -1    0    0    0  501  0.00000000000E+00  0.00000000000E+00 -0.66868620441E+03  0.66868620442E+03  0.25500000920E-02 0.  1.
    10030    2    1    2    0    0  0.00000000000E+00  0.00000000000E+00  0.68153067736E+03  0.20189030862E+04  0.19003909091E+04 0.  0.
        4    1    3    3  502    0  0.71869430066E+03 -0.45732989644E+03 -0.10643437332E+03  0.85848821815E+03  0.12699999809E+01 0.  1.
       -4    1    3    3    0  502 -0.71869430066E+03  0.45732989644E+03  0.78796505068E+03  0.11604148680E+04  0.12699999809E+01 0. -1.
</event>
<event>
 5   0  0.2879462E-05  0.1899604E+04  0.7818609E-02  0.8655053E-01
        2   -1    0    0  501    0  0.00000000000E+00  0.00000000000E+00  0.14158662236E+04  0.14158662236E+04  0.25500000920E-02 0.  1.
       -2   -1    0    0    0  501  0.00000000000E+00  0.00000000000E+00 -0.63715355059E+03  0.63715355060E+03  0.25500000920E-02 0. -1.
    10030    2    1    2    0    0  0.00000000000E+00  0.00000000000E+00  0.77871267301E+03  0.20530197742E+04  0.18996043710E+04 0.  0.
        4    1    3    3  502    0  0.59780684887E+03  0.70094457399E+03  0.13954776520E+03  0.93175721947E+03  0.12699999809E+01 0. -1.
       -4    1    3    3    0  502 -0.59780684887E+03 -0.70094457399E+03  0.63916490781E+03  0.11212625547E+04  0.12699999809E+01 0.  1.
</event>
<event>
 5   0  0.1010725E-05  0.1895628E+04  0.7818609E-02  0.8657036E-01
       -3   -1    0    0    0  501  0.00000000000E+00  0.00000000000E+00  0.48771211382E+03  0.48771212428E+03  0.10100000352E+00 0.  1.
        3   -1    0    0  501    0  0.00000000000E+00  0.00000000000E+00 -0.18419701536E+04  0.18419701564E+04  0.10100000352E+00 0. -1.
    10030    2    1    2    0    0  0.00000000000E+00  0.00000000000E+00 -0.13542580398E+04  0.23296822807E+04  0.18956277827E+04 0.  0.
        4    1    3    3  502    0 -0.69308814932E+03  0.36812211963E+03 -0.23960035238E+02  0.78515016008E+03  0.12699999809E+01 0.  1.
       -4    1    3    3    0  502  0.69308814932E+03 -0.36812211963E+03 -0.13302980046E+04  0.15445321206E+04  0.12699999809E+01 0. -1.
</event>
<event>
 5   0  0.1010725E-05  0.1904078E+04  0.7818609E-02  0.8652829E-01
        3   -1    0    0  501    0  0.00000000000E+00  0.00000000000E+00  0.40689972952E+03  0.40689974205E+03  0.10100000352E+00 0. -1.
       -3   -1    0    0    0  501  0.00000000000E+00  0.00000000000E+00 -0.22275218046E+04  0.22275218069E+04  0.10100000352E+00 0.  1.
    10030    2    1    2    0    0  0.00000000000E+00  0.00000000000E+00 -0.18206220751E+04  0.26344215489E+04  0.19040777708E+04 0.  0.
        3    1    3    3  502    0  0.86357889648E+03 -0.26291303795E+03 -0.49182737507E+03  0.10280009499E+04  0.10100000352E+00 0. -1.
       -3    1    3    3    0  502 -0.86357889648E+03  0.26291303795E+03 -0.13287947000E+04  0.16064205990E+04  0.10100000352E+00 0.  1.
</event>
<event>
 5   0  0.1327254E-05  0.1905867E+04  0.7818609E-02  0.8651941E-01
       -1   -1    0    0    0  501  0.00000000000E+00  0.00000000000E+00  0.59584990531E+03  0.59584990534E+03  0.50400001928E-02 0.  1.
        1   -1    0    0  501    0  0.00000000000E+00  0.00000000000E+00 -0.15240121121E+04  0.15240121121E+04  0.50400001928E-02 0. -1.
    10030    2    1    2    0    0  0.00000000000E+00  0.00000000000E+00 -0.92816220676E+03  0.21198620174E+04  0.19058672280E+04 0.  0.
        5    1    3    3  502    0 -0.46248460518E+03 -0.79516572657E+03 -0.74076860517E+03  0.11810761022E+04  0.46999998093E+01 0. -1.
       -5    1    3    3    0  502  0.46248460518E+03  0.79516572657E+03 -0.18739360159E+03  0.93878591524E+03  0.46999998093E+01 0.  1.
</event>
<event>
 5   0  0.2855141E-05  0.1901168E+04  0.7818609E-02  0.8654275E-01
        2   -1    0    0  501    0  0.00000000000E+00  0.00000000000E+00  0.78556672959E+03  0.78556672959E+03  0.25500000920E-02 0.  1.
       -2   -1    0    0    0  501  0.00000000000E+00  0.00000000000E+00 -0.11502655676E+04  0.11502655676E+04  0.25500000920E-02 0. -1.
    10030    2    1    2    0    0  0.00000000000E+00  0.00000000000E+00 -0.36469883804E+03  0.19358322972E+04  0.19011684409E+04 0.  0.
        1    1    3    3  502    0  0.43310725316E+03  0.51430702549E+03  0.50185215399E+03  0.83901680180E+03  0.50400001928E-02 0.  1.
       -1    1    3    3    0  502 -0.43310725316E+03 -0.51430702549E+03 -0.86655099203E+03  0.10968154954E+04  0.50400001928E-02 0. -1.
</event>
<event>
 5   0  0.2789718E-05  0.1898162E+04  0.7818609E-02  0.8655772E-01
        2   -1    0    0  501    0  0.00000000000E+00  0.00000000000E+00  0.61852982818E+03  0.61852982818E+03  0.25500000920E-02 0.  1.
       -2   -1    0    0    0  501  0.00000000000E+00  0.00000000000E+00 -0.14562835869E+04  0.14562835869E+04  0.25500000920E-02 0. -1.
    10030    2    1    2    0    0  0.00000000000E+00  0.00000000000E+00 -0.83775375871E+03  0.20748134151E+04  0.18981620972E+04 0.  0.
        5    1    3    3  502    0 -0.66493107561E+03 -0.63600738964E+03 -0.16465065595E+03  0.93475700772E+03  0.46999998093E+01 0. -1.
       -5    1    3    3    0  502  0.66493107561E+03  0.63600738964E+03 -0.67310310277E+03  0.11400564074E+04  0.46999998093E+01 0.  1.
</event>
<event>
 5   0  0.1327254E-05  0.1896992E+04  0.7818609E-02  0.8656355E-01
        1   -1    0    0  501    0  0.00000000000E+00  0.00000000000E+00  0.11329221284E+04  0.11329221284E+04  0.50400001928E-02 0.  1.
       -1   -1    0    0    0  501  0.00000000000E+00  0.00000000000E+00 -0.79409212602E+03  0.79409212603E+03  0.50400001928E-02 0. -1.
    10030    2    1    2    0    0  0.00000000000E+00  0.00000000000E+00  0.33883000238E+03  0.19270142544E+04  0.18969918730E+04 0.  0.
        5    1    3    3  502    0  0.40828340087E+03 -0.82051940589E+03 -0.78735836796E+02  0.91987436798E+03  0.46999998093E+01 0. -1.
       -5    1    3    3    0  502 -0.40828340087E+03  0.82051940589E+03  0.41756583918E+03  0.10071398865E+04  0.46999998093E+01 0.  1.
</event>
<event>
 5   0  0.2879462E-05  0.1898400E+04  0.7818609E-02  0.8655653E-01
       -2   -1    0    0    0  501  0.00000000000E+00  0.00000000000E+00  0.11263766933E+04  0.11263766933E+04  0.25500000920E-02 0.  1.
        2   -1    0    0  501    0  0.00000000000E+00  0.00000000000E+00 -0.79989250270E+03  0.79989250271E+03  0.25500000920E-02 0. -1.
    10030    2    1    2    0    0  0.00000000000E+00  0.00000000000E+00  0.32648419058E+03  0.19262691960E+04  0.18983996125E+04 0.  0.
        4    1    3    3  502    0 -0.45085044839E+03 -0.24833889839E+03 -0.64598733357E+03  0.82597795570E+03  0.12699999809E+01 0. -1.
       -4    1    3    3    0  502  0.45085044839E+03  0.24833889839E+03  0.97247152415E+03  0.11002912403E+04  0.12699999809E+01 0.  1.
</event>
<event>
 5   0  0.2855141E-05  0.1900355E+04  0.7818609E-02  0.8654679E-01
        2   -1    0    0  501    0  0.00000000000E+00  0.00000000000E+00  0.57603050428E+03  0.57603050428E+03  0.25500000920E-02 0.  1.
       -2   -1    0    0    0  501  0.00000000000E+00  0.00000000000E+00 -0.15673436267E+04  0.15673436267E+04  0.25500000920E-02 0. -1.
    10030    2    1    2    0    0  0.00000000000E+00  0.00000000000E+00 -0.99131312246E+03  0.21433741310E+04  0.19003554822E+04 0.  0.
        1    1    3    3  502    0  0.85317575956E+03 -0.16827831535E+02 -0.24308126469E+02  0.85368784556E+03  0.50400001928E-02 0.  1.
       -1    1    3    3    0  502 -0.85317575956E+03  0.16827831535E+02 -0.96700499599E+03  0.12896862855E+04  0.50400001928E-02 0. -1.
</event>
<event>
 5   0  0.1429067E-05  0.1889798E+04  0.7818609E-02  0.8659951E-01
       -1   -1    0    0    0  501  0.00000000000E+00  0.00000000000E+00  0.17611340655E+04  0.17611340655E+04  0.50400001928E-02 0.  1.
        1   -1    0    0  501    0  0.00000000000E+00  0.00000000000E+00 -0.50696532604E+03  0.50696532607E+03  0.50400001928E-02 0. -1.
    10030    2    1    2    0    0  0.00000000000E+00  0.00000000000E+00  0.12541687395E+04  0.22680993916E+04  0.18897977731E+04 0.  0.
        3    1    3    3  502    0 -0.80914695185E+03  0.48133577900E+03  0.72333090779E+03  0.11872702027E+04  0.10100000352E+00 0.  1.
       -3    1    3    3    0  502  0.80914695185E+03 -0.48133577900E+03  0.53083783168E+03  0.10808291889E+04  0.10100000352E+00 0. -1.
</event>
<event>
 5   0  0.2888776E-05  0.1896571E+04  0.7818609E-02  0.8656565E-01
       -2   -1    0    0    0  501  0.00000000000E+00  0.00000000000E+00  0.69107029243E+03  0.69107029243E+03  0.25500000920E-02 0.  1.
        2   -1    0    0  501    0  0.00000000000E+00  0.00000000000E+00 -0.13012355974E+04  0.13012355974E+04  0.25500000920E-02 0. -1.
    10030    2    1    2    0    0  0.00000000000E+00  0.00000000000E+00 -0.61016530495E+03  0.19923058898E+04  0.18965708685E+04 0.  0.
        3    1    3    3  502    0 -0.11329742555E+03  0.44784318503E+03  0.56487891646E+03  0.72971777111E+03  0.10100000352E+00 0.  1.
       -3    1    3    3    0  502  0.11329742555E+03 -0.44784318503E+03 -0.11750442214E+04  0.12625881187E+04  0.10100000352E+00 0. -1.
</event>
<event>
 5   0  0.1429067E-05  0.1899225E+04  0.7818609E-02  0.8655242E-01
       -1   -1    0    0    0  501  0.00000000000E+00  0.00000000000E+00  0.14917640344E+04  0.14917640344E+04  0.50400001928E-02 0. -1.
        1   -1    0    0  501    0  0.00000000000E+00  0.00000000000E+00 -0.60449501218E+03  0.60449501221E+03  0.50400001928E-02 0.  1.
    10030    2    1    2    0    0  0.00000000000E+00  0.00000000000E+00  0.88726902220E+03  0.20962590466E+04  0.18992250190E+04 0.  0.
        3    1    3    3  502    0  0.76768555944E+03 -0.55867932039E+03  0.42451050996E+03  0.10400350400E+04  0.10100000352E+00 0.  1.
       -3    1    3    3    0  502 -0.76768555944E+03  0.55867932039E+03  0.46275851224E+03  0.10562240066E+04  0.10100000352E+00 0. -1.
</event>
<event>
 5   0  0.1327254E-05  0.1899165E+04  0.7818609E-02  0.8655272E-01
        1   -1    0    0  501    0  0.00000000000E+00  0.00000000000E+00  0.10515598147E+04  0.10515598147E+04  0.50400001928E-02 0. -1.
       -1   -1    0    0    0  501  0.00000000000E+00  0.00000000000E+00 -0.85749503604E+03  0.85749503605E+03  0.50400001928E-02 0.  1.
    10030    2    1    2    0    0  0.00000000000E+00  0.00000000000E+00  0.19406477865E+03  0.19090548508E+04  0.18991654180E+04 0.  0.
        5    1    3    3  502    0  0.11538060482E+03  0.63724239855E+03 -0.60105829971E+03  0.88356308667E+03  0.46999998093E+01 0.  1.
       -5    1    3    3    0  502 -0.11538060482E+03 -0.63724239855E+03  0.79512307836E+03  0.10254917641E+04  0.46999998093E+01 0. -1.
</event>
<event>
 5   0  0.1413011E-05  0.1899287E+04  0.7818609E-02  0.8655211E-01
        1   -1    0    0  501    0  0.00000000000E+00  0.00000000000E+00  0.16722158479E+04  0.16722158479E+04  0.50400001928E-02 0.  1.
       -1   -1    0    0    0  501  0.00000000000E+00  0.00000000000E+00 -0.53929802187E+03  0.53929802190E+03  0.50400001928E-02 0. -1.
    10030    2    1    2    0    0  0.00000000000E+00  0.00000000000E+00  0.11329178260E+04  0.22115138698E+04  0.18992869177E+04 0.  0.
        1    1    3    3  502    0 -0.70199764783E+03  0.37988085005E+03 -0.32623194833E+02  0.79885820435E+03  0.50400001928E-02 0. -1.
       -1    1    3    3    0  502  0.70199764783E+03 -0.37988085005E+03  0.11655410208E+04  0.14126556654E+04  0.50400001928E-02 0.  1.
</event>
<event>
 5   0  0.1413011E-05  0.1897126E+04  0.7818609E-02  0.8656289E-01
       -1   -1    0    0    0  501  0.00000000000E+00  0.00000000000E+00  0.41749558852E+03  0.41749558855E+03  0.50400001928E-02 0. -1.
        1   -1    0    0  501    0  0.00000000000E+00  0.00000000000E+00 -0.21551636033E+04  0.21551636033E+04  0.50400001928E-02 0.  1.
    10030    2    1    2    0    0  0.00000000000E+00  0.00000000000E+00 -0.17376680148E+04  0.25726591919E+04  0.18971255066E+04 0.  0.
        1    1    3    3  502    0 -0.70905172225E+03  0.15501734800E+03 -0.16970293696E+04  0.18457230031E+04  0.50400001928E-02 0.  1.
       -1    1    3    3    0  502  0.70905172225E+03 -0.15501734800E+03 -0.40638645217E+02  0.72693618875E+03  0.50400001928E-02 0. -1.
</event>
<event>
 5   0  0.2888776E-05  0.1886669E+04  0.7818609E-02  0.8661521E-01
        2   -1    0    0  501    0  0.00000000000E+00  0.00000000000E+00  0.19449593240E+04  0.19449593240E+04  0.25500000920E-02 0. -1.
       -2   -1    0    0    0  501  0.00000000000E+00  0.00000000000E+00 -0.45753133901E+03  0.45753133901E+03  0.25500000920E-02 0.  1.
    10030    2    1    2    0    0  0.00000000000E+00  0.00000000000E+00  0.14874279850E+04  0.24024906630E+04  0.18866688568E+04 0.  0.
        3    1    3    3  502    0  0.72892893754E+03  0.36272540539E+03  0.13503844640E+04  0.15768466401E+04  0.10100000352E+00 0. -1.
       -3    1    3    3    0  502 -0.72892893754E+03 -0.36272540539E+03  0.13704352102E+03  0.82564402290E+03  0.10100000352E+00 0.  1.
</event>
<event>
 5   0  0.1413011E-05  0.1900294E+04  0.7818609E-02  0.8654710E-01
        1   -1    0    0  501    0  0.00000000000E+00  0.00000000000E+00  0.74396016708E+03  0.74396016710E+03  0.50400001928E-02 0.  1.
       -1   -1    0    0    0  501  0.00000000000E+00  0.00000000000E+00 -0.12134773979E+04  0.12134773980E+04  0.50400001928E-02 0. -1.
    10030    2    1    2    0    0  0.00000000000E+00  0.00000000000E+00 -0.46951723086E+03  0.19574375651E+04  0.19002935013E+04 0.  0.
        1    1    3    3  502    0 -0.79682095520E+03 -0.69631826961E+02 -0.76302208193E+03  0.11054297461E+04  0.50400001928E-02 0. -1.
       -1    1    3    3    0  502  0.79682095520E+03  0.69631826961E+02  0.29350485106E+03  0.85200781898E+03  0.50400001928E-02 0.  1.
</event>
<event>
 5   0  0.1344119E-05  0.1900628E+04  0.7818609E-02  0.8654544E-01
       -1   -1    0    0    0  501  0.00000000000E+00  0.00000000000E+00  0.73396250344E+03  0.73396250346E+03  0.50400001928E-02 0. -1.
        1   -1    0    0  501    0  0.00000000000E+00  0.00000000000E+00 -0.12304399494E+04  0.12304399494E+04  0.50400001928E-02 0.  1.
    10030    2    1    2    0    0  0.00000000000E+00  0.00000000000E+00 -0.49647744595E+03  0.19644024529E+04  0.19006280916E+04 0.  0.
        2    1    3    3  502    0 -0.93361376916E+02  0.11751355202E+02 -0.12256130774E+04  0.12292200196E+04  0.25500000920E-02 0.  1.
       -2    1    3    3    0  502  0.93361376916E+02 -0.11751355202E+02  0.72913563148E+03  0.73518243324E+03  0.25500000920E-02 0. -1.
</event>
<event>
 5   0  0.1327254E-05  0.1900353E+04  0.7818609E-02  0.8654681E-01
        1   -1    0    0  501    0  0.00000000000E+00  0.00000000000E+00  0.17326017438E+04  0.17326017438E+04  0.50400001928E-02 0.  1.
       -1   -1    0    0    0  501  0.00000000000E+00  0.00000000000E+00 -0.52108635975E+03  0.52108635977E+03  0.50400001928E-02 0. -1.
    10030    2    1    2    0    0  0.00000000000E+00  0.00000000000E+00  0.12115153840E+04  0.22536881035E+04  0.19003527415E+04 0.  0.
        5    1    3    3  502    0 -0.87867981773E+03 -0.22280786850E+03  0.26804514483E+03  0.94529987729E+03  0.46999998093E+01 0. -1.
       -5    1    3    3    0  502  0.87867981773E+03  0.22280786850E+03  0.94347023917E+03  0.13083882262E+04  0.46999998093E+01 0.  1.
</event>
<event>
 5   0  0.2855141E-05  0.1864397E+04  0.7818609E-02  0.8672784E-01
        2   -1    0    0  501    0  0.00000000000E+00  0.00000000000E+00  0.18168082043E+04  0.18168082043E+04  0.25500000920E-02 0.  1.
       -2   -1    0    0    0  501  0.00000000000E+00  0.00000000000E+00 -0.47830821126E+03  0.47830821126E+03  0.25500000920E-02 0. -1.
    10030    2    1    2    0    0  0.00000000000E+00  0.00000000000E+00  0.13384999930E+04  0.22951164156E+04  0.18643972564E+04 0.  0.
        1    1    3    3  502    0 -0.19270958522E+03  0.86114696096E+03  0.10391375855E+04  0.13632747318E+04  0.50400001928E-02 0. -1.
       -1    1    3    3    0  502  0.19270958522E+03 -0.86114696096E+03  0.29936240753E+03  0.93184168380E+03  0.50400001928E-02 0.  1.
</event>
<event>
 5   0  0.2888776E-05  0.1901455E+04  0.7818609E-02  0.8654132E-01
       -2   -1    0    0    0  501  0.00000000000E+00  0.00000000000E+00  0.62446029046E+03  0.62446029046E+03  0.25500000920E-02 0. -1.
        2   -1    0    0  501    0  0.00000000000E+00  0.00000000000E+00 -0.14474628871E+04  0.14474628871E+04  0.25500000920E-02 0.  1.
    10030    2    1    2    0    0  0.00000000000E+00  0.00000000000E+00 -0.82300259661E+03  0.20719231775E+04  0.19014553320E+04 0.  0.
        3    1    3    3  502    0  0.24672461466E+03  0.50648750411E+03 -0.12459781495E+04  0.13674297739E+04  0.10100000352E+00 0.  1.
       -3    1    3    3    0  502 -0.24672461466E+03 -0.50648750411E+03  0.42297555285E+03  0.70449340367E+03  0.10100000352E+00 0. -1.
</event>
<event>
 5   0  0.1413011E-05  0.1863639E+04  0.7818609E-02  0.8673170E-01
        1   -1    0    0  501    0  0.00000000000E+00  0.00000000000E+00  0.66489061317E+03  0.66489061318E+03  0.50400001928E-02 0.  1.
       -1   -1    0    0    0  501  0.00000000000E+00  0.00000000000E+00 -0.13059103020E+04  0.13059103020E+04  0.50400001928E-02 0. -1.
    10030    2    1    2    0    0  0.00000000000E+00  0.00000000000E+00 -0.64101968885E+03  0.19708009152E+04  0.18636389151E+04 0.  0.
        1    1    3    3  502    0  0.10171596874E+03 -0.46713983607E+03  0.52530740652E+03  0.71029123331E+03  0.50400001928E-02 0.  1.
       -1    1    3    3    0  502 -0.10171596874E+03  0.46713983607E+03 -0.11663270954E+04  0.12605096819E+04  0.50400001928E-02 0. -1.
</event>
<event>
 5   0  0.1344119E-05  0.1900691E+04  0.7818609E-02  0.8654512E-01
       -1   -1    0    0    0  501  0.00000000000E+00  0.00000000000E+00  0.46988569715E+03  0.46988569718E+03  0.50400001928E-02 0. -1.
        1   -1    0    0  501    0  0.00000000000E+00  0.00000000000E+00 -0.19220775076E+04  0.19220775076E+04  0.50400001928E-02 0.  1.
    10030    2    1    2    0    0  0.00000000000E+00  0.00000000000E+00 -0.14521918104E+04  0.23919632048E+04  0.19006911687E+04 0.  0.
        2    1    3    3  502    0  0.62499759075E+03  0.53369033901E+03 -0.13266240723E+04  0.15605700227E+04  0.25500000920E-02 0.  1.
       -2    1    3    3    0  502 -0.62499759075E+03 -0.53369033901E+03 -0.12556773812E+03  0.83139318211E+03  0.25500000920E-02 0. -1.
</event>
<event>
 5   0  0.1471485E-05  0.1900888E+04  0.7818609E-02  0.8654414E-01
        1   -1    0    0  501    0  0.00000000000E+00  0.00000000000E+00  0.98709192494E+03  0.98709192496E+03  0.50400001928E-02 0.  1.
       -1   -1    0    0    0  501  0.00000000000E+00  0.00000000000E+00 -0.91515679688E+03  0.91515679689E+03  0.50400001928E-02 0. -1.
    10030    2    1    2    0    0  0.00000000000E+00  0.00000000000E+00  0.71935128065E+02  0.19022487218E+04  0.19008880917E+04 0.  0.
        4    1    3    3  502    0  0.35798724694E+03 -0.85106159909E+03  0.26169842966E+03  0.95966056260E+03  0.12699999809E+01 0. -1.
       -4    1    3    3    0  502 -0.35798724694E+03  0.85106159909E+03 -0.18976330160E+03  0.94258815925E+03  0.12699999809E+01 0.  1.
</event>
<event>
 5   0  0.1429067E-05  0.1898389E+04  0.7818609E-02  0.8655659E-01
       -1   -1    0    0    0  501  0.00000000000E+00  0.00000000000E+00  0.11138220488E+04  0.11138220488E+04  0.50400001928E-02 0.  1.
        1   -1    0    0  501    0  0.00000000000E+00  0.00000000000E+00 -0.80889920838E+03  0.80889920839E+03  0.50400001928E-02 0. -1.
    10030    2    1    2    0    0  0.00000000000E+00  0.00000000000E+00  0.30492284038E+03  0.19227212572E+04  0.18983885519E+04 0.  0.
        3    1    3    3  502    0  0.10528218831E+03  0.44967802566E+03  0.99235230964E+03  0.10945582591E+04  0.10100000352E+00 0.  1.
       -3    1    3    3    0  502 -0.10528218831E+03 -0.44967802566E+03 -0.68742946926E+03  0.82816299805E+03  0.10100000352E+00 0. -1.
</event>
<event>
 5   0  0.1413011E-05  0.1898518E+04  0.7818609E-02  0.8655595E-01
        1   -1    0    0  501    0  0.00000000000E+00  0.00000000000E+00  0.70110580655E+03  0.70110580657E+03  0.50400001928E-02 0. -1.
       -1   -1    0    0    0  501  0.00000000000E+00  0.00000000000E+00 -0.12852442287E+04  0.12852442287E+04  0.50400001928E-02 0.  1.
    10030    2    1    2    0    0  0.00000000000E+00  0.00000000000E+00 -0.58413842219E+03  0.19863500353E+04  0.18985175181E+04 0.  0.
        1    1    3    3  502    0  0.51448463445E+03  0.49309137601E+03  0.36404631395E+03  0.80022700711E+03  0.50400001928E-02 0.  1.
       -1    1    3    3    0  502 -0.51448463445E+03 -0.49309137601E+03 -0.94818473614E+03  0.11861230282E+04  0.50400001928E-02 0. -1.
</event>
<event>
 5   0  0.2879462E-05  0.1900401E+04  0.7818609E-02  0.8654657E-01
        2   -1    0    0  501    0  0.00000000000E+00  0.00000000000E+00  0.75532184387E+03  0.75532184387E+03  0.25500000920E-02 0.  1.
       -2   -1    0    0    0  501  0.00000000000E+00  0.00000000000E+00 -0.11953591428E+04  0.11953591428E+04  0.25500000920E-02 0. -1.
    10030    2    1    2    0    0  0.00000000000E+00  0.00000000000E+00 -0.44003729894E+03  0.19506809867E+04  0.19004008754E+04 0.  0.
        4    1    3    3  502    0  0.81006259827E+03  0.19206143449E+03 -0.69016566177E+03  0.10813969028E+04  0.12699999809E+01 0. -1.
       -4    1    3    3    0  502 -0.81006259827E+03 -0.19206143449E+03  0.25012836284E+03  0.86928408390E+03  0.12699999809E+01 0.  1.
</event>
<event>
 5   0  0.2879462E-05  0.1899435E+04  0.7818609E-02  0.8655138E-01
       -2   -1    0    0    0  501  0.00000000000E+00  0.00000000000E+00  0.68702495271E+03  0.68702495272E+03  0.25500000920E-02 0.  1.
        2   -1    0    0  501    0  0.00000000000E+00  0.00000000000E+00 -0.13128536318E+04  0.13128536318E+04  0.25500000920E-02 0. -1.
    10030    2    1    2    0    0  0.00000000000E+00  0.00000000000E+00 -0.62582867912E+03  0.19998785846E+04  0.18994348679E+04 0.  0.
        4    1    3    3  502    0  0.23600174481E+03  0.53687125783E+03  0.47360528268E+03  0.75381108225E+03  0.12699999809E+01 0.  1.
       -4    1    3    3    0  502 -0.23600174481E+03 -0.53687125783E+03 -0.10994339618E+04  0.12460675023E+04  0.12699999809E+01 0. -1.
</event>
<event>
 5   0  0.1429067E-05  0.1899109E+04  0.7818609E-02  0.8655300E-01
        1   -1    0    0  501    0  0.00000000000E+00  0.00000000000E+00  0.16022099477E+04  0.16022099478E+04  0.50400001928E-02 0.  1.
       -1   -1    0    0    0  501  0.00000000000E+00  0.00000000000E+00 -0.56275634357E+03  0.56275634360E+03  0.50400001928E-02 0. -1.
    10030    2    1    2    0    0  0.00000000000E+00  0.00000000000E+00  0.10394536042E+04  0.21649662914E+04  0.18991090668E+04 0.  0.
        3    1    3    3  502    0 -0.92941771727E+03 -0.15550239305E+03  0.38651114801E+03  0.10185230312E+04  0.10100000352E+00 0.  1.
       -3    1    3    3    0  502  0.92941771727E+03  0.15550239305E+03  0.65294245616E+03  0.11464432601E+04  0.10100000352E+00 0. -1.
</event>
<event>
 5   0  0.1471485E-05  0.1907439E+04  0.7818609E-02  0.8651162E-01
       -1   -1    0    0    0  501  0.00000000000E+00  0.00000000000E+00  0.74317890437E+03  0.74317890439E+03  0.50400001928E-02 0. -1.
        1   -1    0    0  501    0  0.00000000000E+00  0.00000000000E+00 -0.12239057732E+04  0.12239057732E+04  0.50400001928E-02 0.  1.
    10030    2    1    2    0    0  0.00000000000E+00  0.00000000000E+00 -0.48072686884E+03  0.19670846776E+04  0.19074390702E+04 0.  0.
        4    1    3    3  502    0 -0.12950324122E+03  0.56804140042E+03 -0.10190489153E+04  0.11738417384E+04  0.12699999809E+01 0.  1.
       -4    1    3    3    0  502  0.12950324122E+03 -0.56804140042E+03  0.53832204645E+03  0.79324293925E+03  0.12699999809E+01 0. -1.
</event>
<event>
 5   0  0.2879462E-05  0.1899408E+04  0.7818609E-02  0.8655151E-01
        2   -1    0    0  501    0  0.00000000000E+00  0.00000000000E+00  0.11040301364E+04  0.11040301364E+04  0.25500000920E-02 0. -1.
       -2   -1    0    0    0  501  0.00000000000E+00  0.00000000000E+00 -0.81694986526E+03  0.81694986527E+03  0.25500000920E-02 0.  1.
    10030    2    1    2    0    0  0.00000000000E+00  0.00000000000E+00  0.28708027116E+03  0.19209800017E+04  0.18994075615E+04 0.  0.
        4    1    3    3  502    0  0.28826952386E+03 -0.27523433534E+03  0.10153527905E+04  0.10907777775E+04  0.12699999809E+01 0. -1.
       -4    1    3    3    0  502 -0.28826952386E+03  0.27523433534E+03 -0.72827251936E+03  0.83020222421E+03  0.12699999809E+01 0.  1.
</event>
<event>
 5   0  0.2879462E-05  0.1898739E+04  0.7818609E-02  0.8655484E-01
        2   -1    0    0  501    0  0.00000000000E+00  0.00000000000E+00  0.78289432937E+03  0.78289432938E+03  0.25500000920E-02 0.  1.
       -2   -1    0    0    0  501  0.00000000000E+00  0.00000000000E+00 -0.11512446542E+04  0.11512446542E+04  0.25500000920E-02 0. -1.
    10030    2    1    2    0    0  0.00000000000E+00  0.00000000000E+00 -0.36835032484E+03  0.19341389836E+04  0.18987394887E+04 0.  0.
        4    1    3    3  502    0 -0.52967006023E+03  0.53637603886E+03 -0.77204083924E+03  0.10790265512E+04  0.12699999809E+01 0. -1.
       -4    1    3    3    0  502  0.52967006023E+03 -0.53637603886E+03  0.40369051440E+03  0.85511243242E+03  0.12699999809E+01 0.  1.
</event>
<event>
 5   0  0.2789718E-05  0.1901086E+04  0.7818609E-02  0.8654316E-01
       -2   -1    0    0    0  501  0.00000000000E+00  0.00000000000E+00  0.53566147094E+03  0.53566147095E+03  0.25500000920E-02 0.  1.
        2   -1    0    0  501    0  0.00000000000E+00  0.00000000000E+00 -0.16867588148E+04  0.16867588148E+04  0.25500000920E-02 0. -1.
    10030    2    1    2    0    0  0.00000000000E+00  0.00000000000E+00 -0.11510973438E+04  0.22224202857E+04  0.19010856981E+04 0.  0.
        5    1    3    3  502    0 -0.35117194164E+03 -0.69715076920E+03 -0.12095975251E+04  0.14396142505E+04  0.46999998093E+01 0. -1.
       -5    1    3    3    0  502  0.35117194164E+03  0.69715076920E+03  0.58500181240E+02  0.78280603523E+03  0.46999998093E+01 0.  1.
</event>
<event>
 5   0  0.2855141E-05  0.1900507E+04  0.7818609E-02  0.8654604E-01
       -2   -1    0    0    0  501  0.00000000000E+00  0.00000000000E+00  0.82246299278E+03  0.82246299279E+03  0.25500000920E-02 0.  1.
        2   -1    0    0  501    0  0.00000000000E+00  0.00000000000E+00 -0.10979000780E+04  0.10979000780E+04  0.25500000920E-02 0. -1.
    10030    2    1    2    0    0  0.00000000000E+00  0.00000000000E+00 -0.27543708519E+03  0.19203630708E+04  0.19005074942E+04 0.  0.
        1    1    3    3  502    0  0.66239102807E+03 -0.57346901340E+03  0.23402947875E+03  0.90686183090E+03  0.50400001928E-02 0.  1.
       -1    1    3    3    0  502 -0.66239102807E+03  0.57346901340E+03 -0.50946656393E+03  0.10135012399E+04  0.50400001928E-02 0. -1.
</event>
<event>
 5   0  0.1010725E-05  0.1899283E+04  0.7818609E-02  0.8655213E-01
       -3   -1    0    0    0  501  0.00000000000E+00  0.00000000000E+00  0.60266198885E+03  0.60266199732E+03  0.10100000352E+00 0. -1.
        3   -1    0    0  501    0  0.00000000000E+00  0.00000000000E+00 -0.14963927988E+04  0.14963928022E+04  0.10100000352E+00 0.  1.
    10030    2    1    2    0    0  0.00000000000E+00  0.00000000000E+00 -0.89373080994E+03  0.20990547995E+04  0.18992830992E+04 0.  0.
        4    1    3    3  502    0 -0.34616759300E+03  0.87715074562E+03 -0.32284821333E+03  0.99672364011E+03  0.12699999809E+01 0.  1.
       -4    1    3    3    0  502  0.34616759300E+03 -0.87715074562E+03 -0.57088259661E+03  0.11023311594E+04  0.12699999809E+01 0. -1.
</event>
<event>
 5   0  0.2789718E-05  0.1902853E+04  0.7818609E-02  0.8653438E-01
        2   -1    0    0  501    0  0.00000000000E+00  0.00000000000E+00  0.16133214071E+04  0.16133214071E+04  0.25500000920E-02 0. -1.
       -2   -1    0    0    0  501  0.00000000000E+00  0.00000000000E+00 -0.56108614314E+03  0.56108614315E+03  0.25500000920E-02 0.  1.
    10030    2    1    2    0    0  0.00000000000E+00  0.00000000000E+00  0.10522352640E+04  0.21744075503E+04  0.19028528960E+04 0.  0.
        5    1    3    3  502    0 -0.73390353340E+03  0.46904497911E+02  0.12158974374E+04  0.14210007377E+04  0.46999998093E+01 0. -1.
       -5    1    3    3    0  502  0.73390353340E+03 -0.46904497911E+02 -0.16366217339E+03  0.75340681260E+03  0.46999998093E+01 0.  1.
</event>
<event>
 5   0  0.1344119E-05  0.1905100E+04  0.7818609E-02  0.8652322E-01
       -1   -1    0    0    0  501  0.00000000000E+00  0.00000000000E+00  0.15449381471E+04  0.15449381471E+04  0.50400001928E-02 0.  1.
        1   -1    0    0  501    0  0.00000000000E+00  0.00000000000E+00 -0.58730627030E+03  0.58730627033E+03  0.50400001928E-02 0. -1.
    10030    2    1    2    0    0  0.00000000000E+00  0.00000000000E+00  0.95763187675E+03  0.21322444174E+04  0.19051003764E+04 0.  0.
        2    1    3    3  502    0 -0.22601059279E+03  0.98103531821E+02  0.15086571119E+04  0.15286436381E+04  0.25500000920E-02 0.  1.
       -2    1    3    3    0  502  0.22601059279E+03 -0.98103531821E+02 -0.55102523514E+03  0.60360077930E+03  0.25500000920E-02 0. -1.
</event>
<event>
 5   0  0.2789718E-05  0.1900524E+04  0.7818609E-02  0.8654596E-01
        2   -1    0    0  501    0  0.00000000000E+00  0.00000000000E+00  0.17773372956E+04  0.17773372956E+04  0.25500000920E-02 0.  1.
       -2   -1    0    0    0  501  0.00000000000E+00  0.00000000000E+00 -0.50806216066E+03  0.50806216066E+03  0.25500000920E-02 0. -1.
    10030    2    1    2    0    0  0.00000000000E+00  0.00000000000E+00  0.12692751350E+04  0.22853994563E+04  0.19005239558E+04 0.  0.
        5    1    3    3  502    0 -0.81460471979E+03 -0.35061990879E+03  0.10450100401E+04  0.13706141849E+04  0.46999998093E+01 0.  1.
       -5    1    3    3    0  502  0.81460471979E+03  0.35061990879E+03  0.22426509485E+03  0.91478527137E+03  0.46999998093E+01 0. -1.
</event>
<event>
 5   0  0.1429067E-05  0.1899489E+04  0.7818609E-02  0.8655111E-01
       -1   -1    0    0    0  501  0.00000000000E+00  0.00000000000E+00  0.56003060248E+03  0.56003060250E+03  0.50400001928E-02 0.  1.
        1   -1    0    0  501    0  0.00000000000E+00  0.00000000000E+00 -0.16106529957E+04  0.16106529957E+04  0.50400001928E-02 0. -1.
    10030    2    1    2    0    0  0.00000000000E+00  0.00000000000E+00 -0.10506223932E+04  0.21706835982E+04  0.18994893710E+04 0.  0.
        3    1    3    3  502    0 -0.42148948881E+03 -0.22061731323E+03  0.41405140186E+03  0.63068531111E+03  0.10100000352E+00 0.  1.
       -3    1    3    3    0  502  0.42148948881E+03  0.22061731323E+03 -0.14646737951E+04  0.15399982871E+04  0.10100000352E+00 0. -1.
</event>
<event>
 5   0  0.1471485E-05  0.1899366E+04  0.7818609E-02  0.8655172E-01
       -1   -1    0    0    0  501  0.00000000000E+00  0.00000000000E+00  0.66112114562E+03  0.66112114564E+03  0.50400001928E-02 0.  1.
        1   -1    0    0  501    0  0.00000000000E+00  0.00000000000E+00 -0.13641951140E+04  0.13641951140E+04  0.50400001928E-02 0. -1.
    10030    2    1    2    0    0  0.00000000000E+00  0.00000000000E+00 -0.70307396833E+03  0.20253162596E+04  0.18993664592E+04 0.  0.
        4    1    3    3  502    0 -0.14012256182E+03  0.42150446799E+03 -0.12466013268E+04  0.13233732768E+04  0.12699999809E+01 0. -1.
       -4    1    3    3    0  502  0.14012256182E+03 -0.42150446799E+03  0.54352735845E+03  0.70194298283E+03  0.12699999809E+01 0.  1.
</event>
<event>
 5   0  0.1429067E-05  0.1897513E+04  0.7818609E-02  0.8656095E-01
        1   -1    0    0  501    0  0.00000000000E+00  0.00000000000E+00  0.85876244039E+03  0.85876244041E+03  0.50400001928E-02 0.  1.
       -1   -1    0    0    0  501  0.00000000000E+00  0.00000000000E+00 -0.10481813628E+04  0.10481813628E+04  0.50400001928E-02 0. -1.
    10030    2    1    2    0    0  0.00000000000E+00  0.00000000000E+00 -0.18941892240E+03  0.19069438032E+04  0.18975128828E+04 0.  0.
        3    1    3    3  502    0 -0.90833445369E+03  0.13994635515E+03  0.14200807938E+03  0.92995847590E+03  0.10100000352E+00 0.  1.
       -3    1    3    3    0  502  0.90833445369E+03 -0.13994635515E+03 -0.33142700178E+03  0.97698532732E+03  0.10100000352E+00 0. -1.
</event>
<event>
 5   0  0.1429067E-05  0.1903226E+04  0.7818609E-02  0.8653252E-01
        1   -1    0    0  501    0  0.00000000000E+00  0.00000000000E+00  0.19634870285E+04  0.19634870285E+04  0.50400001928E-02 0.  1.
       -1   -1    0    0    0  501  0.00000000000E+00  0.00000000000E+00 -0.46120348722E+03  0.46120348725E+03  0.50400001928E-02 0. -1.
    10030    2    1    2    0    0  0.00000000000E+00  0.00000000000E+00  0.15022835413E+04  0.24246905158E+04  0.19032257509E+04 0.  0.
        3    1    3    3  502    0  0.18122094190E+03  0.35180836428E+03 -0.35139839941E+03  0.52923624240E+03  0.10100000352E+00 0. -1.
       -3    1    3    3    0  502 -0.18122094190E+03 -0.35180836428E+03  0.18536819407E+04  0.18954542734E+04  0.10100000352E+00 0.  1.
</event>
<event>
 5   0  0.2813537E-05  0.1898983E+04  0.7818609E-02  0.8655363E-01
        2   -1    0    0  501    0  0.00000000000E+00  0.00000000000E+00  0.13903694691E+04  0.13903694691E+04  0.25500000920E-02 0. -1.
       -2   -1    0    0    0  501  0.00000000000E+00  0.00000000000E+00 -0.64841357973E+03  0.64841357973E+03  0.25500000920E-02 0.  1.
    10030    2    1    2    0    0  0.00000000000E+00  0.00000000000E+00  0.74195588932E+03  0.20387830488E+04  0.18989833539E+04 0.  0.
        2    1    3    3  502    0  0.57920624275E+03  0.47853566801E+03  0.99428536440E+03  0.12462261605E+04  0.25500000920E-02 0. -1.
       -2    1    3    3    0  502 -0.57920624275E+03 -0.47853566801E+03 -0.25232947507E+03  0.79255688830E+03  0.25500000920E-02 0.  1.
</event>
<event>
 5   0  0.1327254E-05  0.1899451E+04  0.7818609E-02  0.8655130E-01
       -1   -1    0    0    0  501  0.00000000000E+00  0.00000000000E+00  0.11466657383E+04  0.11466657383E+04  0.50400001928E-02 0.  1.
        1   -1    0    0  501    0  0.00000000000E+00  0.00000000000E+00 -0.78661008335E+03  0.78661008337E+03  0.50400001928E-02 0. -1.
    10030    2    1    2    0    0  0.00000000000E+00  0.00000000000E+00  0.36005565492E+03  0.19332758217E+04  0.18994513229E+04 0.  0.
        5    1    3    3  502    0 -0.92029369148E+03 -0.22938497141E+03  0.22987752380E+03  0.97592197928E+03  0.46999998093E+01 0. -1.
       -5    1    3    3    0  502  0.92029369148E+03  0.22938497141E+03  0.13017813112E+03  0.95735384237E+03  0.46999998093E+01 0.  1.
</event>
<event>
 5   0  0.1344119E-05  0.1899802E+04  0.7818609E-02  0.8654955E-01
        1   -1    0    0  501    0  0.00000000000E+00  0.00000000000E+00  0.20302439093E+04  0.20302439093E+04  0.50400001928E-02 0. -1.
       -1   -1    0    0    0  501  0.00000000000E+00  0.00000000000E+00 -0.44443533643E+03  0.44443533646E+03  0.50400001928E-02 0.  1.
    10030    2    1    2    0    0  0.00000000000E+00  0.00000000000E+00  0.15858085729E+04  0.24746792458E+04  0.18998022370E+04 0.  0.
        2    1    3    3  502    0 -0.34561911576E+03 -0.42835866230E+03  0.18013614355E+04  0.18835728651E+04  0.25500000920E-02 0. -1.
       -2    1    3    3    0  502  0.34561911576E+03  0.42835866230E+03 -0.21555286260E+03  0.59110638072E+03  0.25500000920E-02 0.  1.
</event>
<event>
 5   0  0.1429067E-05  0.1898980E+04  0.7818609E-02  0.8655364E-01
        1   -1    0    0  501    0  0.00000000000E+00  0.00000000000E+00  0.49587297090E+03  0.49587297093E+03  0.50400001928E-02 0.  1.
       -1   -1    0    0    0  501  0.00000000000E+00  0.00000000000E+00 -0.18180697137E+04  0.18180697137E+04  0.50400001928E-02 0. -1.
    10030    2    1    2    0    0  0.00000000000E+00  0.00000000000E+00 -0.13221967428E+04  0.23139426846E+04  0.18989803899E+04 0.  0.
        3    1    3    3  502    0  0.26473939139E+03 -0.69698065185E+03  0.55306189961E+02  0.74761471311E+03  0.10100000352E+00 0.  1.
       -3    1    3    3    0  502 -0.26473939139E+03  0.69698065185E+03 -0.13775029328E+04  0.15663279715E+04  0.10100000352E+00 0. -1.
</event>
<event>
 5   0  0.2855141E-05  0.1896538E+04  0.7818609E-02  0.8656582E-01
        2   -1    0    0  501    0  0.00000000000E+00  0.00000000000E+00  0.13263645127E+04  0.13263645127E+04  0.25500000920E-02 0.  1.
       -2   -1    0    0    0  501  0.00000000000E+00  0.00000000000E+00 -0.67795393349E+03  0.67795393350E+03  0.25500000920E-02 0. -1.
    10030    2    1    2    0    0  0.00000000000E+00  0.00000000000E+00  0.64841057920E+03  0.20043184462E+04  0.18965379391E+04 0.  0.
        1    1    3    3  502    0  0.18189171232E+03 -0.90902431760E+03  0.53505345266E+03  0.10703700305E+04  0.50400001928E-02 0. -1.
       -1    1    3    3    0  502 -0.18189171232E+03  0.90902431760E+03  0.11335712654E+03  0.93394841568E+03  0.50400001928E-02 0.  1.
</event>
<event>
 5   0  0.2813537E-05  0.1902106E+04  0.7818609E-02  0.8653809E-01
       -2   -1    0    0    0  501  0.00000000000E+00  0.00000000000E+00  0.86660457915E+03  0.86660457915E+03  0.25500000920E-02 0.  1.
        2   -1    0    0  501    0  0.00000000000E+00  0.00000000000E+00 -0.10437311504E+04  0.10437311504E+04  0.25500000920E-02 0. -1.
    10030    2    1    2    0    0  0.00000000000E+00  0.00000000000E+00 -0.17712657130E+03  0.19103357296E+04  0.19021064054E+04 0.  0.
        2    1    3    3  502    0 -0.35928250439E+02 -0.74458601289E+03  0.50458736555E+03  0.90017086114E+03  0.25500000920E-02 0.  1.
       -2    1    3    3    0  502  0.35928250439E+02  0.74458601289E+03 -0.68171393685E+03  0.10101648685E+04  0.25500000920E-02 0. -1.
</event>
<event>
 5   0  0.1429067E-05  0.1900584E+04  0.7818609E-02  0.8654566E-01
       -1   -1    0    0    0  501  0.00000000000E+00  0.00000000000E+00  0.47458773460E+03  0.47458773462E+03  0.50400001928E-02 0.  1.
        1   -1    0    0  501    0  0.00000000000E+00  0.00000000000E+00 -0.19028199778E+04  0.19028199778E+04  0.50400001928E-02 0. -1.
    10030    2    1    2    0    0  0.00000000000E+00  0.00000000000E+00 -0.14282322432E+04  0.23774077124E+04  0.19005841446E+04 0.  0.
        3    1    3    3  502    0  0.89517144751E+03  0.25889719535E+03 -0.94711407334E+03  0.13286778226E+04  0.10100000352E+00 0. -1.
       -3    1    3    3    0  502 -0.89517144751E+03 -0.25889719535E+03 -0.48111816985E+03  0.10487298898E+04  0.10100000352E+00 0.  1.
</event>
<event>
 5   0  0.2855141E-05  0.1895646E+04  0.7818609E-02  0.8657027E-01
       -2   -1    0    0    0  501  0.00000000000E+00  0.00000000000E+00  0.10865182387E+04  0.10865182387E+04  0.25500000920E-02 0.  1.
        2   -1    0    0  501    0  0.00000000000E+00  0.00000000000E+00 -0.82683265767E+03  0.82683265767E+03  0.25500000920E-02 0. -1.
    10030    2    1    2    0    0  0.00000000000E+00  0.00000000000E+00  0.25968558102E+03  0.19133508964E+04  0.18956463414E+04 0.  0.
        1    1    3    3  502    0  0.10066286012E+03 -0.75292290978E+03 -0.44232265121E+03  0.87901948060E+03  0.50400001928E-02 0. -1.
       -1    1    3    3    0  502 -0.10066286012E+03  0.75292290978E+03  0.70200823222E+03  0.10343314158E+04  0.50400001928E-02 0.  1.
</event>
<event>
 5   0  0.1413011E-05  0.1903008E+04  0.7818609E-02  0.8653361E-01
       -1   -1    0    0    0  501  0.00000000000E+00  0.00000000000E+00  0.69637793565E+03  0.69637793567E+03  0.50400001928E-02 0. -1.
        1   -1    0    0  501    0  0.00000000000E+00  0.00000000000E+00 -0.13000984553E+04  0.13000984553E+04  0.50400001928E-02 0.  1.
    10030    2    1    2    0    0  0.00000000000E+00  0.00000000000E+00 -0.60372051967E+03  0.19964763910E+04  0.19030080173E+04 0.  0.
        1    1    3    3  502    0 -0.41342192014E+03  0.10728313741E+03  0.59015532539E+03  0.72849891128E+03  0.50400001928E-02 0. -1.
       -1    1    3    3    0  502  0.41342192014E+03 -0.10728313741E+03 -0.11938758451E+04  0.12679774797E+04  0.50400001928E-02 0.  1.
</event>
<event>
 5   0  0.1429067E-05  0.1898443E+04  0.7818609E-02  0.8655632E-01
        1   -1    0    0  501    0  0.00000000000E+00  0.00000000000E+00  0.49124460242E+03  0.49124460245E+03  0.50400001928E-02 0. -1.
       -1   -1    0    0    0  501  0.00000000000E+00  0.00000000000E+00 -0.18341611900E+04  0.18341611900E+04  0.50400001928E-02 0.  1.
    10030    2    1    2    0    0  0.00000000000E+00  0.00000000000E+00 -0.13429165876E+04  0.23254057925E+04  0.18984433461E+04 0.  0.
        3    1    3    3  502    0 -0.54930457633E+03  0.63821502725E+03 -0.12081382097E+04  0.14726343343E+04  0.10100000352E+00 0.  1.
       -3    1    3    3    0  502  0.54930457633E+03 -0.63821502725E+03 -0.13477837793E+03  0.85277145821E+03  0.10100000352E+00 0. -1.
</event>
<event>
 5   0  0.2879462E-05  0.1902252E+04  0.7818609E-02  0.8653736E-01
       -2   -1    0    0    0  501  0.00000000000E+00  0.00000000000E+00  0.44449931219E+03  0.44449931220E+03  0.25500000920E-02 0.  1.
        2   -1    0    0  501    0  0.00000000000E+00  0.00000000000E+00 -0.20351903944E+04  0.20351903944E+04  0.25500000920E-02 0. -1.
    10030    2    1    2    0    0  0.00000000000E+00  0.00000000000E+00 -0.15906910823E+04  0.24796897066E+04  0.19022520659E+04 0.  0.
        4    1    3    3  502    0 -0.18625565692E+03  0.62757372273E+03  0.10410644930E+03  0.66285723417E+03  0.12699999809E+01 0.  1.
       -4    1    3    3    0  502  0.18625565692E+03 -0.62757372273E+03 -0.16947975316E+04  0.18168324725E+04  0.12699999809E+01 0. -1.
</event>
<event>
 5   0  0.1010725E-05  0.1901576E+04  0.7818609E-02  0.8654072E-01
       -4   -1    0    0    0  501  0.00000000000E+00  0.00000000000E+00  0.72107475138E+03  0.72107586978E+03  0.12699999809E+01 0.  1.
        4   -1    0    0  501    0  0.00000000000E+00  0.00000000000E+00 -0.12536791579E+04  0.12536798012E+04  0.12699999809E+01 0. -1.
    10030    2    1    2    0    0  0.00000000000E+00  0.00000000000E+00 -0.53260440654E+03  0.19747556710E+04  0.19015763214E+04 0.  0.
        5    1    3    3  502    0  0.41901710686E+03 -0.64391281261E+03 -0.84801705971E+03  0.11442701034E+04  0.46999998093E+01 0. -1.
       -5    1    3    3    0  502 -0.41901710686E+03  0.64391281261E+03  0.31541265318E+03  0.83048556752E+03  0.46999998093E+01 0.  1.
</event>
<event>
 5   0  0.2855141E-05  0.1899445E+04  0.7818609E-02  0.8655133E-01
       -2   -1    0    0    0  501  0.00000000000E+00  0.00000000000E+00  0.15134245726E+04  0.15134245726E+04  0.25500000920E-02 0.  1.
        2   -1    0    0  501    0  0.00000000000E+00  0.00000000000E+00 -0.59598127125E+03  0.59598127126E+03  0.25500000920E-02 0. -1.
    10030    2    1    2    0    0  0.00000000000E+00  0.00000000000E+00  0.91744330133E+03  0.21094058438E+04  0.18994448670E+04 0.  0.
        1    1    3    3  502    0  0.46744428222E+03  0.67516917386E+03  0.98854856553E+03  0.12851403957E+04  0.50400001928E-02 0.  1.
       -1    1    3    3    0  502 -0.46744428222E+03 -0.67516917386E+03 -0.71105264201E+02  0.82426544810E+03  0.50400001928E-02 0. -1.
</event>
<event>
 5   0  0.2789718E-05  0.1884379E+04  0.7818609E-02  0.8662671E-01
        2   -1    0    0  501    0  0.00000000000E+00  0.00000000000E+00  0.21384171176E+04  0.21384171176E+04  0.25500000920E-02 0. -1.
       -2   -1    0    0    0  501  0.00000000000E+00  0.00000000000E+00 -0.41513000869E+03  0.41513000870E+03  0.25500000920E-02 0.  1.
    10030    2    1    2    0    0  0.00000000000E+00  0.00000000000E+00  0.17232871089E+04  0.25535471263E+04  0.18843790666E+04 0.  0.
        5    1    3    3  502    0 -0.91879426265E+03 -0.20259262722E+03  0.79426352593E+03  0.12313014693E+04  0.46999998093E+01 0.  1.
       -5    1    3    3    0  502  0.91879426265E+03  0.20259262722E+03  0.92902358296E+03  0.13222456570E+04  0.46999998093E+01 0. -1.
</event>
<event>
 5   0  0.2879462E-05  0.1900834E+04  0.7818609E-02  0.8654441E-01
       -2   -1    0    0    0  501  0.00000000000E+00  0.00000000000E+00  0.62648967655E+03  0.62648967656E+03  0.25500000920E-02 0. -1.
        2   -1    0    0  501    0  0.00000000000E+00  0.00000000000E+00 -0.14418315693E+04  0.14418315693E+04  0.25500000920E-02 0.  1.
    10030    2    1    2    0    0  0.00000000000E+00  0.00000000000E+00 -0.81534189273E+03  0.20683212458E+04  0.19008341258E+04 0.  0.
        4    1    3    3  502    0 -0.94700939326E+03  0.66394409908E+02 -0.35833285207E+03  0.10147113158E+04  0.12699999809E+01 0. -1.
       -4    1    3    3    0  502  0.94700939326E+03 -0.66394409908E+02 -0.45700904066E+03  0.10536099301E+04  0.12699999809E+01 0.  1.
</event>
<event>
 5   0  0.1429067E-05  0.1890795E+04  0.7818609E-02  0.8659452E-01
        1   -1    0    0  501    0  0.00000000000E+00  0.00000000000E+00  0.18081795924E+04  0.18081795924E+04  0.50400001928E-02 0. -1.
       -1   -1    0    0    0  501  0.00000000000E+00  0.00000000000E+00 -0.49429633670E+03  0.49429633673E+03  0.50400001928E-02 0.  1.
    10030    2    1    2    0    0  0.00000000000E+00  0.00000000000E+00  0.13138832557E+04  0.23024759291E+04  0.18907951223E+04 0.  0.
        3    1    3    3  502    0  0.48869590085E+03 -0.58224627484E+03 -0.27528338262E+02  0.76065250127E+03  0.10100000352E+00 0.  1.
       -3    1    3    3    0  502 -0.48869590085E+03  0.58224627484E+03  0.13414115939E+04  0.15418234278E+04  0.10100000352E+00 0. -1.
</event>
<event>
 5   0  0.1429067E-05  0.1933281E+04  0.7818609E-02  0.8638466E-01
        1   -1    0    0  501    0  0.00000000000E+00  0.00000000000E+00  0.61643415398E+03  0.61643415400E+03  0.50400001928E-02 0.  1.
       -1   -1    0    0    0  501  0.00000000000E+00  0.00000000000E+00 -0.15158041596E+04  0.15158041597E+04  0.50400001928E-02 0. -1.
    10030    2    1    2    0    0  0.00000000000E+00  0.00000000000E+00 -0.89937000567E+03  0.21322383137E+04  0.19332805847E+04 0.  0.
        3    1    3    3  502    0 -0.38543264228E+03 -0.59774034060E+03 -0.11716852576E+04  0.13706561164E+04  0.10100000352E+00 0. -1.
       -3    1    3    3    0  502  0.38543264228E+03  0.59774034060E+03  0.27231525189E+03  0.76158219723E+03  0.10100000352E+00 0.  1.
</event>
<event>
 5   0  0.2888776E-05  0.1906535E+04  0.7818609E-02  0.8651610E-01
        2   -1    0    0  501    0  0.00000000000E+00  0.00000000000E+00  0.14924456433E+04  0.14924456433E+04  0.25500000920E-02 0. -1.
       -2   -1    0    0    0  501  0.00000000000E+00  0.00000000000E+00 -0.60887925692E+03  0.60887925692E+03  0.25500000920E-02 0.  1.
    10030    2    1    2    0    0  0.00000000000E+00  0.00000000000E+00  0.88356638642E+03  0.21013249003E+04  0.19065352809E+04 0.  0.
        3    1    3    3  502    0 -0.16286533550E+03  0.29785220264E+03  0.14235669477E+04  0.14634834870E+04  0.10100000352E+00 0. -1.
       -3    1    3    3    0  502  0.16286533550E+03 -0.29785220264E+03 -0.54000056123E+03  0.63784141325E+03  0.10100000352E+00 0.  1.
</event>
<event>
 5   0  0.2879462E-05  0.1900664E+04  0.7818609E-02  0.8654526E-01
       -2   -1    0    0    0  501  0.00000000000E+00  0.00000000000E+00  0.50789303243E+03  0.50789303244E+03  0.25500000920E-02 0.  1.
        2   -1    0    0  501    0  0.00000000000E+00  0.00000000000E+00 -0.17781913721E+04  0.17781913721E+04  0.25500000920E-02 0. -1.
    10030    2    1    2    0    0  0.00000000000E+00  0.00000000000E+00 -0.12702983397E+04  0.22860844046E+04  0.19006641031E+04 0.  0.
        4    1    3    3  502    0  0.26473764401E+03  0.30035223491E+03  0.40150085941E+03  0.56701149739E+03  0.12699999809E+01 0.  1.
       -4    1    3    3    0  502 -0.26473764401E+03 -0.30035223491E+03 -0.16717991991E+04  0.17190729072E+04  0.12699999809E+01 0. -1.
</event>
<event>
 5   0  0.1344119E-05  0.1899090E+04  0.7818609E-02  0.8655310E-01
       -1   -1    0    0    0  501  0.00000000000E+00  0.00000000000E+00  0.45657112032E+03  0.45657112035E+03  0.50400001928E-02 0.  1.
        1   -1    0    0  501    0  0.00000000000E+00  0.00000000000E+00 -0.19747975171E+04  0.19747975171E+04  0.50400001928E-02 0. -1.
    10030    2    1    2    0    0  0.00000000000E+00  0.00000000000E+00 -0.15182263968E+04  0.24313686374E+04  0.18990897976E+04 0.  0.
        2    1    3    3  502    0  0.87936014741E+03 -0.27994763162E+03 -0.47286065643E+03  0.10369388341E+04  0.25500000920E-02 0.  1.
       -2    1    3    3    0  502 -0.87936014741E+03  0.27994763162E+03 -0.10453657403E+04  0.13944298033E+04  0.25500000920E-02 0. -1.
</event>
<event>
 5   0  0.1413011E-05  0.1901269E+04  0.7818609E-02  0.8654225E-01
        1   -1    0    0  501    0  0.00000000000E+00  0.00000000000E+00  0.22866547520E+04  0.22866547520E+04  0.50400001928E-02 0.  1.
       -1   -1    0    0    0  501  0.00000000000E+00  0.00000000000E+00 -0.39520869187E+03  0.39520869191E+03  0.50400001928E-02 0. -1.
    10030    2    1    2    0    0  0.00000000000E+00  0.00000000000E+00  0.18914460601E+04  0.26818634439E+04  0.19012688746E+04 0.  0.
        1    1    3    3  502    0 -0.10390352340E+03 -0.34711127685E+03  0.21854353126E+04  0.22152674074E+04  0.50400001928E-02 0.  1.
       -1    1    3    3    0  502  0.10390352340E+03  0.34711127685E+03 -0.29398925248E+03  0.46659603651E+03  0.50400001928E-02 0. -1.
</event>
<event>
 5   0  0.1344119E-05  0.1886352E+04  0.7818609E-02  0.8661680E-01
        1   -1    0    0  501    0  0.00000000000E+00  0.00000000000E+00  0.10184899822E+04  0.10184899822E+04  0.50400001928E-02 0. -1.
       -1   -1    0    0    0  501  0.00000000000E+00  0.00000000000E+00 -0.87343131465E+03  0.87343131466E+03  0.50400001928E-02 0.  1.
    10030    2    1    2    0    0  0.00000000000E+00  0.00000000000E+00  0.14505866759E+03  0.18919212969E+04  0.18863520818E+04 0.  0.
        2    1    3    3  502    0 -0.37103942517E+02 -0.46121275086E+03  0.89683607768E+03  0.10091624519E+04  0.25500000920E-02 0. -1.
       -2    1    3    3    0  502  0.37103942517E+02  0.46121275086E+03 -0.75177741009E+03  0.88275884500E+03  0.25500000920E-02 0.  1.
</event>
<event>
 5   0  0.2879462E-05  0.1903199E+04  0.7818609E-02  0.8653265E-01
       -2   -1    0    0    0  501  0.00000000000E+00  0.00000000000E+00  0.34530033867E+03  0.34530033868E+03  0.25500000920E-02 0.  1.
        2   -1    0    0  501    0  0.00000000000E+00  0.00000000000E+00 -0.26224766659E+04  0.26224766659E+04  0.25500000920E-02 0. -1.
    10030    2    1    2    0    0  0.00000000000E+00  0.00000000000E+00 -0.22771763272E+04  0.29677770046E+04  0.19031994965E+04 0.  0.
        4    1    3    3  502    0  0.41294576926E+03 -0.62896977640E+03 -0.20470597875E+04  0.21809590951E+04  0.12699999809E+01 0. -1.
       -4    1    3    3    0  502 -0.41294576926E+03  0.62896977640E+03 -0.23011653976E+03  0.78681790952E+03  0.12699999809E+01 0.  1.
</event>
<event>
 5   0  0.2879462E-05  0.1900549E+04  0.7818609E-02  0.8654583E-01
        2   -1    0    0  501    0  0.00000000000E+00  0.00000000000E+00  0.11950679214E+04  0.11950679214E+04  0.25500000920E-02 0. -1.
       -2   -1    0    0    0  501  0.00000000000E+00  0.00000000000E+00 -0.75562400256E+03  0.75562400257E+03  0.25500000920E-02 0.  1.
    10030    2    1    2    0    0  0.00000000000E+00  0.00000000000E+00  0.43944391883E+03  0.19506919240E+04  0.19005494007E+04 0.  0.
        4    1    3    3  502    0  0.54634994098E+03  0.58563191525E+03 -0.30519792558E+03  0.85709415169E+03  0.12699999809E+01 0.  1.
       -4    1    3    3    0  502 -0.54634994098E+03 -0.58563191525E+03  0.74464184441E+03  0.10935977723E+04  0.12699999809E+01 0. -1.
</event>
<event>
 5   0  0.2789718E-05  0.1903564E+04  0.7818609E-02  0.8653085E-01
        2   -1    0    0  501    0  0.00000000000E+00  0.00000000000E+00  0.13358148916E+04  0.13358148916E+04  0.25500000920E-02 0.  1.
       -2   -1    0    0    0  501  0.00000000000E+00  0.00000000000E+00 -0.67815429682E+03  0.67815429682E+03  0.25500000920E-02 0. -1.
    10030    2    1    2    0    0  0.00000000000E+00  0.00000000000E+00  0.65766059475E+03  0.20139691884E+04  0.19035636144E+04 0.  0.
        5    1    3    3  502    0 -0.41097210902E+03  0.83683970777E+03  0.53142474730E+03  0.10731417068E+04  0.46999998093E+01 0.  1.
       -5    1    3    3    0  502  0.41097210902E+03 -0.83683970777E+03  0.12623584745E+03  0.94082748156E+03  0.46999998093E+01 0. -1.
</event>
<event>
 5   0  0.1429067E-05  0.1888060E+04  0.7818609E-02  0.8660823E-01
       -1   -1    0    0    0  501  0.00000000000E+00  0.00000000000E+00  0.11113817745E+04  0.11113817745E+04  0.50400001928E-02 0.  1.
        1   -1    0    0  501    0  0.00000000000E+00  0.00000000000E+00 -0.80187795688E+03  0.80187795689E+03  0.50400001928E-02 0. -1.
    10030    2    1    2    0    0  0.00000000000E+00  0.00000000000E+00  0.30950381765E+03  0.19132597314E+04  0.18880599002E+04 0.  0.
        3    1    3    3  502    0  0.20778730496E+03  0.71368666132E+03 -0.43496753914E+03  0.86123224798E+03  0.10100000352E+00 0. -1.
       -3    1    3    3    0  502 -0.20778730496E+03 -0.71368666132E+03  0.74447135679E+03  0.10520274835E+04  0.10100000352E+00 0.  1.
</event>
<event>
 5   0  0.1344119E-05  0.1900978E+04  0.7818609E-02  0.8654370E-01
       -1   -1    0    0    0  501  0.00000000000E+00  0.00000000000E+00  0.12474183241E+04  0.12474183242E+04  0.50400001928E-02 0. -1.
        1   -1    0    0  501    0  0.00000000000E+00  0.00000000000E+00 -0.72423909439E+03  0.72423909441E+03  0.50400001928E-02 0.  1.
    10030    2    1    2    0    0  0.00000000000E+00  0.00000000000E+00  0.52317922976E+03  0.19716574186E+04  0.19009777668E+04 0.  0.
        2    1    3    3  502    0  0.59109573147E+03 -0.50485747899E+03 -0.30569595871E+03  0.83529950140E+03  0.25500000920E-02 0.  1.
       -2    1    3    3    0  502 -0.59109573147E+03  0.50485747899E+03  0.82887518847E+03  0.11363579172E+04  0.25500000920E-02 0. -1.
</event>
<event>
 5   0  0.2855141E-05  0.1900220E+04  0.7818609E-02  0.8654747E-01
       -2   -1    0    0    0  501  0.00000000000E+00  0.00000000000E+00  0.59214874600E+03  0.59214874601E+03  0.25500000920E-02 0.  1.
        2   -1    0    0  501    0  0.00000000000E+00  0.00000000000E+00 -0.15244625554E+04  0.15244625554E+04  0.25500000920E-02 0. -1.
    10030    2    1    2    0    0  0.00000000000E+00  0.00000000000E+00 -0.93231380936E+03  0.21166113014E+04  0.19002195562E+04 0.  0.
        1    1    3    3  502    0 -0.40241473032E+03  0.24447740614E+03  0.45304612828E+03  0.65341993516E+03  0.50400001928E-02 0.  1.
       -1    1    3    3    0  502  0.40241473032E+03 -0.24447740614E+03 -0.13853599376E+04  0.14631913662E+04  0.50400001928E-02 0. -1.
</event>
<event>
 5   0  0.1471485E-05  0.1890674E+04  0.7818609E-02  0.8659513E-01
       -1   -1    0    0    0  501  0.00000000000E+00  0.00000000000E+00  0.48589839420E+03  0.48589839422E+03  0.50400001928E-02 0.  1.
        1   -1    0    0  501    0  0.00000000000E+00  0.00000000000E+00 -0.18391946652E+04  0.18391946652E+04  0.50400001928E-02 0. -1.
    10030    2    1    2    0    0  0.00000000000E+00  0.00000000000E+00 -0.13532962710E+04  0.23250930594E+04  0.18906736730E+04 0.  0.
        4    1    3    3  502    0 -0.52967129240E+03 -0.11375532633E+03  0.27606080784E+03  0.60803218236E+03  0.12699999809E+01 0.  1.
       -4    1    3    3    0  502  0.52967129240E+03  0.11375532633E+03 -0.16293570788E+04  0.17170608770E+04  0.12699999809E+01 0. -1.
</event>
<event>
 5   0  0.2855141E-05  0.1899244E+04  0.7818609E-02  0.8655233E-01
       -2   -1    0    0    0  501  0.00000000000E+00  0.00000000000E+00  0.84939381125E+03  0.84939381125E+03  0.25500000920E-02 0.  1.
        2   -1    0    0  501    0  0.00000000000E+00  0.00000000000E+00 -0.10616768499E+04  0.10616768499E+04  0.25500000920E-02 0. -1.
    10030    2    1    2    0    0  0.00000000000E+00  0.00000000000E+00 -0.21228303867E+03  0.19110706612E+04  0.18992437925E+04 0.  0.
        1    1    3    3  502    0  0.34915512018E+03  0.66463597816E+03  0.47897023439E+03  0.89054071602E+03  0.50400001928E-02 0.  1.
       -1    1    3    3    0  502 -0.34915512018E+03 -0.66463597816E+03 -0.69125327306E+03  0.10205299452E+04  0.50400001928E-02 0. -1.
</event>
<event>
 5   0  0.2813537E-05  0.1891121E+04  0.7818609E-02  0.8659289E-01
        2   -1    0    0  501    0  0.00000000000E+00  0.00000000000E+00  0.74771730788E+03  0.74771730789E+03  0.25500000920E-02 0.  1.
       -2   -1    0    0    0  501  0.00000000000E+00  0.00000000000E+00 -0.11957518934E+04  0.11957518934E+04  0.25500000920E-02 0. -1.
    10030    2    1    2    0    0  0.00000000000E+00  0.00000000000E+00 -0.44803458551E+03  0.19434692013E+04  0.18911207118E+04 0.  0.
        2    1    3    3  502    0  0.28472026247E+03 -0.11458038545E+03 -0.11431401590E+04  0.11836231308E+04  0.25500000920E-02 0. -1.
       -2    1    3    3    0  502 -0.28472026247E+03  0.11458038545E+03  0.69510557348E+03  0.75984607052E+03  0.25500000920E-02 0.  1.
</event>
<event>
 5   0  0.1413011E-05  0.1901704E+04  0.7818609E-02  0.8654009E-01
       -1   -1    0    0    0  501  0.00000000000E+00  0.00000000000E+00  0.19360276994E+04  0.19360276994E+04  0.50400001928E-02 0. -1.
        1   -1    0    0  501    0  0.00000000000E+00  0.00000000000E+00 -0.46699707320E+03  0.46699707323E+03  0.50400001928E-02 0.  1.
    10030    2    1    2    0    0  0.00000000000E+00  0.00000000000E+00  0.14690306262E+04  0.24030247726E+04  0.19017037301E+04 0.  0.
        1    1    3    3  502    0 -0.87078053735E+03  0.13118831054E+03  0.11877472887E+04  0.14785847080E+04  0.50400001928E-02 0. -1.
       -1    1    3    3    0  502  0.87078053735E+03 -0.13118831054E+03  0.28128333754E+03  0.92444006461E+03  0.50400001928E-02 0.  1.
</event>
<event>
 5   0  0.2879462E-05  0.1899328E+04  0.7818609E-02  0.8655191E-01
       -2   -1    0    0    0  501  0.00000000000E+00  0.00000000000E+00  0.61528456245E+03  0.61528456246E+03  0.25500000920E-02 0.  1.
        2   -1    0    0  501    0  0.00000000000E+00  0.00000000000E+00 -0.14657634121E+04  0.14657634121E+04  0.25500000920E-02 0. -1.
    10030    2    1    2    0    0  0.00000000000E+00  0.00000000000E+00 -0.85047884961E+03  0.20810479745E+04  0.18993278808E+04 0.  0.
        4    1    3    3  502    0 -0.57068124740E+03 -0.35476780841E+03  0.31002587419E+03  0.74003712041E+03  0.12699999809E+01 0.  1.
       -4    1    3    3    0  502  0.57068124740E+03  0.35476780841E+03 -0.11605047238E+04  0.13410108541E+04  0.12699999809E+01 0. -1.
</event>
<event>
 5   0  0.1429067E-05  0.1899171E+04  0.7818609E-02  0.8655269E-01
       -1   -1    0    0    0  501  0.00000000000E+00  0.00000000000E+00  0.45825230807E+03  0.45825230810E+03  0.50400001928E-02 0. -1.
        1   -1    0    0  501    0  0.00000000000E+00  0.00000000000E+00 -0.19677210124E+04  0.19677210124E+04  0.50400001928E-02 0.  1.
    10030    2    1    2    0    0  0.00000000000E+00  0.00000000000E+00 -0.15094687043E+04  0.24259733205E+04  0.18991710777E+04 0.  0.
        3    1    3    3  502    0  0.96828125809E+02  0.48287617865E+03  0.28236379250E+03  0.56769218012E+03  0.10100000352E+00 0. -1.
       -3    1    3    3    0  502 -0.96828125809E+02 -0.48287617865E+03 -0.17918324968E+04  0.18582811404E+04  0.10100000352E+00 0.  1.
</event>
<event>
 5   0  0.2789718E-05  0.1898874E+04  0.7818609E-02  0.8655417E-01
        2   -1    0    0  501    0  0.00000000000E+00  0.00000000000E+00  0.11632282631E+04  0.11632282631E+04  0.25500000920E-02 0.  1.
       -2   -1    0    0    0  501  0.00000000000E+00  0.00000000000E+00 -0.77493863492E+03  0.77493863493E+03  0.25500000920E-02 0. -1.
    10030    2    1    2    0    0  0.00000000000E+00  0.00000000000E+00  0.38828962816E+03  0.19381668980E+04  0.18988739003E+04 0.  0.
        5    1    3    3  502    0 -0.40721199523E+03  0.18505207132E+03  0.10489362101E+04  0.11403311541E+04  0.46999998093E+01 0.  1.
       -5    1    3    3    0  502  0.40721199523E+03 -0.18505207132E+03 -0.66064658189E+03  0.79783574395E+03  0.46999998093E+01 0. -1.
</event>
<event>
 5   0  0.2789718E-05  0.1904547E+04  0.7818609E-02  0.8652596E-01
        2   -1    0    0  501    0  0.00000000000E+00  0.00000000000E+00  0.23431045868E+04  0.23431045868E+04  0.25500000920E-02 0.  1.
       -2   -1    0    0    0  501  0.00000000000E+00  0.00000000000E+00 -0.38701863884E+03  0.38701863884E+03  0.25500000920E-02 0. -1.
    10030    2    1    2    0    0  0.00000000000E+00  0.00000000000E+00  0.19560859480E+04  0.27301232256E+04  0.19045473455E+04 0.  0.
        5    1    3    3  502    0  0.50601542005E+03  0.55954949353E+03  0.18110095866E+04  0.19618677462E+04  0.46999998093E+01 0.  1.
       -5    1    3    3    0  502 -0.50601542005E+03 -0.55954949353E+03  0.14507636140E+03  0.76825547942E+03  0.46999998093E+01 0. -1.
</event>
<event>
 5   0  0.2855141E-05  0.1912699E+04  0.7818609E-02  0.8648561E-01
        2   -1    0    0  501    0  0.00000000000E+00  0.00000000000E+00  0.99535541898E+03  0.99535541898E+03  0.25500000920E-02 0.  1.
       -2   -1    0    0    0  501  0.00000000000E+00  0.00000000000E+00 -0.91887203256E+03  0.91887203256E+03  0.25500000920E-02 0. -1.
    10030    2    1    2    0    0  0.00000000000E+00  0.00000000000E+00  0.76483386424E+02  0.19142274515E+04  0.19126988858E+04 0.  0.
        1    1    3    3  502    0  0.75152725355E+03 -0.19145007945E+03 -0.52181066334E+03  0.93473670847E+03  0.50400001928E-02 0. -1.
       -1    1    3    3    0  502 -0.75152725355E+03  0.19145007945E+03  0.59829404977E+03  0.97949074307E+03  0.50400001928E-02 0.  1.
</event>
<event>
 5   0  0.1471485E-05  0.1905964E+04  0.7818609E-02  0.8651893E-01
       -1   -1    0    0    0  501  0.00000000000E+00  0.00000000000E+00  0.11090712984E+04  0.11090712984E+04  0.50400001928E-02 0.  1.
        1   -1    0    0  501    0  0.00000000000E+00  0.00000000000E+00 -0.81886090848E+03  0.81886090850E+03  0.50400001928E-02 0. -1.
    10030    2    1    2    0    0  0.00000000000E+00  0.00000000000E+00  0.29021038994E+03  0.19279322069E+04  0.19059644603E+04 0.  0.
        4    1    3    3  502    0  0.54548187280E+03  0.66777834091E+03 -0.26539875606E+03  0.90217320884E+03  0.12699999809E+01 0.  1.
       -4    1    3    3    0  502 -0.54548187280E+03 -0.66777834091E+03  0.55560914600E+03  0.10257589981E+04  0.12699999809E+01 0. -1.
</event>
<event>
 5   0  0.1429067E-05  0.1895821E+04  0.7818609E-02  0.8656939E-01
        1   -1    0    0  501    0  0.00000000000E+00  0.00000000000E+00  0.89583490783E+03  0.89583490784E+03  0.50400001928E-02 0.  1.
       -1   -1    0    0    0  501  0.00000000000E+00  0.00000000000E+00 -0.10030136492E+04  0.10030136493E+04  0.50400001928E-02 0. -1.
    10030    2    1    2    0    0  0.00000000000E+00  0.00000000000E+00 -0.10717874141E+03  0.18988485571E+04  0.18958213418E+04 0.  0.
        3    1    3    3  502    0  0.57566342908E+03 -0.22885175430E+03 -0.77221193872E+03  0.98998626128E+03  0.10100000352E+00 0. -1.
       -3    1    3    3    0  502 -0.57566342908E+03  0.22885175430E+03  0.66503319731E+03  0.90886229581E+03  0.10100000352E+00 0.  1.
</event>
<event>
 5   0  0.1429067E-05  0.1896333E+04  0.7818609E-02  0.8656684E-01
        1   -1    0    0  501    0  0.00000000000E+00  0.00000000000E+00  0.15827181126E+04  0.15827181126E+04  0.50400001928E-02 0. -1.
       -1   -1    0    0    0  501  0.00000000000E+00  0.00000000000E+00 -0.56802290162E+03  0.56802290165E+03  0.50400001928E-02 0.  1.
    10030    2    1    2    0    0  0.00000000000E+00  0.00000000000E+00  0.10146952110E+04  0.21507410143E+04  0.18963334462E+04 0.  0.
        3    1    3    3  502    0 -0.72245677937E+03 -0.40193853212E+03 -0.19177346866E+02  0.82696200789E+03  0.10100000352E+00 0.  1.
       -3    1    3    3    0  502  0.72245677937E+03  0.40193853212E+03  0.10338725579E+04  0.13237790064E+04  0.10100000352E+00 0. -1.
</event>
<event>
 5   0  0.2879462E-05  0.1882106E+04  0.7818609E-02  0.8663815E-01
        2   -1    0    0  501    0  0.00000000000E+00  0.00000000000E+00  0.17802434072E+04  0.17802434072E+04  0.25500000920E-02 0.  1.
       -2   -1    0    0    0  501  0.00000000000E+00  0.00000000000E+00 -0.49744911132E+03  0.49744911132E+03  0.25500000920E-02 0. -1.
    10030    2    1    2    0    0  0.00000000000E+00  0.00000000000E+00  0.12827942959E+04  0.22776925185E+04  0.18821057365E+04 0.  0.
        4    1    3    3  502    0 -0.42742521249E+03 -0.83632361630E+03  0.71247296808E+03  0.11788760947E+04  0.12699999809E+01 0. -1.
       -4    1    3    3    0  502  0.42742521249E+03  0.83632361630E+03  0.57032132777E+03  0.10988164238E+04  0.12699999809E+01 0.  1.
</event>
<event>
 5   0  0.1327254E-05  0.1901518E+04  0.7818609E-02  0.8654101E-01
        1   -1    0    0  501    0  0.00000000000E+00  0.00000000000E+00  0.15455826826E+04  0.15455826826E+04  0.50400001928E-02 0. -1.
       -1   -1    0    0    0  501  0.00000000000E+00  0.00000000000E+00 -0.58485546813E+03  0.58485546815E+03  0.50400001928E-02 0.  1.
    10030    2    1    2    0    0  0.00000000000E+00  0.00000000000E+00  0.96072721444E+03  0.21304381507E+04  0.19015177973E+04 0.  0.
        5    1    3    3  502    0 -0.71145433788E+03  0.60718580659E+03  0.28931026199E+03  0.97906301957E+03  0.46999998093E+01 0. -1.
       -5    1    3    3    0  502  0.71145433788E+03 -0.60718580659E+03  0.67141695245E+03  0.11513751312E+04  0.46999998093E+01 0.  1.
</event>
<event>
 5   0  0.1413011E-05  0.1899104E+04  0.7818609E-02  0.8655302E-01
        1   -1    0    0  501    0  0.00000000000E+00  0.00000000000E+00  0.13773090963E+04  0.13773090963E+04  0.50400001928E-02 0. -1.
       -1   -1    0    0    0  501  0.00000000000E+00  0.00000000000E+00 -0.65464548054E+03  0.65464548056E+03  0.50400001928E-02 0.  1.
    10030    2    1    2    0    0  0.00000000000E+00  0.00000000000E+00  0.72266361573E+03  0.20319545768E+04  0.18991041838E+04 0.  0.
        1    1    3    3  502    0  0.40650814524E+03 -0.17880900122E+03  0.12593464134E+04  0.13353557279E+04  0.50400001928E-02 0. -1.
       -1    1    3    3    0  502 -0.40650814524E+03  0.17880900122E+03 -0.53668279764E+03  0.69659884896E+03  0.50400001928E-02 0.  1.
</event>
<event>
 5   0  0.1344119E-05  0.1899374E+04  0.7818609E-02  0.8655168E-01
       -1   -1    0    0    0  501  0.00000000000E+00  0.00000000000E+00  0.96693093525E+03  0.96693093526E+03  0.50400001928E-02 0.  1.
        1   -1    0    0  501    0  0.00000000000E+00  0.00000000000E+00 -0.93275015052E+03  0.93275015053E+03  0.50400001928E-02 0. -1.
    10030    2    1    2    0    0  0.00000000000E+00  0.00000000000E+00  0.34180784732E+02  0.18996810858E+04  0.18993735551E+04 0.  0.
        2    1    3    3  502    0 -0.11084364181E+03 -0.41665380243E+03  0.86340602710E+03  0.96506822124E+03  0.25500000920E-02 0.  1.
       -2    1    3    3    0  502  0.11084364181E+03  0.41665380243E+03 -0.82922524236E+03  0.93461286455E+03  0.25500000920E-02 0. -1.
</event>
<event>
 5   0  0.2888776E-05  0.1885408E+04  0.7818609E-02  0.8662154E-01
       -2   -1    0    0    0  501  0.00000000000E+00  0.00000000000E+00  0.55359031534E+03  0.55359031534E+03  0.25500000920E-02 0.  1.
        2   -1    0    0  501    0  0.00000000000E+00  0.00000000000E+00 -0.16053228031E+04  0.16053228031E+04  0.25500000920E-02 0. -1.
    10030    2    1    2    0    0  0.00000000000E+00  0.00000000000E+00 -0.10517324877E+04  0.21589131184E+04  0.18854083449E+04 0.  0.
        3    1    3    3  502    0  0.38907336881E+02 -0.89622206200E+03 -0.85766495919E+03  0.12410950639E+04  0.10100000352E+00 0. -1.
       -3    1    3    3    0  502 -0.38907336881E+02  0.89622206200E+03 -0.19406752852E+03  0.91781805447E+03  0.10100000352E+00 0.  1.
</event>
<event>
 5   0  0.2879462E-05  0.1898735E+04  0.7818609E-02  0.8655486E-01
       -2   -1    0    0    0  501  0.00000000000E+00  0.00000000000E+00  0.69999374612E+03  0.69999374613E+03  0.25500000920E-02 0.  1.
        2   -1    0    0  501    0  0.00000000000E+00  0.00000000000E+00 -0.12875812199E+04  0.12875812199E+04  0.25500000920E-02 0. -1.
    10030    2    1    2    0    0  0.00000000000E+00  0.00000000000E+00 -0.58758747377E+03  0.19875749660E+04  0.18987351596E+04 0.  0.
        4    1    3    3  502    0  0.37653827924E+03 -0.82238365383E+03 -0.59573608077E+03  0.10830508024E+04  0.12699999809E+01 0. -1.
       -4    1    3    3    0  502 -0.37653827924E+03  0.82238365383E+03  0.81486070002E+01  0.90452416359E+03  0.12699999809E+01 0.  1.
</event>
<event>
 5   0  0.2888776E-05  0.1899499E+04  0.7818609E-02  0.8655106E-01
       -2   -1    0    0    0  501  0.00000000000E+00  0.00000000000E+00  0.12563965354E+04  0.12563965354E+04  0.25500000920E-02 0.  1.
        2   -1    0    0  501    0  0.00000000000E+00  0.00000000000E+00 -0.71794570597E+03  0.71794570598E+03  0.25500000920E-02 0. -1.
    10030    2    1    2    0    0  0.00000000000E+00  0.00000000000E+00  0.53845082947E+03  0.19743422414E+04  0.18994994052E+04 0.  0.
        3    1    3    3  502    0  0.19622154729E+03 -0.57095151357E+03 -0.49283084944E+03  0.77933996614E+03  0.10100000352E+00 0. -1.
       -3    1    3    3    0  502 -0.19622154729E+03  0.57095151357E+03  0.10312816789E+04  0.11950022753E+04  0.10100000352E+00 0.  1.
</event>
<event>
 5   0  0.2888776E-05  0.1900608E+04  0.7818609E-02  0.8654554E-01
       -2   -1    0    0    0  501  0.00000000000E+00  0.00000000000E+00  0.99990323973E+03  0.99990323973E+03  0.25500000920E-02 0. -1.
        2   -1    0    0  501    0  0.00000000000E+00  0.00000000000E+00 -0.90316487342E+03  0.90316487343E+03  0.25500000920E-02 0.  1.
    10030    2    1    2    0    0  0.00000000000E+00  0.00000000000E+00  0.96738366303E+02  0.19030681132E+04  0.19006077796E+04 0.  0.
        3    1    3    3  502    0 -0.75633817380E+03 -0.30917790067E+02  0.62363368213E+03  0.98077638765E+03  0.10100000352E+00 0. -1.
       -3    1    3    3    0  502  0.75633817380E+03  0.30917790067E+02 -0.52689531583E+03  0.92229172550E+03  0.10100000352E+00 0.  1.
</event>
<event>
 5   0  0.1327254E-05  0.1897089E+04  0.7818609E-02  0.8656307E-01
        1   -1    0    0  501    0  0.00000000000E+00  0.00000000000E+00  0.21289432338E+04  0.21289432338E+04  0.50400001928E-02 0. -1.
       -1   -1    0    0    0  501  0.00000000000E+00  0.00000000000E+00 -0.42262132957E+03  0.42262132960E+03  0.50400001928E-02 0.  1.
    10030    2    1    2    0    0  0.00000000000E+00  0.00000000000E+00  0.17063219042E+04  0.25515645634E+04  0.18970891598E+04 0.  0.
        5    1    3    3  502    0 -0.65005475467E+03 -0.64524873783E+03  0.52152463660E+03  0.10540052914E+04  0.46999998093E+01 0.  1.
       -5    1    3    3    0  502  0.65005475467E+03  0.64524873783E+03  0.11847972676E+04  0.14975592720E+04  0.46999998093E+01 0. -1.
</event>
<event>
 5   0  0.1471485E-05  0.1889327E+04  0.7818609E-02  0.8660187E-01
       -1   -1    0    0    0  501  0.00000000000E+00  0.00000000000E+00  0.18241316927E+04  0.18241316928E+04  0.50400001928E-02 0. -1.
        1   -1    0    0  501    0  0.00000000000E+00  0.00000000000E+00 -0.48921306036E+03  0.48921306039E+03  0.50400001928E-02 0.  1.
    10030    2    1    2    0    0  0.00000000000E+00  0.00000000000E+00  0.13349186324E+04  0.23133447531E+04  0.18893269150E+04 0.  0.
        4    1    3    3  502    0  0.69349334365E+03 -0.52337102307E+03  0.11215507623E+04  0.14187064428E+04  0.12699999809E+01 0.  1.
       -4    1    3    3    0  502 -0.69349334365E+03  0.52337102307E+03  0.21336787006E+03  0.89463831035E+03  0.12699999809E+01 0. -1.
</event>
<event>
 5   0  0.1327254E-05  0.1903266E+04  0.7818609E-02  0.8653232E-01
       -1   -1    0    0    0  501  0.00000000000E+00  0.00000000000E+00  0.12731128635E+04  0.12731128635E+04  0.50400001928E-02 0. -1.
        1   -1    0    0  501    0  0.00000000000E+00  0.00000000000E+00 -0.71133161756E+03  0.71133161758E+03  0.50400001928E-02 0.  1.
    10030    2    1    2    0    0  0.00000000000E+00  0.00000000000E+00  0.56178124598E+03  0.19844444811E+04  0.19032660692E+04 0.  0.
        5    1    3    3  502    0 -0.90591688774E+03 -0.11879788074E+03  0.55829292575E+03  0.10707527375E+04  0.46999998093E+01 0. -1.
       -5    1    3    3    0  502  0.90591688774E+03  0.11879788074E+03  0.34883202334E+01  0.91369174361E+03  0.46999998093E+01 0.  1.
</event>
<event>
 5   0  0.1429067E-05  0.1910447E+04  0.7818609E-02  0.8649674E-01
        1   -1    0    0  501    0  0.00000000000E+00  0.00000000000E+00  0.13883147975E+04  0.13883147975E+04  0.50400001928E-02 0.  1.
       -1   -1    0    0    0  501  0.00000000000E+00  0.00000000000E+00 -0.65723707676E+03  0.65723707678E+03  0.50400001928E-02 0. -1.
    10030    2    1    2    0    0  0.00000000000E+00  0.00000000000E+00  0.73107772074E+03  0.20455518743E+04  0.19104470253E+04 0.  0.
        3    1    3    3  502    0 -0.34671584247E+03  0.25342585625E+03 -0.54803945699E+03  0.69626417160E+03  0.10100000352E+00 0. -1.
       -3    1    3    3    0  502  0.34671584247E+03 -0.25342585625E+03  0.12791171777E+04  0.13492877027E+04  0.10100000352E+00 0.  1.
</event>
<event>
 5   0  0.2879462E-05  0.1901432E+04  0.7818609E-02  0.8654144E-01
       -2   -1    0    0    0  501  0.00000000000E+00  0.00000000000E+00  0.16310366121E+04  0.16310366121E+04  0.25500000920E-02 0.  1.
        2   -1    0    0  501    0  0.00000000000E+00  0.00000000000E+00 -0.55416357695E+03  0.55416357696E+03  0.25500000920E-02 0. -1.
    10030    2    1    2    0    0  0.00000000000E+00  0.00000000000E+00  0.10768730351E+04  0.21852001890E+04  0.19014321793E+04 0.  0.
        4    1    3    3  502    0 -0.22673208629E+03 -0.86096221525E+03  0.92166268699E+03  0.12814550700E+04  0.12699999809E+01 0.  1.
       -4    1    3    3    0  502  0.22673208629E+03  0.86096221525E+03  0.15521034814E+03  0.90374511900E+03  0.12699999809E+01 0. -1.
</event>
<event>
 5   0  0.2855141E-05  0.1899521E+04  0.7818609E-02  0.8655095E-01
       -2   -1    0    0    0  501  0.00000000000E+00  0.00000000000E+00  0.12322090741E+04  0.12322090741E+04  0.25500000920E-02 0. -1.
        2   -1    0    0  501    0  0.00000000000E+00  0.00000000000E+00 -0.73205497610E+03  0.73205497611E+03  0.25500000920E-02 0.  1.
    10030    2    1    2    0    0  0.00000000000E+00  0.00000000000E+00  0.50015409798E+03  0.19642640502E+04  0.18995207651E+04 0.  0.
        1    1    3    3  502    0 -0.58635328069E+03  0.66148135751E+03  0.60930334973E+03  0.10736006372E+04  0.50400001928E-02 0.  1.
       -1    1    3    3    0  502  0.58635328069E+03 -0.66148135751E+03 -0.10914925175E+03  0.89066341302E+03  0.50400001928E-02 0. -1.
</event>
<event>
 5   0  0.2813537E-05  0.1896733E+04  0.7818609E-02  0.8656484E-01
       -2   -1    0    0    0  501  0.00000000000E+00  0.00000000000E+00  0.47009016423E+03  0.47009016424E+03  0.25500000920E-02 0.  1.
        2   -1    0    0  501    0  0.00000000000E+00  0.00000000000E+00 -0.19132481292E+04  0.19132481292E+04  0.25500000920E-02 0. -1.
    10030    2    1    2    0    0  0.00000000000E+00  0.00000000000E+00 -0.14431579650E+04  0.23833382935E+04  0.18967331149E+04 0.  0.
        2    1    3    3  502    0  0.78346647060E+03  0.30034262249E+03 -0.12769875104E+04  0.15279798765E+04  0.25500000920E-02 0. -1.
       -2    1    3    3    0  502 -0.78346647060E+03 -0.30034262249E+03 -0.16617045464E+03  0.85535841695E+03  0.25500000920E-02 0.  1.
</event>
<event>
 5   0  0.1429067E-05  0.1896339E+04  0.7818609E-02  0.8656681E-01
        1   -1    0    0  501    0  0.00000000000E+00  0.00000000000E+00  0.14368846613E+04  0.14368846613E+04  0.50400001928E-02 0. -1.
       -1   -1    0    0    0  501  0.00000000000E+00  0.00000000000E+00 -0.62567680787E+03  0.62567680789E+03  0.50400001928E-02 0.  1.
    10030    2    1    2    0    0  0.00000000000E+00  0.00000000000E+00  0.81120785345E+03  0.20625614692E+04  0.18963390079E+04 0.  0.
        3    1    3    3  502    0 -0.85651822227E+00  0.36136555722E+03 -0.54784139029E+03  0.65628956923E+03  0.10100000352E+00 0.  1.
       -3    1    3    3    0  502  0.85651822227E+00 -0.36136555722E+03  0.13590492437E+04  0.14062719000E+04  0.10100000352E+00 0. -1.
</event>
<event>
 5   0  0.2888776E-05  0.1919144E+04  0.7818609E-02  0.8645386E-01
        2   -1    0    0  501    0  0.00000000000E+00  0.00000000000E+00  0.10307215470E+04  0.10307215470E+04  0.25500000920E-02 0. -1.
       -2   -1    0    0    0  501  0.00000000000E+00  0.00000000000E+00 -0.89333341831E+03  0.89333341831E+03  0.25500000920E-02 0.  1.
    10030    2    1    2    0    0  0.00000000000E+00  0.00000000000E+00  0.13738812869E+03  0.19240549653E+04  0.19191435620E+04 0.  0.
        3    1    3    3  502    0 -0.22092656394E+03 -0.61451773509E+03  0.77358470688E+03  0.10123605594E+04  0.10100000352E+00 0. -1.
       -3    1    3    3    0  502  0.22092656394E+03  0.61451773509E+03 -0.63619657819E+03  0.91169440587E+03  0.10100000352E+00 0.  1.
</event>
<event>
 5   0  0.2789718E-05  0.1890314E+04  0.7818609E-02  0.8659693E-01
        2   -1    0    0  501    0  0.00000000000E+00  0.00000000000E+00  0.93012086851E+03  0.93012086851E+03  0.25500000920E-02 0. -1.
       -2   -1    0    0    0  501  0.00000000000E+00  0.00000000000E+00 -0.96043605934E+03  0.96043605934E+03  0.25500000920E-02 0.  1.
    10030    2    1    2    0    0  0.00000000000E+00  0.00000000000E+00 -0.30315190829E+02  0.18905569279E+04  0.18903138593E+04 0.  0.
        5    1    3    3  502    0  0.12059525513E+03  0.52411463610E+03 -0.79247060966E+03  0.95774272354E+03  0.46999998093E+01 0.  1.
       -5    1    3    3    0  502 -0.12059525513E+03 -0.52411463610E+03  0.76215541883E+03  0.93281420432E+03  0.46999998093E+01 0. -1.
</event>
<event>
 5   0  0.2855141E-05  0.1892284E+04  0.7818609E-02  0.8658707E-01
        2   -1    0    0  501    0  0.00000000000E+00  0.00000000000E+00  0.11137290592E+04  0.11137290592E+04  0.25500000920E-02 0. -1.
       -2   -1    0    0    0  501  0.00000000000E+00  0.00000000000E+00 -0.80377225391E+03  0.80377225391E+03  0.25500000920E-02 0.  1.
    10030    2    1    2    0    0  0.00000000000E+00  0.00000000000E+00  0.30995680529E+03  0.19175013131E+04  0.18922838224E+04 0.  0.
        1    1    3    3  502    0  0.72171110215E+02  0.60059510549E+03 -0.58222017787E+03  0.83958530563E+03  0.50400001928E-02 0.  1.
       -1    1    3    3    0  502 -0.72171110215E+02 -0.60059510549E+03  0.89217698316E+03  0.10779160075E+04  0.50400001928E-02 0. -1.
</event>
<event>
 5   0  0.1429067E-05  0.1900881E+04  0.7818609E-02  0.8654418E-01
       -1   -1    0    0    0  501  0.00000000000E+00  0.00000000000E+00  0.10903677059E+04  0.10903677059E+04  0.50400001928E-02 0. -1.
        1   -1    0    0  501    0  0.00000000000E+00  0.00000000000E+00 -0.82847042785E+03  0.82847042787E+03  0.50400001928E-02 0.  1.
    10030    2    1    2    0    0  0.00000000000E+00  0.00000000000E+00  0.26189727805E+03  0.19188381338E+04  0.19008812691E+04 0.  0.
        3    1    3    3  502    0 -0.80645482418E+03  0.13080947891E+03  0.62118738202E+03  0.10263304911E+04  0.10100000352E+00 0. -1.
       -3    1    3    3    0  502  0.80645482418E+03 -0.13080947891E+03 -0.35929010397E+03  0.89250764267E+03  0.10100000352E+00 0.  1.
</event>
<event>
 5   0  0.1471485E-05  0.1901369E+04  0.7818609E-02  0.8654175E-01
       -1   -1    0    0    0  501  0.00000000000E+00  0.00000000000E+00  0.14126927853E+04  0.14126927854E+04  0.50400001928E-02 0. -1.
        1   -1    0    0  501    0  0.00000000000E+00  0.00000000000E+00 -0.63977190432E+03  0.63977190434E+03  0.50400001928E-02 0.  1.
    10030    2    1    2    0    0  0.00000000000E+00  0.00000000000E+00  0.77292088103E+03  0.20524646897E+04  0.19013691420E+04 0.  0.
        4    1    3    3  502    0  0.86240158871E+03  0.12642380245E+03  0.79620311442E+03  0.11805339853E+04  0.12699999809E+01 0. -1.
       -4    1    3    3    0  502 -0.86240158871E+03 -0.12642380245E+03 -0.23282233391E+02  0.87193070443E+03  0.12699999809E+01 0.  1.
</event>
<event>
 5   0  0.1327254E-05  0.1901900E+04  0.7818609E-02  0.8653911E-01
       -1   -1    0    0    0  501  0.00000000000E+00  0.00000000000E+00  0.63755908560E+03  0.63755908562E+03  0.50400001928E-02 0. -1.
        1   -1    0    0  501    0  0.00000000000E+00  0.00000000000E+00 -0.14183876291E+04  0.14183876291E+04  0.50400001928E-02 0.  1.
    10030    2    1    2    0    0  0.00000000000E+00  0.00000000000E+00 -0.78082854353E+03  0.20559467148E+04  0.19019000183E+04 0.  0.
        5    1    3    3  502    0  0.50026836339E+03 -0.70524926003E+03 -0.81824694735E+03  0.11904600418E+04  0.46999998093E+01 0.  1.
       -5    1    3    3    0  502 -0.50026836339E+03  0.70524926003E+03  0.37418403824E+02  0.86548667299E+03  0.46999998093E+01 0. -1.
</event>
<event>
 5   0  0.2855141E-05  0.1894414E+04  0.7818609E-02  0.8657642E-01
        2   -1    0    0  501    0  0.00000000000E+00  0.00000000000E+00  0.17893429980E+04  0.17893429980E+04  0.25500000920E-02 0. -1.
       -2   -1    0    0    0  501  0.00000000000E+00  0.00000000000E+00 -0.50141375838E+03  0.50141375839E+03  0.25500000920E-02 0.  1.
    10030    2    1    2    0    0  0.00000000000E+00  0.00000000000E+00  0.12879292396E+04  0.22907567564E+04  0.18944141022E+04 0.  0.
        1    1    3    3  502    0 -0.23419282659E+03  0.87488150242E+02 -0.46079923753E+03  0.52424840848E+03  0.50400001928E-02 0.  1.
       -1    1    3    3    0  502  0.23419282659E+03 -0.87488150242E+02  0.17487284771E+04  0.17665083479E+04  0.50400001928E-02 0. -1.
</event>
<event>
 5   0  0.2789718E-05  0.1926026E+04  0.7818609E-02  0.8642009E-01
        2   -1    0    0  501    0  0.00000000000E+00  0.00000000000E+00  0.76128307274E+03  0.76128307274E+03  0.25500000920E-02 0. -1.
       -2   -1    0    0    0  501  0.00000000000E+00  0.00000000000E+00 -0.12181992203E+04  0.12181992203E+04  0.25500000920E-02 0.  1.
    10030    2    1    2    0    0  0.00000000000E+00  0.00000000000E+00 -0.45691614756E+03  0.19794822931E+04  0.19260264231E+04 0.  0.
        5    1    3    3  502    0  0.51371512999E+03 -0.76076910356E+03 -0.52756728183E+03  0.10587833539E+04  0.46999998093E+01 0.  1.
       -5    1    3    3    0  502 -0.51371512999E+03  0.76076910356E+03  0.70651134268E+02  0.92069893911E+03  0.46999998093E+01 0. -1.
</event>
<event>
 5   0  0.2813537E-05  0.1900013E+04  0.7818609E-02  0.8654850E-01
        2   -1    0    0  501    0  0.00000000000E+00  0.00000000000E+00  0.13570350138E+04  0.13570350138E+04  0.25500000920E-02 0. -1.
       -2   -1    0    0    0  501  0.00000000000E+00  0.00000000000E+00 -0.66506218984E+03  0.66506218984E+03  0.25500000920E-02 0.  1.
    10030    2    1    2    0    0  0.00000000000E+00  0.00000000000E+00  0.69197282392E+03  0.20220972036E+04  0.19000133452E+04 0.  0.
        2    1    3    3  502    0  0.69349869881E+03  0.45113731808E+03  0.84294567113E+03  0.11811108032E+04  0.25500000920E-02 0. -1.
       -2    1    3    3    0  502 -0.69349869881E+03 -0.45113731808E+03 -0.15097284721E+03  0.84098640037E+03  0.25500000920E-02 0.  1.
</event>
<event>
 5   0  0.2888776E-05  0.1905196E+04  0.7818609E-02  0.8652275E-01
       -2   -1    0    0    0  501  0.00000000000E+00  0.00000000000E+00  0.65516986303E+03  0.65516986303E+03  0.25500000920E-02 0.  1.
        2   -1    0    0  501    0  0.00000000000E+00  0.00000000000E+00 -0.13850492316E+04  0.13850492316E+04  0.25500000920E-02 0. -1.
    10030    2    1    2    0    0  0.00000000000E+00  0.00000000000E+00 -0.72987936856E+03  0.20402190946E+04  0.19051955441E+04 0.  0.
        3    1    3    3  502    0 -0.82622173640E+02  0.73727405368E+03  0.27493885311E+03  0.79119582718E+03  0.10100000352E+00 0.  1.
       -3    1    3    3    0  502  0.82622173640E+02 -0.73727405368E+03 -0.10048182217E+04  0.12490232674E+04  0.10100000352E+00 0. -1.
</event>
<event>
 5   0  0.2813537E-05  0.1857989E+04  0.7818609E-02  0.8676055E-01
       -2   -1    0    0    0  501  0.00000000000E+00  0.00000000000E+00  0.12929205847E+04  0.12929205847E+04  0.25500000920E-02 0. -1.
        2   -1    0    0  501    0  0.00000000000E+00  0.00000000000E+00 -0.66750462022E+03  0.66750462023E+03  0.25500000920E-02 0.  1.
    10030    2    1    2    0    0  0.00000000000E+00  0.00000000000E+00  0.62541596445E+03  0.19604252049E+04  0.18579886586E+04 0.  0.
        2    1    3    3  502    0 -0.48446385426E+03 -0.78363648566E+03  0.18680140157E+03  0.94004581344E+03  0.25500000920E-02 0.  1.
       -2    1    3    3    0  502  0.48446385426E+03  0.78363648566E+03  0.43861456288E+03  0.10203793915E+04  0.25500000920E-02 0. -1.
</event>
<event>
 5   0  0.2888776E-05  0.1902538E+04  0.7818609E-02  0.8653594E-01
        2   -1    0    0  501    0  0.00000000000E+00  0.00000000000E+00  0.14780228053E+04  0.14780228053E+04  0.25500000920E-02 0.  1.
       -2   -1    0    0    0  501  0.00000000000E+00  0.00000000000E+00 -0.61224566240E+03  0.61224566240E+03  0.25500000920E-02 0. -1.
    10030    2    1    2    0    0  0.00000000000E+00  0.00000000000E+00  0.86577714292E+03  0.20902684677E+04  0.19025383586E+04 0.  0.
        3    1    3    3  502    0 -0.60956313241E+03  0.41356001511E+03 -0.22843068844E+03  0.77121961082E+03  0.10100000352E+00 0. -1.
       -3    1    3    3    0  502  0.60956313241E+03 -0.41356001511E+03  0.10942078314E+04  0.13190488569E+04  0.10100000352E+00 0.  1.
</event>
<event>
 5   0  0.2888776E-05  0.1886160E+04  0.7818609E-02  0.8661776E-01
        2   -1    0    0  501    0  0.00000000000E+00  0.00000000000E+00  0.95764349357E+03  0.95764349357E+03  0.25500000920E-02 0.  1.
       -2   -1    0    0    0  501  0.00000000000E+00  0.00000000000E+00 -0.92873839174E+03  0.92873839175E+03  0.25500000920E-02 0. -1.
    10030    2    1    2    0    0  0.00000000000E+00  0.00000000000E+00  0.28905101821E+02  0.18863818853E+04  0.18861604153E+04 0.  0.
        3    1    3    3  502    0 -0.30262693136E+03 -0.35598016809E+03  0.83375282272E+03  0.95574511208E+03  0.10100000352E+00 0.  1.
       -3    1    3    3    0  502  0.30262693136E+03  0.35598016809E+03 -0.80484772090E+03  0.93063677324E+03  0.10100000352E+00 0. -1.
</event>
<event>
 5   0  0.2879462E-05  0.1899789E+04  0.7818609E-02  0.8654962E-01
        2   -1    0    0  501    0  0.00000000000E+00  0.00000000000E+00  0.13810201713E+04  0.13810201713E+04  0.25500000920E-02 0.  1.
       -2   -1    0    0    0  501  0.00000000000E+00  0.00000000000E+00 -0.65335712976E+03  0.65335712976E+03  0.25500000920E-02 0. -1.
    10030    2    1    2    0    0  0.00000000000E+00  0.00000000000E+00  0.72766304155E+03  0.20343773011E+04  0.18997888043E+04 0.  0.
        4    1    3    3  502    0 -0.34965237923E+03  0.59609485060E+03  0.10616996980E+04  0.12668045306E+04  0.12699999809E+01 0. -1.
       -4    1    3    3    0  502  0.34965237923E+03 -0.59609485060E+03 -0.33403665642E+03  0.76757277046E+03  0.12699999809E+01 0.  1.
</event>
<event>
 5   0  0.1327254E-05  0.1897605E+04  0.7818609E-02  0.8656049E-01
       -1   -1    0    0    0  501  0.00000000000E+00  0.00000000000E+00  0.61687821791E+03  0.61687821793E+03  0.50400001928E-02 0.  1.
        1   -1    0    0  501    0  0.00000000000E+00  0.00000000000E+00 -0.14593254596E+04  0.14593254597E+04  0.50400001928E-02 0. -1.
    10030    2    1    2    0    0  0.00000000000E+00  0.00000000000E+00 -0.84244724173E+03  0.20762036776E+04  0.18976048998E+04 0.  0.
        5    1    3    3  502    0  0.48969103896E+03  0.79634297891E+03 -0.59847257806E+03  0.11100229594E+04  0.46999998093E+01 0.  1.
       -5    1    3    3    0  502 -0.48969103896E+03 -0.79634297891E+03 -0.24397466368E+03  0.96618071819E+03  0.46999998093E+01 0. -1.
</event>
<event>
 5   0  0.1344119E-05  0.1900138E+04  0.7818609E-02  0.8654788E-01
       -1   -1    0    0    0  501  0.00000000000E+00  0.00000000000E+00  0.95296631672E+03  0.95296631673E+03  0.50400001928E-02 0.  1.
        1   -1    0    0  501    0  0.00000000000E+00  0.00000000000E+00 -0.94718006499E+03  0.94718006500E+03  0.50400001928E-02 0. -1.
    10030    2    1    2    0    0  0.00000000000E+00  0.00000000000E+00  0.57862517298E+01  0.19001463817E+04  0.19001375717E+04 0.  0.
        2    1    3    3  502    0 -0.47951520854E+03  0.81837217348E+03 -0.51539178367E+02  0.94990743573E+03  0.25500000920E-02 0. -1.
       -2    1    3    3    0  502  0.47951520854E+03 -0.81837217348E+03  0.57325430097E+02  0.95023894600E+03  0.25500000920E-02 0.  1.
</event>
<event>
 5   0  0.1344119E-05  0.1900837E+04  0.7818609E-02  0.8654440E-01
       -1   -1    0    0    0  501  0.00000000000E+00  0.00000000000E+00  0.46963167260E+03  0.46963167263E+03  0.50400001928E-02 0.  1.
        1   -1    0    0  501    0  0.00000000000E+00  0.00000000000E+00 -0.19234118052E+04  0.19234118052E+04  0.50400001928E-02 0. -1.
    10030    2    1    2    0    0  0.00000000000E+00  0.00000000000E+00 -0.14537801326E+04  0.23930434778E+04  0.19008367665E+04 0.  0.
        2    1    3    3  502    0  0.24120376982E+02  0.35812888007E+03  0.38101978675E+03  0.52346362359E+03  0.25500000920E-02 0.  1.
       -2    1    3    3    0  502 -0.24120376982E+02 -0.35812888007E+03 -0.18347999193E+04  0.18695798542E+04  0.25500000920E-02 0. -1.
</event>
<event>
 5   0  0.1429067E-05  0.1906492E+04  0.7818609E-02  0.8651632E-01
        1   -1    0    0  501    0  0.00000000000E+00  0.00000000000E+00  0.10254590852E+04  0.10254590852E+04  0.50400001928E-02 0.  1.
       -1   -1    0    0    0  501  0.00000000000E+00  0.00000000000E+00 -0.88611816365E+03  0.88611816367E+03  0.50400001928E-02 0. -1.
    10030    2    1    2    0    0  0.00000000000E+00  0.00000000000E+00  0.13934092158E+03  0.19115772489E+04  0.19064919843E+04 0.  0.
        3    1    3    3  502    0 -0.18038401996E+03  0.41905820697E+03  0.90887950720E+03  0.10169612305E+04  0.10100000352E+00 0.  1.
       -3    1    3    3    0  502  0.18038401996E+03 -0.41905820697E+03 -0.76953858562E+03  0.89461601843E+03  0.10100000352E+00 0. -1.
</event>
<event>
 5   0  0.2855141E-05  0.1902822E+04  0.7818609E-02  0.8653453E-01
       -2   -1    0    0    0  501  0.00000000000E+00  0.00000000000E+00  0.50515956073E+03  0.50515956074E+03  0.25500000920E-02 0. -1.
        2   -1    0    0  501    0  0.00000000000E+00  0.00000000000E+00 -0.17918748801E+04  0.17918748801E+04  0.25500000920E-02 0.  1.
    10030    2    1    2    0    0  0.00000000000E+00  0.00000000000E+00 -0.12867153193E+04  0.22970344408E+04  0.19028218280E+04 0.  0.
        1    1    3    3  502    0 -0.81672098567E+03  0.46605380304E+03 -0.46865758313E+03  0.10506565785E+04  0.50400001928E-02 0. -1.
       -1    1    3    3    0  502  0.81672098567E+03 -0.46605380304E+03 -0.81805773620E+03  0.12463778623E+04  0.50400001928E-02 0.  1.
</event>
<event>
 5   0  0.1429067E-05  0.1900265E+04  0.7818609E-02  0.8654724E-01
       -1   -1    0    0    0  501  0.00000000000E+00  0.00000000000E+00  0.92480080261E+03  0.92480080262E+03  0.50400001928E-02 0.  1.
        1   -1    0    0  501    0  0.00000000000E+00  0.00000000000E+00 -0.97615807897E+03  0.97615807898E+03  0.50400001928E-02 0. -1.
    10030    2    1    2    0    0  0.00000000000E+00  0.00000000000E+00 -0.51357276359E+02  0.19009588816E+04  0.19002650078E+04 0.  0.
        3    1    3    3  502    0  0.63488615650E+03 -0.40796209154E+02  0.68027515570E+03  0.93140703243E+03  0.10100000352E+00 0.  1.
       -3    1    3    3    0  502 -0.63488615650E+03  0.40796209154E+02 -0.73163243206E+03  0.96955184918E+03  0.10100000352E+00 0. -1.
</event>
<event>
 5   0  0.2888776E-05  0.1899364E+04  0.7818609E-02  0.8655173E-01
       -2   -1    0    0    0  501  0.00000000000E+00  0.00000000000E+00  0.95995284837E+03  0.95995284838E+03  0.25500000920E-02 0.  1.
        2   -1    0    0  501    0  0.00000000000E+00  0.00000000000E+00 -0.93952101815E+03  0.93952101816E+03  0.25500000920E-02 0. -1.
    10030    2    1    2    0    0  0.00000000000E+00  0.00000000000E+00  0.20431830221E+02  0.18994738665E+04  0.18993639751E+04 0.  0.
        3    1    3    3  502    0  0.78843628721E+03 -0.49406746022E+03  0.20038851448E+03  0.95178253880E+03  0.10100000352E+00 0.  1.
       -3    1    3    3    0  502 -0.78843628721E+03  0.49406746022E+03 -0.17995668426E+03  0.94769132773E+03  0.10100000352E+00 0. -1.
</event>
<event>
 5   0  0.1413011E-05  0.1903551E+04  0.7818609E-02  0.8653091E-01
       -1   -1    0    0    0  501  0.00000000000E+00  0.00000000000E+00  0.60523681390E+03  0.60523681393E+03  0.50400001928E-02 0. -1.
        1   -1    0    0  501    0  0.00000000000E+00  0.00000000000E+00 -0.14967310923E+04  0.14967310923E+04  0.50400001928E-02 0.  1.
    10030    2    1    2    0    0  0.00000000000E+00  0.00000000000E+00 -0.89149427840E+03  0.21019679062E+04  0.19035511631E+04 0.  0.
        1    1    3    3  502    0 -0.31286960191E+03 -0.76887433966E+03 -0.95992434361E+03  0.12690586604E+04  0.50400001928E-02 0.  1.
       -1    1    3    3    0  502  0.31286960191E+03  0.76887433966E+03  0.68430065214E+02  0.83290924586E+03  0.50400001928E-02 0. -1.
</event>
<event>
 5   0  0.2879462E-05  0.1898221E+04  0.7818609E-02  0.8655742E-01
       -2   -1    0    0    0  501  0.00000000000E+00  0.00000000000E+00  0.78413307338E+03  0.78413307338E+03  0.25500000920E-02 0. -1.
        2   -1    0    0  501    0  0.00000000000E+00  0.00000000000E+00 -0.11487981280E+04  0.11487981280E+04  0.25500000920E-02 0.  1.
    10030    2    1    2    0    0  0.00000000000E+00  0.00000000000E+00 -0.36466505457E+03  0.19329312013E+04  0.18982208584E+04 0.  0.
        4    1    3    3  502    0  0.61288927254E+03  0.56517289997E+03 -0.64422958815E+03  0.10536066830E+04  0.12699999809E+01 0.  1.
       -4    1    3    3    0  502 -0.61288927254E+03 -0.56517289997E+03  0.27956453358E+03  0.87932451836E+03  0.12699999809E+01 0. -1.
</event>
<event>
 5   0  0.2879462E-05  0.1896417E+04  0.7818609E-02  0.8656642E-01
        2   -1    0    0  501    0  0.00000000000E+00  0.00000000000E+00  0.11424398942E+04  0.11424398942E+04  0.25500000920E-02 0.  1.
       -2   -1    0    0    0  501  0.00000000000E+00  0.00000000000E+00 -0.78699914860E+03  0.78699914860E+03  0.25500000920E-02 0. -1.
    10030    2    1    2    0    0  0.00000000000E+00  0.00000000000E+00  0.35544074562E+03  0.19294390428E+04  0.18964168572E+04 0.  0.
        4    1    3    3  502    0  0.94607242097E+03  0.27186524312E+02  0.23621478951E+03  0.97549534725E+03  0.12699999809E+01 0. -1.
       -4    1    3    3    0  502 -0.94607242097E+03 -0.27186524312E+02  0.11922595611E+03  0.95394369557E+03  0.12699999809E+01 0.  1.
</event>
<event>
 5   0  0.1327254E-05  0.1899118E+04  0.7818609E-02  0.8655296E-01
       -1   -1    0    0    0  501  0.00000000000E+00  0.00000000000E+00  0.91656669704E+03  0.91656669705E+03  0.50400001928E-02 0. -1.
        1   -1    0    0  501    0  0.00000000000E+00  0.00000000000E+00 -0.98373844105E+03  0.98373844106E+03  0.50400001928E-02 0.  1.
    10030    2    1    2    0    0  0.00000000000E+00  0.00000000000E+00 -0.67171744009E+02  0.19003051381E+04  0.18991175779E+04 0.  0.
        5    1    3    3  502    0 -0.22264852974E+03 -0.69167814327E+03 -0.64523628671E+03  0.97177311002E+03  0.46999998093E+01 0.  1.
       -5    1    3    3    0  502  0.22264852974E+03  0.69167814327E+03  0.57806454270E+03  0.92853202810E+03  0.46999998093E+01 0. -1.
</event>
<event>
 5   0  0.1429067E-05  0.1898894E+04  0.7818609E-02  0.8655407E-01
        1   -1    0    0  501    0  0.00000000000E+00  0.00000000000E+00  0.22462970178E+04  0.22462970178E+04  0.50400001928E-02 0.  1.
       -1   -1    0    0    0  501  0.00000000000E+00  0.00000000000E+00 -0.40130467577E+03  0.40130467580E+03  0.50400001928E-02 0. -1.
    10030    2    1    2    0    0  0.00000000000E+00  0.00000000000E+00  0.18449923420E+04  0.26476016936E+04  0.18988938848E+04 0.  0.
        3    1    3    3  502    0  0.37429430984E+03 -0.81990396896E+03  0.13387104482E+04  0.16138415111E+04  0.10100000352E+00 0.  1.
       -3    1    3    3    0  502 -0.37429430984E+03  0.81990396896E+03  0.50628189388E+03  0.10337601825E+04  0.10100000352E+00 0. -1.
</event>
<event>
 5   0  0.1344119E-05  0.1879053E+04  0.7818609E-02  0.8665354E-01
       -1   -1    0    0    0  501  0.00000000000E+00  0.00000000000E+00  0.34569554226E+03  0.34569554230E+03  0.50400001928E-02 0. -1.
        1   -1    0    0  501    0  0.00000000000E+00  0.00000000000E+00 -0.25534320452E+04  0.25534320452E+04  0.50400001928E-02 0.  1.
    10030    2    1    2    0    0  0.00000000000E+00  0.00000000000E+00 -0.22077365029E+04  0.28991275875E+04  0.18790530334E+04 0.  0.
        2    1    3    3  502    0  0.24665483201E+02 -0.92086879803E+03 -0.13887866018E+04  0.16665341144E+04  0.25500000920E-02 0. -1.
       -2    1    3    3    0  502 -0.24665483201E+02  0.92086879803E+03 -0.81894990117E+03  0.12325934731E+04  0.25500000920E-02 0.  1.
</event>
<event>
 5   0  0.2879462E-05  0.1897957E+04  0.7818609E-02  0.8655874E-01
       -2   -1    0    0    0  501  0.00000000000E+00  0.00000000000E+00  0.23140691035E+04  0.23140691035E+04  0.25500000920E-02 0. -1.
        2   -1    0    0  501    0  0.00000000000E+00  0.00000000000E+00 -0.38916725338E+03  0.38916725338E+03  0.25500000920E-02 0.  1.
    10030    2    1    2    0    0  0.00000000000E+00  0.00000000000E+00  0.19249018502E+04  0.27032363569E+04  0.18979567088E+04 0.  0.
        4    1    3    3  502    0  0.20456356472E+03 -0.73449689401E+03  0.15772666567E+03  0.77859569308E+03  0.12699999809E+01 0.  1.
       -4    1    3    3    0  502 -0.20456356472E+03  0.73449689401E+03  0.17671751845E+04  0.19246406638E+04  0.12699999809E+01 0. -1.
</event>
<event>
 5   0  0.1429067E-05  0.1901841E+04  0.7818609E-02  0.8653941E-01
        1   -1    0    0  501    0  0.00000000000E+00  0.00000000000E+00  0.12844641354E+04  0.12844641354E+04  0.50400001928E-02 0. -1.
       -1   -1    0    0    0  501  0.00000000000E+00  0.00000000000E+00 -0.70398976297E+03  0.70398976298E+03  0.50400001928E-02 0.  1.
    10030    2    1    2    0    0  0.00000000000E+00  0.00000000000E+00  0.58047437242E+03  0.19884538984E+04  0.19018407948E+04 0.  0.
        3    1    3    3  502    0  0.11338938554E+03 -0.43370984305E+03  0.11670523187E+04  0.12501889879E+04  0.10100000352E+00 0. -1.
       -3    1    3    3    0  502 -0.11338938554E+03  0.43370984305E+03 -0.58657794630E+03  0.73826491045E+03  0.10100000352E+00 0.  1.
</event>
<event>
 5   0  0.2813537E-05  0.1900923E+04  0.7818609E-02  0.8654397E-01
        2   -1    0    0  501    0  0.00000000000E+00  0.00000000000E+00  0.12236800973E+04  0.12236800973E+04  0.25500000920E-02 0. -1.
       -2   -1    0    0    0  501  0.00000000000E+00  0.00000000000E+00 -0.73824619921E+03  0.73824619922E+03  0.25500000920E-02 0.  1.
    10030    2    1    2    0    0  0.00000000000E+00  0.00000000000E+00  0.48543389805E+03  0.19619262965E+04  0.19009231240E+04 0.  0.
        2    1    3    3  502    0  0.10905524743E+03  0.83645226378E+03 -0.20932461865E+03  0.86911577626E+03  0.25500000920E-02 0.  1.
       -2    1    3    3    0  502 -0.10905524743E+03 -0.83645226378E+03  0.69475851670E+03  0.10928105202E+04  0.25500000920E-02 0. -1.
</event>
<event>
 5   0  0.2879462E-05  0.1902601E+04  0.7818609E-02  0.8653563E-01
        2   -1    0    0  501    0  0.00000000000E+00  0.00000000000E+00  0.81166271565E+03  0.81166271566E+03  0.25500000920E-02 0. -1.
       -2   -1    0    0    0  501  0.00000000000E+00  0.00000000000E+00 -0.11149611940E+04  0.11149611940E+04  0.25500000920E-02 0.  1.
    10030    2    1    2    0    0  0.00000000000E+00  0.00000000000E+00 -0.30329847832E+03  0.19266239096E+04  0.19026007785E+04 0.  0.
        4    1    3    3  502    0 -0.16747095185E+03  0.42169089745E+02 -0.10989536248E+04  0.11124412048E+04  0.12699999809E+01 0.  1.
       -4    1    3    3    0  502  0.16747095185E+03 -0.42169089745E+02  0.79565514646E+03  0.81418270482E+03  0.12699999809E+01 0. -1.
</event>
<event>
 5   0  0.1327254E-05  0.1898562E+04  0.7818609E-02  0.8655573E-01
        1   -1    0    0  501    0  0.00000000000E+00  0.00000000000E+00  0.58158612089E+03  0.58158612091E+03  0.50400001928E-02 0. -1.
       -1   -1    0    0    0  501  0.00000000000E+00  0.00000000000E+00 -0.15494419961E+04  0.15494419961E+04  0.50400001928E-02 0.  1.
    10030    2    1    2    0    0  0.00000000000E+00  0.00000000000E+00 -0.96785587518E+03  0.21310281170E+04  0.18985615187E+04 0.  0.
        5    1    3    3  502    0 -0.89101145342E+03  0.23401502015E+03 -0.74098326743E+03  0.11822617022E+04  0.46999998093E+01 0. -1.
       -5    1    3    3    0  502  0.89101145342E+03 -0.23401502015E+03 -0.22687260776E+03  0.94876641484E+03  0.46999998093E+01 0.  1.
</event>
<event>
 5   0  0.1344119E-05  0.1899563E+04  0.7818609E-02  0.8655074E-01
        1   -1    0    0  501    0  0.00000000000E+00  0.00000000000E+00  0.10185353005E+04  0.10185353005E+04  0.50400001928E-02 0.  1.
       -1   -1    0    0    0  501  0.00000000000E+00  0.00000000000E+00 -0.88566854085E+03  0.88566854086E+03  0.50400001928E-02 0. -1.
    10030    2    1    2    0    0  0.00000000000E+00  0.00000000000E+00  0.13286675969E+03  0.19042038414E+04  0.18995627638E+04 0.  0.
        2    1    3    3  502    0  0.70816126786E+03  0.25659576455E+03  0.64642359877E+03  0.99257102352E+03  0.25500000920E-02 0.  1.
       -2    1    3    3    0  502 -0.70816126786E+03 -0.25659576455E+03 -0.51355683908E+03  0.91163281789E+03  0.25500000920E-02 0. -1.
</event>
<event>
 5   0  0.2813537E-05  0.1901689E+04  0.7818609E-02  0.8654016E-01
       -2   -1    0    0    0  501  0.00000000000E+00  0.00000000000E+00  0.69740337065E+03  0.69740337066E+03  0.25500000920E-02 0.  1.
        2   -1    0    0  501    0  0.00000000000E+00  0.00000000000E+00 -0.12963883781E+04  0.12963883782E+04  0.25500000920E-02 0. -1.
    10030    2    1    2    0    0  0.00000000000E+00  0.00000000000E+00 -0.59898500749E+03  0.19937917488E+04  0.19016893801E+04 0.  0.
        2    1    3    3  502    0 -0.57039595231E+03 -0.45867721885E+03  0.33683679827E+03  0.80572660511E+03  0.25500000920E-02 0.  1.
       -2    1    3    3    0  502  0.57039595231E+03  0.45867721885E+03 -0.93582180577E+03  0.11880651437E+04  0.25500000920E-02 0. -1.
</event>
<event>
 5   0  0.2888776E-05  0.1881932E+04  0.7818609E-02  0.8663903E-01
       -2   -1    0    0    0  501  0.00000000000E+00  0.00000000000E+00  0.10658260470E+04  0.10658260470E+04  0.25500000920E-02 0.  1.
        2   -1    0    0  501    0  0.00000000000E+00  0.00000000000E+00 -0.83073293680E+03  0.83073293681E+03  0.25500000920E-02 0. -1.
    10030    2    1    2    0    0  0.00000000000E+00  0.00000000000E+00  0.23509311022E+03  0.18965589838E+04  0.18819317758E+04 0.  0.
        3    1    3    3  502    0 -0.24296377414E+03 -0.62176061365E+03  0.78587456746E+03  0.10311239025E+04  0.10100000352E+00 0.  1.
       -3    1    3    3    0  502  0.24296377414E+03  0.62176061365E+03 -0.55078145724E+03  0.86543508138E+03  0.10100000352E+00 0. -1.
</event>
<event>
 5   0  0.2789718E-05  0.1906233E+04  0.7818609E-02  0.8651760E-01
        2   -1    0    0  501    0  0.00000000000E+00  0.00000000000E+00  0.12195341132E+04  0.12195341132E+04  0.25500000920E-02 0. -1.
       -2   -1    0    0    0  501  0.00000000000E+00  0.00000000000E+00 -0.74490042541E+03  0.74490042542E+03  0.25500000920E-02 0.  1.
    10030    2    1    2    0    0  0.00000000000E+00  0.00000000000E+00  0.47463368775E+03  0.19644345386E+04  0.19062334377E+04 0.  0.
        5    1    3    3  502    0  0.42372615636E+03  0.80671309277E+03  0.52527543864E+03  0.10517919215E+04  0.46999998093E+01 0. -1.
       -5    1    3    3    0  502 -0.42372615636E+03 -0.80671309277E+03 -0.50641750887E+02  0.91264261711E+03  0.46999998093E+01 0.  1.
</event>
<event>
 5   0  0.1344119E-05  0.1911449E+04  0.7818609E-02  0.8649178E-01
        1   -1    0    0  501    0  0.00000000000E+00  0.00000000000E+00  0.97932276844E+03  0.97932276845E+03  0.50400001928E-02 0. -1.
       -1   -1    0    0    0  501  0.00000000000E+00  0.00000000000E+00 -0.93269482741E+03  0.93269482743E+03  0.50400001928E-02 0.  1.
    10030    2    1    2    0    0  0.00000000000E+00  0.00000000000E+00  0.46627941024E+02  0.19120175959E+04  0.19114489588E+04 0.  0.
        2    1    3    3  502    0 -0.43659097126E+03  0.81283628758E+03  0.27257633144E+03  0.96208750281E+03  0.25500000920E-02 0. -1.
       -2    1    3    3    0  502  0.43659097126E+03 -0.81283628758E+03 -0.22594839041E+03  0.94993009307E+03  0.25500000920E-02 0.  1.
</event>
<event>
 5   0  0.2813537E-05  0.1898404E+04  0.7818609E-02  0.8655651E-01
        2   -1    0    0  501    0  0.00000000000E+00  0.00000000000E+00  0.46305355655E+03  0.46305355656E+03  0.25500000920E-02 0. -1.
       -2   -1    0    0    0  501  0.00000000000E+00  0.00000000000E+00 -0.19457446980E+04  0.19457446980E+04  0.25500000920E-02 0.  1.
    10030    2    1    2    0    0  0.00000000000E+00  0.00000000000E+00 -0.14826911415E+04  0.24087982546E+04  0.18984035425E+04 0.  0.
        2    1    3    3  502    0  0.15859314292E+03 -0.83214078060E+03 -0.12846968564E+04  0.15388489453E+04  0.25500000920E-02 0.  1.
       -2    1    3    3    0  502 -0.15859314292E+03  0.83214078060E+03 -0.19799428507E+03  0.86994930924E+03  0.25500000920E-02 0. -1.
</event>
<event>
 5   0  0.1344119E-05  0.1903694E+04  0.7818609E-02  0.8653020E-01
       -1   -1    0    0    0  501  0.00000000000E+00  0.00000000000E+00  0.59505135839E+03  0.59505135842E+03  0.50400001928E-02 0.  1.
        1   -1    0    0  501    0  0.00000000000E+00  0.00000000000E+00 -0.15225797129E+04  0.15225797130E+04  0.50400001928E-02 0. -1.
    10030    2    1    2    0    0  0.00000000000E+00  0.00000000000E+00 -0.92752835455E+03  0.21176310714E+04  0.19036944361E+04 0.  0.
        2    1    3    3  502    0 -0.14160840142E+03  0.76423412798E+03  0.14744407440E+03  0.79110460547E+03  0.25500000920E-02 0.  1.
       -2    1    3    3    0  502  0.14160840142E+03 -0.76423412798E+03 -0.10749724290E+04  0.13265264659E+04  0.25500000920E-02 0. -1.
</event>
<event>
 5   0  0.2789718E-05  0.1900769E+04  0.7818609E-02  0.8654474E-01
       -2   -1    0    0    0  501  0.00000000000E+00  0.00000000000E+00  0.70680815035E+03  0.70680815035E+03  0.25500000920E-02 0.  1.
        2   -1    0    0  501    0  0.00000000000E+00  0.00000000000E+00 -0.12779001519E+04  0.12779001519E+04  0.25500000920E-02 0. -1.
    10030    2    1    2    0    0  0.00000000000E+00  0.00000000000E+00 -0.57109200159E+03  0.19847083023E+04  0.19007685211E+04 0.  0.
        5    1    3    3  502    0 -0.16676106354E+03  0.23969312869E+03  0.65879707360E+03  0.72062314870E+03  0.46999998093E+01 0.  1.
       -5    1    3    3    0  502  0.16676106354E+03 -0.23969312869E+03 -0.12298890752E+04  0.12640851536E+04  0.46999998093E+01 0. -1.
</event>
<event>
 5   0  0.1413011E-05  0.1896375E+04  0.7818609E-02  0.8656663E-01
       -1   -1    0    0    0  501  0.00000000000E+00  0.00000000000E+00  0.10623131476E+04  0.10623131477E+04  0.50400001928E-02 0.  1.
        1   -1    0    0  501    0  0.00000000000E+00  0.00000000000E+00 -0.84632254543E+03  0.84632254545E+03  0.50400001928E-02 0. -1.
    10030    2    1    2    0    0  0.00000000000E+00  0.00000000000E+00  0.21599060221E+03  0.19086356931E+04  0.18963750338E+04 0.  0.
        1    1    3    3  502    0  0.84602860355E+02  0.74000379690E+03 -0.48256601036E+03  0.88748702401E+03  0.50400001928E-02 0. -1.
       -1    1    3    3    0  502 -0.84602860355E+02 -0.74000379690E+03  0.69855661257E+03  0.10211486691E+04  0.50400001928E-02 0.  1.
</event>
<event>
 5   0  0.1471485E-05  0.1898733E+04  0.7818609E-02  0.8655487E-01
        1   -1    0    0  501    0  0.00000000000E+00  0.00000000000E+00  0.13586988109E+04  0.13586988109E+04  0.50400001928E-02 0. -1.
       -1   -1    0    0    0  501  0.00000000000E+00  0.00000000000E+00 -0.66335320419E+03  0.66335320421E+03  0.50400001928E-02 0.  1.
    10030    2    1    2    0    0  0.00000000000E+00  0.00000000000E+00  0.69534560669E+03  0.20220520151E+04  0.18987334829E+04 0.  0.
        4    1    3    3  502    0 -0.80745558205E+03  0.35808088996E+03 -0.22906312196E+02  0.88359082883E+03  0.12699999809E+01 0.  1.
       -4    1    3    3    0  502  0.80745558205E+03 -0.35808088996E+03  0.71825191888E+03  0.11384611863E+04  0.12699999809E+01 0. -1.
</event>
<event>
 5   0  0.1413011E-05  0.1902275E+04  0.7818609E-02  0.8653725E-01
        1   -1    0    0  501    0  0.00000000000E+00  0.00000000000E+00  0.91241580833E+03  0.91241580834E+03  0.50400001928E-02 0.  1.
       -1   -1    0    0    0  501  0.00000000000E+00  0.00000000000E+00 -0.99150229461E+03  0.99150229462E+03  0.50400001928E-02 0. -1.
    10030    2    1    2    0    0  0.00000000000E+00  0.00000000000E+00 -0.79086486284E+02  0.19039181030E+04  0.19022748147E+04 0.  0.
        1    1    3    3  502    0 -0.42553770631E+03  0.57283364256E+03 -0.66892798167E+03  0.97810294255E+03  0.50400001928E-02 0. -1.
       -1    1    3    3    0  502  0.42553770631E+03 -0.57283364256E+03  0.58984149539E+03  0.92581516041E+03  0.50400001928E-02 0.  1.
</event>
<event>
 5   0  0.2789718E-05  0.1899849E+04  0.7818609E-02  0.8654931E-01
        2   -1    0    0  501    0  0.00000000000E+00  0.00000000000E+00  0.11900993872E+04  0.11900993872E+04  0.25500000920E-02 0. -1.
       -2   -1    0    0    0  501  0.00000000000E+00  0.00000000000E+00 -0.75821968462E+03  0.75821968463E+03  0.25500000920E-02 0.  1.
    10030    2    1    2    0    0  0.00000000000E+00  0.00000000000E+00  0.43187970262E+03  0.19483190719E+04  0.18998492383E+04 0.  0.
        5    1    3    3  502    0  0.28506989204E+03 -0.28760360345E+03  0.10971373657E+04  0.11694926957E+04  0.46999998093E+01 0. -1.
       -5    1    3    3    0  502 -0.28506989204E+03  0.28760360345E+03 -0.66525766304E+03  0.77882637622E+03  0.46999998093E+01 0.  1.
</event>
<event>
 5   0  0.1327254E-05  0.1887843E+04  0.7818609E-02  0.8660931E-01
       -1   -1    0    0    0  501  0.00000000000E+00  0.00000000000E+00  0.56715346446E+03  0.56715346448E+03  0.50400001928E-02 0.  1.
        1   -1    0    0  501    0  0.00000000000E+00  0.00000000000E+00 -0.15709826285E+04  0.15709826285E+04  0.50400001928E-02 0. -1.
    10030    2    1    2    0    0  0.00000000000E+00  0.00000000000E+00 -0.10038291640E+04  0.21381360930E+04  0.18878434685E+04 0.  0.
        5    1    3    3  502    0 -0.18437612369E+03 -0.38088968276E+03  0.45368780533E+03  0.62042422593E+03  0.46999998093E+01 0.  1.
       -5    1    3    3    0  502  0.18437612369E+03  0.38088968276E+03 -0.14575169694E+04  0.15177118671E+04  0.46999998093E+01 0. -1.
</event>
<event>
 5   0  0.1429067E-05  0.1895530E+04  0.7818609E-02  0.8657084E-01
        1   -1    0    0  501    0  0.00000000000E+00  0.00000000000E+00  0.13946885909E+04  0.13946885909E+04  0.50400001928E-02 0. -1.
       -1   -1    0    0    0  501  0.00000000000E+00  0.00000000000E+00 -0.64405688869E+03  0.64405688871E+03  0.50400001928E-02 0.  1.
    10030    2    1    2    0    0  0.00000000000E+00  0.00000000000E+00  0.75063170223E+03  0.20387454796E+04  0.18955303159E+04 0.  0.
        3    1    3    3  502    0  0.61125321721E+03  0.11419789439E+03 -0.39397768185E+03  0.73613183509E+03  0.10100000352E+00 0.  1.
       -3    1    3    3    0  502 -0.61125321721E+03 -0.11419789439E+03  0.11446093841E+04  0.13026136445E+04  0.10100000352E+00 0. -1.
</event>
<event>
 5   0  0.2855141E-05  0.1901918E+04  0.7818609E-02  0.8653902E-01
        2   -1    0    0  501    0  0.00000000000E+00  0.00000000000E+00  0.13901537449E+04  0.13901537449E+04  0.25500000920E-02 0.  1.
       -2   -1    0    0    0  501  0.00000000000E+00  0.00000000000E+00 -0.65052002186E+03  0.65052002187E+03  0.25500000920E-02 0. -1.
    10030    2    1    2    0    0  0.00000000000E+00  0.00000000000E+00  0.73963372308E+03  0.20406737668E+04  0.19019178158E+04 0.  0.
        1    1    3    3  502    0 -0.12687152873E+03  0.51596567951E+03  0.12160286656E+04  0.13270428338E+04  0.50400001928E-02 0.  1.
       -1    1    3    3    0  502  0.12687152873E+03 -0.51596567951E+03 -0.47639494252E+03  0.71363093299E+03  0.50400001928E-02 0. -1.
</event>
<event>
 5   0  0.1429067E-05  0.1896956E+04  0.7818609E-02  0.8656373E-01
        1   -1    0    0  501    0  0.00000000000E+00  0.00000000000E+00  0.97971756825E+03  0.97971756827E+03  0.50400001928E-02 0.  1.
       -1   -1    0    0    0  501  0.00000000000E+00  0.00000000000E+00 -0.91823465921E+03  0.91823465922E+03  0.50400001928E-02 0. -1.
    10030    2    1    2    0    0  0.00000000000E+00  0.00000000000E+00  0.61482909048E+02  0.18979522275E+04  0.18969561170E+04 0.  0.
        3    1    3    3  502    0  0.58719266274E+03 -0.50445923621E+03 -0.51757576662E+03  0.93121373946E+03  0.10100000352E+00 0.  1.
       -3    1    3    3    0  502 -0.58719266274E+03  0.50445923621E+03  0.57905867567E+03  0.96673848803E+03  0.10100000352E+00 0. -1.
</event>
<event>
 5   0  0.2888776E-05  0.1900764E+04  0.7818609E-02  0.8654476E-01
        2   -1    0    0  501    0  0.00000000000E+00  0.00000000000E+00  0.20676062591E+04  0.20676062591E+04  0.25500000920E-02 0. -1.
       -2   -1    0    0    0  501  0.00000000000E+00  0.00000000000E+00 -0.43684621764E+03  0.43684621765E+03  0.25500000920E-02 0.  1.
    10030    2    1    2    0    0  0.00000000000E+00  0.00000000000E+00  0.16307600414E+04  0.25044524767E+04  0.19007640294E+04 0.  0.
        3    1    3    3  502    0  0.31428073221E+03  0.40740206278E+03  0.18682076368E+04  0.19377689759E+04  0.10100000352E+00 0. -1.
       -3    1    3    3    0  502 -0.31428073221E+03 -0.40740206278E+03 -0.23744759538E+03  0.56668350086E+03  0.10100000352E+00 0.  1.
</event>
<event>
 5   0  0.1413011E-05  0.1881389E+04  0.7818609E-02  0.8664176E-01
       -1   -1    0    0    0  501  0.00000000000E+00  0.00000000000E+00  0.11300697905E+04  0.11300697906E+04  0.50400001928E-02 0.  1.
        1   -1    0    0  501    0  0.00000000000E+00  0.00000000000E+00 -0.78305456900E+03  0.78305456901E+03  0.50400001928E-02 0. -1.
    10030    2    1    2    0    0  0.00000000000E+00  0.00000000000E+00  0.34701522155E+03  0.19131243596E+04  0.18813891812E+04 0.  0.
        1    1    3    3  502    0 -0.51115548070E+03  0.22380265817E+03 -0.59659029936E+03  0.81687669851E+03  0.50400001928E-02 0. -1.
       -1    1    3    3    0  502  0.51115548070E+03 -0.22380265817E+03  0.94360552091E+03  0.10962476611E+04  0.50400001928E-02 0.  1.
</event>
<event>
 5   0  0.1413011E-05  0.1902902E+04  0.7818609E-02  0.8653413E-01
        1   -1    0    0  501    0  0.00000000000E+00  0.00000000000E+00  0.12330011516E+04  0.12330011516E+04  0.50400001928E-02 0. -1.
       -1   -1    0    0    0  501  0.00000000000E+00  0.00000000000E+00 -0.73419119895E+03  0.73419119897E+03  0.50400001928E-02 0.  1.
    10030    2    1    2    0    0  0.00000000000E+00  0.00000000000E+00  0.49880995263E+03  0.19671923506E+04  0.19029015674E+04 0.  0.
        1    1    3    3  502    0 -0.42853707538E+03 -0.43252812258E+03  0.10052246063E+04  0.11752451280E+04  0.50400001928E-02 0. -1.
       -1    1    3    3    0  502  0.42853707538E+03  0.43252812258E+03 -0.50641465368E+03  0.79194722254E+03  0.50400001928E-02 0.  1.
</event>
<event>
 5   0  0.2855141E-05  0.1901257E+04  0.7818609E-02  0.8654231E-01
       -2   -1    0    0    0  501  0.00000000000E+00  0.00000000000E+00  0.37782430191E+03  0.37782430191E+03  0.25500000920E-02 0.  1.
        2   -1    0    0  501    0  0.00000000000E+00  0.00000000000E+00 -0.23918371559E+04  0.23918371559E+04  0.25500000920E-02 0. -1.
    10030    2    1    2    0    0  0.00000000000E+00  0.00000000000E+00 -0.20140128540E+04  0.27696614578E+04  0.19012566410E+04 0.  0.
        1    1    3    3  502    0 -0.24471013208E+03  0.59391519236E+03 -0.20278524794E+04  0.21271586642E+04  0.50400001928E-02 0. -1.
       -1    1    3    3    0  502  0.24471013208E+03 -0.59391519236E+03  0.13839625476E+02  0.64250279354E+03  0.50400001928E-02 0.  1.
</event>
<event>
 5   0  0.1429067E-05  0.1905413E+04  0.7818609E-02  0.8652167E-01
       -1   -1    0    0    0  501  0.00000000000E+00  0.00000000000E+00  0.11922570090E+04  0.11922570090E+04  0.50400001928E-02 0. -1.
        1   -1    0    0  501    0  0.00000000000E+00  0.00000000000E+00 -0.76128698338E+03  0.76128698340E+03  0.50400001928E-02 0.  1.
    10030    2    1    2    0    0  0.00000000000E+00  0.00000000000E+00  0.43097002562E+03  0.19535439924E+04  0.19054130700E+04 0.  0.
        3    1    3    3  502    0  0.25654976092E+03 -0.64590592865E+03  0.88358770120E+03  0.11241616807E+04  0.10100000352E+00 0. -1.
       -3    1    3    3    0  502 -0.25654976092E+03  0.64590592865E+03 -0.45261767559E+03  0.82938231169E+03  0.10100000352E+00 0.  1.
</event>
<event>
 5   0  0.1429067E-05  0.1901408E+04  0.7818609E-02  0.8654156E-01
       -1   -1    0    0    0  501  0.00000000000E+00  0.00000000000E+00  0.71002473972E+03  0.71002473974E+03  0.50400001928E-02 0.  1.
        1   -1    0    0  501    0  0.00000000000E+00  0.00000000000E+00 -0.12729674946E+04  0.12729674946E+04  0.50400001928E-02 0. -1.
    10030    2    1    2    0    0  0.00000000000E+00  0.00000000000E+00 -0.56294275483E+03  0.19829922343E+04  0.19014083349E+04 0.  0.
        3    1    3    3  502    0 -0.54013137124E+03  0.73410651862E+03  0.66173655654E+00  0.91140261519E+03  0.10100000352E+00 0.  1.
       -3    1    3    3    0  502  0.54013137124E+03 -0.73410651862E+03 -0.56360449139E+03  0.10715896191E+04  0.10100000352E+00 0. -1.
</event>
<event>
 5   0  0.2888776E-05  0.1900447E+04  0.7818609E-02  0.8654634E-01
       -2   -1    0    0    0  501  0.00000000000E+00  0.00000000000E+00  0.87581080628E+03  0.87581080628E+03  0.25500000920E-02 0. -1.
        2   -1    0    0  501    0  0.00000000000E+00  0.00000000000E+00 -0.10309585209E+04  0.10309585209E+04  0.25500000920E-02 0.  1.
    10030    2    1    2    0    0  0.00000000000E+00  0.00000000000E+00 -0.15514771466E+03  0.19067693272E+04  0.19004469090E+04 0.  0.
        3    1    3    3  502    0 -0.21780543688E+03  0.18077509916E+03  0.83253025501E+03  0.87933240616E+03  0.10100000352E+00 0. -1.
       -3    1    3    3    0  502  0.21780543688E+03 -0.18077509916E+03 -0.98767796967E+03  0.10274369211E+04  0.10100000352E+00 0.  1.
</event>
<event>
 5   0  0.2789718E-05  0.1887979E+04  0.7818609E-02  0.8660863E-01
       -2   -1    0    0    0  501  0.00000000000E+00  0.00000000000E+00  0.91237148671E+03  0.91237148671E+03  0.25500000920E-02 0. -1.
        2   -1    0    0  501    0  0.00000000000E+00  0.00000000000E+00 -0.97670297756E+03  0.97670297756E+03  0.25500000920E-02 0.  1.
    10030    2    1    2    0    0  0.00000000000E+00  0.00000000000E+00 -0.64331490851E+02  0.18890744643E+04  0.18879787581E+04 0.  0.
        5    1    3    3  502    0  0.79726079541E+02 -0.41524482122E+03 -0.87663977059E+03  0.97329537484E+03  0.46999998093E+01 0.  1.
       -5    1    3    3    0  502 -0.79726079541E+02  0.41524482122E+03  0.81230827974E+03  0.91577908943E+03  0.46999998093E+01 0. -1.
</event>
<event>
 5   0  0.2813537E-05  0.1903422E+04  0.7818609E-02  0.8653155E-01
        2   -1    0    0  501    0  0.00000000000E+00  0.00000000000E+00  0.46645390152E+03  0.46645390153E+03  0.25500000920E-02 0. -1.
       -2   -1    0    0    0  501  0.00000000000E+00  0.00000000000E+00 -0.19417860767E+04  0.19417860767E+04  0.25500000920E-02 0.  1.
    10030    2    1    2    0    0  0.00000000000E+00  0.00000000000E+00 -0.14753321751E+04  0.24082399782E+04  0.19034218570E+04 0.  0.
        2    1    3    3  502    0 -0.61167134308E+03 -0.55024865669E+03 -0.13242410866E+03  0.83333760307E+03  0.25500000920E-02 0. -1.
       -2    1    3    3    0  502  0.61167134308E+03  0.55024865669E+03 -0.13429080665E+04  0.15749023751E+04  0.25500000920E-02 0.  1.
</event>
<event>
 5   0  0.2813537E-05  0.1899347E+04  0.7818609E-02  0.8655181E-01
       -2   -1    0    0    0  501  0.00000000000E+00  0.00000000000E+00  0.73552122184E+03  0.73552122184E+03  0.25500000920E-02 0.  1.
        2   -1    0    0  501    0  0.00000000000E+00  0.00000000000E+00 -0.12261781076E+04  0.12261781076E+04  0.25500000920E-02 0. -1.
    10030    2    1    2    0    0  0.00000000000E+00  0.00000000000E+00 -0.49065688577E+03  0.19616993294E+04  0.18993472773E+04 0.  0.
        2    1    3    3  502    0 -0.24742934239E+03 -0.62170475765E+03 -0.94135188672E+03  0.11549378597E+04  0.25500000920E-02 0. -1.
       -2    1    3    3    0  502  0.24742934239E+03  0.62170475765E+03  0.45069500095E+03  0.80676146974E+03  0.25500000920E-02 0.  1.
</event>
<event>
 5   0  0.2888776E-05  0.1900195E+04  0.7818609E-02  0.8654759E-01
       -2   -1    0    0    0  501  0.00000000000E+00  0.00000000000E+00  0.17820696453E+04  0.17820696453E+04  0.25500000920E-02 0. -1.
        2   -1    0    0  501    0  0.00000000000E+00  0.00000000000E+00 -0.50653763971E+03  0.50653763972E+03  0.25500000920E-02 0.  1.
    10030    2    1    2    0    0  0.00000000000E+00  0.00000000000E+00  0.12755320056E+04  0.22886072850E+04  0.19001950973E+04 0.  0.
        3    1    3    3  502    0 -0.70907563059E+03 -0.21360609834E+03  0.13546353015E+04  0.15438434588E+04  0.10100000352E+00 0. -1.
       -3    1    3    3    0  502  0.70907563059E+03  0.21360609834E+03 -0.79103295910E+02  0.74476382617E+03  0.10100000352E+00 0.  1.
</event>
<event>
 5   0  0.1344119E-05  0.1896919E+04  0.7818609E-02  0.8656392E-01
       -1   -1    0    0    0  501  0.00000000000E+00  0.00000000000E+00  0.42014149961E+03  0.42014149964E+03  0.50400001928E-02 0.  1.
        1   -1    0    0  501    0  0.00000000000E+00  0.00000000000E+00 -0.21411248446E+04  0.21411248446E+04  0.50400001928E-02 0. -1.
    10030    2    1    2    0    0  0.00000000000E+00  0.00000000000E+00 -0.17209833449E+04  0.25612663442E+04  0.18969189789E+04 0.  0.
        2    1    3    3  502    0 -0.52912564604E+03  0.19778523730E+03 -0.18892195512E+04  0.19718629420E+04  0.25500000920E-02 0. -1.
       -2    1    3    3    0  502  0.52912564604E+03 -0.19778523730E+03  0.16823620628E+03  0.58940340218E+03  0.25500000920E-02 0.  1.
</event>
<event>
 5   0  0.2855141E-05  0.1898706E+04  0.7818609E-02  0.8655501E-01
       -2   -1    0    0    0  501  0.00000000000E+00  0.00000000000E+00  0.76724103228E+03  0.76724103228E+03  0.25500000920E-02 0. -1.
        2   -1    0    0  501    0  0.00000000000E+00  0.00000000000E+00 -0.11746906247E+04  0.11746906247E+04  0.25500000920E-02 0.  1.
    10030    2    1    2    0    0  0.00000000000E+00  0.00000000000E+00 -0.40744959243E+03  0.19419316570E+04  0.18987057144E+04 0.  0.
        1    1    3    3  502    0  0.56578257154E+03 -0.39316673282E+03 -0.87172556371E+03  0.11111235109E+04  0.50400001928E-02 0.  1.
       -1    1    3    3    0  502 -0.56578257154E+03  0.39316673282E+03  0.46427597129E+03  0.83080814608E+03  0.50400001928E-02 0. -1.
</event>
<event>
 5   0  0.1429067E-05  0.1903801E+04  0.7818609E-02  0.8652967E-01
        1   -1    0    0  501    0  0.00000000000E+00  0.00000000000E+00  0.19317999843E+04  0.19317999843E+04  0.50400001928E-02 0.  1.
       -1   -1    0    0    0  501  0.00000000000E+00  0.00000000000E+00 -0.46905208523E+03  0.46905208526E+03  0.50400001928E-02 0. -1.
    10030    2    1    2    0    0  0.00000000000E+00  0.00000000000E+00  0.14627478991E+04  0.24008520696E+04  0.19038012616E+04 0.  0.
        3    1    3    3  502    0  0.61446863837E+03  0.78621221498E+02 -0.18006901028E+03  0.64511848731E+03  0.10100000352E+00 0. -1.
       -3    1    3    3    0  502 -0.61446863837E+03 -0.78621221498E+02  0.16428169094E+04  0.17557335823E+04  0.10100000352E+00 0.  1.
</event>
<event>
 5   0  0.1429067E-05  0.1900711E+04  0.7818609E-02  0.8654503E-01
       -1   -1    0    0    0  501  0.00000000000E+00  0.00000000000E+00  0.51644907172E+03  0.51644907175E+03  0.50400001928E-02 0.  1.
        1   -1    0    0  501    0  0.00000000000E+00  0.00000000000E+00 -0.17488181674E+04  0.17488181674E+04  0.50400001928E-02 0. -1.
    10030    2    1    2    0    0  0.00000000000E+00  0.00000000000E+00 -0.12323690957E+04  0.22652672392E+04  0.19007109398E+04 0.  0.
        3    1    3    3  502    0 -0.46810044059E+03  0.85683372995E+02  0.36422276696E+03  0.59926446337E+03  0.10100000352E+00 0.  1.
       -3    1    3    3    0  502  0.46810044059E+03 -0.85683372995E+02 -0.15965918627E+04  0.16660027758E+04  0.10100000352E+00 0. -1.
</event>
<event>
 5   0  0.1471485E-05  0.1893522E+04  0.7818609E-02  0.8658088E-01
        1   -1    0    0  501    0  0.00000000000E+00  0.00000000000E+00  0.69554362073E+03  0.69554362075E+03  0.50400001928E-02 0.  1.
       -1   -1    0    0    0  501  0.00000000000E+00  0.00000000000E+00 -0.12887128128E+04  0.12887128128E+04  0.50400001928E-02 0. -1.
    10030    2    1    2    0    0  0.00000000000E+00  0.00000000000E+00 -0.59316919205E+03  0.19842564335E+04  0.18935215614E+04 0.  0.
        4    1    3    3  502    0  0.37215182158E+03 -0.66869742608E+03  0.28753121718E+03  0.81751393853E+03  0.12699999809E+01 0.  1.
       -4    1    3    3    0  502 -0.37215182158E+03  0.66869742608E+03 -0.88070040923E+03  0.11667424950E+04  0.12699999809E+01 0. -1.
</event>
<event>
 5   0  0.2879462E-05  0.1897528E+04  0.7818609E-02  0.8656088E-01
        2   -1    0    0  501    0  0.00000000000E+00  0.00000000000E+00  0.10323870647E+04  0.10323870647E+04  0.25500000920E-02 0.  1.
       -2   -1    0    0    0  501  0.00000000000E+00  0.00000000000E+00 -0.87191460280E+03  0.87191460280E+03  0.25500000920E-02 0. -1.
    10030    2    1    2    0    0  0.00000000000E+00  0.00000000000E+00  0.16047246192E+03  0.19043016675E+04  0.18975282422E+04 0.  0.
        4    1    3    3  502    0  0.60757188745E+03  0.71957954738E+02  0.80796620200E+03  0.10134754768E+04  0.12699999809E+01 0.  1.
       -4    1    3    3    0  502 -0.60757188745E+03 -0.71957954738E+02 -0.64749374009E+03  0.89082619069E+03  0.12699999809E+01 0. -1.
</event>
<event>
 5   0  0.1429067E-05  0.1899055E+04  0.7818609E-02  0.8655327E-01
       -1   -1    0    0    0  501  0.00000000000E+00  0.00000000000E+00  0.13087269812E+04  0.13087269812E+04  0.50400001928E-02 0. -1.
        1   -1    0    0  501    0  0.00000000000E+00  0.00000000000E+00 -0.68891574227E+03  0.68891574228E+03  0.50400001928E-02 0.  1.
    10030    2    1    2    0    0  0.00000000000E+00  0.00000000000E+00  0.61981123896E+03  0.19976427235E+04  0.18990551543E+04 0.  0.
        3    1    3    3  502    0 -0.27683924540E+03  0.62611794623E+03  0.10020450223E+04  0.12135723659E+04  0.10100000352E+00 0. -1.
       -3    1    3    3    0  502  0.27683924540E+03 -0.62611794623E+03 -0.38223378332E+03  0.78407035762E+03  0.10100000352E+00 0.  1.
</event>
<event>
 5   0  0.2789718E-05  0.1901849E+04  0.7818609E-02  0.8653937E-01
       -2   -1    0    0    0  501  0.00000000000E+00  0.00000000000E+00  0.74163942020E+03  0.74163942020E+03  0.25500000920E-02 0.  1.
        2   -1    0    0  501    0  0.00000000000E+00  0.00000000000E+00 -0.12192681410E+04  0.12192681410E+04  0.25500000920E-02 0. -1.
    10030    2    1    2    0    0  0.00000000000E+00  0.00000000000E+00 -0.47762872081E+03  0.19609075612E+04  0.19018489080E+04 0.  0.
        5    1    3    3  502    0  0.34696671607E+03 -0.37232941057E+03  0.58938533325E+03  0.77872476080E+03  0.46999998093E+01 0.  1.
       -5    1    3    3    0  502 -0.34696671607E+03  0.37232941057E+03 -0.10670140541E+04  0.11821828004E+04  0.46999998093E+01 0. -1.
</event>
<event>
 5   0  0.1429067E-05  0.1898455E+04  0.7818609E-02  0.8655626E-01
        1   -1    0    0  501    0  0.00000000000E+00  0.00000000000E+00  0.10621572243E+04  0.10621572243E+04  0.50400001928E-02 0.  1.
       -1   -1    0    0    0  501  0.00000000000E+00  0.00000000000E+00 -0.84830470071E+03  0.84830470073E+03  0.50400001928E-02 0. -1.
    10030    2    1    2    0    0  0.00000000000E+00  0.00000000000E+00  0.21385252354E+03  0.19104619250E+04  0.18984551259E+04 0.  0.
        3    1    3    3  502    0  0.14396601958E+03  0.83504272033E+03 -0.32357648978E+03  0.90704151752E+03  0.10100000352E+00 0. -1.
       -3    1    3    3    0  502 -0.14396601958E+03 -0.83504272033E+03  0.53742901332E+03  0.10034204075E+04  0.10100000352E+00 0.  1.
</event>
<event>
 5   0  0.2855141E-05  0.1899578E+04  0.7818609E-02  0.8655066E-01
        2   -1    0    0  501    0  0.00000000000E+00  0.00000000000E+00  0.12903832333E+04  0.12903832334E+04  0.25500000920E-02 0.  1.
       -2   -1    0    0    0  501  0.00000000000E+00  0.00000000000E+00 -0.69909402036E+03  0.69909402036E+03  0.25500000920E-02 0. -1.
    10030    2    1    2    0    0  0.00000000000E+00  0.00000000000E+00  0.59128921299E+03  0.19894772537E+04  0.18995780610E+04 0.  0.
        1    1    3    3  502    0 -0.80569210384E+03 -0.61171648946E+02 -0.22719811980E+03  0.83934541310E+03  0.50400001928E-02 0. -1.
       -1    1    3    3    0  502  0.80569210384E+03  0.61171648946E+02  0.81848733279E+03  0.11501318406E+04  0.50400001928E-02 0.  1.
</event>
<event>
 5   0  0.1429067E-05  0.1899551E+04  0.7818609E-02  0.8655080E-01
        1   -1    0    0  501    0  0.00000000000E+00  0.00000000000E+00  0.23288488760E+04  0.23288488760E+04  0.50400001928E-02 0.  1.
       -1   -1    0    0    0  501  0.00000000000E+00  0.00000000000E+00 -0.38734743854E+03  0.38734743857E+03  0.50400001928E-02 0. -1.
    10030    2    1    2    0    0  0.00000000000E+00  0.00000000000E+00  0.19415014375E+04  0.27161963146E+04  0.18995511543E+04 0.  0.
        3    1    3    3  502    0  0.87723676149E+02 -0.45043898651E+03 -0.21830139297E+03  0.50817933084E+03  0.10100000352E+00 0. -1.
       -3    1    3    3    0  502 -0.87723676149E+02  0.45043898651E+03  0.21598028304E+04  0.22080169837E+04  0.10100000352E+00 0.  1.
</event>
<event>
 5   0  0.2789718E-05  0.1900715E+04  0.7818609E-02  0.8654501E-01
        2   -1    0    0  501    0  0.00000000000E+00  0.00000000000E+00  0.12604779194E+04  0.12604779194E+04  0.25500000920E-02 0. -1.
       -2   -1    0    0    0  501  0.00000000000E+00  0.00000000000E+00 -0.71653717257E+03  0.71653717257E+03  0.25500000920E-02 0.  1.
    10030    2    1    2    0    0  0.00000000000E+00  0.00000000000E+00  0.54394074679E+03  0.19770150919E+04  0.19007149017E+04 0.  0.
        5    1    3    3  502    0 -0.78203677910E+03 -0.52512679790E+03  0.40278676198E+03  0.10244993623E+04  0.46999998093E+01 0. -1.
       -5    1    3    3    0  502  0.78203677910E+03  0.52512679790E+03  0.14115398480E+03  0.95251572962E+03  0.46999998093E+01 0.  1.
</event>
<event>
 5   0  0.2888776E-05  0.1904107E+04  0.7818609E-02  0.8652815E-01
        2   -1    0    0  501    0  0.00000000000E+00  0.00000000000E+00  0.78477475021E+03  0.78477475022E+03  0.25500000920E-02 0.  1.
       -2   -1    0    0    0  501  0.00000000000E+00  0.00000000000E+00 -0.11549887156E+04  0.11549887156E+04  0.25500000920E-02 0. -1.
    10030    2    1    2    0    0  0.00000000000E+00  0.00000000000E+00 -0.37021396542E+03  0.19397634659E+04  0.19041071197E+04 0.  0.
        3    1    3    3  502    0 -0.38887548478E+03  0.70123834302E+03 -0.70798900386E+03  0.10696764914E+04  0.10100000352E+00 0. -1.
       -3    1    3    3    0  502  0.38887548478E+03 -0.70123834302E+03  0.33777503844E+03  0.87008697449E+03  0.10100000352E+00 0.  1.
</event>
<event>
 5   0  0.2888776E-05  0.1898800E+04  0.7818609E-02  0.8655454E-01
        2   -1    0    0  501    0  0.00000000000E+00  0.00000000000E+00  0.10424519837E+04  0.10424519837E+04  0.25500000920E-02 0. -1.
       -2   -1    0    0    0  501  0.00000000000E+00  0.00000000000E+00 -0.86465390920E+03  0.86465390920E+03  0.25500000920E-02 0.  1.
    10030    2    1    2    0    0  0.00000000000E+00  0.00000000000E+00  0.17779807454E+03  0.19071058930E+04  0.18987998135E+04 0.  0.
        3    1    3    3  502    0 -0.48518029567E+03  0.17267692745E+03  0.88997367285E+03  0.10282365434E+04  0.10100000352E+00 0. -1.
       -3    1    3    3    0  502  0.48518029567E+03 -0.17267692745E+03 -0.71217559831E+03  0.87886934957E+03  0.10100000352E+00 0.  1.
</event>
<event>
 5   0  0.1413011E-05  0.1900392E+04  0.7818609E-02  0.8654661E-01
        1   -1    0    0  501    0  0.00000000000E+00  0.00000000000E+00  0.11127030737E+04  0.11127030737E+04  0.50400001928E-02 0. -1.
       -1   -1    0    0    0  501  0.00000000000E+00  0.00000000000E+00 -0.81142255483E+03  0.81142255484E+03  0.50400001928E-02 0.  1.
    10030    2    1    2    0    0  0.00000000000E+00  0.00000000000E+00  0.30128051884E+03  0.19241256285E+04  0.19003919289E+04 0.  0.
        1    1    3    3  502    0  0.42499829427E+03 -0.47120922391E+02  0.10097825001E+04  0.10965877206E+04  0.50400001928E-02 0. -1.
       -1    1    3    3    0  502 -0.42499829427E+03  0.47120922391E+02 -0.70850198130E+03  0.82753790788E+03  0.50400001928E-02 0.  1.
</event>
<event>
 5   0  0.1471485E-05  0.1913813E+04  0.7818609E-02  0.8648011E-01
        1   -1    0    0  501    0  0.00000000000E+00  0.00000000000E+00  0.10280365252E+04  0.10280365252E+04  0.50400001928E-02 0. -1.
       -1   -1    0    0    0  501  0.00000000000E+00  0.00000000000E+00 -0.89069772782E+03  0.89069772784E+03  0.50400001928E-02 0.  1.
    10030    2    1    2    0    0  0.00000000000E+00  0.00000000000E+00  0.13733879741E+03  0.19187342531E+04  0.19138127360E+04 0.  0.
        4    1    3    3  502    0  0.88213074172E+03 -0.13817748364E+03  0.41367716662E+03  0.98406202729E+03  0.12699999809E+01 0. -1.
       -4    1    3    3    0  502 -0.88213074172E+03  0.13817748364E+03 -0.27633836921E+03  0.93467222579E+03  0.12699999809E+01 0.  1.
</event>
<event>
 5   0  0.1413011E-05  0.1902343E+04  0.7818609E-02  0.8653691E-01
       -1   -1    0    0    0  501  0.00000000000E+00  0.00000000000E+00  0.36400881532E+03  0.36400881535E+03  0.50400001928E-02 0.  1.
        1   -1    0    0  501    0  0.00000000000E+00  0.00000000000E+00 -0.24854534532E+04  0.24854534532E+04  0.50400001928E-02 0. -1.
    10030    2    1    2    0    0  0.00000000000E+00  0.00000000000E+00 -0.21214446379E+04  0.28494622685E+04  0.19023427316E+04 0.  0.
        1    1    3    3  502    0  0.69409977899E+03 -0.25735458501E+03 -0.19553421793E+04  0.20907818929E+04  0.50400001928E-02 0. -1.
       -1    1    3    3    0  502 -0.69409977899E+03  0.25735458501E+03 -0.16610245862E+03  0.75868037566E+03  0.50400001928E-02 0.  1.
</event>
<event>
 5   0  0.1010725E-05  0.1947254E+04  0.7818609E-02  0.8631686E-01
       -3   -1    0    0    0  501  0.00000000000E+00  0.00000000000E+00  0.11756543836E+04  0.11756543879E+04  0.10100000352E+00 0.  1.
        3   -1    0    0  501    0  0.00000000000E+00  0.00000000000E+00 -0.80631630557E+03  0.80631631189E+03  0.10100000352E+00 0. -1.
    10030    2    1    2    0    0  0.00000000000E+00  0.00000000000E+00  0.36933807801E+03  0.19819706998E+04  0.19472537685E+04 0.  0.
        3    1    3    3  502    0  0.68016555174E+03  0.48677014748E+03 -0.32259265320E+03  0.89645768687E+03  0.10100000352E+00 0. -1.
       -3    1    3    3    0  502 -0.68016555174E+03 -0.48677014748E+03  0.69193073121E+03  0.10855130129E+04  0.10100000352E+00 0.  1.
</event>
<event>
 5   0  0.1327254E-05  0.1899458E+04  0.7818609E-02  0.8655126E-01
       -1   -1    0    0    0  501  0.00000000000E+00  0.00000000000E+00  0.39179660157E+03  0.39179660160E+03  0.50400001928E-02 0. -1.
        1   -1    0    0  501    0  0.00000000000E+00  0.00000000000E+00 -0.23021759243E+04  0.23021759243E+04  0.50400001928E-02 0.  1.
    10030    2    1    2    0    0  0.00000000000E+00  0.00000000000E+00 -0.19103793227E+04  0.26939725259E+04  0.18994575051E+04 0.  0.
        5    1    3    3  502    0 -0.74498515799E+03 -0.32004096986E+03 -0.25384294636E+03  0.84963959385E+03  0.46999998093E+01 0. -1.
       -5    1    3    3    0  502  0.74498515799E+03  0.32004096986E+03 -0.16565363764E+04  0.18443329321E+04  0.46999998093E+01 0.  1.
</event>
<event>
 5   0  0.1471485E-05  0.1898077E+04  0.7818609E-02  0.8655814E-01
        1   -1    0    0  501    0  0.00000000000E+00  0.00000000000E+00  0.77939191256E+03  0.77939191257E+03  0.50400001928E-02 0. -1.
       -1   -1    0    0    0  501  0.00000000000E+00  0.00000000000E+00 -0.11556109889E+04  0.11556109889E+04  0.50400001928E-02 0.  1.
    10030    2    1    2    0    0  0.00000000000E+00  0.00000000000E+00 -0.37621907638E+03  0.19350029015E+04  0.18980767728E+04 0.  0.
        4    1    3    3  502    0 -0.20436652279E+03  0.92510607008E+03 -0.13148318203E+03  0.95649169186E+03  0.12699999809E+01 0.  1.
       -4    1    3    3    0  502  0.20436652279E+03 -0.92510607008E+03 -0.24473589435E+03  0.97851120966E+03  0.12699999809E+01 0. -1.
</event>
<event>
 5   0  0.1344119E-05  0.1903541E+04  0.7818609E-02  0.8653096E-01
       -1   -1    0    0    0  501  0.00000000000E+00  0.00000000000E+00  0.54702472982E+03  0.54702472985E+03  0.50400001928E-02 0.  1.
        1   -1    0    0  501    0  0.00000000000E+00  0.00000000000E+00 -0.16559884074E+04  0.16559884074E+04  0.50400001928E-02 0. -1.
    10030    2    1    2    0    0  0.00000000000E+00  0.00000000000E+00 -0.11089636776E+04  0.22030131373E+04  0.19035405025E+04 0.  0.
        2    1    3    3  502    0 -0.33867207968E+02 -0.10133871973E+03 -0.16490253242E+04  0.16524832961E+04  0.25500000920E-02 0. -1.
       -2    1    3    3    0  502  0.33867207968E+02  0.10133871973E+03  0.54006164662E+03  0.55052984120E+03  0.25500000920E-02 0.  1.
</event>
<event>
 5   0  0.2813537E-05  0.1912278E+04  0.7818609E-02  0.8648769E-01
       -2   -1    0    0    0  501  0.00000000000E+00  0.00000000000E+00  0.98223105764E+03  0.98223105764E+03  0.25500000920E-02 0. -1.
        2   -1    0    0  501    0  0.00000000000E+00  0.00000000000E+00 -0.93073975553E+03  0.93073975554E+03  0.25500000920E-02 0.  1.
    10030    2    1    2    0    0  0.00000000000E+00  0.00000000000E+00  0.51491302103E+02  0.19129708132E+04  0.19122776937E+04 0.  0.
        2    1    3    3  502    0 -0.30538513316E+03  0.70739416825E+03 -0.54061757897E+03  0.94124064698E+03  0.25500000920E-02 0.  1.
       -2    1    3    3    0  502  0.30538513316E+03 -0.70739416825E+03  0.59210888108E+03  0.97173016619E+03  0.25500000920E-02 0. -1.
</event>
<event>
 5   0  0.1327254E-05  0.1903073E+04  0.7818609E-02  0.8653328E-01
       -1   -1    0    0    0  501  0.00000000000E+00  0.00000000000E+00  0.11486443107E+04  0.11486443107E+04  0.50400001928E-02 0. -1.
        1   -1    0    0  501    0  0.00000000000E+00  0.00000000000E+00 -0.78825263132E+03  0.78825263134E+03  0.50400001928E-02 0.  1.
    10030    2    1    2    0    0  0.00000000000E+00  0.00000000000E+00  0.36039167936E+03  0.19368969420E+04  0.19030731992E+04 0.  0.
        5    1    3    3  502    0 -0.27800770178E+02  0.51284569354E+02 -0.78641914561E+03  0.78859378165E+03  0.46999998093E+01 0.  1.
       -5    1    3    3    0  502  0.27800770178E+02 -0.51284569354E+02  0.11468108250E+04  0.11483031604E+04  0.46999998093E+01 0. -1.
</event>
<event>
 5   0  0.1429067E-05  0.1892744E+04  0.7818609E-02  0.8658476E-01
        1   -1    0    0  501    0  0.00000000000E+00  0.00000000000E+00  0.15272728864E+04  0.15272728865E+04  0.50400001928E-02 0. -1.
       -1   -1    0    0    0  501  0.00000000000E+00  0.00000000000E+00 -0.58641806633E+03  0.58641806636E+03  0.50400001928E-02 0.  1.
    10030    2    1    2    0    0  0.00000000000E+00  0.00000000000E+00  0.94085482011E+03  0.21136909528E+04  0.18927444760E+04 0.  0.
        3    1    3    3  502    0  0.24225109143E+03  0.13162015807E+03  0.14814325787E+04  0.15068682599E+04  0.10100000352E+00 0. -1.
       -3    1    3    3    0  502 -0.24225109143E+03 -0.13162015807E+03 -0.54057775860E+03  0.60682269288E+03  0.10100000352E+00 0.  1.
</event>
<event>
 5   0  0.2813537E-05  0.1901683E+04  0.7818609E-02  0.8654019E-01
       -2   -1    0    0    0  501  0.00000000000E+00  0.00000000000E+00  0.51162760839E+03  0.51162760840E+03  0.25500000920E-02 0.  1.
        2   -1    0    0  501    0  0.00000000000E+00  0.00000000000E+00 -0.17671056100E+04  0.17671056100E+04  0.25500000920E-02 0. -1.
    10030    2    1    2    0    0  0.00000000000E+00  0.00000000000E+00 -0.12554780016E+04  0.22787332184E+04  0.19016834827E+04 0.  0.
        2    1    3    3  502    0 -0.20357969296E+03  0.89003632011E+03 -0.30959694571E+03  0.96408485690E+03  0.25500000920E-02 0.  1.
       -2    1    3    3    0  502  0.20357969296E+03 -0.89003632011E+03 -0.94588105592E+03  0.13146483615E+04  0.25500000920E-02 0. -1.
</event>
<event>
 5   0  0.1344119E-05  0.1900967E+04  0.7818609E-02  0.8654375E-01
        1   -1    0    0  501    0  0.00000000000E+00  0.00000000000E+00  0.23493237295E+04  0.23493237295E+04  0.50400001928E-02 0. -1.
       -1   -1    0    0    0  501  0.00000000000E+00  0.00000000000E+00 -0.38454426007E+03  0.38454426010E+03  0.50400001928E-02 0.  1.
    10030    2    1    2    0    0  0.00000000000E+00  0.00000000000E+00  0.19647794694E+04  0.27338679896E+04  0.19009670752E+04 0.  0.
        2    1    3    3  502    0 -0.49521738706E+03 -0.10973318669E+03  0.21384097642E+04  0.21977438323E+04  0.25500000920E-02 0. -1.
       -2    1    3    3    0  502  0.49521738706E+03  0.10973318669E+03 -0.17363029482E+03  0.53612415726E+03  0.25500000920E-02 0.  1.
</event>
<event>
 5   0  0.1327254E-05  0.1901131E+04  0.7818609E-02  0.8654294E-01
       -1   -1    0    0    0  501  0.00000000000E+00  0.00000000000E+00  0.57630236204E+03  0.57630236207E+03  0.50400001928E-02 0.  1.
        1   -1    0    0  501    0  0.00000000000E+00  0.00000000000E+00 -0.15678827699E+04  0.15678827699E+04  0.50400001928E-02 0. -1.
    10030    2    1    2    0    0  0.00000000000E+00  0.00000000000E+00 -0.99158040784E+03  0.21441851320E+04  0.19011307622E+04 0.  0.
        5    1    3    3  502    0 -0.94956189835E+03 -0.37286075308E+02 -0.52086809808E+03  0.10836898615E+04  0.46999998093E+01 0. -1.
       -5    1    3    3    0  502  0.94956189835E+03  0.37286075308E+02 -0.47071230975E+03  0.10604952705E+04  0.46999998093E+01 0.  1.
</event>
<event>
 5   0  0.2855141E-05  0.1891249E+04  0.7818609E-02  0.8659225E-01
        2   -1    0    0  501    0  0.00000000000E+00  0.00000000000E+00  0.13351721743E+04  0.13351721743E+04  0.25500000920E-02 0. -1.
       -2   -1    0    0    0  501  0.00000000000E+00  0.00000000000E+00 -0.66973028307E+03  0.66973028308E+03  0.25500000920E-02 0.  1.
    10030    2    1    2    0    0  0.00000000000E+00  0.00000000000E+00  0.66544189118E+03  0.20049024573E+04  0.18912485170E+04 0.  0.
        1    1    3    3  502    0 -0.91234995678E+03 -0.10564035369E+03  0.94110355709E+02  0.92325461658E+03  0.50400001928E-02 0.  1.
       -1    1    3    3    0  502  0.91234995678E+03  0.10564035369E+03  0.57133153547E+03  0.10816478408E+04  0.50400001928E-02 0. -1.
</event>
<event>
 5   0  0.2813537E-05  0.1899380E+04  0.7818609E-02  0.8655165E-01
        2   -1    0    0  501    0  0.00000000000E+00  0.00000000000E+00  0.20425384447E+04  0.20425384447E+04  0.25500000920E-02 0. -1.
       -2   -1    0    0    0  501  0.00000000000E+00  0.00000000000E+00 -0.44156389423E+03  0.44156389424E+03  0.25500000920E-02 0.  1.
    10030    2    1    2    0    0  0.00000000000E+00  0.00000000000E+00  0.16009745505E+04  0.24841023390E+04  0.18993801408E+04 0.  0.
        2    1    3    3  502    0  0.65591144199E+03 -0.14791341468E+03 -0.76662199451E+02  0.67673871679E+03  0.25500000920E-02 0.  1.
       -2    1    3    3    0  502 -0.65591144199E+03  0.14791341468E+03  0.16776367500E+04  0.18073636222E+04  0.25500000920E-02 0. -1.
</event>
<event>
 5   0  0.2879462E-05  0.1902593E+04  0.7818609E-02  0.8653567E-01
       -2   -1    0    0    0  501  0.00000000000E+00  0.00000000000E+00  0.14597061210E+04  0.14597061210E+04  0.25500000920E-02 0. -1.
        2   -1    0    0  501    0  0.00000000000E+00  0.00000000000E+00 -0.61996387950E+03  0.61996387951E+03  0.25500000920E-02 0.  1.
    10030    2    1    2    0    0  0.00000000000E+00  0.00000000000E+00  0.83974224154E+03  0.20796700006E+04  0.19025930408E+04 0.  0.
        4    1    3    3  502    0  0.10698726056E+03 -0.83867304415E+03 -0.56769053441E+02  0.84737423093E+03  0.12699999809E+01 0.  1.
       -4    1    3    3    0  502 -0.10698726056E+03  0.83867304415E+03  0.89651129498E+03  0.12322957696E+04  0.12699999809E+01 0. -1.
</event>
<event>
 5   0  0.2789718E-05  0.1906528E+04  0.7818609E-02  0.8651614E-01
       -2   -1    0    0    0  501  0.00000000000E+00  0.00000000000E+00  0.67375601171E+03  0.67375601171E+03  0.25500000920E-02 0. -1.
        2   -1    0    0  501    0  0.00000000000E+00  0.00000000000E+00 -0.13487262336E+04  0.13487262336E+04  0.25500000920E-02 0.  1.
    10030    2    1    2    0    0  0.00000000000E+00  0.00000000000E+00 -0.67497022189E+03  0.20224822453E+04  0.19065281619E+04 0.  0.
        5    1    3    3  502    0 -0.81073860915E+02 -0.38147752918E+03 -0.12602104243E+04  0.13191855365E+04  0.46999998093E+01 0.  1.
       -5    1    3    3    0  502  0.81073860915E+02  0.38147752918E+03  0.58524020238E+03  0.70329670884E+03  0.46999998093E+01 0. -1.
</event>
<event>
 5   0  0.2879462E-05  0.1897947E+04  0.7818609E-02  0.8655879E-01
        2   -1    0    0  501    0  0.00000000000E+00  0.00000000000E+00  0.96626307810E+03  0.96626307810E+03  0.25500000920E-02 0.  1.
       -2   -1    0    0    0  501  0.00000000000E+00  0.00000000000E+00 -0.93199374754E+03  0.93199374755E+03  0.25500000920E-02 0. -1.
    10030    2    1    2    0    0  0.00000000000E+00  0.00000000000E+00  0.34269330553E+02  0.18982568256E+04  0.18979474674E+04 0.  0.
        4    1    3    3  502    0 -0.57308108773E+03  0.69205743287E+02  0.77047597528E+03  0.96272852321E+03  0.12699999809E+01 0.  1.
       -4    1    3    3    0  502  0.57308108773E+03 -0.69205743287E+02 -0.73620664472E+03  0.93552830244E+03  0.12699999809E+01 0. -1.
</event>
<event>
 5   0  0.2855141E-05  0.1896200E+04  0.7818609E-02  0.8656750E-01
       -2   -1    0    0    0  501  0.00000000000E+00  0.00000000000E+00  0.66807623762E+03  0.66807623762E+03  0.25500000920E-02 0.  1.
        2   -1    0    0  501    0  0.00000000000E+00  0.00000000000E+00 -0.13454956561E+04  0.13454956561E+04  0.25500000920E-02 0. -1.
    10030    2    1    2    0    0  0.00000000000E+00  0.00000000000E+00 -0.67741941852E+03  0.20135718938E+04  0.18962000693E+04 0.  0.
        1    1    3    3  502    0 -0.96590266672E+02 -0.93480347826E+03 -0.47179254400E+03  0.10515585705E+04  0.50400001928E-02 0. -1.
       -1    1    3    3    0  502  0.96590266672E+02  0.93480347826E+03 -0.20562687452E+03  0.96201332327E+03  0.50400001928E-02 0.  1.
</event>
<event>
 5   0  0.1471485E-05  0.1906467E+04  0.7818609E-02  0.8651644E-01
        1   -1    0    0  501    0  0.00000000000E+00  0.00000000000E+00  0.69073081769E+03  0.69073081771E+03  0.50400001928E-02 0. -1.
       -1   -1    0    0    0  501  0.00000000000E+00  0.00000000000E+00 -0.13154973811E+04  0.13154973811E+04  0.50400001928E-02 0.  1.
    10030    2    1    2    0    0  0.00000000000E+00  0.00000000000E+00 -0.62476656338E+03  0.20062281988E+04  0.19064674996E+04 0.  0.
        4    1    3    3  502    0 -0.22144266269E+03 -0.59577849882E+03 -0.10599537358E+04  0.12359176378E+04  0.12699999809E+01 0.  1.
       -4    1    3    3    0  502  0.22144266269E+03  0.59577849882E+03  0.43518717237E+03  0.77031056102E+03  0.12699999809E+01 0. -1.
</event>
<event>
 5   0  0.2813537E-05  0.1900523E+04  0.7818609E-02  0.8654596E-01
       -2   -1    0    0    0  501  0.00000000000E+00  0.00000000000E+00  0.51788045973E+03  0.51788045974E+03  0.25500000920E-02 0.  1.
        2   -1    0    0  501    0  0.00000000000E+00  0.00000000000E+00 -0.17436399161E+04  0.17436399161E+04  0.25500000920E-02 0. -1.
    10030    2    1    2    0    0  0.00000000000E+00  0.00000000000E+00 -0.12257594564E+04  0.22615203759E+04  0.19005231294E+04 0.  0.
        2    1    3    3  502    0  0.40363677919E+03 -0.53500844732E+03  0.18875938680E+03  0.69626632429E+03  0.25500000920E-02 0.  1.
       -2    1    3    3    0  502 -0.40363677919E+03  0.53500844732E+03 -0.14145188432E+04  0.15652540516E+04  0.25500000920E-02 0. -1.
</event>
<event>
 5   0  0.2888776E-05  0.1906838E+04  0.7818609E-02  0.8651460E-01
       -2   -1    0    0    0  501  0.00000000000E+00  0.00000000000E+00  0.14038600718E+04  0.14038600718E+04  0.25500000920E-02 0. -1.
        2   -1    0    0  501    0  0.00000000000E+00  0.00000000000E+00 -0.64750584527E+03  0.64750584527E+03  0.25500000920E-02 0.  1.
    10030    2    1    2    0    0  0.00000000000E+00  0.00000000000E+00  0.75635422654E+03  0.20513659171E+04  0.19068378037E+04 0.  0.
        3    1    3    3  502    0  0.26440727377E+03 -0.25364983928E+03 -0.56874107272E+03  0.67654701639E+03  0.10100000352E+00 0.  1.
       -3    1    3    3    0  502 -0.26440727377E+03  0.25364983928E+03  0.13250952993E+04  0.13748189007E+04  0.10100000352E+00 0. -1.
</event>
<event>
 5   0  0.1010725E-05  0.1903947E+04  0.7818609E-02  0.8652894E-01
        4   -1    0    0  501    0  0.00000000000E+00  0.00000000000E+00  0.11659917637E+04  0.11659924553E+04  0.12699999809E+01 0.  1.
       -4   -1    0    0    0  501  0.00000000000E+00  0.00000000000E+00 -0.77723661255E+03  0.77723765014E+03  0.12699999809E+01 0. -1.
    10030    2    1    2    0    0  0.00000000000E+00  0.00000000000E+00  0.38875515112E+03  0.19432301055E+04  0.19039466051E+04 0.  0.
        3    1    3    3  502    0  0.34303443708E+03 -0.79476617763E+03 -0.20993630972E+03  0.89072956977E+03  0.10100000352E+00 0. -1.
       -3    1    3    3    0  502 -0.34303443708E+03  0.79476617763E+03  0.59869146085E+03  0.10525005357E+04  0.10100000352E+00 0.  1.
</event>
<event>
 5   0  0.2855141E-05  0.1898723E+04  0.7818609E-02  0.8655492E-01
        2   -1    0    0  501    0  0.00000000000E+00  0.00000000000E+00  0.23590625670E+04  0.23590625670E+04  0.25500000920E-02 0. -1.
       -2   -1    0    0    0  501  0.00000000000E+00  0.00000000000E+00 -0.38205333847E+03  0.38205333848E+03  0.25500000920E-02 0.  1.
    10030    2    1    2    0    0  0.00000000000E+00  0.00000000000E+00  0.19770092285E+04  0.27411159055E+04  0.18987234969E+04 0.  0.
        1    1    3    3  502    0 -0.67481437338E+03 -0.30603438714E+03  0.13167390141E+03  0.75257524606E+03  0.50400001928E-02 0.  1.
       -1    1    3    3    0  502  0.67481437338E+03  0.30603438714E+03  0.18453353271E+04  0.19885406594E+04  0.50400001928E-02 0. -1.
</event>
<event>
 5   0  0.1413011E-05  0.1901192E+04  0.7818609E-02  0.8654263E-01
       -1   -1    0    0    0  501  0.00000000000E+00  0.00000000000E+00  0.10029453350E+04  0.10029453350E+04  0.50400001928E-02 0.  1.
        1   -1    0    0  501    0  0.00000000000E+00  0.00000000000E+00 -0.90097913843E+03  0.90097913844E+03  0.50400001928E-02 0. -1.
    10030    2    1    2    0    0  0.00000000000E+00  0.00000000000E+00  0.10196619660E+03  0.19039244735E+04  0.19011920722E+04 0.  0.
        1    1    3    3  502    0  0.62065856027E+03 -0.49554444351E+03  0.57408569828E+03  0.97997741450E+03  0.50400001928E-02 0.  1.
       -1    1    3    3    0  502 -0.62065856027E+03  0.49554444351E+03 -0.47211950168E+03  0.92394705899E+03  0.50400001928E-02 0. -1.
</event>
<event>
 5   0  0.2813537E-05  0.1898203E+04  0.7818609E-02  0.8655752E-01
        2   -1    0    0  501    0  0.00000000000E+00  0.00000000000E+00  0.60750150579E+03  0.60750150579E+03  0.25500000920E-02 0. -1.
       -2   -1    0    0    0  501  0.00000000000E+00  0.00000000000E+00 -0.14827836411E+04  0.14827836411E+04  0.25500000920E-02 0.  1.
    10030    2    1    2    0    0  0.00000000000E+00  0.00000000000E+00 -0.87528213530E+03  0.20902851469E+04  0.18982026180E+04 0.  0.
        2    1    3    3  502    0  0.77661702606E+03 -0.51865552835E+03 -0.25123127496E+03  0.96708568171E+03  0.25500000920E-02 0. -1.
       -2    1    3    3    0  502 -0.77661702606E+03  0.51865552835E+03 -0.62405086034E+03  0.11231994652E+04  0.25500000920E-02 0.  1.
</event>
<event>
 5   0  0.1327254E-05  0.1896871E+04  0.7818609E-02  0.8656416E-01
        1   -1    0    0  501    0  0.00000000000E+00  0.00000000000E+00  0.10891137923E+04  0.10891137923E+04  0.50400001928E-02 0. -1.
       -1   -1    0    0    0  501  0.00000000000E+00  0.00000000000E+00 -0.82592801657E+03  0.82592801659E+03  0.50400001928E-02 0.  1.
    10030    2    1    2    0    0  0.00000000000E+00  0.00000000000E+00  0.26318577570E+03  0.19150418089E+04  0.18968706802E+04 0.  0.
        5    1    3    3  502    0  0.58035608829E+03  0.57034409308E+03  0.62349949886E+03  0.10251240358E+04  0.46999998093E+01 0. -1.
       -5    1    3    3    0  502 -0.58035608829E+03 -0.57034409308E+03 -0.36031372316E+03  0.88991777307E+03  0.46999998093E+01 0.  1.
</event>
<event>
 5   0  0.2789718E-05  0.1903044E+04  0.7818609E-02  0.8653343E-01
       -2   -1    0    0    0  501  0.00000000000E+00  0.00000000000E+00  0.55481280683E+03  0.55481280683E+03  0.25500000920E-02 0. -1.
        2   -1    0    0  501    0  0.00000000000E+00  0.00000000000E+00 -0.16318907206E+04  0.16318907206E+04  0.25500000920E-02 0.  1.
    10030    2    1    2    0    0  0.00000000000E+00  0.00000000000E+00 -0.10770779137E+04  0.21867035274E+04  0.19030437421E+04 0.  0.
        5    1    3    3  502    0  0.57812042730E+03  0.67337702892E+03 -0.14430740994E+03  0.89916993394E+03  0.46999998093E+01 0. -1.
       -5    1    3    3    0  502 -0.57812042730E+03 -0.67337702892E+03 -0.93277050380E+03  0.12875335935E+04  0.46999998093E+01 0.  1.
</event>
<event>
 5   0  0.1471485E-05  0.1893149E+04  0.7818609E-02  0.8658274E-01
        1   -1    0    0  501    0  0.00000000000E+00  0.00000000000E+00  0.18767203386E+04  0.18767203386E+04  0.50400001928E-02 0.  1.
       -1   -1    0    0    0  501  0.00000000000E+00  0.00000000000E+00 -0.47743039759E+03  0.47743039761E+03  0.50400001928E-02 0. -1.
    10030    2    1    2    0    0  0.00000000000E+00  0.00000000000E+00  0.13992899411E+04  0.23541507363E+04  0.18931490564E+04 0.  0.
        4    1    3    3  502    0  0.44749387992E+03 -0.65140398963E+03  0.13474934094E+04  0.15621517313E+04  0.12699999809E+01 0.  1.
       -4    1    3    3    0  502 -0.44749387992E+03  0.65140398963E+03  0.51796531636E+02  0.79199900496E+03  0.12699999809E+01 0. -1.
</event>
<event>
 5   0  0.2879462E-05  0.1899126E+04  0.7818609E-02  0.8655292E-01
       -2   -1    0    0    0  501  0.00000000000E+00  0.00000000000E+00  0.98200894552E+03  0.98200894553E+03  0.25500000920E-02 0. -1.
        2   -1    0    0  501    0  0.00000000000E+00  0.00000000000E+00 -0.91818893530E+03  0.91818893530E+03  0.25500000920E-02 0.  1.
    10030    2    1    2    0    0  0.00000000000E+00  0.00000000000E+00  0.63820010226E+02  0.19001978808E+04  0.18991258496E+04 0.  0.
        4    1    3    3  502    0  0.10349642660E+03  0.14381844919E+03  0.96532077792E+03  0.98144845705E+03  0.12699999809E+01 0. -1.
       -4    1    3    3    0  502 -0.10349642660E+03 -0.14381844919E+03 -0.90150076770E+03  0.91874942378E+03  0.12699999809E+01 0.  1.
</event>
<event>
 5   0  0.1413011E-05  0.1900334E+04  0.7818609E-02  0.8654690E-01
        1   -1    0    0  501    0  0.00000000000E+00  0.00000000000E+00  0.13014440028E+04  0.13014440028E+04  0.50400001928E-02 0. -1.
       -1   -1    0    0    0  501  0.00000000000E+00  0.00000000000E+00 -0.69370426784E+03  0.69370426786E+03  0.50400001928E-02 0.  1.
    10030    2    1    2    0    0  0.00000000000E+00  0.00000000000E+00  0.60773973495E+03  0.19951482707E+04  0.19003339276E+04 0.  0.
        1    1    3    3  502    0  0.74290374237E+03  0.29131117701E+03 -0.23766464557E+03  0.83261795324E+03  0.50400001928E-02 0.  1.
       -1    1    3    3    0  502 -0.74290374237E+03 -0.29131117701E+03  0.84540438053E+03  0.11625303174E+04  0.50400001928E-02 0. -1.
</event>
<event>
 5   0  0.2855141E-05  0.1900427E+04  0.7818609E-02  0.8654644E-01
        2   -1    0    0  501    0  0.00000000000E+00  0.00000000000E+00  0.12196909083E+04  0.12196909083E+04  0.25500000920E-02 0.  1.
       -2   -1    0    0    0  501  0.00000000000E+00  0.00000000000E+00 -0.74027410005E+03  0.74027410005E+03  0.25500000920E-02 0. -1.
    10030    2    1    2    0    0  0.00000000000E+00  0.00000000000E+00  0.47941680827E+03  0.19599650084E+04  0.19004268884E+04 0.  0.
        1    1    3    3  502    0 -0.59657899471E+02  0.64271044837E+03  0.95888542510E+03  0.11558966407E+04  0.50400001928E-02 0.  1.
       -1    1    3    3    0  502  0.59657899471E+02 -0.64271044837E+03 -0.47946861682E+03  0.80406836771E+03  0.50400001928E-02 0. -1.
</event>
<event>
 5   0  0.1471485E-05  0.1903100E+04  0.7818609E-02  0.8653315E-01
       -1   -1    0    0    0  501  0.00000000000E+00  0.00000000000E+00  0.90017029228E+03  0.90017029229E+03  0.50400001928E-02 0.  1.
        1   -1    0    0  501    0  0.00000000000E+00  0.00000000000E+00 -0.10058623734E+04  0.10058623734E+04  0.50400001928E-02 0. -1.
    10030    2    1    2    0    0  0.00000000000E+00  0.00000000000E+00 -0.10569208110E+03  0.19060326657E+04  0.19031000254E+04 0.  0.
        4    1    3    3  502    0 -0.87963672968E+02  0.37193929119E+03  0.81991482009E+03  0.90462056643E+03  0.12699999809E+01 0.  1.
       -4    1    3    3    0  502  0.87963672968E+02 -0.37193929119E+03 -0.92560690119E+03  0.10014120993E+04  0.12699999809E+01 0. -1.
</event>
<event>
 5   0  0.2888776E-05  0.1931572E+04  0.7818609E-02  0.8639299E-01
        2   -1    0    0  501    0  0.00000000000E+00  0.00000000000E+00  0.12108745977E+04  0.12108745977E+04  0.25500000920E-02 0.  1.
       -2   -1    0    0    0  501  0.00000000000E+00  0.00000000000E+00 -0.77030474788E+03  0.77030474789E+03  0.25500000920E-02 0. -1.
    10030    2    1    2    0    0  0.00000000000E+00  0.00000000000E+00  0.44056984978E+03  0.19811793456E+04  0.19315718487E+04 0.  0.
        3    1    3    3  502    0  0.20844493070E+03  0.33191670499E+03  0.11256345832E+04  0.11919191303E+04  0.10100000352E+00 0.  1.
       -3    1    3    3    0  502 -0.20844493070E+03 -0.33191670499E+03 -0.68506473340E+03  0.78926021523E+03  0.10100000352E+00 0. -1.
</event>
<event>
 5   0  0.1429067E-05  0.1910833E+04  0.7818609E-02  0.8649483E-01
       -1   -1    0    0    0  501  0.00000000000E+00  0.00000000000E+00  0.65137498189E+03  0.65137498191E+03  0.50400001928E-02 0.  1.
        1   -1    0    0  501    0  0.00000000000E+00  0.00000000000E+00 -0.14013758157E+04  0.14013758157E+04  0.50400001928E-02 0. -1.
    10030    2    1    2    0    0  0.00000000000E+00  0.00000000000E+00 -0.75000083376E+03  0.20527507976E+04  0.19108334795E+04 0.  0.
        3    1    3    3  502    0 -0.44990873507E+03 -0.80156886013E+03 -0.95090488139E+02  0.92410644330E+03  0.10100000352E+00 0.  1.
       -3    1    3    3    0  502  0.44990873507E+03  0.80156886013E+03 -0.65491034563E+03  0.11286443543E+04  0.10100000352E+00 0. -1.
</event>
<event>
 5   0  0.2855141E-05  0.1899919E+04  0.7818609E-02  0.8654897E-01
        2   -1    0    0  501    0  0.00000000000E+00  0.00000000000E+00  0.46246289326E+03  0.46246289327E+03  0.25500000920E-02 0.  1.
       -2   -1    0    0    0  501  0.00000000000E+00  0.00000000000E+00 -0.19513407103E+04  0.19513407103E+04  0.25500000920E-02 0. -1.
    10030    2    1    2    0    0  0.00000000000E+00  0.00000000000E+00 -0.14888778170E+04  0.24138036035E+04  0.18999185989E+04 0.  0.
        1    1    3    3  502    0  0.16395544335E+02 -0.85478139538E+03 -0.21829769734E+03  0.88236836551E+03  0.50400001928E-02 0. -1.
       -1    1    3    3    0  502 -0.16395544335E+02  0.85478139538E+03 -0.12705801197E+04  0.15314352380E+04  0.50400001928E-02 0.  1.
</event>
<event>
 5   0  0.1471485E-05  0.1900936E+04  0.7818609E-02  0.8654391E-01
       -1   -1    0    0    0  501  0.00000000000E+00  0.00000000000E+00  0.48071908955E+03  0.48071908957E+03  0.50400001928E-02 0.  1.
        1   -1    0    0  501    0  0.00000000000E+00  0.00000000000E+00 -0.18792452941E+04  0.18792452941E+04  0.50400001928E-02 0. -1.
    10030    2    1    2    0    0  0.00000000000E+00  0.00000000000E+00 -0.13985262046E+04  0.23599643837E+04  0.19009356505E+04 0.  0.
        4    1    3    3  502    0  0.21705582551E+03 -0.89832074082E+03 -0.42362740847E+03  0.10166391586E+04  0.12699999809E+01 0.  1.
       -4    1    3    3    0  502 -0.21705582551E+03  0.89832074082E+03 -0.97489879611E+03  0.13433252251E+04  0.12699999809E+01 0. -1.
</event>
<event>
 5   0  0.2888776E-05  0.1895515E+04  0.7818609E-02  0.8657092E-01
       -2   -1    0    0    0  501  0.00000000000E+00  0.00000000000E+00  0.11112674783E+04  0.11112674783E+04  0.25500000920E-02 0.  1.
        2   -1    0    0  501    0  0.00000000000E+00  0.00000000000E+00 -0.80830621001E+03  0.80830621001E+03  0.25500000920E-02 0. -1.
    10030    2    1    2    0    0  0.00000000000E+00  0.00000000000E+00  0.30296126829E+03  0.19195736883E+04  0.18955151318E+04 0.  0.
        3    1    3    3  502    0 -0.46322289887E+03 -0.88544871626E+02  0.98400290960E+03  0.10911816460E+04  0.10100000352E+00 0.  1.
       -3    1    3    3    0  502  0.46322289887E+03  0.88544871626E+02 -0.68104164131E+03  0.82839204229E+03  0.10100000352E+00 0. -1.
</event>
<event>
 5   0  0.1471485E-05  0.1914807E+04  0.7818609E-02  0.8647521E-01
        1   -1    0    0  501    0  0.00000000000E+00  0.00000000000E+00  0.11653958580E+04  0.11653958580E+04  0.50400001928E-02 0. -1.
       -1   -1    0    0    0  501  0.00000000000E+00  0.00000000000E+00 -0.78653263636E+03  0.78653263637E+03  0.50400001928E-02 0.  1.
    10030    2    1    2    0    0  0.00000000000E+00  0.00000000000E+00  0.37886322161E+03  0.19519284943E+04  0.19148074332E+04 0.  0.
        4    1    3    3  502    0 -0.29600740334E+03  0.41573448581E+02  0.11166090134E+04  0.11559264839E+04  0.12699999809E+01 0. -1.
       -4    1    3    3    0  502  0.29600740334E+03 -0.41573448581E+02 -0.73774579179E+03  0.79600201046E+03  0.12699999809E+01 0.  1.
</event>
<event>
 5   0  0.1010725E-05  0.1897625E+04  0.7818609E-02  0.8656039E-01
       -3   -1    0    0    0  501  0.00000000000E+00  0.00000000000E+00  0.11327593588E+04  0.11327593633E+04  0.10100000352E+00 0.  1.
        3   -1    0    0  501    0  0.00000000000E+00  0.00000000000E+00 -0.79473651445E+03  0.79473652087E+03  0.10100000352E+00 0. -1.
    10030    2    1    2    0    0  0.00000000000E+00  0.00000000000E+00  0.33802284431E+03  0.19274958841E+04  0.18976250789E+04 0.  0.
        3    1    3    3  502    0 -0.46648518770E+03 -0.79789255085E+03 -0.48850899931E+02  0.92554166501E+03  0.10100000352E+00 0. -1.
       -3    1    3    3    0  502  0.46648518770E+03  0.79789255085E+03  0.38687374424E+03  0.10019542191E+04  0.10100000352E+00 0.  1.
</event>
<event>
 5   0  0.1471485E-05  0.1899235E+04  0.7818609E-02  0.8655237E-01
       -1   -1    0    0    0  501  0.00000000000E+00  0.00000000000E+00  0.18431168509E+04  0.18431168509E+04  0.50400001928E-02 0.  1.
        1   -1    0    0  501    0  0.00000000000E+00  0.00000000000E+00 -0.48926561690E+03  0.48926561693E+03  0.50400001928E-02 0. -1.
    10030    2    1    2    0    0  0.00000000000E+00  0.00000000000E+00  0.13538512340E+04  0.23323824679E+04  0.18992353231E+04 0.  0.
        4    1    3    3  502    0 -0.34777990568E+03  0.27694200566E+03 -0.35356886798E+03  0.56803194857E+03  0.12699999809E+01 0. -1.
       -4    1    3    3    0  502  0.34777990568E+03 -0.27694200566E+03  0.17074201020E+04  0.17643505193E+04  0.12699999809E+01 0.  1.
</event>
<event>
 5   0  0.1327254E-05  0.1911828E+04  0.7818609E-02  0.8648991E-01
       -1   -1    0    0    0  501  0.00000000000E+00  0.00000000000E+00  0.42645117864E+03  0.42645117867E+03  0.50400001928E-02 0. -1.
        1   -1    0    0  501    0  0.00000000000E+00  0.00000000000E+00 -0.21427335020E+04  0.21427335020E+04  0.50400001928E-02 0.  1.
    10030    2    1    2    0    0  0.00000000000E+00  0.00000000000E+00 -0.17162823234E+04  0.25691846807E+04  0.19118276361E+04 0.  0.
        5    1    3    3  502    0 -0.68750886043E+03 -0.41150807449E+03 -0.15586680665E+04  0.17525625695E+04  0.46999998093E+01 0. -1.
       -5    1    3    3    0  502  0.68750886043E+03  0.41150807449E+03 -0.15761425691E+03  0.81662211122E+03  0.46999998093E+01 0.  1.
</event>
<event>
 5   0  0.2813537E-05  0.1900538E+04  0.7818609E-02  0.8654589E-01
       -2   -1    0    0    0  501  0.00000000000E+00  0.00000000000E+00  0.53431458558E+03  0.53431458559E+03  0.25500000920E-02 0.  1.
        2   -1    0    0  501    0  0.00000000000E+00  0.00000000000E+00 -0.16900362644E+04  0.16900362644E+04  0.25500000920E-02 0. -1.
    10030    2    1    2    0    0  0.00000000000E+00  0.00000000000E+00 -0.11557216789E+04  0.22243508500E+04  0.19005378462E+04 0.  0.
        2    1    3    3  502    0 -0.12005608987E+03  0.14625168146E+03  0.51204356463E+03  0.54588609721E+03  0.25500000920E-02 0.  1.
       -2    1    3    3    0  502  0.12005608987E+03 -0.14625168146E+03 -0.16677652435E+04  0.16784647528E+04  0.25500000920E-02 0. -1.
</event>
<event>
 5   0  0.2879462E-05  0.1901146E+04  0.7818609E-02  0.8654286E-01
        2   -1    0    0  501    0  0.00000000000E+00  0.00000000000E+00  0.17959404740E+04  0.17959404740E+04  0.25500000920E-02 0. -1.
       -2   -1    0    0    0  501  0.00000000000E+00  0.00000000000E+00 -0.50312836806E+03  0.50312836807E+03  0.25500000920E-02 0.  1.
    10030    2    1    2    0    0  0.00000000000E+00  0.00000000000E+00  0.12928121059E+04  0.22990688421E+04  0.19011455492E+04 0.  0.
        4    1    3    3  502    0  0.86938233403E+03  0.11039886479E+03  0.10916765376E+04  0.13999188647E+04  0.12699999809E+01 0. -1.
       -4    1    3    3    0  502 -0.86938233403E+03 -0.11039886479E+03  0.20113556834E+03  0.89914997738E+03  0.12699999809E+01 0.  1.
</event>
<event>
 5   0  0.2789718E-05  0.1899619E+04  0.7818609E-02  0.8655046E-01
        2   -1    0    0  501    0  0.00000000000E+00  0.00000000000E+00  0.14896100774E+04  0.14896100774E+04  0.25500000920E-02 0.  1.
       -2   -1    0    0    0  501  0.00000000000E+00  0.00000000000E+00 -0.60562050903E+03  0.60562050903E+03  0.25500000920E-02 0. -1.
    10030    2    1    2    0    0  0.00000000000E+00  0.00000000000E+00  0.88398956840E+03  0.20952305865E+04  0.18996193443E+04 0.  0.
        5    1    3    3  502    0 -0.78567549093E+03  0.49939313696E+02 -0.14407413063E+03  0.80034952190E+03  0.46999998093E+01 0. -1.
       -5    1    3    3    0  502  0.78567549093E+03 -0.49939313696E+02  0.10280636990E+04  0.12948810646E+04  0.46999998093E+01 0.  1.
</event>
<event>
 5   0  0.1010725E-05  0.1899068E+04  0.7818609E-02  0.8655320E-01
       -4   -1    0    0    0  501  0.00000000000E+00  0.00000000000E+00  0.11260146200E+04  0.11260153362E+04  0.12699999809E+01 0. -1.
        4   -1    0    0  501    0  0.00000000000E+00  0.00000000000E+00 -0.80071168538E+03  0.80071269255E+03  0.12699999809E+01 0.  1.
    10030    2    1    2    0    0  0.00000000000E+00  0.00000000000E+00  0.32530293464E+03  0.19267280288E+04  0.18990679023E+04 0.  0.
        4    1    3    3  502    0 -0.44015646016E+02 -0.50813576828E+03  0.97523754091E+03  0.11005585901E+04  0.12699999809E+01 0. -1.
       -4    1    3    3    0  502  0.44015646016E+02  0.50813576828E+03 -0.64993460627E+03  0.82616943869E+03  0.12699999809E+01 0.  1.
</event>
<event>
 5   0  0.1471485E-05  0.1898868E+04  0.7818609E-02  0.8655420E-01
       -1   -1    0    0    0  501  0.00000000000E+00  0.00000000000E+00  0.49815578453E+03  0.49815578456E+03  0.50400001928E-02 0. -1.
        1   -1    0    0  501    0  0.00000000000E+00  0.00000000000E+00 -0.18095243618E+04  0.18095243618E+04  0.50400001928E-02 0.  1.
    10030    2    1    2    0    0  0.00000000000E+00  0.00000000000E+00 -0.13113685772E+04  0.23076801463E+04  0.18988681135E+04 0.  0.
        4    1    3    3  502    0  0.24072670847E+03  0.47403144797E+03  0.30028694454E+03  0.61059726809E+03  0.12699999809E+01 0. -1.
       -4    1    3    3    0  502 -0.24072670847E+03 -0.47403144797E+03 -0.16116555218E+04  0.16970828783E+04  0.12699999809E+01 0.  1.
</event>
<event>
 5   0  0.1413011E-05  0.1893542E+04  0.7818609E-02  0.8658078E-01
       -1   -1    0    0    0  501  0.00000000000E+00  0.00000000000E+00  0.12198308792E+04  0.12198308792E+04  0.50400001928E-02 0. -1.
        1   -1    0    0  501    0  0.00000000000E+00  0.00000000000E+00 -0.73483556590E+03  0.73483556592E+03  0.50400001928E-02 0.  1.
    10030    2    1    2    0    0  0.00000000000E+00  0.00000000000E+00  0.48499531326E+03  0.19546664451E+04  0.18935417761E+04 0.  0.
        1    1    3    3  502    0  0.28389930848E+03  0.44660965741E+03  0.10528978330E+04  0.11784111550E+04  0.50400001928E-02 0. -1.
       -1    1    3    3    0  502 -0.28389930848E+03 -0.44660965741E+03 -0.56790251974E+03  0.77625529010E+03  0.50400001928E-02 0.  1.
</event>
<event>
 5   0  0.2888776E-05  0.1898903E+04  0.7818609E-02  0.8655402E-01
        2   -1    0    0  501    0  0.00000000000E+00  0.00000000000E+00  0.64309050414E+03  0.64309050414E+03  0.25500000920E-02 0. -1.
       -2   -1    0    0    0  501  0.00000000000E+00  0.00000000000E+00 -0.14017600276E+04  0.14017600276E+04  0.25500000920E-02 0.  1.
    10030    2    1    2    0    0  0.00000000000E+00  0.00000000000E+00 -0.75866952349E+03  0.20448505318E+04  0.18989034339E+04 0.  0.
        3    1    3    3  502    0 -0.34733073438E+03  0.16124179668E+03  0.55624469061E+03  0.67531157407E+03  0.10100000352E+00 0. -1.
       -3    1    3    3    0  502  0.34733073438E+03 -0.16124179668E+03 -0.13149142141E+04  0.13695389577E+04  0.10100000352E+00 0.  1.
</event>
<event>
 5   0  0.2855141E-05  0.1892173E+04  0.7818609E-02  0.8658762E-01
       -2   -1    0    0    0  501  0.00000000000E+00  0.00000000000E+00  0.11241723257E+04  0.11241723257E+04  0.25500000920E-02 0. -1.
        2   -1    0    0  501    0  0.00000000000E+00  0.00000000000E+00 -0.79621173191E+03  0.79621173192E+03  0.25500000920E-02 0.  1.
    10030    2    1    2    0    0  0.00000000000E+00  0.00000000000E+00  0.32796059377E+03  0.19203840576E+04  0.18921725021E+04 0.  0.
        1    1    3    3  502    0  0.41981544191E+03  0.56527032894E+03 -0.47734593208E+03  0.85066720223E+03  0.50400001928E-02 0.  1.
       -1    1    3    3    0  502 -0.41981544191E+03 -0.56527032894E+03  0.80530652586E+03  0.10697168554E+04  0.50400001928E-02 0. -1.
</event>
<event>
 5   0  0.2789718E-05  0.1900494E+04  0.7818609E-02  0.8654610E-01
        2   -1    0    0  501    0  0.00000000000E+00  0.00000000000E+00  0.10109605400E+04  0.10109605400E+04  0.25500000920E-02 0. -1.
       -2   -1    0    0    0  501  0.00000000000E+00  0.00000000000E+00 -0.89318003830E+03  0.89318003830E+03  0.25500000920E-02 0.  1.
    10030    2    1    2    0    0  0.00000000000E+00  0.00000000000E+00  0.11778050170E+03  0.19041405783E+04  0.19004944344E+04 0.  0.
        5    1    3    3  502    0  0.62795056656E+03 -0.70596613002E+03  0.16026536061E+03  0.95834084051E+03  0.46999998093E+01 0.  1.
       -5    1    3    3    0  502 -0.62795056656E+03  0.70596613002E+03 -0.42484858907E+02  0.94579973779E+03  0.46999998093E+01 0. -1.
</event>
<event>
 5   0  0.1327254E-05  0.1889788E+04  0.7818609E-02  0.8659956E-01
        1   -1    0    0  501    0  0.00000000000E+00  0.00000000000E+00  0.10404022716E+04  0.10404022716E+04  0.50400001928E-02 0. -1.
       -1   -1    0    0    0  501  0.00000000000E+00  0.00000000000E+00 -0.85815345657E+03  0.85815345658E+03  0.50400001928E-02 0.  1.
    10030    2    1    2    0    0  0.00000000000E+00  0.00000000000E+00  0.18224881500E+03  0.18985557282E+04  0.18897881422E+04 0.  0.
        5    1    3    3  502    0 -0.27261530266E+03 -0.13516958739E+03 -0.80757193766E+03  0.86300894844E+03  0.46999998093E+01 0.  1.
       -5    1    3    3    0  502  0.27261530266E+03  0.13516958739E+03  0.98982075266E+03  0.10355467797E+04  0.46999998093E+01 0. -1.
</event>
<event>
 5   0  0.2813537E-05  0.1922187E+04  0.7818609E-02  0.8643890E-01
       -2   -1    0    0    0  501  0.00000000000E+00  0.00000000000E+00  0.74858348356E+03  0.74858348356E+03  0.25500000920E-02 0. -1.
        2   -1    0    0  501    0  0.00000000000E+00  0.00000000000E+00 -0.12339319988E+04  0.12339319988E+04  0.25500000920E-02 0.  1.
    10030    2    1    2    0    0  0.00000000000E+00  0.00000000000E+00 -0.48534851526E+03  0.19825154824E+04  0.19221874145E+04 0.  0.
        2    1    3    3  502    0 -0.17491365001E+03 -0.76041755887E+03  0.33607108732E+03  0.84957249516E+03  0.25500000920E-02 0. -1.
       -2    1    3    3    0  502  0.17491365001E+03  0.76041755887E+03 -0.82141960258E+03  0.11329429872E+04  0.25500000920E-02 0.  1.
</event>
<event>
 5   0  0.1413011E-05  0.1884904E+04  0.7818609E-02  0.8662407E-01
        1   -1    0    0  501    0  0.00000000000E+00  0.00000000000E+00  0.97820820476E+03  0.97820820477E+03  0.50400001928E-02 0.  1.
       -1   -1    0    0    0  501  0.00000000000E+00  0.00000000000E+00 -0.90800310743E+03  0.90800310744E+03  0.50400001928E-02 0. -1.
    10030    2    1    2    0    0  0.00000000000E+00  0.00000000000E+00  0.70205097330E+02  0.18862113122E+04  0.18849043367E+04 0.  0.
        1    1    3    3  502    0  0.91680868321E+02 -0.87719993556E+03  0.36749394314E+03  0.95547731884E+03  0.50400001928E-02 0.  1.
       -1    1    3    3    0  502 -0.91680868321E+02  0.87719993556E+03 -0.29728884581E+03  0.93073399337E+03  0.50400001928E-02 0. -1.
</event>
<event>
 5   0  0.2888776E-05  0.1912288E+04  0.7818609E-02  0.8648764E-01
        2   -1    0    0  501    0  0.00000000000E+00  0.00000000000E+00  0.18992752281E+04  0.18992752281E+04  0.25500000920E-02 0. -1.
       -2   -1    0    0    0  501  0.00000000000E+00  0.00000000000E+00 -0.48134742159E+03  0.48134742159E+03  0.25500000920E-02 0.  1.
    10030    2    1    2    0    0  0.00000000000E+00  0.00000000000E+00  0.14179278065E+04  0.23806226497E+04  0.19122878799E+04 0.  0.
        3    1    3    3  502    0  0.28493827754E+02 -0.31331352891E+03  0.18329952414E+04  0.18597980618E+04  0.10100000352E+00 0. -1.
       -3    1    3    3    0  502 -0.28493827754E+02  0.31331352891E+03 -0.41506743489E+03  0.52082458786E+03  0.10100000352E+00 0.  1.
</event>
<event>
 5   0  0.2813537E-05  0.1898724E+04  0.7818609E-02  0.8655492E-01
        2   -1    0    0  501    0  0.00000000000E+00  0.00000000000E+00  0.98171174992E+03  0.98171174992E+03  0.25500000920E-02 0.  1.
       -2   -1    0    0    0  501  0.00000000000E+00  0.00000000000E+00 -0.91807818365E+03  0.91807818365E+03  0.25500000920E-02 0. -1.
    10030    2    1    2    0    0  0.00000000000E+00  0.00000000000E+00  0.63633566275E+02  0.18997899336E+04  0.18987239296E+04 0.  0.
        2    1    3    3  502    0  0.57033904115E+03 -0.46912413916E+03 -0.56511187823E+03  0.92990080908E+03  0.25500000920E-02 0. -1.
       -2    1    3    3    0  502 -0.57033904115E+03  0.46912413916E+03  0.62874544451E+03  0.96988912449E+03  0.25500000920E-02 0.  1.
</event>
<event>
 5   0  0.1429067E-05  0.1905486E+04  0.7818609E-02  0.8652130E-01
       -1   -1    0    0    0  501  0.00000000000E+00  0.00000000000E+00  0.66452704778E+03  0.66452704780E+03  0.50400001928E-02 0.  1.
        1   -1    0    0  501    0  0.00000000000E+00  0.00000000000E+00 -0.13659628142E+04  0.13659628142E+04  0.50400001928E-02 0. -1.
    10030    2    1    2    0    0  0.00000000000E+00  0.00000000000E+00 -0.70143576638E+03  0.20304898620E+04  0.19054860129E+04 0.  0.
        3    1    3    3  502    0 -0.34907287745E+03  0.66377852310E+03 -0.97685810831E+03  0.12315460103E+04  0.10100000352E+00 0. -1.
       -3    1    3    3    0  502  0.34907287745E+03 -0.66377852310E+03  0.27542234193E+03  0.79894385168E+03  0.10100000352E+00 0.  1.
</event>
<event>
 5   0  0.2789718E-05  0.1886811E+04  0.7818609E-02  0.8661449E-01
        2   -1    0    0  501    0  0.00000000000E+00  0.00000000000E+00  0.94117899055E+03  0.94117899056E+03  0.25500000920E-02 0.  1.
       -2   -1    0    0    0  501  0.00000000000E+00  0.00000000000E+00 -0.94563747756E+03  0.94563747756E+03  0.25500000920E-02 0. -1.
    10030    2    1    2    0    0  0.00000000000E+00  0.00000000000E+00 -0.44584870075E+01  0.18868164681E+04  0.18868112005E+04 0.  0.
        5    1    3    3  502    0 -0.42791496188E+02  0.35648081973E+03  0.87017352999E+03  0.94134677419E+03  0.46999998093E+01 0.  1.
       -5    1    3    3    0  502  0.42791496188E+02 -0.35648081973E+03 -0.87463201700E+03  0.94546969393E+03  0.46999998093E+01 0. -1.
</event>
<event>
 5   0  0.2813537E-05  0.1902013E+04  0.7818609E-02  0.8653855E-01
       -2   -1    0    0    0  501  0.00000000000E+00  0.00000000000E+00  0.11894114179E+04  0.11894114179E+04  0.25500000920E-02 0.  1.
        2   -1    0    0  501    0  0.00000000000E+00  0.00000000000E+00 -0.76038763693E+03  0.76038763694E+03  0.25500000920E-02 0. -1.
    10030    2    1    2    0    0  0.00000000000E+00  0.00000000000E+00  0.42902378099E+03  0.19497990549E+04  0.19020133937E+04 0.  0.
        2    1    3    3  502    0 -0.60713737842E+03 -0.59210940002E+03 -0.22665400757E+03  0.87782764653E+03  0.25500000920E-02 0. -1.
       -2    1    3    3    0  502  0.60713737842E+03  0.59210940002E+03  0.65567778856E+03  0.10719714083E+04  0.25500000920E-02 0.  1.
</event>
<event>
 5   0  0.1010725E-05  0.1896529E+04  0.7818609E-02  0.8656586E-01
        4   -1    0    0  501    0  0.00000000000E+00  0.00000000000E+00  0.21337551443E+04  0.21337555223E+04  0.12699999809E+01 0. -1.
       -4   -1    0    0    0  501  0.00000000000E+00  0.00000000000E+00 -0.42141796635E+03  0.42141988001E+03  0.12699999809E+01 0.  1.
    10030    2    1    2    0    0  0.00000000000E+00  0.00000000000E+00  0.17123371780E+04  0.25551754023E+04  0.18965291259E+04 0.  0.
        2    1    3    3  502    0 -0.69684237961E+03  0.45404810095E+03  0.24251265899E+03  0.86634945015E+03  0.25500000920E-02 0.  1.
       -2    1    3    3    0  502  0.69684237961E+03 -0.45404810095E+03  0.14698245190E+04  0.16888259521E+04  0.25500000920E-02 0. -1.
</event>
<event>
 5   0  0.1413011E-05  0.1899971E+04  0.7818609E-02  0.8654871E-01
       -1   -1    0    0    0  501  0.00000000000E+00  0.00000000000E+00  0.48872140875E+03  0.48872140877E+03  0.50400001928E-02 0.  1.
        1   -1    0    0  501    0  0.00000000000E+00  0.00000000000E+00 -0.18465998670E+04  0.18465998670E+04  0.50400001928E-02 0. -1.
    10030    2    1    2    0    0  0.00000000000E+00  0.00000000000E+00 -0.13578784583E+04  0.23353212758E+04  0.18999714613E+04 0.  0.
        1    1    3    3  502    0  0.57651602157E+03 -0.50608471567E+03 -0.13676721547E+04  0.15681261382E+04  0.50400001928E-02 0. -1.
       -1    1    3    3    0  502 -0.57651602157E+03  0.50608471567E+03  0.97936964682E+01  0.76719513755E+03  0.50400001928E-02 0.  1.
</event>
<event>
 5   0  0.2879462E-05  0.1897996E+04  0.7818609E-02  0.8655854E-01
        2   -1    0    0  501    0  0.00000000000E+00  0.00000000000E+00  0.12974736500E+04  0.12974736500E+04  0.25500000920E-02 0.  1.
       -2   -1    0    0    0  501  0.00000000000E+00  0.00000000000E+00 -0.69411607183E+03  0.69411607184E+03  0.25500000920E-02 0. -1.
    10030    2    1    2    0    0  0.00000000000E+00  0.00000000000E+00  0.60335757813E+03  0.19915897218E+04  0.18979961151E+04 0.  0.
        4    1    3    3  502    0 -0.22822413590E+02 -0.33067338638E+03 -0.63140071801E+03  0.71311586059E+03  0.12699999809E+01 0. -1.
       -4    1    3    3    0  502  0.22822413590E+02  0.33067338638E+03  0.12347582961E+04  0.12784738612E+04  0.12699999809E+01 0.  1.
</event>
<event>
 5   0  0.2888776E-05  0.1909476E+04  0.7818609E-02  0.8650154E-01
       -2   -1    0    0    0  501  0.00000000000E+00  0.00000000000E+00  0.73890659057E+03  0.73890659057E+03  0.25500000920E-02 0. -1.
        2   -1    0    0  501    0  0.00000000000E+00  0.00000000000E+00 -0.12336127017E+04  0.12336127017E+04  0.25500000920E-02 0.  1.
    10030    2    1    2    0    0  0.00000000000E+00  0.00000000000E+00 -0.49470611108E+03  0.19725192922E+04  0.19094759024E+04 0.  0.
        3    1    3    3  502    0 -0.53553935427E+02 -0.65574801523E+03 -0.96204122138E+03  0.11655028122E+04  0.10100000352E+00 0.  1.
       -3    1    3    3    0  502  0.53553935427E+02  0.65574801523E+03  0.46733511030E+03  0.80701648000E+03  0.10100000352E+00 0. -1.
</event>
<event>
 5   0  0.1010725E-05  0.1900396E+04  0.7818609E-02  0.8654659E-01
       -4   -1    0    0    0  501  0.00000000000E+00  0.00000000000E+00  0.11231533444E+04  0.11231540624E+04  0.12699999809E+01 0. -1.
        4   -1    0    0  501    0  0.00000000000E+00  0.00000000000E+00 -0.80387470791E+03  0.80387571111E+03  0.12699999809E+01 0.  1.
    10030    2    1    2    0    0  0.00000000000E+00  0.00000000000E+00  0.31927863647E+03  0.19270297735E+04  0.19003959851E+04 0.  0.
        4    1    3    3  502    0  0.48166642227E+03 -0.61534300298E+02  0.98783908407E+03  0.11007346099E+04  0.12699999809E+01 0. -1.
       -4    1    3    3    0  502 -0.48166642227E+03  0.61534300298E+02 -0.66856044760E+03  0.82629516364E+03  0.12699999809E+01 0.  1.
</event>
<event>
 5   0  0.2888776E-05  0.1898481E+04  0.7818609E-02  0.8655613E-01
        2   -1    0    0  501    0  0.00000000000E+00  0.00000000000E+00  0.17870588712E+04  0.17870588712E+04  0.25500000920E-02 0.  1.
       -2   -1    0    0    0  501  0.00000000000E+00  0.00000000000E+00 -0.50421256396E+03  0.50421256397E+03  0.25500000920E-02 0. -1.
    10030    2    1    2    0    0  0.00000000000E+00  0.00000000000E+00  0.12828463073E+04  0.22912714352E+04  0.18984810091E+04 0.  0.
        3    1    3    3  502    0 -0.61340195412E+03  0.72362587572E+03  0.60029716998E+03  0.11226099357E+04  0.10100000352E+00 0. -1.
       -3    1    3    3    0  502  0.61340195412E+03 -0.72362587572E+03  0.68254913730E+03  0.11686614995E+04  0.10100000352E+00 0.  1.
</event>
<event>
 5   0  0.1429067E-05  0.1902001E+04  0.7818609E-02  0.8653861E-01
        1   -1    0    0  501    0  0.00000000000E+00  0.00000000000E+00  0.73491210751E+03  0.73491210752E+03  0.50400001928E-02 0.  1.
       -1   -1    0    0    0  501  0.00000000000E+00  0.00000000000E+00 -0.12306255991E+04  0.12306255991E+04  0.50400001928E-02 0. -1.
    10030    2    1    2    0    0  0.00000000000E+00  0.00000000000E+00 -0.49571349154E+03  0.19655377066E+04  0.19020006862E+04 0.  0.
        3    1    3    3  502    0  0.49830173995E+03 -0.67165812238E+03  0.22000591634E+03  0.86477272784E+03  0.10100000352E+00 0.  1.
       -3    1    3    3    0  502 -0.49830173995E+03  0.67165812238E+03 -0.71571940788E+03  0.11007649787E+04  0.10100000352E+00 0. -1.
</event>
<event>
 5   0  0.1429067E-05  0.1926577E+04  0.7818609E-02  0.8641739E-01
        1   -1    0    0  501    0  0.00000000000E+00  0.00000000000E+00  0.13202194617E+04  0.13202194617E+04  0.50400001928E-02 0. -1.
       -1   -1    0    0    0  501  0.00000000000E+00  0.00000000000E+00 -0.70285639366E+03  0.70285639368E+03  0.50400001928E-02 0.  1.
    10030    2    1    2    0    0  0.00000000000E+00  0.00000000000E+00  0.61736306800E+03  0.20230758554E+04  0.19265769538E+04 0.  0.
        3    1    3    3  502    0 -0.38108686311E+03 -0.44119297105E+03  0.11139330415E+04  0.12572689713E+04  0.10100000352E+00 0. -1.
       -3    1    3    3    0  502  0.38108686311E+03  0.44119297105E+03 -0.49656997350E+03  0.76580688409E+03  0.10100000352E+00 0.  1.
</event>
<event>
 5   0  0.2879462E-05  0.1916911E+04  0.7818609E-02  0.8646484E-01
        2   -1    0    0  501    0  0.00000000000E+00  0.00000000000E+00  0.18280765486E+04  0.18280765486E+04  0.25500000920E-02 0. -1.
       -2   -1    0    0    0  501  0.00000000000E+00  0.00000000000E+00 -0.50251583643E+03  0.50251583643E+03  0.25500000920E-02 0.  1.
    10030    2    1    2    0    0  0.00000000000E+00  0.00000000000E+00  0.13255607122E+04  0.23305923851E+04  0.19169114908E+04 0.  0.
        4    1    3    3  502    0 -0.36455085553E+03  0.19048824209E+03 -0.38975423703E+03  0.56665075207E+03  0.12699999809E+01 0.  1.
       -4    1    3    3    0  502  0.36455085553E+03 -0.19048824209E+03  0.17153149492E+04  0.17639416330E+04  0.12699999809E+01 0. -1.
</event>
<event>
 5   0  0.1327254E-05  0.1900591E+04  0.7818609E-02  0.8654562E-01
        1   -1    0    0  501    0  0.00000000000E+00  0.00000000000E+00  0.19453110632E+04  0.19453110632E+04  0.50400001928E-02 0. -1.
       -1   -1    0    0    0  501  0.00000000000E+00  0.00000000000E+00 -0.46422468072E+03  0.46422468075E+03  0.50400001928E-02 0.  1.
    10030    2    1    2    0    0  0.00000000000E+00  0.00000000000E+00  0.14810863825E+04  0.24095357439E+04  0.19005908631E+04 0.  0.
        5    1    3    3  502    0  0.58288879291E+03  0.87208534201E+02 -0.20450733003E+03  0.62386698211E+03  0.46999998093E+01 0.  1.
       -5    1    3    3    0  502 -0.58288879291E+03 -0.87208534201E+02  0.16855937125E+04  0.17856687618E+04  0.46999998093E+01 0. -1.
</event>
<event>
 5   0  0.1327254E-05  0.1897533E+04  0.7818609E-02  0.8656085E-01
        1   -1    0    0  501    0  0.00000000000E+00  0.00000000000E+00  0.10055656465E+04  0.10055656466E+04  0.50400001928E-02 0. -1.
       -1   -1    0    0    0  501  0.00000000000E+00  0.00000000000E+00 -0.89517533673E+03  0.89517533674E+03  0.50400001928E-02 0.  1.
    10030    2    1    2    0    0  0.00000000000E+00  0.00000000000E+00  0.11039030982E+03  0.19007409833E+04  0.18975326783E+04 0.  0.
        5    1    3    3  502    0 -0.43128735800E+03  0.53132202094E+03  0.71343908436E+03  0.98859966224E+03  0.46999998093E+01 0. -1.
       -5    1    3    3    0  502  0.43128735800E+03 -0.53132202094E+03 -0.60304877454E+03  0.91214132105E+03  0.46999998093E+01 0.  1.
</event>
<event>
 5   0  0.1010725E-05  0.1904357E+04  0.7818609E-02  0.8652691E-01
        3   -1    0    0  501    0  0.00000000000E+00  0.00000000000E+00  0.18216520844E+04  0.18216520872E+04  0.10100000352E+00 0. -1.
       -3   -1    0    0    0  501  0.00000000000E+00  0.00000000000E+00 -0.49770405517E+03  0.49770406542E+03  0.10100000352E+00 0.  1.
    10030    2    1    2    0    0  0.00000000000E+00  0.00000000000E+00  0.13239480293E+04  0.23193561527E+04  0.19043567362E+04 0.  0.
        5    1    3    3  502    0 -0.89082022341E+03 -0.45104457682E+02  0.10677930426E+04  0.13913299948E+04  0.46999998093E+01 0. -1.
       -5    1    3    3    0  502  0.89082022341E+03  0.45104457682E+02  0.25615498668E+03  0.92802615789E+03  0.46999998093E+01 0.  1.
</event>
<event>
 5   0  0.1429067E-05  0.1905778E+04  0.7818609E-02  0.8651986E-01
        1   -1    0    0  501    0  0.00000000000E+00  0.00000000000E+00  0.88095940275E+03  0.88095940276E+03  0.50400001928E-02 0. -1.
       -1   -1    0    0    0  501  0.00000000000E+00  0.00000000000E+00 -0.10306911631E+04  0.10306911631E+04  0.50400001928E-02 0.  1.
    10030    2    1    2    0    0  0.00000000000E+00  0.00000000000E+00 -0.14973176034E+03  0.19116505659E+04  0.19057776066E+04 0.  0.
        3    1    3    3  502    0  0.79300221768E+03 -0.35933749745E+03 -0.46338506869E+03  0.98625639993E+03  0.10100000352E+00 0. -1.
       -3    1    3    3    0  502 -0.79300221768E+03  0.35933749745E+03  0.31365330835E+03  0.92539416594E+03  0.10100000352E+00 0.  1.
</event>
<event>
 5   0  0.2855141E-05  0.1915038E+04  0.7818609E-02  0.8647407E-01
        2   -1    0    0  501    0  0.00000000000E+00  0.00000000000E+00  0.25933054651E+04  0.25933054651E+04  0.25500000920E-02 0.  1.
       -2   -1    0    0    0  501  0.00000000000E+00  0.00000000000E+00 -0.35354223138E+03  0.35354223139E+03  0.25500000920E-02 0. -1.
    10030    2    1    2    0    0  0.00000000000E+00  0.00000000000E+00  0.22397632337E+04  0.29468476964E+04  0.19150383816E+04 0.  0.
        1    1    3    3  502    0 -0.57353942409E+03  0.33851459875E+03  0.61237426996E+02  0.66879714939E+03  0.50400001928E-02 0. -1.
       -1    1    3    3    0  502  0.57353942409E+03 -0.33851459875E+03  0.21785258067E+04  0.22780505471E+04  0.50400001928E-02 0.  1.
</event>
<event>
 5   0  0.1344119E-05  0.1900141E+04  0.7818609E-02  0.8654786E-01
       -1   -1    0    0    0  501  0.00000000000E+00  0.00000000000E+00  0.51709374287E+03  0.51709374289E+03  0.50400001928E-02 0. -1.
        1   -1    0    0  501    0  0.00000000000E+00  0.00000000000E+00 -0.17455905839E+04  0.17455905839E+04  0.50400001928E-02 0.  1.
    10030    2    1    2    0    0  0.00000000000E+00  0.00000000000E+00 -0.12284968410E+04  0.22626843268E+04  0.19001410143E+04 0.  0.
        2    1    3    3  502    0 -0.24550992594E+03 -0.72386715768E+03 -0.12861532150E+04  0.14961446715E+04  0.25500000920E-02 0. -1.
       -2    1    3    3    0  502  0.24550992594E+03  0.72386715768E+03  0.57656373918E+02  0.76653965531E+03  0.25500000920E-02 0.  1.
</event>
<event>
 5   0  0.1429067E-05  0.1900435E+04  0.7818609E-02  0.8654640E-01
       -1   -1    0    0    0  501  0.00000000000E+00  0.00000000000E+00  0.43866801095E+03  0.43866801098E+03  0.50400001928E-02 0.  1.
        1   -1    0    0  501    0  0.00000000000E+00  0.00000000000E+00 -0.20583076857E+04  0.20583076857E+04  0.50400001928E-02 0. -1.
    10030    2    1    2    0    0  0.00000000000E+00  0.00000000000E+00 -0.16196396747E+04  0.24969756966E+04  0.19004354642E+04 0.  0.
        3    1    3    3  502    0  0.87378852031E+03 -0.36017413615E+03 -0.93910313456E+03  0.13323462366E+04  0.10100000352E+00 0. -1.
       -3    1    3    3    0  502 -0.87378852031E+03  0.36017413615E+03 -0.68053654014E+03  0.11646294601E+04  0.10100000352E+00 0.  1.
</event>
<event>
 5   0  0.1344119E-05  0.1897342E+04  0.7818609E-02  0.8656181E-01
        1   -1    0    0  501    0  0.00000000000E+00  0.00000000000E+00  0.13026409632E+04  0.13026409632E+04  0.50400001928E-02 0.  1.
       -1   -1    0    0    0  501  0.00000000000E+00  0.00000000000E+00 -0.69088612707E+03  0.69088612709E+03  0.50400001928E-02 0. -1.
    10030    2    1    2    0    0  0.00000000000E+00  0.00000000000E+00  0.61175483611E+03  0.19935270903E+04  0.18973418986E+04 0.  0.
        2    1    3    3  502    0  0.58941400381E+03 -0.69404351827E+03  0.58558982768E+03  0.10825990576E+04  0.25500000920E-02 0.  1.
       -2    1    3    3    0  502 -0.58941400381E+03  0.69404351827E+03  0.26165008432E+02  0.91092803273E+03  0.25500000920E-02 0. -1.
</event>
<event>
 5   0  0.1429067E-05  0.1900069E+04  0.7818609E-02  0.8654822E-01
       -1   -1    0    0    0  501  0.00000000000E+00  0.00000000000E+00  0.67473774398E+03  0.67473774400E+03  0.50400001928E-02 0.  1.
        1   -1    0    0  501    0  0.00000000000E+00  0.00000000000E+00 -0.13376542381E+04  0.13376542381E+04  0.50400001928E-02 0. -1.
    10030    2    1    2    0    0  0.00000000000E+00  0.00000000000E+00 -0.66291649415E+03  0.20123919821E+04  0.19000692649E+04 0.  0.
        3    1    3    3  502    0  0.31637746336E+03  0.36937293410E+03 -0.11958121212E+04  0.12909290078E+04  0.10100000352E+00 0. -1.
       -3    1    3    3    0  502 -0.31637746336E+03 -0.36937293410E+03  0.53289562706E+03  0.72146297432E+03  0.10100000352E+00 0.  1.
</event>
<event>
 5   0  0.2789718E-05  0.1902079E+04  0.7818609E-02  0.8653822E-01
        2   -1    0    0  501    0  0.00000000000E+00  0.00000000000E+00  0.17951137860E+04  0.17951137860E+04  0.25500000920E-02 0. -1.
       -2   -1    0    0    0  501  0.00000000000E+00  0.00000000000E+00 -0.50385456530E+03  0.50385456531E+03  0.25500000920E-02 0.  1.
    10030    2    1    2    0    0  0.00000000000E+00  0.00000000000E+00  0.12912592207E+04  0.22989683513E+04  0.19020791532E+04 0.  0.
        5    1    3    3  502    0  0.89523220169E+03  0.31632676089E+03  0.57997283160E+03  0.11126067994E+04  0.46999998093E+01 0.  1.
       -5    1    3    3    0  502 -0.89523220169E+03 -0.31632676089E+03  0.71128638905E+03  0.11863615519E+04  0.46999998093E+01 0. -1.
</event>
<event>
 5   0  0.2855141E-05  0.1900447E+04  0.7818609E-02  0.8654634E-01
        2   -1    0    0  501    0  0.00000000000E+00  0.00000000000E+00  0.96114049608E+03  0.96114049609E+03  0.25500000920E-02 0.  1.
       -2   -1    0    0    0  501  0.00000000000E+00  0.00000000000E+00 -0.93943046837E+03  0.93943046837E+03  0.25500000920E-02 0. -1.
    10030    2    1    2    0    0  0.00000000000E+00  0.00000000000E+00  0.21710027712E+02  0.19005709645E+04  0.19004469647E+04 0.  0.
        1    1    3    3  502    0 -0.43614054426E+03  0.49410810164E+03  0.69541649631E+03  0.95810515802E+03  0.50400001928E-02 0.  1.
       -1    1    3    3    0  502  0.43614054426E+03 -0.49410810164E+03 -0.67370646860E+03  0.94246580644E+03  0.50400001928E-02 0. -1.
</event>
<event>
 5   0  0.1413011E-05  0.1903094E+04  0.7818609E-02  0.8653318E-01
        1   -1    0    0  501    0  0.00000000000E+00  0.00000000000E+00  0.13550810515E+04  0.13550810516E+04  0.50400001928E-02 0.  1.
       -1   -1    0    0    0  501  0.00000000000E+00  0.00000000000E+00 -0.66818267465E+03  0.66818267466E+03  0.50400001928E-02 0. -1.
    10030    2    1    2    0    0  0.00000000000E+00  0.00000000000E+00  0.68689837690E+03  0.20232637262E+04  0.19030939876E+04 0.  0.
        1    1    3    3  502    0 -0.66713100785E+03  0.46443725458E+03 -0.18243230506E+03  0.83309500721E+03  0.50400001928E-02 0. -1.
       -1    1    3    3    0  502  0.66713100785E+03 -0.46443725458E+03  0.86933068197E+03  0.11901687190E+04  0.50400001928E-02 0.  1.
</event>
<event>
 5   0  0.2813537E-05  0.1897268E+04  0.7818609E-02  0.8656217E-01
        2   -1    0    0  501    0  0.00000000000E+00  0.00000000000E+00  0.10399456584E+04  0.10399456584E+04  0.25500000920E-02 0. -1.
       -2   -1    0    0    0  501  0.00000000000E+00  0.00000000000E+00 -0.86534001556E+03  0.86534001557E+03  0.25500000920E-02 0.  1.
    10030    2    1    2    0    0  0.00000000000E+00  0.00000000000E+00  0.17460564287E+03  0.19052856740E+04  0.18972681331E+04 0.  0.
        2    1    3    3  502    0  0.56379782685E+02 -0.46746936730E+03 -0.73970645200E+03  0.87685342242E+03  0.25500000920E-02 0.  1.
       -2    1    3    3    0  502 -0.56379782685E+02  0.46746936730E+03  0.91431209488E+03  0.10284322516E+04  0.25500000920E-02 0. -1.
</event>
<event>
 5   0  0.2789718E-05  0.1900842E+04  0.7818609E-02  0.8654437E-01
       -2   -1    0    0    0  501  0.00000000000E+00  0.00000000000E+00  0.89741289521E+03  0.89741289522E+03  0.25500000920E-02 0. -1.
        2   -1    0    0  501    0  0.00000000000E+00  0.00000000000E+00 -0.10065601727E+04  0.10065601727E+04  0.25500000920E-02 0.  1.
    10030    2    1    2    0    0  0.00000000000E+00  0.00000000000E+00 -0.10914727744E+03  0.19039730679E+04  0.19008420016E+04 0.  0.
        5    1    3    3  502    0 -0.39266531869E+03 -0.67333193918E+03 -0.59926717182E+03  0.98321166899E+03  0.46999998093E+01 0.  1.
       -5    1    3    3    0  502  0.39266531869E+03  0.67333193918E+03  0.49011989438E+03  0.92076139889E+03  0.46999998093E+01 0. -1.
</event>
<event>
 5   0  0.1344119E-05  0.1898864E+04  0.7818609E-02  0.8655422E-01
        1   -1    0    0  501    0  0.00000000000E+00  0.00000000000E+00  0.44157419770E+03  0.44157419773E+03  0.50400001928E-02 0.  1.
       -1   -1    0    0    0  501  0.00000000000E+00  0.00000000000E+00 -0.20413804396E+04  0.20413804396E+04  0.50400001928E-02 0. -1.
    10030    2    1    2    0    0  0.00000000000E+00  0.00000000000E+00 -0.15998062419E+04  0.24829546373E+04  0.18988637970E+04 0.  0.
        2    1    3    3  502    0 -0.31686136412E+03 -0.89083447604E+03 -0.68716294315E+03  0.11688370709E+04  0.25500000920E-02 0.  1.
       -2    1    3    3    0  502  0.31686136412E+03  0.89083447604E+03 -0.91264329874E+03  0.13141175665E+04  0.25500000920E-02 0. -1.
</event>
<event>
 5   0  0.2813537E-05  0.1899465E+04  0.7818609E-02  0.8655123E-01
       -2   -1    0    0    0  501  0.00000000000E+00  0.00000000000E+00  0.81279855917E+03  0.81279855917E+03  0.25500000920E-02 0.  1.
        2   -1    0    0  501    0  0.00000000000E+00  0.00000000000E+00 -0.11097354365E+04  0.11097354365E+04  0.25500000920E-02 0. -1.
    10030    2    1    2    0    0  0.00000000000E+00  0.00000000000E+00 -0.29693687729E+03  0.19225339956E+04  0.18994645180E+04 0.  0.
        2    1    3    3  502    0 -0.30106174483E+03 -0.65156199862E+03  0.48103395827E+03  0.86403986092E+03  0.25500000920E-02 0.  1.
       -2    1    3    3    0  502  0.30106174483E+03  0.65156199862E+03 -0.77797083556E+03  0.10584941347E+04  0.25500000920E-02 0. -1.
</event>
<event>
 5   0  0.2888776E-05  0.1899324E+04  0.7818609E-02  0.8655193E-01
        2   -1    0    0  501    0  0.00000000000E+00  0.00000000000E+00  0.19700179422E+04  0.19700179422E+04  0.25500000920E-02 0. -1.
       -2   -1    0    0    0  501  0.00000000000E+00  0.00000000000E+00 -0.45779161032E+03  0.45779161032E+03  0.25500000920E-02 0.  1.
    10030    2    1    2    0    0  0.00000000000E+00  0.00000000000E+00  0.15122263319E+04  0.24278095526E+04  0.18993237598E+04 0.  0.
        3    1    3    3  502    0 -0.78853079554E+02  0.43568037288E+03 -0.31778563634E+03  0.54499808838E+03  0.10100000352E+00 0.  1.
       -3    1    3    3    0  502  0.78853079554E+02 -0.43568037288E+03  0.18300119683E+04  0.18828114642E+04  0.10100000352E+00 0. -1.
</event>
<event>
 5   0  0.1010725E-05  0.1901985E+04  0.7818609E-02  0.8653869E-01
       -3   -1    0    0    0  501  0.00000000000E+00  0.00000000000E+00  0.13526512903E+04  0.13526512941E+04  0.10100000352E+00 0. -1.
        3   -1    0    0  501    0  0.00000000000E+00  0.00000000000E+00 -0.66860319429E+03  0.66860320192E+03  0.10100000352E+00 0.  1.
    10030    2    1    2    0    0  0.00000000000E+00  0.00000000000E+00  0.68404809602E+03  0.20212544960E+04  0.19019852628E+04 0.  0.
        3    1    3    3  502    0 -0.93151426540E+03 -0.16919913153E+03  0.24673641728E+03  0.97837929382E+03  0.10100000352E+00 0.  1.
       -3    1    3    3    0  502  0.93151426540E+03  0.16919913153E+03  0.43731167873E+03  0.10428752022E+04  0.10100000352E+00 0. -1.
</event>
<event>
 5   0  0.1327254E-05  0.1901025E+04  0.7818609E-02  0.8654346E-01
       -1   -1    0    0    0  501  0.00000000000E+00  0.00000000000E+00  0.10314315615E+04  0.10314315615E+04  0.50400001928E-02 0. -1.
        1   -1    0    0  501    0  0.00000000000E+00  0.00000000000E+00 -0.87594149705E+03  0.87594149706E+03  0.50400001928E-02 0.  1.
    10030    2    1    2    0    0  0.00000000000E+00  0.00000000000E+00  0.15549006445E+03  0.19073730586E+04  0.19010246775E+04 0.  0.
        5    1    3    3  502    0 -0.51750296232E+03  0.78899495222E+03  0.19271068357E+03  0.96305859023E+03  0.46999998093E+01 0. -1.
       -5    1    3    3    0  502  0.51750296232E+03 -0.78899495222E+03 -0.37220619115E+02  0.94431446835E+03  0.46999998093E+01 0.  1.
</event>
<event>
 5   0  0.2855141E-05  0.1896264E+04  0.7818609E-02  0.8656718E-01
        2   -1    0    0  501    0  0.00000000000E+00  0.00000000000E+00  0.90478276786E+03  0.90478276786E+03  0.25500000920E-02 0.  1.
       -2   -1    0    0    0  501  0.00000000000E+00  0.00000000000E+00 -0.99355774185E+03  0.99355774185E+03  0.25500000920E-02 0. -1.
    10030    2    1    2    0    0  0.00000000000E+00  0.00000000000E+00 -0.88774973990E+02  0.18983405097E+04  0.18962636143E+04 0.  0.
        1    1    3    3  502    0 -0.23731016886E+03  0.90988348885E+03 -0.16596944116E+03  0.95485597602E+03  0.50400001928E-02 0.  1.
       -1    1    3    3    0  502  0.23731016886E+03 -0.90988348885E+03  0.77194467170E+02  0.94348453369E+03  0.50400001928E-02 0. -1.
</event>
<event>
 5   0  0.1471485E-05  0.1900381E+04  0.7818609E-02  0.8654667E-01
       -1   -1    0    0    0  501  0.00000000000E+00  0.00000000000E+00  0.42387990059E+03  0.42387990062E+03  0.50400001928E-02 0. -1.
        1   -1    0    0  501    0  0.00000000000E+00  0.00000000000E+00 -0.21299945305E+04  0.21299945305E+04  0.50400001928E-02 0.  1.
    10030    2    1    2    0    0  0.00000000000E+00  0.00000000000E+00 -0.17061146299E+04  0.25538744312E+04  0.19003808775E+04 0.  0.
        4    1    3    3  502    0 -0.56279388110E+03  0.49548043448E+03 -0.68733289811E+02  0.75296991413E+03  0.12699999809E+01 0. -1.
       -4    1    3    3    0  502  0.56279388110E+03 -0.49548043448E+03 -0.16373813401E+04  0.18009045170E+04  0.12699999809E+01 0.  1.
</event>
<event>
 5   0  0.1344119E-05  0.1892750E+04  0.7818609E-02  0.8658474E-01
       -1   -1    0    0    0  501  0.00000000000E+00  0.00000000000E+00  0.79219513539E+03  0.79219513541E+03  0.50400001928E-02 0.  1.
        1   -1    0    0  501    0  0.00000000000E+00  0.00000000000E+00 -0.11305615964E+04  0.11305615964E+04  0.50400001928E-02 0. -1.
    10030    2    1    2    0    0  0.00000000000E+00  0.00000000000E+00 -0.33836646100E+03  0.19227567318E+04  0.18927497425E+04 0.  0.
        2    1    3    3  502    0  0.81041251863E+03 -0.15596536148E+03  0.30133552011E+03  0.87857654192E+03  0.25500000920E-02 0.  1.
       -2    1    3    3    0  502 -0.81041251863E+03  0.15596536148E+03 -0.63970198111E+03  0.10441801899E+04  0.25500000920E-02 0. -1.
</event>
<event>
 5   0  0.2879462E-05  0.1898882E+04  0.7818609E-02  0.8655413E-01
        2   -1    0    0  501    0  0.00000000000E+00  0.00000000000E+00  0.13816012279E+04  0.13816012279E+04  0.25500000920E-02 0. -1.
       -2   -1    0    0    0  501  0.00000000000E+00  0.00000000000E+00 -0.65245903397E+03  0.65245903398E+03  0.25500000920E-02 0.  1.
    10030    2    1    2    0    0  0.00000000000E+00  0.00000000000E+00  0.72914219390E+03  0.20340602618E+04  0.18988819895E+04 0.  0.
        4    1    3    3  502    0  0.86501197887E+02  0.26537228007E+03  0.13366600251E+04  0.13654913182E+04  0.12699999809E+01 0. -1.
       -4    1    3    3    0  502 -0.86501197887E+02 -0.26537228007E+03 -0.60751783125E+03  0.66856894368E+03  0.12699999809E+01 0.  1.
</event>
<event>
 5   0  0.2813537E-05  0.1896423E+04  0.7818609E-02  0.8656639E-01
        2   -1    0    0  501    0  0.00000000000E+00  0.00000000000E+00  0.11461340086E+04  0.11461340086E+04  0.25500000920E-02 0.  1.
       -2   -1    0    0    0  501  0.00000000000E+00  0.00000000000E+00 -0.78446793468E+03  0.78446793469E+03  0.25500000920E-02 0. -1.
    10030    2    1    2    0    0  0.00000000000E+00  0.00000000000E+00  0.36166607390E+03  0.19306019433E+04  0.18964233479E+04 0.  0.
        2    1    3    3  502    0 -0.28961524051E+03  0.17808706569E+03 -0.72028287048E+03  0.79649193593E+03  0.25500000920E-02 0. -1.
       -2    1    3    3    0  502  0.28961524051E+03 -0.17808706569E+03  0.10819489444E+04  0.11341100073E+04  0.25500000920E-02 0.  1.
</event>
<event>
 5   0  0.2789718E-05  0.1902881E+04  0.7818609E-02  0.8653424E-01
        2   -1    0    0  501    0  0.00000000000E+00  0.00000000000E+00  0.11839274696E+04  0.11839274696E+04  0.25500000920E-02 0.  1.
       -2   -1    0    0    0  501  0.00000000000E+00  0.00000000000E+00 -0.76460688701E+03  0.76460688701E+03  0.25500000920E-02 0. -1.
    10030    2    1    2    0    0  0.00000000000E+00  0.00000000000E+00  0.41932058259E+03  0.19485343566E+04  0.19028810756E+04 0.  0.
        5    1    3    3  502    0 -0.32265259699E+03  0.58608061814E+03 -0.48304703606E+03  0.82519798736E+03  0.46999998093E+01 0.  1.
       -5    1    3    3    0  502  0.32265259699E+03 -0.58608061814E+03  0.90236761865E+03  0.11233363693E+04  0.46999998093E+01 0. -1.
</event>
<event>
 5   0  0.1344119E-05  0.1901884E+04  0.7818609E-02  0.8653919E-01
        1   -1    0    0  501    0  0.00000000000E+00  0.00000000000E+00  0.17292013035E+04  0.17292013035E+04  0.50400001928E-02 0.  1.
       -1   -1    0    0    0  501  0.00000000000E+00  0.00000000000E+00 -0.52295256237E+03  0.52295256239E+03  0.50400001928E-02 0. -1.
    10030    2    1    2    0    0  0.00000000000E+00  0.00000000000E+00  0.12062487411E+04  0.22521538659E+04  0.19018835427E+04 0.  0.
        2    1    3    3  502    0 -0.46764503200E+03  0.40366441750E+03  0.14592175432E+04  0.15845985852E+04  0.25500000920E-02 0.  1.
       -2    1    3    3    0  502  0.46764503200E+03 -0.40366441750E+03 -0.25296880208E+03  0.66755528066E+03  0.25500000920E-02 0. -1.
</event>
<event>
 5   0  0.2879462E-05  0.1901441E+04  0.7818609E-02  0.8654139E-01
       -2   -1    0    0    0  501  0.00000000000E+00  0.00000000000E+00  0.60138618699E+03  0.60138618700E+03  0.25500000920E-02 0.  1.
        2   -1    0    0  501    0  0.00000000000E+00  0.00000000000E+00 -0.15029767237E+04  0.15029767237E+04  0.25500000920E-02 0. -1.
    10030    2    1    2    0    0  0.00000000000E+00  0.00000000000E+00 -0.90159053674E+03  0.21043629107E+04  0.19014409705E+04 0.  0.
        4    1    3    3  502    0  0.41273606740E+03 -0.73990712070E+03  0.26577403422E+02  0.84765652234E+03  0.12699999809E+01 0. -1.
       -4    1    3    3    0  502 -0.41273606740E+03  0.73990712070E+03 -0.92816794016E+03  0.12567063884E+04  0.12699999809E+01 0.  1.
</event>
<event>
 5   0  0.2888776E-05  0.1883129E+04  0.7818609E-02  0.8663300E-01
       -2   -1    0    0    0  501  0.00000000000E+00  0.00000000000E+00  0.67332716925E+03  0.67332716925E+03  0.25500000920E-02 0. -1.
        2   -1    0    0  501    0  0.00000000000E+00  0.00000000000E+00 -0.13166606529E+04  0.13166606529E+04  0.25500000920E-02 0.  1.
    10030    2    1    2    0    0  0.00000000000E+00  0.00000000000E+00 -0.64333348363E+03  0.19899878221E+04  0.18831286629E+04 0.  0.
        3    1    3    3  502    0  0.12334608474E+03  0.93241605671E+03 -0.27524901328E+03  0.97998774939E+03  0.10100000352E+00 0.  1.
       -3    1    3    3    0  502 -0.12334608474E+03 -0.93241605671E+03 -0.36808447035E+03  0.10100000728E+04  0.10100000352E+00 0. -1.
</event>
<event>
 5   0  0.1327254E-05  0.1901864E+04  0.7818609E-02  0.8653929E-01
       -1   -1    0    0    0  501  0.00000000000E+00  0.00000000000E+00  0.49389161799E+03  0.49389161802E+03  0.50400001928E-02 0. -1.
        1   -1    0    0  501    0  0.00000000000E+00  0.00000000000E+00 -0.18309116545E+04  0.18309116545E+04  0.50400001928E-02 0.  1.
    10030    2    1    2    0    0  0.00000000000E+00  0.00000000000E+00 -0.13370200365E+04  0.23248032725E+04  0.19018642638E+04 0.  0.
        5    1    3    3  502    0 -0.31493414938E+03 -0.45995390072E+02 -0.17638555482E+04  0.17923469472E+04  0.46999998093E+01 0.  1.
       -5    1    3    3    0  502  0.31493414938E+03  0.45995390072E+02  0.42683551166E+03  0.53245632532E+03  0.46999998093E+01 0. -1.
</event>
<event>
 5   0  0.2888776E-05  0.1900053E+04  0.7818609E-02  0.8654830E-01
       -2   -1    0    0    0  501  0.00000000000E+00  0.00000000000E+00  0.31833776882E+03  0.31833776883E+03  0.25500000920E-02 0. -1.
        2   -1    0    0  501    0  0.00000000000E+00  0.00000000000E+00 -0.28351963052E+04  0.28351963052E+04  0.25500000920E-02 0.  1.
    10030    2    1    2    0    0  0.00000000000E+00  0.00000000000E+00 -0.25168585364E+04  0.31535340741E+04  0.19000527003E+04 0.  0.
        3    1    3    3  502    0 -0.82415447784E+03  0.42644825035E+03 -0.92047840528E+03  0.13070459894E+04  0.10100000352E+00 0. -1.
       -3    1    3    3    0  502  0.82415447784E+03 -0.42644825035E+03 -0.15963801311E+04  0.18464880847E+04  0.10100000352E+00 0.  1.
</event>
<event>
 5   0  0.1344119E-05  0.1899699E+04  0.7818609E-02  0.8655006E-01
        1   -1    0    0  501    0  0.00000000000E+00  0.00000000000E+00  0.63023215617E+03  0.63023215619E+03  0.50400001928E-02 0.  1.
       -1   -1    0    0    0  501  0.00000000000E+00  0.00000000000E+00 -0.14315577471E+04  0.14315577471E+04  0.50400001928E-02 0. -1.
    10030    2    1    2    0    0  0.00000000000E+00  0.00000000000E+00 -0.80132559090E+03  0.20617899033E+04  0.18996986347E+04 0.  0.
        2    1    3    3  502    0  0.37338474558E+03  0.60822066439E+03 -0.10809330284E+04  0.12952855889E+04  0.25500000920E-02 0. -1.
       -2    1    3    3    0  502 -0.37338474558E+03 -0.60822066439E+03  0.27960743753E+03  0.76650431438E+03  0.25500000920E-02 0.  1.
</event>
<event>
 5   0  0.1413011E-05  0.1897692E+04  0.7818609E-02  0.8656006E-01
       -1   -1    0    0    0  501  0.00000000000E+00  0.00000000000E+00  0.86567356729E+03  0.86567356730E+03  0.50400001928E-02 0.  1.
        1   -1    0    0  501    0  0.00000000000E+00  0.00000000000E+00 -0.10400098210E+04  0.10400098210E+04  0.50400001928E-02 0. -1.
    10030    2    1    2    0    0  0.00000000000E+00  0.00000000000E+00 -0.17433625372E+03  0.19056833883E+04  0.18976922952E+04 0.  0.
        1    1    3    3  502    0  0.17102756311E+03  0.54236310929E+03 -0.84990640209E+03  0.10226187276E+04  0.50400001928E-02 0. -1.
       -1    1    3    3    0  502 -0.17102756311E+03 -0.54236310929E+03  0.67557014837E+03  0.88306466075E+03  0.50400001928E-02 0.  1.
</event>
<event>
 5   0  0.2879462E-05  0.1901311E+04  0.7818609E-02  0.8654204E-01
        2   -1    0    0  501    0  0.00000000000E+00  0.00000000000E+00  0.21058486322E+04  0.21058486322E+04  0.25500000920E-02 0.  1.
       -2   -1    0    0    0  501  0.00000000000E+00  0.00000000000E+00 -0.42916009375E+03  0.42916009376E+03  0.25500000920E-02 0. -1.
    10030    2    1    2    0    0  0.00000000000E+00  0.00000000000E+00  0.16766885385E+04  0.25350087260E+04  0.19013113332E+04 0.  0.
        4    1    3    3  502    0  0.27129191550E+02  0.17459624254E+02  0.21051174070E+04  0.21053649901E+04  0.12699999809E+01 0.  1.
       -4    1    3    3    0  502 -0.27129191550E+02 -0.17459624254E+02 -0.42842886850E+03  0.42964373588E+03  0.12699999809E+01 0. -1.
</event>
<event>
 5   0  0.2879462E-05  0.1899536E+04  0.7818609E-02  0.8655087E-01
       -2   -1    0    0    0  501  0.00000000000E+00  0.00000000000E+00  0.65023249885E+03  0.65023249885E+03  0.25500000920E-02 0.  1.
        2   -1    0    0  501    0  0.00000000000E+00  0.00000000000E+00 -0.13872872354E+04  0.13872872354E+04  0.25500000920E-02 0. -1.
    10030    2    1    2    0    0  0.00000000000E+00  0.00000000000E+00 -0.73705473650E+03  0.20375197342E+04  0.18995359914E+04 0.  0.
        4    1    3    3  502    0 -0.12654216509E+03  0.93151975693E+03 -0.51369357617E+03  0.10712724584E+04  0.12699999809E+01 0. -1.
       -4    1    3    3    0  502  0.12654216509E+03 -0.93151975693E+03 -0.22336116033E+03  0.96624727578E+03  0.12699999809E+01 0.  1.
</event>
<event>
 5   0  0.2879462E-05  0.1888533E+04  0.7818609E-02  0.8660585E-01
       -2   -1    0    0    0  501  0.00000000000E+00  0.00000000000E+00  0.86756802796E+03  0.86756802796E+03  0.25500000920E-02 0. -1.
        2   -1    0    0  501    0  0.00000000000E+00  0.00000000000E+00 -0.10277460482E+04  0.10277460482E+04  0.25500000920E-02 0.  1.
    10030    2    1    2    0    0  0.00000000000E+00  0.00000000000E+00 -0.16017802022E+03  0.18953140761E+04  0.18885334122E+04 0.  0.
        4    1    3    3  502    0 -0.66772215812E+03  0.28554513148E+03 -0.68578647645E+03  0.99884613767E+03  0.12699999809E+01 0.  1.
       -4    1    3    3    0  502  0.66772215812E+03 -0.28554513148E+03  0.52560845623E+03  0.89646793848E+03  0.12699999809E+01 0. -1.
</event>
<event>
 5   0  0.1429067E-05  0.1900688E+04  0.7818609E-02  0.8654514E-01
        1   -1    0    0  501    0  0.00000000000E+00  0.00000000000E+00  0.93646635582E+03  0.93646635583E+03  0.50400001928E-02 0. -1.
       -1   -1    0    0    0  501  0.00000000000E+00  0.00000000000E+00 -0.96442704836E+03  0.96442704838E+03  0.50400001928E-02 0.  1.
    10030    2    1    2    0    0  0.00000000000E+00  0.00000000000E+00 -0.27960692547E+02  0.19008934042E+04  0.19006877528E+04 0.  0.
        3    1    3    3  502    0 -0.12218516630E+03  0.75517634844E+03  0.54993608772E+03  0.94215192134E+03  0.10100000352E+00 0. -1.
       -3    1    3    3    0  502  0.12218516630E+03 -0.75517634844E+03 -0.57789678027E+03  0.95874148286E+03  0.10100000352E+00 0.  1.
</event>
<event>
 5   0  0.2789718E-05  0.1897502E+04  0.7818609E-02  0.8656101E-01
       -2   -1    0    0    0  501  0.00000000000E+00  0.00000000000E+00  0.94645330722E+03  0.94645330722E+03  0.25500000920E-02 0. -1.
        2   -1    0    0  501    0  0.00000000000E+00  0.00000000000E+00 -0.95105405890E+03  0.95105405890E+03  0.25500000920E-02 0.  1.
    10030    2    1    2    0    0  0.00000000000E+00  0.00000000000E+00 -0.46007516748E+01  0.18975073661E+04  0.18975017886E+04 0.  0.
        5    1    3    3  502    0  0.91128140928E+03  0.11404450110E+02  0.26140914208E+03  0.94811428528E+03  0.46999998093E+01 0.  1.
       -5    1    3    3    0  502 -0.91128140928E+03 -0.11404450110E+02 -0.26600989376E+03  0.94939308085E+03  0.46999998093E+01 0. -1.
</event>
<event>
 5   0  0.2888776E-05  0.1900319E+04  0.7818609E-02  0.8654697E-01
       -2   -1    0    0    0  501  0.00000000000E+00  0.00000000000E+00  0.95795355735E+03  0.95795355736E+03  0.25500000920E-02 0. -1.
        2   -1    0    0  501    0  0.00000000000E+00  0.00000000000E+00 -0.94242921861E+03  0.94242921861E+03  0.25500000920E-02 0.  1.
    10030    2    1    2    0    0  0.00000000000E+00  0.00000000000E+00  0.15524338743E+02  0.19003827760E+04  0.19003193653E+04 0.  0.
        3    1    3    3  502    0  0.21798010162E+03  0.55558922509E+03 -0.73159240060E+03  0.94415155699E+03  0.10100000352E+00 0.  1.
       -3    1    3    3    0  502 -0.21798010162E+03 -0.55558922509E+03  0.74711673935E+03  0.95623121898E+03  0.10100000352E+00 0. -1.
</event>
<event>
 5   0  0.1344119E-05  0.1878566E+04  0.7818609E-02  0.8665599E-01
       -1   -1    0    0    0  501  0.00000000000E+00  0.00000000000E+00  0.65680297813E+03  0.65680297815E+03  0.50400001928E-02 0. -1.
        1   -1    0    0  501    0  0.00000000000E+00  0.00000000000E+00 -0.13432536238E+04  0.13432536238E+04  0.50400001928E-02 0.  1.
    10030    2    1    2    0    0  0.00000000000E+00  0.00000000000E+00 -0.68645064571E+03  0.20000566020E+04  0.18785664540E+04 0.  0.
        2    1    3    3  502    0  0.29190630588E+03  0.22215423273E+03  0.57738714920E+03  0.68405973028E+03  0.25500000920E-02 0. -1.
       -2    1    3    3    0  502 -0.29190630588E+03 -0.22215423273E+03 -0.12638377949E+04  0.13159968717E+04  0.25500000920E-02 0.  1.
</event>
<event>
 5   0  0.1413011E-05  0.1900251E+04  0.7818609E-02  0.8654731E-01
        1   -1    0    0  501    0  0.00000000000E+00  0.00000000000E+00  0.11788999597E+04  0.11788999597E+04  0.50400001928E-02 0. -1.
       -1   -1    0    0    0  501  0.00000000000E+00  0.00000000000E+00 -0.76574680942E+03  0.76574680943E+03  0.50400001928E-02 0.  1.
    10030    2    1    2    0    0  0.00000000000E+00  0.00000000000E+00  0.41315315028E+03  0.19446467691E+04  0.19002514389E+04 0.  0.
        1    1    3    3  502    0 -0.39809685305E+03 -0.53377612383E+03 -0.48700441408E+03  0.82496748672E+03  0.50400001928E-02 0.  1.
       -1    1    3    3    0  502  0.39809685305E+03  0.53377612383E+03  0.90015756436E+03  0.11196792824E+04  0.50400001928E-02 0. -1.
</event>
<event>
 5   0  0.1344119E-05  0.1902999E+04  0.7818609E-02  0.8653365E-01
        1   -1    0    0  501    0  0.00000000000E+00  0.00000000000E+00  0.93770202674E+03  0.93770202675E+03  0.50400001928E-02 0. -1.
       -1   -1    0    0    0  501  0.00000000000E+00  0.00000000000E+00 -0.96549956372E+03  0.96549956374E+03  0.50400001928E-02 0.  1.
    10030    2    1    2    0    0  0.00000000000E+00  0.00000000000E+00 -0.27797536985E+02  0.19032015905E+04  0.19029985788E+04 0.  0.
        2    1    3    3  502    0  0.26898338385E+03  0.86431455386E+03 -0.30711802118E+03  0.95588345929E+03  0.25500000920E-02 0.  1.
       -2    1    3    3    0  502 -0.26898338385E+03 -0.86431455386E+03  0.27932048420E+03  0.94731813120E+03  0.25500000920E-02 0. -1.
</event>
<event>
 5   0  0.2888776E-05  0.1899340E+04  0.7818609E-02  0.8655185E-01
       -2   -1    0    0    0  501  0.00000000000E+00  0.00000000000E+00  0.80052067847E+03  0.80052067847E+03  0.25500000920E-02 0.  1.
        2   -1    0    0  501    0  0.00000000000E+00  0.00000000000E+00 -0.11266077951E+04  0.11266077951E+04  0.25500000920E-02 0. -1.
    10030    2    1    2    0    0  0.00000000000E+00  0.00000000000E+00 -0.32608711661E+03  0.19271284736E+04  0.18993397132E+04 0.  0.
        3    1    3    3  502    0  0.93402187100E+03  0.19767734064E+02  0.99954837929E+01  0.93428450630E+03  0.10100000352E+00 0. -1.
       -3    1    3    3    0  502 -0.93402187100E+03 -0.19767734064E+02 -0.33608260041E+03  0.99284396726E+03  0.10100000352E+00 0.  1.
</event>
<event>
 5   0  0.1344119E-05  0.1900551E+04  0.7818609E-02  0.8654582E-01
        1   -1    0    0  501    0  0.00000000000E+00  0.00000000000E+00  0.17201770189E+04  0.17201770189E+04  0.50400001928E-02 0. -1.
       -1   -1    0    0    0  501  0.00000000000E+00  0.00000000000E+00 -0.52495967615E+03  0.52495967618E+03  0.50400001928E-02 0.  1.
    10030    2    1    2    0    0  0.00000000000E+00  0.00000000000E+00  0.11952173427E+04  0.22451366951E+04  0.19005510473E+04 0.  0.
        2    1    3    3  502    0 -0.55155879399E+03  0.77302426472E+03  0.63920605236E+03  0.11447130621E+04  0.25500000920E-02 0.  1.
       -2    1    3    3    0  502  0.55155879399E+03 -0.77302426472E+03  0.55601129037E+03  0.11004236330E+04  0.25500000920E-02 0. -1.
</event>
<event>
 5   0  0.2879462E-05  0.1898094E+04  0.7818609E-02  0.8655806E-01
       -2   -1    0    0    0  501  0.00000000000E+00  0.00000000000E+00  0.55938217997E+03  0.55938217997E+03  0.25500000920E-02 0. -1.
        2   -1    0    0  501    0  0.00000000000E+00  0.00000000000E+00 -0.16101515922E+04  0.16101515922E+04  0.25500000920E-02 0.  1.
    10030    2    1    2    0    0  0.00000000000E+00  0.00000000000E+00 -0.10507694122E+04  0.21695337721E+04  0.18980938941E+04 0.  0.
        4    1    3    3  502    0 -0.86998675177E+03  0.27367228609E+03 -0.82544303498E+03  0.12300940148E+04  0.12699999809E+01 0.  1.
       -4    1    3    3    0  502  0.86998675177E+03 -0.27367228609E+03 -0.22532637721E+03  0.93943975730E+03  0.12699999809E+01 0. -1.
</event>
<event>
 5   0  0.1429067E-05  0.1900531E+04  0.7818609E-02  0.8654592E-01
        1   -1    0    0  501    0  0.00000000000E+00  0.00000000000E+00  0.83131889405E+03  0.83131889407E+03  0.50400001928E-02 0. -1.
       -1   -1    0    0    0  501  0.00000000000E+00  0.00000000000E+00 -0.10862309377E+04  0.10862309377E+04  0.50400001928E-02 0.  1.
    10030    2    1    2    0    0  0.00000000000E+00  0.00000000000E+00 -0.25491204360E+03  0.19175498317E+04  0.19005307699E+04 0.  0.
        3    1    3    3  502    0  0.19533952952E+03  0.83002505237E+03  0.29571026274E+03  0.90252074161E+03  0.10100000352E+00 0.  1.
       -3    1    3    3    0  502 -0.19533952952E+03 -0.83002505237E+03 -0.55062230634E+03  0.10150290901E+04  0.10100000352E+00 0. -1.
</event>
<event>
 5   0  0.1413011E-05  0.1922130E+04  0.7818609E-02  0.8643919E-01
        1   -1    0    0  501    0  0.00000000000E+00  0.00000000000E+00  0.12533509901E+04  0.12533509901E+04  0.50400001928E-02 0. -1.
       -1   -1    0    0    0  501  0.00000000000E+00  0.00000000000E+00 -0.73694100854E+03  0.73694100856E+03  0.50400001928E-02 0.  1.
    10030    2    1    2    0    0  0.00000000000E+00  0.00000000000E+00  0.51640998151E+03  0.19902919986E+04  0.19221298007E+04 0.  0.
        1    1    3    3  502    0  0.13310946337E+03 -0.20513477196E+03  0.12205982774E+04  0.12448528261E+04  0.50400001928E-02 0. -1.
       -1    1    3    3    0  502 -0.13310946337E+03  0.20513477196E+03 -0.70418829585E+03  0.74543917253E+03  0.50400001928E-02 0.  1.
</event>
<event>
 5   0  0.2879462E-05  0.1893987E+04  0.7818609E-02  0.8657855E-01
       -2   -1    0    0    0  501  0.00000000000E+00  0.00000000000E+00  0.14270967248E+04  0.14270967248E+04  0.25500000920E-02 0.  1.
        2   -1    0    0  501    0  0.00000000000E+00  0.00000000000E+00 -0.62840631511E+03  0.62840631512E+03  0.25500000920E-02 0. -1.
    10030    2    1    2    0    0  0.00000000000E+00  0.00000000000E+00  0.79869040964E+03  0.20555030399E+04  0.18939868998E+04 0.  0.
        4    1    3    3  502    0 -0.27953784640E+03 -0.51554224001E+03 -0.40761585020E+03  0.71419710377E+03  0.12699999809E+01 0. -1.
       -4    1    3    3    0  502  0.27953784640E+03  0.51554224001E+03  0.12063062598E+04  0.13413059361E+04  0.12699999809E+01 0.  1.
</event>
<event>
 5   0  0.2789718E-05  0.1900915E+04  0.7818609E-02  0.8654401E-01
        2   -1    0    0  501    0  0.00000000000E+00  0.00000000000E+00  0.14749546535E+04  0.14749546535E+04  0.25500000920E-02 0.  1.
       -2   -1    0    0    0  501  0.00000000000E+00  0.00000000000E+00 -0.61247269919E+03  0.61247269920E+03  0.25500000920E-02 0. -1.
    10030    2    1    2    0    0  0.00000000000E+00  0.00000000000E+00  0.86248195427E+03  0.20874273527E+04  0.19009149984E+04 0.  0.
        5    1    3    3  502    0  0.78270746310E+03  0.50192106574E+03  0.21496029228E+03  0.95435095551E+03  0.46999998093E+01 0. -1.
       -5    1    3    3    0  502 -0.78270746310E+03 -0.50192106574E+03  0.64752166199E+03  0.11330763971E+04  0.46999998093E+01 0.  1.
</event>
<event>
 5   0  0.1344119E-05  0.1899611E+04  0.7818609E-02  0.8655050E-01
        1   -1    0    0  501    0  0.00000000000E+00  0.00000000000E+00  0.18084983512E+04  0.18084983512E+04  0.50400001928E-02 0.  1.
       -1   -1    0    0    0  501  0.00000000000E+00  0.00000000000E+00 -0.49882872835E+03  0.49882872838E+03  0.50400001928E-02 0. -1.
    10030    2    1    2    0    0  0.00000000000E+00  0.00000000000E+00  0.13096696229E+04  0.23073270796E+04  0.18996114685E+04 0.  0.
        2    1    3    3  502    0 -0.93662059914E+03 -0.15631985552E+03  0.68022289087E+03  0.11680741523E+04  0.25500000920E-02 0.  1.
       -2    1    3    3    0  502  0.93662059914E+03  0.15631985552E+03  0.62944673200E+03  0.11392529273E+04  0.25500000920E-02 0. -1.
</event>
<event>
 5   0  0.1344119E-05  0.1898904E+04  0.7818609E-02  0.8655402E-01
        1   -1    0    0  501    0  0.00000000000E+00  0.00000000000E+00  0.11154171621E+04  0.11154171621E+04  0.50400001928E-02 0.  1.
       -1   -1    0    0    0  501  0.00000000000E+00  0.00000000000E+00 -0.80818115769E+03  0.80818115771E+03  0.50400001928E-02 0. -1.
    10030    2    1    2    0    0  0.00000000000E+00  0.00000000000E+00  0.30723600437E+03  0.19235983198E+04  0.18989040348E+04 0.  0.
        2    1    3    3  502    0  0.24369822712E+02 -0.93149835326E+03  0.33812965331E+03  0.99126925345E+03  0.25500000920E-02 0.  1.
       -2    1    3    3    0  502 -0.24369822712E+02  0.93149835326E+03 -0.30893648943E+02  0.93232906633E+03  0.25500000920E-02 0. -1.
</event>
<event>
 5   0  0.1413011E-05  0.1899566E+04  0.7818609E-02  0.8655072E-01
       -1   -1    0    0    0  501  0.00000000000E+00  0.00000000000E+00  0.11670285510E+04  0.11670285510E+04  0.50400001928E-02 0.  1.
        1   -1    0    0  501    0  0.00000000000E+00  0.00000000000E+00 -0.77297859242E+03  0.77297859244E+03  0.50400001928E-02 0. -1.
    10030    2    1    2    0    0  0.00000000000E+00  0.00000000000E+00  0.39404995855E+03  0.19400071434E+04  0.18995663575E+04 0.  0.
        1    1    3    3  502    0 -0.40017831854E+03  0.24292541394E+03 -0.64696598219E+03  0.79857399501E+03  0.50400001928E-02 0. -1.
       -1    1    3    3    0  502  0.40017831854E+03 -0.24292541394E+03  0.10410159407E+04  0.11414331484E+04  0.50400001928E-02 0.  1.
</event>
<event>
 5   0  0.1327254E-05  0.1901385E+04  0.7818609E-02  0.8654167E-01
       -1   -1    0    0    0  501  0.00000000000E+00  0.00000000000E+00  0.12091733846E+04  0.12091733846E+04  0.50400001928E-02 0.  1.
        1   -1    0    0  501    0  0.00000000000E+00  0.00000000000E+00 -0.74746626183E+03  0.74746626185E+03  0.50400001928E-02 0. -1.
    10030    2    1    2    0    0  0.00000000000E+00  0.00000000000E+00  0.46170712275E+03  0.19566396464E+04  0.19013850843E+04 0.  0.
        5    1    3    3  502    0 -0.72913403220E+03 -0.31169541817E+03  0.77050094245E+03  0.11056601028E+04  0.46999998093E+01 0.  1.
       -5    1    3    3    0  502  0.72913403220E+03  0.31169541817E+03 -0.30879381970E+03  0.85097954364E+03  0.46999998093E+01 0. -1.
</event>
<event>
 5   0  0.1429067E-05  0.1900482E+04  0.7818609E-02  0.8654616E-01
       -1   -1    0    0    0  501  0.00000000000E+00  0.00000000000E+00  0.97394037467E+03  0.97394037468E+03  0.50400001928E-02 0. -1.
        1   -1    0    0  501    0  0.00000000000E+00  0.00000000000E+00 -0.92711842907E+03  0.92711842909E+03  0.50400001928E-02 0.  1.
    10030    2    1    2    0    0  0.00000000000E+00  0.00000000000E+00  0.46821945598E+02  0.19010588038E+04  0.19004821180E+04 0.  0.
        3    1    3    3  502    0  0.53792899988E+03 -0.73097978978E+03  0.30502614695E+03  0.95746541583E+03  0.10100000352E+00 0. -1.
       -3    1    3    3    0  502 -0.53792899988E+03  0.73097978978E+03 -0.25820420135E+03  0.94359338795E+03  0.10100000352E+00 0.  1.
</event>
<event>
 5   0  0.2855141E-05  0.1900901E+04  0.7818609E-02  0.8654408E-01
       -2   -1    0    0    0  501  0.00000000000E+00  0.00000000000E+00  0.67884249543E+03  0.67884249543E+03  0.25500000920E-02 0.  1.
        2   -1    0    0  501    0  0.00000000000E+00  0.00000000000E+00 -0.13307295787E+04  0.13307295787E+04  0.25500000920E-02 0. -1.
    10030    2    1    2    0    0  0.00000000000E+00  0.00000000000E+00 -0.65188708327E+03  0.20095720741E+04  0.19009006160E+04 0.  0.
        1    1    3    3  502    0 -0.65857510336E+02 -0.28459455462E+03  0.63020933344E+03  0.69461865521E+03  0.50400001928E-02 0.  1.
       -1    1    3    3    0  502  0.65857510336E+02  0.28459455462E+03 -0.12820964167E+04  0.13149534189E+04  0.50400001928E-02 0. -1.
</event>
<event>
 5   0  0.1327254E-05  0.1899667E+04  0.7818609E-02  0.8655022E-01
       -1   -1    0    0    0  501  0.00000000000E+00  0.00000000000E+00  0.47087120808E+03  0.47087120811E+03  0.50400001928E-02 0.  1.
        1   -1    0    0  501    0  0.00000000000E+00  0.00000000000E+00 -0.19159890894E+04  0.19159890894E+04  0.50400001928E-02 0. -1.
    10030    2    1    2    0    0  0.00000000000E+00  0.00000000000E+00 -0.14451178813E+04  0.23868602975E+04  0.18996674417E+04 0.  0.
        5    1    3    3  502    0 -0.79156317500E+03 -0.29715956495E+03 -0.17880551142E+03  0.86421615813E+03  0.46999998093E+01 0.  1.
       -5    1    3    3    0  502  0.79156317500E+03  0.29715956495E+03 -0.12663123699E+04  0.15226441394E+04  0.46999998093E+01 0. -1.
</event>
<event>
 5   0  0.1413011E-05  0.1900088E+04  0.7818609E-02  0.8654812E-01
       -1   -1    0    0    0  501  0.00000000000E+00  0.00000000000E+00  0.98242444848E+03  0.98242444849E+03  0.50400001928E-02 0.  1.
        1   -1    0    0  501    0  0.00000000000E+00  0.00000000000E+00 -0.91873127422E+03  0.91873127424E+03  0.50400001928E-02 0. -1.
    10030    2    1    2    0    0  0.00000000000E+00  0.00000000000E+00  0.63693174257E+02  0.19011557227E+04  0.19000884878E+04 0.  0.
        1    1    3    3  502    0  0.85408720378E+03 -0.27997409339E+03 -0.27611456289E+03  0.94026044078E+03  0.50400001928E-02 0. -1.
       -1    1    3    3    0  502 -0.85408720378E+03  0.27997409339E+03  0.33980773714E+03  0.96089528195E+03  0.50400001928E-02 0.  1.
</event>
<event>
 5   0  0.1429067E-05  0.1904006E+04  0.7818609E-02  0.8652865E-01
       -1   -1    0    0    0  501  0.00000000000E+00  0.00000000000E+00  0.46483135419E+03  0.46483135422E+03  0.50400001928E-02 0. -1.
        1   -1    0    0  501    0  0.00000000000E+00  0.00000000000E+00 -0.19497595735E+04  0.19497595735E+04  0.50400001928E-02 0.  1.
    10030    2    1    2    0    0  0.00000000000E+00  0.00000000000E+00 -0.14849282193E+04  0.24145909277E+04  0.19040056543E+04 0.  0.
        3    1    3    3  502    0 -0.10829768600E+03 -0.77866633111E+03 -0.61589220534E+02  0.78857015306E+03  0.10100000352E+00 0. -1.
       -3    1    3    3    0  502  0.10829768600E+03  0.77866633111E+03 -0.14233389987E+04  0.16260207746E+04  0.10100000352E+00 0.  1.
</event>
<event>
 5   0  0.1471485E-05  0.1902352E+04  0.7818609E-02  0.8653687E-01
       -1   -1    0    0    0  501  0.00000000000E+00  0.00000000000E+00  0.36455502564E+03  0.36455502568E+03  0.50400001928E-02 0.  1.
        1   -1    0    0  501    0  0.00000000000E+00  0.00000000000E+00 -0.24817529311E+04  0.24817529311E+04  0.50400001928E-02 0. -1.
    10030    2    1    2    0    0  0.00000000000E+00  0.00000000000E+00 -0.21171979055E+04  0.28463079568E+04  0.19023517062E+04 0.  0.
        4    1    3    3  502    0  0.39284211686E+03 -0.83769687699E+03 -0.72850717675E+03  0.11776184891E+04  0.12699999809E+01 0.  1.
       -4    1    3    3    0  502 -0.39284211686E+03  0.83769687699E+03 -0.13886907287E+04  0.16686894676E+04  0.12699999809E+01 0. -1.
</event>
<event>
 5   0  0.1429067E-05  0.1900514E+04  0.7818609E-02  0.8654600E-01
        1   -1    0    0  501    0  0.00000000000E+00  0.00000000000E+00  0.15527756572E+04  0.15527756572E+04  0.50400001928E-02 0. -1.
       -1   -1    0    0    0  501  0.00000000000E+00  0.00000000000E+00 -0.58153191075E+03  0.58153191077E+03  0.50400001928E-02 0.  1.
    10030    2    1    2    0    0  0.00000000000E+00  0.00000000000E+00  0.97124374642E+03  0.21343075679E+04  0.19005142408E+04 0.  0.
        3    1    3    3  502    0 -0.13387066276E+03 -0.16591582511E+03 -0.55432908458E+03  0.59391090206E+03  0.10100000352E+00 0.  1.
       -3    1    3    3    0  502  0.13387066276E+03  0.16591582511E+03  0.15255728310E+04  0.15403966659E+04  0.10100000352E+00 0. -1.
</event>
<event>
 5   0  0.2855141E-05  0.1899789E+04  0.7818609E-02  0.8654962E-01
       -2   -1    0    0    0  501  0.00000000000E+00  0.00000000000E+00  0.41490925543E+03  0.41490925544E+03  0.25500000920E-02 0. -1.
        2   -1    0    0  501    0  0.00000000000E+00  0.00000000000E+00 -0.21746906184E+04  0.21746906184E+04  0.25500000920E-02 0.  1.
    10030    2    1    2    0    0  0.00000000000E+00  0.00000000000E+00 -0.17597813630E+04  0.25895998739E+04  0.18997886886E+04 0.  0.
        1    1    3    3  502    0  0.28662027092E+03  0.28510331214E+02  0.35394744658E+03  0.45633629447E+03  0.50400001928E-02 0. -1.
       -1    1    3    3    0  502 -0.28662027092E+03 -0.28510331214E+02 -0.21137288096E+04  0.21332635794E+04  0.50400001928E-02 0.  1.
</event>
<event>
 5   0  0.2789718E-05  0.1901362E+04  0.7818609E-02  0.8654179E-01
       -2   -1    0    0    0  501  0.00000000000E+00  0.00000000000E+00  0.84209569008E+03  0.84209569009E+03  0.25500000920E-02 0.  1.
        2   -1    0    0  501    0  0.00000000000E+00  0.00000000000E+00 -0.10732677678E+04  0.10732677678E+04  0.25500000920E-02 0. -1.
    10030    2    1    2    0    0  0.00000000000E+00  0.00000000000E+00 -0.23117207771E+03  0.19153634579E+04  0.19013617873E+04 0.  0.
        5    1    3    3  502    0  0.88646808281E+03 -0.24061591709E+03 -0.36244241704E+03  0.98747570961E+03  0.46999998093E+01 0.  1.
       -5    1    3    3    0  502 -0.88646808281E+03  0.24061591709E+03  0.13127033933E+03  0.92788774827E+03  0.46999998093E+01 0. -1.
</event>
<event>
 5   0  0.1429067E-05  0.1897015E+04  0.7818609E-02  0.8656344E-01
        1   -1    0    0  501    0  0.00000000000E+00  0.00000000000E+00  0.11819492141E+04  0.11819492141E+04  0.50400001928E-02 0.  1.
       -1   -1    0    0    0  501  0.00000000000E+00  0.00000000000E+00 -0.76117148175E+03  0.76117148176E+03  0.50400001928E-02 0. -1.
    10030    2    1    2    0    0  0.00000000000E+00  0.00000000000E+00  0.42077773238E+03  0.19431206959E+04  0.18970145331E+04 0.  0.
        3    1    3    3  502    0  0.68518687812E+03 -0.58570454563E+03  0.51274989567E+03  0.10370358424E+04  0.10100000352E+00 0. -1.
       -3    1    3    3    0  502 -0.68518687812E+03  0.58570454563E+03 -0.91972163290E+02  0.90608485350E+03  0.10100000352E+00 0.  1.
</event>
<event>
 5   0  0.1010725E-05  0.1898882E+04  0.7818609E-02  0.8655413E-01
       -4   -1    0    0    0  501  0.00000000000E+00  0.00000000000E+00  0.23490335900E+04  0.23490339333E+04  0.12699999809E+01 0.  1.
        4   -1    0    0  501    0  0.00000000000E+00  0.00000000000E+00 -0.38374712681E+03  0.38374922831E+03  0.12699999809E+01 0. -1.
    10030    2    1    2    0    0  0.00000000000E+00  0.00000000000E+00  0.19652864632E+04  0.27327831616E+04  0.18988820200E+04 0.  0.
        5    1    3    3  502    0 -0.41997692659E+03  0.32211082346E+03 -0.15171682681E+03  0.55061428151E+03  0.46999998093E+01 0. -1.
       -5    1    3    3    0  502  0.41997692659E+03 -0.32211082346E+03  0.21170032900E+04  0.21821688801E+04  0.46999998093E+01 0.  1.
</event>
<event>
 5   0  0.1471485E-05  0.1901722E+04  0.7818609E-02  0.8654000E-01
        1   -1    0    0  501    0  0.00000000000E+00  0.00000000000E+00  0.16214344990E+04  0.16214344990E+04  0.50400001928E-02 0.  1.
       -1   -1    0    0    0  501  0.00000000000E+00  0.00000000000E+00 -0.55761506080E+03  0.55761506082E+03  0.50400001928E-02 0. -1.
    10030    2    1    2    0    0  0.00000000000E+00  0.00000000000E+00  0.10638194382E+04  0.21790495598E+04  0.19017216376E+04 0.  0.
        4    1    3    3  502    0  0.12117297321E+03 -0.10029287666E+03 -0.54260333252E+03  0.56494383784E+03  0.12699999809E+01 0. -1.
       -4    1    3    3    0  502 -0.12117297321E+03  0.10029287666E+03  0.16064227707E+04  0.16141057219E+04  0.12699999809E+01 0.  1.
</event>
<event>
 5   0  0.1344119E-05  0.1895498E+04  0.7818609E-02  0.8657100E-01
       -1   -1    0    0    0  501  0.00000000000E+00  0.00000000000E+00  0.71981239301E+03  0.71981239303E+03  0.50400001928E-02 0. -1.
        1   -1    0    0  501    0  0.00000000000E+00  0.00000000000E+00 -0.12478645904E+04  0.12478645904E+04  0.50400001928E-02 0.  1.
    10030    2    1    2    0    0  0.00000000000E+00  0.00000000000E+00 -0.52805219737E+03  0.19676769834E+04  0.18954982427E+04 0.  0.
        2    1    3    3  502    0  0.93422896239E+03 -0.65762810457E+02 -0.11316533473E+03  0.94335300625E+03  0.25500000920E-02 0. -1.
       -2    1    3    3    0  502 -0.93422896239E+03  0.65762810457E+02 -0.41488686265E+03  0.10243239772E+04  0.25500000920E-02 0.  1.
</event>
<event>
 5   0  0.1413011E-05  0.1902258E+04  0.7818609E-02  0.8653733E-01
       -1   -1    0    0    0  501  0.00000000000E+00  0.00000000000E+00  0.47765074226E+03  0.47765074229E+03  0.50400001928E-02 0.  1.
        1   -1    0    0  501    0  0.00000000000E+00  0.00000000000E+00 -0.18939491118E+04  0.18939491118E+04  0.50400001928E-02 0. -1.
    10030    2    1    2    0    0  0.00000000000E+00  0.00000000000E+00 -0.14162983695E+04  0.23715998541E+04  0.19022578154E+04 0.  0.
        1    1    3    3  502    0  0.42379324645E+03 -0.60031346500E+03  0.44723596229E+02  0.73619098886E+03  0.50400001928E-02 0.  1.
       -1    1    3    3    0  502 -0.42379324645E+03  0.60031346500E+03 -0.14610219657E+04  0.16354088652E+04  0.50400001928E-02 0. -1.
</event>
<event>
 5   0  0.1327254E-05  0.1892515E+04  0.7818609E-02  0.8658591E-01
        1   -1    0    0  501    0  0.00000000000E+00  0.00000000000E+00  0.19108917960E+04  0.19108917960E+04  0.50400001928E-02 0.  1.
       -1   -1    0    0    0  501  0.00000000000E+00  0.00000000000E+00 -0.46857892679E+03  0.46857892682E+03  0.50400001928E-02 0. -1.
    10030    2    1    2    0    0  0.00000000000E+00  0.00000000000E+00  0.14423128692E+04  0.23794707228E+04  0.18925153918E+04 0.  0.
        5    1    3    3  502    0 -0.84454348915E+03 -0.68079286973E+02  0.19145443495E+03  0.86865723104E+03  0.46999998093E+01 0. -1.
       -5    1    3    3    0  502  0.84454348915E+03  0.68079286973E+02  0.12508584342E+04  0.15108134918E+04  0.46999998093E+01 0.  1.
</event>
<event>
 5   0  0.2789718E-05  0.1908789E+04  0.7818609E-02  0.8650494E-01
       -2   -1    0    0    0  501  0.00000000000E+00  0.00000000000E+00  0.75836137655E+03  0.75836137655E+03  0.25500000920E-02 0. -1.
        2   -1    0    0  501    0  0.00000000000E+00  0.00000000000E+00 -0.12011014794E+04  0.12011014794E+04  0.25500000920E-02 0.  1.
    10030    2    1    2    0    0  0.00000000000E+00  0.00000000000E+00 -0.44274010288E+03  0.19594628560E+04  0.19087891149E+04 0.  0.
        5    1    3    3  502    0  0.16015129741E+03  0.94083028961E+03 -0.21514190810E+03  0.97832418069E+03  0.46999998093E+01 0.  1.
       -5    1    3    3    0  502 -0.16015129741E+03 -0.94083028961E+03 -0.22759819479E+03  0.98113867530E+03  0.46999998093E+01 0. -1.
</event>
<event>
 5   0  0.2879462E-05  0.1902837E+04  0.7818609E-02  0.8653446E-01
       -2   -1    0    0    0  501  0.00000000000E+00  0.00000000000E+00  0.52023117844E+03  0.52023117845E+03  0.25500000920E-02 0.  1.
        2   -1    0    0  501    0  0.00000000000E+00  0.00000000000E+00 -0.17399893477E+04  0.17399893477E+04  0.25500000920E-02 0. -1.
    10030    2    1    2    0    0  0.00000000000E+00  0.00000000000E+00 -0.12197581693E+04  0.22602205262E+04  0.19028365236E+04 0.  0.
        4    1    3    3  502    0 -0.81869939062E+03 -0.15427901795E+03 -0.64097927126E+02  0.83557217806E+03  0.12699999809E+01 0. -1.
       -4    1    3    3    0  502  0.81869939062E+03  0.15427901795E+03 -0.11556602422E+04  0.14246483481E+04  0.12699999809E+01 0.  1.
</event>
<event>
 5   0  0.1327254E-05  0.1903944E+04  0.7818609E-02  0.8652896E-01
       -1   -1    0    0    0  501  0.00000000000E+00  0.00000000000E+00  0.13610330043E+04  0.13610330043E+04  0.50400001928E-02 0.  1.
        1   -1    0    0  501    0  0.00000000000E+00  0.00000000000E+00 -0.66585493025E+03  0.66585493027E+03  0.50400001928E-02 0. -1.
    10030    2    1    2    0    0  0.00000000000E+00  0.00000000000E+00  0.69517807409E+03  0.20268879346E+04  0.19039438397E+04 0.  0.
        5    1    3    3  502    0 -0.67214879814E+03 -0.67248578315E+03  0.39760485191E+03  0.10305982940E+04  0.46999998093E+01 0. -1.
       -5    1    3    3    0  502  0.67214879814E+03  0.67248578315E+03  0.29757322218E+03  0.99628964059E+03  0.46999998093E+01 0.  1.
</event>
<event>
 5   0  0.1010725E-05  0.1898268E+04  0.7818609E-02  0.8655719E-01
       -3   -1    0    0    0  501  0.00000000000E+00  0.00000000000E+00  0.11139032895E+04  0.11139032941E+04  0.10100000352E+00 0.  1.
        3   -1    0    0  501    0  0.00000000000E+00  0.00000000000E+00 -0.80873754923E+03  0.80873755554E+03  0.10100000352E+00 0. -1.
    10030    2    1    2    0    0  0.00000000000E+00  0.00000000000E+00  0.30516574029E+03  0.19226408496E+04  0.18982680811E+04 0.  0.
        5    1    3    3  502    0  0.32604782952E+03 -0.43222764818E+03  0.94214656626E+03  0.10866416932E+04  0.46999998093E+01 0.  1.
       -5    1    3    3    0  502 -0.32604782952E+03  0.43222764818E+03 -0.63698082597E+03  0.83599915648E+03  0.46999998093E+01 0. -1.
</event>
<event>
 5   0  0.2888776E-05  0.1899838E+04  0.7818609E-02  0.8654937E-01
        2   -1    0    0  501    0  0.00000000000E+00  0.00000000000E+00  0.24126769242E+04  0.24126769242E+04  0.25500000920E-02 0.  1.
       -2   -1    0    0    0  501  0.00000000000E+00  0.00000000000E+00 -0.37400215583E+03  0.37400215584E+03  0.25500000920E-02 0. -1.
    10030    2    1    2    0    0  0.00000000000E+00  0.00000000000E+00  0.20386747684E+04  0.27866790801E+04  0.18998382784E+04 0.  0.
        3    1    3    3  502    0 -0.78743687564E+03 -0.33535712540E+03  0.41487219306E+03  0.95112574428E+03  0.10100000352E+00 0. -1.
       -3    1    3    3    0  502  0.78743687564E+03  0.33535712540E+03  0.16238025753E+04  0.18355533358E+04  0.10100000352E+00 0.  1.
</event>
<event>
 5   0  0.2879462E-05  0.1902967E+04  0.7818609E-02  0.8653381E-01
        2   -1    0    0  501    0  0.00000000000E+00  0.00000000000E+00  0.16159246574E+04  0.16159246574E+04  0.25500000920E-02 0.  1.
       -2   -1    0    0    0  501  0.00000000000E+00  0.00000000000E+00 -0.56024942909E+03  0.56024942910E+03  0.25500000920E-02 0. -1.
    10030    2    1    2    0    0  0.00000000000E+00  0.00000000000E+00  0.10556752283E+04  0.21761740865E+04  0.19029670168E+04 0.  0.
        4    1    3    3  502    0 -0.47553653422E+02  0.45426123546E+02 -0.55764635113E+03  0.56151219798E+03  0.12699999809E+01 0. -1.
       -4    1    3    3    0  502  0.47553653422E+02 -0.45426123546E+02  0.16133215794E+04  0.16146618885E+04  0.12699999809E+01 0.  1.
</event>
<event>
 5   0  0.2879462E-05  0.1898777E+04  0.7818609E-02  0.8655465E-01
        2   -1    0    0  501    0  0.00000000000E+00  0.00000000000E+00  0.10602289448E+04  0.10602289448E+04  0.25500000920E-02 0.  1.
       -2   -1    0    0    0  501  0.00000000000E+00  0.00000000000E+00 -0.85013582146E+03  0.85013582146E+03  0.25500000920E-02 0. -1.
    10030    2    1    2    0    0  0.00000000000E+00  0.00000000000E+00  0.21009312335E+03  0.19103647663E+04  0.18987770853E+04 0.  0.
        4    1    3    3  502    0  0.13162014645E+03 -0.33773440451E+03 -0.77777551460E+03  0.85809367493E+03  0.12699999809E+01 0. -1.
       -4    1    3    3    0  502 -0.13162014645E+03  0.33773440451E+03  0.98786863795E+03  0.10522710913E+04  0.12699999809E+01 0.  1.
</event>
<event>
 5   0  0.1413011E-05  0.1904514E+04  0.7818609E-02  0.8652613E-01
        1   -1    0    0  501    0  0.00000000000E+00  0.00000000000E+00  0.57836742988E+03  0.57836742991E+03  0.50400001928E-02 0. -1.
       -1   -1    0    0    0  501  0.00000000000E+00  0.00000000000E+00 -0.15678496354E+04  0.15678496354E+04  0.50400001928E-02 0.  1.
    10030    2    1    2    0    0  0.00000000000E+00  0.00000000000E+00 -0.98948220552E+03  0.21462170653E+04  0.19045137585E+04 0.  0.
        1    1    3    3  502    0 -0.23069578815E+03 -0.78761800972E+03 -0.10389707418E+04  0.13240177031E+04  0.50400001928E-02 0.  1.
       -1    1    3    3    0  502  0.23069578815E+03  0.78761800972E+03  0.49488536276E+02  0.82219936217E+03  0.50400001928E-02 0. -1.
</event>
<event>
 5   0  0.1327254E-05  0.1898959E+04  0.7818609E-02  0.8655375E-01
       -1   -1    0    0    0  501  0.00000000000E+00  0.00000000000E+00  0.53797871451E+03  0.53797871453E+03  0.50400001928E-02 0. -1.
        1   -1    0    0  501    0  0.00000000000E+00  0.00000000000E+00 -0.16757371530E+04  0.16757371530E+04  0.50400001928E-02 0.  1.
    10030    2    1    2    0    0  0.00000000000E+00  0.00000000000E+00 -0.11377584385E+04  0.22137158675E+04  0.18989585772E+04 0.  0.
        5    1    3    3  502    0 -0.26093002772E+02  0.80968950514E+03 -0.11461455972E+04  0.14035489872E+04  0.46999998093E+01 0.  1.
       -5    1    3    3    0  502  0.26093002772E+02 -0.80968950514E+03  0.83871587204E+01  0.81016688031E+03  0.46999998093E+01 0. -1.
</event>
<event>
 5   0  0.1429067E-05  0.1901089E+04  0.7818609E-02  0.8654315E-01
       -1   -1    0    0    0  501  0.00000000000E+00  0.00000000000E+00  0.67700942310E+03  0.67700942312E+03  0.50400001928E-02 0. -1.
        1   -1    0    0  501    0  0.00000000000E+00  0.00000000000E+00 -0.13345967392E+04  0.13345967392E+04  0.50400001928E-02 0.  1.
    10030    2    1    2    0    0  0.00000000000E+00  0.00000000000E+00 -0.65758731607E+03  0.20116061623E+04  0.19010887075E+04 0.  0.
        3    1    3    3  502    0  0.45310364668E+03 -0.65790955902E+03 -0.87389859591E+03  0.11839960594E+04  0.10100000352E+00 0.  1.
       -3    1    3    3    0  502 -0.45310364668E+03  0.65790955902E+03  0.21631127984E+03  0.82761010293E+03  0.10100000352E+00 0. -1.
</event>
<event>
 5   0  0.2855141E-05  0.1891166E+04  0.7818609E-02  0.8659266E-01
        2   -1    0    0  501    0  0.00000000000E+00  0.00000000000E+00  0.10667431721E+04  0.10667431721E+04  0.25500000920E-02 0. -1.
       -2   -1    0    0    0  501  0.00000000000E+00  0.00000000000E+00 -0.83818385568E+03  0.83818385568E+03  0.25500000920E-02 0.  1.
    10030    2    1    2    0    0  0.00000000000E+00  0.00000000000E+00  0.22855931645E+03  0.19049270278E+04  0.18911656776E+04 0.  0.
        1    1    3    3  502    0 -0.85741385857E+02  0.77530094374E+02 -0.83103990071E+03  0.83904101054E+03  0.50400001928E-02 0.  1.
       -1    1    3    3    0  502  0.85741385857E+02 -0.77530094374E+02  0.10595992172E+04  0.10658860173E+04  0.50400001928E-02 0. -1.
</event>
<event>
 5   0  0.1471485E-05  0.1898268E+04  0.7818609E-02  0.8655719E-01
        1   -1    0    0  501    0  0.00000000000E+00  0.00000000000E+00  0.89881876500E+03  0.89881876502E+03  0.50400001928E-02 0. -1.
       -1   -1    0    0    0  501  0.00000000000E+00  0.00000000000E+00 -0.10022654396E+04  0.10022654396E+04  0.50400001928E-02 0.  1.
    10030    2    1    2    0    0  0.00000000000E+00  0.00000000000E+00 -0.10344667460E+03  0.19010842046E+04  0.18982676151E+04 0.  0.
        4    1    3    3  502    0  0.35179825150E+03  0.24171857373E+03  0.79727474024E+03  0.90434423920E+03  0.12699999809E+01 0. -1.
       -4    1    3    3    0  502 -0.35179825150E+03 -0.24171857373E+03 -0.90072141484E+03  0.99673996543E+03  0.12699999809E+01 0.  1.
</event>
<event>
 5   0  0.2888776E-05  0.1904295E+04  0.7818609E-02  0.8652721E-01
       -2   -1    0    0    0  501  0.00000000000E+00  0.00000000000E+00  0.50733437002E+03  0.50733437003E+03  0.25500000920E-02 0.  1.
        2   -1    0    0  501    0  0.00000000000E+00  0.00000000000E+00 -0.17869581719E+04  0.17869581719E+04  0.25500000920E-02 0. -1.
    10030    2    1    2    0    0  0.00000000000E+00  0.00000000000E+00 -0.12796238018E+04  0.22942925419E+04  0.19042954586E+04 0.  0.
        3    1    3    3  502    0 -0.15479866454E+03 -0.32875395021E+03  0.42050911418E+03  0.55576048045E+03  0.10100000352E+00 0.  1.
       -3    1    3    3    0  502  0.15479866454E+03  0.32875395021E+03 -0.17001329160E+04  0.17385320614E+04  0.10100000352E+00 0. -1.
</event>
<event>
 5   0  0.1327254E-05  0.1893205E+04  0.7818609E-02  0.8658246E-01
       -1   -1    0    0    0  501  0.00000000000E+00  0.00000000000E+00  0.69058370493E+03  0.69058370495E+03  0.50400001928E-02 0. -1.
        1   -1    0    0  501    0  0.00000000000E+00  0.00000000000E+00 -0.12975346587E+04  0.12975346587E+04  0.50400001928E-02 0.  1.
    10030    2    1    2    0    0  0.00000000000E+00  0.00000000000E+00 -0.60695095381E+03  0.19881183637E+04  0.18932049989E+04 0.  0.
        5    1    3    3  502    0 -0.12600783167E+03 -0.71149653316E+03 -0.94562936578E+03  0.11901017930E+04  0.46999998093E+01 0.  1.
       -5    1    3    3    0  502  0.12600783167E+03  0.71149653316E+03  0.33867841196E+03  0.79801657067E+03  0.46999998093E+01 0. -1.
</event>
<event>
 5   0  0.2888776E-05  0.1908889E+04  0.7818609E-02  0.8650445E-01
        2   -1    0    0  501    0  0.00000000000E+00  0.00000000000E+00  0.13036910107E+04  0.13036910107E+04  0.25500000920E-02 0. -1.
       -2   -1    0    0    0  501  0.00000000000E+00  0.00000000000E+00 -0.69875749688E+03  0.69875749688E+03  0.25500000920E-02 0.  1.
    10030    2    1    2    0    0  0.00000000000E+00  0.00000000000E+00  0.60493351385E+03  0.20024485076E+04  0.19088885430E+04 0.  0.
        3    1    3    3  502    0  0.18268976709E+03  0.63286151084E+03 -0.42209255065E+03  0.78233712325E+03  0.10100000352E+00 0.  1.
       -3    1    3    3    0  502 -0.18268976709E+03 -0.63286151084E+03  0.10270260645E+04  0.12201113844E+04  0.10100000352E+00 0. -1.
</event>
<event>
 5   0  0.2855141E-05  0.1901826E+04  0.7818609E-02  0.8653948E-01
       -2   -1    0    0    0  501  0.00000000000E+00  0.00000000000E+00  0.61079286265E+03  0.61079286266E+03  0.25500000920E-02 0.  1.
        2   -1    0    0  501    0  0.00000000000E+00  0.00000000000E+00 -0.14804287420E+04  0.14804287420E+04  0.25500000920E-02 0. -1.
    10030    2    1    2    0    0  0.00000000000E+00  0.00000000000E+00 -0.86963587939E+03  0.20912216047E+04  0.19018257642E+04 0.  0.
        1    1    3    3  502    0  0.65127766284E+03 -0.81088424403E+02 -0.11914558928E+04  0.13602591927E+04  0.50400001928E-02 0. -1.
       -1    1    3    3    0  502 -0.65127766284E+03  0.81088424403E+02  0.32182001345E+03  0.73096241201E+03  0.50400001928E-02 0.  1.
</event>
<event>
 5   0  0.1327254E-05  0.1902463E+04  0.7818609E-02  0.8653631E-01
       -1   -1    0    0    0  501  0.00000000000E+00  0.00000000000E+00  0.10023796874E+04  0.10023796874E+04  0.50400001928E-02 0.  1.
        1   -1    0    0  501    0  0.00000000000E+00  0.00000000000E+00 -0.90269353018E+03  0.90269353019E+03  0.50400001928E-02 0. -1.
    10030    2    1    2    0    0  0.00000000000E+00  0.00000000000E+00  0.99686157216E+02  0.19050732176E+04  0.19024633070E+04 0.  0.
        5    1    3    3  502    0  0.32972412954E+03 -0.89181680938E+03  0.77527805673E+02  0.95398525866E+03  0.46999998093E+01 0.  1.
       -5    1    3    3    0  502 -0.32972412954E+03  0.89181680938E+03  0.22158351543E+02  0.95108795894E+03  0.46999998093E+01 0. -1.
</event>
<event>
 5   0  0.1344119E-05  0.1894026E+04  0.7818609E-02  0.8657836E-01
       -1   -1    0    0    0  501  0.00000000000E+00  0.00000000000E+00  0.84564001744E+03  0.84564001746E+03  0.50400001928E-02 0.  1.
        1   -1    0    0  501    0  0.00000000000E+00  0.00000000000E+00 -0.10605381472E+04  0.10605381472E+04  0.50400001928E-02 0. -1.
    10030    2    1    2    0    0  0.00000000000E+00  0.00000000000E+00 -0.21489812977E+03  0.19061781647E+04  0.18940258682E+04 0.  0.
        2    1    3    3  502    0 -0.65851125378E+03  0.57341021370E+03 -0.47640340065E+03  0.99468414318E+03  0.25500000920E-02 0. -1.
       -2    1    3    3    0  502  0.65851125378E+03 -0.57341021370E+03  0.26150527088E+03  0.91149402150E+03  0.25500000920E-02 0.  1.
</event>
<event>
 5   0  0.2813537E-05  0.1901094E+04  0.7818609E-02  0.8654312E-01
       -2   -1    0    0    0  501  0.00000000000E+00  0.00000000000E+00  0.96718670517E+03  0.96718670518E+03  0.25500000920E-02 0. -1.
        2   -1    0    0  501    0  0.00000000000E+00  0.00000000000E+00 -0.93419321689E+03  0.93419321689E+03  0.25500000920E-02 0.  1.
    10030    2    1    2    0    0  0.00000000000E+00  0.00000000000E+00  0.32993488285E+02  0.19013799221E+04  0.19010936426E+04 0.  0.
        2    1    3    3  502    0 -0.16126090818E+03  0.51407677242E+03  0.79972337950E+03  0.96428081603E+03  0.25500000920E-02 0.  1.
       -2    1    3    3    0  502  0.16126090818E+03 -0.51407677242E+03 -0.76672989122E+03  0.93709910604E+03  0.25500000920E-02 0. -1.
</event>
<event>
 5   0  0.2813537E-05  0.1898605E+04  0.7818609E-02  0.8655551E-01
       -2   -1    0    0    0  501  0.00000000000E+00  0.00000000000E+00  0.47179745291E+03  0.47179745292E+03  0.25500000920E-02 0. -1.
        2   -1    0    0  501    0  0.00000000000E+00  0.00000000000E+00 -0.19100885433E+04  0.19100885433E+04  0.25500000920E-02 0.  1.
    10030    2    1    2    0    0  0.00000000000E+00  0.00000000000E+00 -0.14382910904E+04  0.23818859963E+04  0.18986046556E+04 0.  0.
        2    1    3    3  502    0  0.48695040415E+03 -0.10015746584E+03  0.29542637691E+03  0.57829832980E+03  0.25500000920E-02 0. -1.
       -2    1    3    3    0  502 -0.48695040415E+03  0.10015746584E+03 -0.17337174673E+04  0.18035876665E+04  0.25500000920E-02 0.  1.
</event>
<event>
 5   0  0.1429067E-05  0.1899159E+04  0.7818609E-02  0.8655275E-01
        1   -1    0    0  501    0  0.00000000000E+00  0.00000000000E+00  0.23734697775E+04  0.23734697775E+04  0.50400001928E-02 0.  1.
       -1   -1    0    0    0  501  0.00000000000E+00  0.00000000000E+00 -0.37990839530E+03  0.37990839534E+03  0.50400001928E-02 0. -1.
    10030    2    1    2    0    0  0.00000000000E+00  0.00000000000E+00  0.19935613822E+04  0.27533781728E+04  0.18991588607E+04 0.  0.
        3    1    3    3  502    0 -0.28248192329E+03 -0.49057648196E+03  0.21020859327E+04  0.21769764814E+04  0.10100000352E+00 0.  1.
       -3    1    3    3    0  502  0.28248192329E+03  0.49057648196E+03 -0.10852455056E+03  0.57640169145E+03  0.10100000352E+00 0. -1.
</event>
<event>
 5   0  0.1344119E-05  0.1894973E+04  0.7818609E-02  0.8657363E-01
       -1   -1    0    0    0  501  0.00000000000E+00  0.00000000000E+00  0.81129618350E+03  0.81129618351E+03  0.50400001928E-02 0.  1.
        1   -1    0    0  501    0  0.00000000000E+00  0.00000000000E+00 -0.11065386373E+04  0.11065386373E+04  0.50400001928E-02 0. -1.
    10030    2    1    2    0    0  0.00000000000E+00  0.00000000000E+00 -0.29524245377E+03  0.19178348208E+04  0.18949729004E+04 0.  0.
        2    1    3    3  502    0  0.13319930606E+03 -0.83755287497E+03  0.27996099706E+03  0.89309295898E+03  0.25500000920E-02 0. -1.
       -2    1    3    3    0  502 -0.13319930606E+03  0.83755287497E+03 -0.57520345083E+03  0.10247418618E+04  0.25500000920E-02 0.  1.
</event>
<event>
 5   0  0.2855141E-05  0.1899062E+04  0.7818609E-02  0.8655324E-01
       -2   -1    0    0    0  501  0.00000000000E+00  0.00000000000E+00  0.48130694365E+03  0.48130694366E+03  0.25500000920E-02 0.  1.
        2   -1    0    0  501    0  0.00000000000E+00  0.00000000000E+00 -0.18732509096E+04  0.18732509096E+04  0.25500000920E-02 0. -1.
    10030    2    1    2    0    0  0.00000000000E+00  0.00000000000E+00 -0.13919439659E+04  0.23545578533E+04  0.18990615261E+04 0.  0.
        1    1    3    3  502    0  0.31500256009E+03  0.85218765028E+03 -0.10381316808E+04  0.13795534752E+04  0.50400001928E-02 0. -1.
       -1    1    3    3    0  502 -0.31500256009E+03 -0.85218765028E+03 -0.35381228515E+03  0.97500437809E+03  0.50400001928E-02 0.  1.
</event>
<event>
 5   0  0.1471485E-05  0.1899545E+04  0.7818609E-02  0.8655083E-01
        1   -1    0    0  501    0  0.00000000000E+00  0.00000000000E+00  0.92918024532E+03  0.92918024533E+03  0.50400001928E-02 0.  1.
       -1   -1    0    0    0  501  0.00000000000E+00  0.00000000000E+00 -0.97082114013E+03  0.97082114014E+03  0.50400001928E-02 0. -1.
    10030    2    1    2    0    0  0.00000000000E+00  0.00000000000E+00 -0.41640894811E+02  0.19000013855E+04  0.18995450246E+04 0.  0.
        4    1    3    3  502    0  0.28858552247E+03  0.80111936270E+03 -0.44162613812E+03  0.95922317312E+03  0.12699999809E+01 0. -1.
       -4    1    3    3    0  502 -0.28858552247E+03 -0.80111936270E+03  0.39998524331E+03  0.94077821235E+03  0.12699999809E+01 0.  1.
</event>
<event>
 5   0  0.2855141E-05  0.1903850E+04  0.7818609E-02  0.8652942E-01
       -2   -1    0    0    0  501  0.00000000000E+00  0.00000000000E+00  0.12300736552E+04  0.12300736552E+04  0.25500000920E-02 0.  1.
        2   -1    0    0  501    0  0.00000000000E+00  0.00000000000E+00 -0.73667229002E+03  0.73667229003E+03  0.25500000920E-02 0. -1.
    10030    2    1    2    0    0  0.00000000000E+00  0.00000000000E+00  0.49340136520E+03  0.19667459453E+04  0.19038499694E+04 0.  0.
        1    1    3    3  502    0 -0.72102058796E+03  0.61482732983E+03  0.34068905466E+03  0.10069520176E+04  0.50400001928E-02 0.  1.
       -1    1    3    3    0  502  0.72102058796E+03 -0.61482732983E+03  0.15271231054E+03  0.95979392766E+03  0.50400001928E-02 0. -1.
</event>
<event>
 5   0  0.1413011E-05  0.1902258E+04  0.7818609E-02  0.8653733E-01
        1   -1    0    0  501    0  0.00000000000E+00  0.00000000000E+00  0.15723101838E+04  0.15723101838E+04  0.50400001928E-02 0. -1.
       -1   -1    0    0    0  501  0.00000000000E+00  0.00000000000E+00 -0.57536116710E+03  0.57536116712E+03  0.50400001928E-02 0.  1.
    10030    2    1    2    0    0  0.00000000000E+00  0.00000000000E+00  0.99694901669E+03  0.21476713509E+04  0.19022578400E+04 0.  0.
        1    1    3    3  502    0 -0.49315622014E+03 -0.81316141860E+03  0.51490045410E+03  0.10814605993E+04  0.50400001928E-02 0. -1.
       -1    1    3    3    0  502  0.49315622014E+03  0.81316141860E+03  0.48204856259E+03  0.10662107516E+04  0.50400001928E-02 0.  1.
</event>
<event>
 5   0  0.2879462E-05  0.1901845E+04  0.7818609E-02  0.8653938E-01
        2   -1    0    0  501    0  0.00000000000E+00  0.00000000000E+00  0.14335270264E+04  0.14335270264E+04  0.25500000920E-02 0.  1.
       -2   -1    0    0    0  501  0.00000000000E+00  0.00000000000E+00 -0.63078955257E+03  0.63078955257E+03  0.25500000920E-02 0. -1.
    10030    2    1    2    0    0  0.00000000000E+00  0.00000000000E+00  0.80273747380E+03  0.20643165789E+04  0.19018452845E+04 0.  0.
        4    1    3    3  502    0 -0.23402657175E+03  0.83222146508E+03  0.83130144419E+03  0.11993434484E+04  0.12699999809E+01 0.  1.
       -4    1    3    3    0  502  0.23402657175E+03 -0.83222146508E+03 -0.28563970387E+02  0.86497313053E+03  0.12699999809E+01 0. -1.
</event>
<event>
 5   0  0.1010725E-05  0.1899264E+04  0.7818609E-02  0.8655223E-01
       -3   -1    0    0    0  501  0.00000000000E+00  0.00000000000E+00  0.23592574435E+04  0.23592574457E+04  0.10100000352E+00 0.  1.
        3   -1    0    0  501    0  0.00000000000E+00  0.00000000000E+00 -0.38223921533E+03  0.38223922868E+03  0.10100000352E+00 0. -1.
    10030    2    1    2    0    0  0.00000000000E+00  0.00000000000E+00  0.19770182282E+04  0.27414966743E+04  0.18992637892E+04 0.  0.
        3    1    3    3  502    0 -0.84425714710E+03 -0.18656094637E+03  0.15553754682E+04  0.17795415068E+04  0.10100000352E+00 0.  1.
       -3    1    3    3    0  502  0.84425714710E+03  0.18656094637E+03  0.42164275997E+03  0.96195516755E+03  0.10100000352E+00 0. -1.
</event>
<event>
 5   0  0.2888776E-05  0.1905264E+04  0.7818609E-02  0.8652240E-01
       -2   -1    0    0    0  501  0.00000000000E+00  0.00000000000E+00  0.75348470367E+03  0.75348470368E+03  0.25500000920E-02 0. -1.
        2   -1    0    0  501    0  0.00000000000E+00  0.00000000000E+00 -0.12044147647E+04  0.12044147647E+04  0.25500000920E-02 0.  1.
    10030    2    1    2    0    0  0.00000000000E+00  0.00000000000E+00 -0.45093006106E+03  0.19578994684E+04  0.19052643933E+04 0.  0.
        3    1    3    3  502    0 -0.29852802053E+03 -0.10337632227E+03 -0.11490159331E+04  0.11916556834E+04  0.10100000352E+00 0.  1.
       -3    1    3    3    0  502  0.29852802053E+03  0.10337632227E+03  0.69808587207E+03  0.76624378499E+03  0.10100000352E+00 0. -1.
</event>
<event>
 5   0  0.2813537E-05  0.1915182E+04  0.7818609E-02  0.8647336E-01
       -2   -1    0    0    0  501  0.00000000000E+00  0.00000000000E+00  0.11682016854E+04  0.11682016854E+04  0.25500000920E-02 0.  1.
        2   -1    0    0  501    0  0.00000000000E+00  0.00000000000E+00 -0.78495067581E+03  0.78495067581E+03  0.25500000920E-02 0. -1.
    10030    2    1    2    0    0  0.00000000000E+00  0.00000000000E+00  0.38325100964E+03  0.19531523613E+04  0.19151821871E+04 0.  0.
        2    1    3    3  502    0  0.45496091958E+03 -0.38379680067E+02 -0.66679790819E+03  0.80813482078E+03  0.25500000920E-02 0. -1.
       -2    1    3    3    0  502 -0.45496091958E+03  0.38379680067E+02  0.10500489178E+04  0.11450175405E+04  0.25500000920E-02 0.  1.
</event>
<event>
 5   0  0.2855141E-05  0.1922858E+04  0.7818609E-02  0.8643561E-01
       -2   -1    0    0    0  501  0.00000000000E+00  0.00000000000E+00  0.77937184905E+03  0.77937184906E+03  0.25500000920E-02 0.  1.
        2   -1    0    0  501    0  0.00000000000E+00  0.00000000000E+00 -0.11860138885E+04  0.11860138885E+04  0.25500000920E-02 0. -1.
    10030    2    1    2    0    0  0.00000000000E+00  0.00000000000E+00 -0.40664203943E+03  0.19653857375E+04  0.19228581199E+04 0.  0.
        1    1    3    3  502    0 -0.96981455803E+02 -0.94845366800E+03 -0.76578221301E+02  0.95646954322E+03  0.50400001928E-02 0.  1.
       -1    1    3    3    0  502  0.96981455803E+02  0.94845366800E+03 -0.33006381813E+03  0.10089161943E+04  0.50400001928E-02 0. -1.
</event>
<event>
 5   0  0.1471485E-05  0.1902359E+04  0.7818609E-02  0.8653683E-01
       -1   -1    0    0    0  501  0.00000000000E+00  0.00000000000E+00  0.61446322136E+03  0.61446322138E+03  0.50400001928E-02 0. -1.
        1   -1    0    0  501    0  0.00000000000E+00  0.00000000000E+00 -0.14724104386E+04  0.14724104386E+04  0.50400001928E-02 0.  1.
    10030    2    1    2    0    0  0.00000000000E+00  0.00000000000E+00 -0.85794721723E+03  0.20868736600E+04  0.19023586006E+04 0.  0.
        4    1    3    3  502    0  0.29833444524E+03  0.25188884087E+03  0.52249865487E+03  0.65227132899E+03  0.12699999809E+01 0. -1.
       -4    1    3    3    0  502 -0.29833444524E+03 -0.25188884087E+03 -0.13804458721E+04  0.14346023310E+04  0.12699999809E+01 0.  1.
</event>
<event>
 5   0  0.2813537E-05  0.1898112E+04  0.7818609E-02  0.8655797E-01
        2   -1    0    0  501    0  0.00000000000E+00  0.00000000000E+00  0.12553282736E+04  0.12553282736E+04  0.25500000920E-02 0.  1.
       -2   -1    0    0    0  501  0.00000000000E+00  0.00000000000E+00 -0.71750704285E+03  0.71750704286E+03  0.25500000920E-02 0. -1.
    10030    2    1    2    0    0  0.00000000000E+00  0.00000000000E+00  0.53782123070E+03  0.19728353164E+04  0.18981115640E+04 0.  0.
        2    1    3    3  502    0 -0.81274034702E+03  0.26919615051E+03 -0.15671438863E+03  0.87038660303E+03  0.25500000920E-02 0. -1.
       -2    1    3    3    0  502  0.81274034702E+03 -0.26919615051E+03  0.69453561933E+03  0.11024487134E+04  0.25500000920E-02 0.  1.
</event>
<event>
 5   0  0.1327254E-05  0.1902462E+04  0.7818609E-02  0.8653632E-01
       -1   -1    0    0    0  501  0.00000000000E+00  0.00000000000E+00  0.11850753012E+04  0.11850753012E+04  0.50400001928E-02 0.  1.
        1   -1    0    0  501    0  0.00000000000E+00  0.00000000000E+00 -0.76352948957E+03  0.76352948958E+03  0.50400001928E-02 0. -1.
    10030    2    1    2    0    0  0.00000000000E+00  0.00000000000E+00  0.42154581166E+03  0.19486047908E+04  0.19024615001E+04 0.  0.
        5    1    3    3  502    0  0.46849790582E+03  0.81508667956E+03  0.35906454075E+03  0.10063826396E+04  0.46999998093E+01 0.  1.
       -5    1    3    3    0  502 -0.46849790582E+03 -0.81508667956E+03  0.62481270910E+02  0.94222215118E+03  0.46999998093E+01 0. -1.
</event>
<event>
 5   0  0.1471485E-05  0.1896577E+04  0.7818609E-02  0.8656562E-01
       -1   -1    0    0    0  501  0.00000000000E+00  0.00000000000E+00  0.39392545605E+03  0.39392545609E+03  0.50400001928E-02 0.  1.
        1   -1    0    0  501    0  0.00000000000E+00  0.00000000000E+00 -0.22827944095E+04  0.22827944095E+04  0.50400001928E-02 0. -1.
    10030    2    1    2    0    0  0.00000000000E+00  0.00000000000E+00 -0.18888689535E+04  0.26767198656E+04  0.18965767360E+04 0.  0.
        4    1    3    3  502    0 -0.30550217842E+03  0.23862553627E+03  0.27698911880E+03  0.47644339896E+03  0.12699999809E+01 0.  1.
       -4    1    3    3    0  502  0.30550217842E+03 -0.23862553627E+03 -0.21658580723E+04  0.22002764667E+04  0.12699999809E+01 0. -1.
</event>
<event>
 5   0  0.1344119E-05  0.1895457E+04  0.7818609E-02  0.8657121E-01
       -1   -1    0    0    0  501  0.00000000000E+00  0.00000000000E+00  0.10231245401E+04  0.10231245401E+04  0.50400001928E-02 0. -1.
        1   -1    0    0  501    0  0.00000000000E+00  0.00000000000E+00 -0.87788856842E+03  0.87788856844E+03  0.50400001928E-02 0.  1.
    10030    2    1    2    0    0  0.00000000000E+00  0.00000000000E+00  0.14523597164E+03  0.19010131085E+04  0.18954570297E+04 0.  0.
        2    1    3    3  502    0 -0.34650239074E+03  0.34585246528E+03 -0.74124791179E+03  0.88832781183E+03  0.25500000920E-02 0.  1.
       -2    1    3    3    0  502  0.34650239074E+03 -0.34585246528E+03  0.88648388343E+03  0.10126852967E+04  0.25500000920E-02 0. -1.
</event>
<event>
 5   0  0.1327254E-05  0.1904230E+04  0.7818609E-02  0.8652754E-01
       -1   -1    0    0    0  501  0.00000000000E+00  0.00000000000E+00  0.71684324566E+03  0.71684324568E+03  0.50400001928E-02 0. -1.
        1   -1    0    0  501    0  0.00000000000E+00  0.00000000000E+00 -0.12646042416E+04  0.12646042416E+04  0.50400001928E-02 0.  1.
    10030    2    1    2    0    0  0.00000000000E+00  0.00000000000E+00 -0.54776099595E+03  0.19814474873E+04  0.19042300376E+04 0.  0.
        5    1    3    3  502    0  0.91872963718E+03 -0.89835941677E+01 -0.14042586921E+02  0.91889288572E+03  0.46999998093E+01 0. -1.
       -5    1    3    3    0  502 -0.91872963718E+03  0.89835941677E+01 -0.53371840903E+03  0.10625546016E+04  0.46999998093E+01 0.  1.
</event>
<event>
 5   0  0.2888776E-05  0.1900109E+04  0.7818609E-02  0.8654802E-01
        2   -1    0    0  501    0  0.00000000000E+00  0.00000000000E+00  0.13860485268E+04  0.13860485268E+04  0.25500000920E-02 0.  1.
       -2   -1    0    0    0  501  0.00000000000E+00  0.00000000000E+00 -0.65120654322E+03  0.65120654322E+03  0.25500000920E-02 0. -1.
    10030    2    1    2    0    0  0.00000000000E+00  0.00000000000E+00  0.73484198358E+03  0.20372550700E+04  0.19001093336E+04 0.  0.
        3    1    3    3  502    0 -0.41191822141E+03  0.79259474501E+03  0.71438410802E+03  0.11437778259E+04  0.10100000352E+00 0.  1.
       -3    1    3    3    0  502  0.41191822141E+03 -0.79259474501E+03  0.20457875557E+02  0.89347724415E+03  0.10100000352E+00 0. -1.
</event>
<event>
 5   0  0.2879462E-05  0.1900239E+04  0.7818609E-02  0.8654737E-01
        2   -1    0    0  501    0  0.00000000000E+00  0.00000000000E+00  0.11263888537E+04  0.11263888537E+04  0.25500000920E-02 0.  1.
       -2   -1    0    0    0  501  0.00000000000E+00  0.00000000000E+00 -0.80143477149E+03  0.80143477149E+03  0.25500000920E-02 0. -1.
    10030    2    1    2    0    0  0.00000000000E+00  0.00000000000E+00  0.32495408219E+03  0.19278236252E+04  0.19002391361E+04 0.  0.
        4    1    3    3  502    0  0.64318062889E+03 -0.51876307053E+03  0.63825073299E+03  0.10441082587E+04  0.12699999809E+01 0.  1.
       -4    1    3    3    0  502 -0.64318062889E+03  0.51876307053E+03 -0.31329665080E+03  0.88371536652E+03  0.12699999809E+01 0. -1.
</event>
<event>
 5   0  0.2789718E-05  0.1901891E+04  0.7818609E-02  0.8653916E-01
        2   -1    0    0  501    0  0.00000000000E+00  0.00000000000E+00  0.86485723811E+03  0.86485723811E+03  0.25500000920E-02 0. -1.
       -2   -1    0    0    0  501  0.00000000000E+00  0.00000000000E+00 -0.10456031023E+04  0.10456031023E+04  0.25500000920E-02 0.  1.
    10030    2    1    2    0    0  0.00000000000E+00  0.00000000000E+00 -0.18074586421E+03  0.19104603404E+04  0.19018910707E+04 0.  0.
        5    1    3    3  502    0  0.64155238104E+03  0.42269218264E+03 -0.65327013846E+03  0.10084850533E+04  0.46999998093E+01 0.  1.
       -5    1    3    3    0  502 -0.64155238104E+03 -0.42269218264E+03  0.47252427425E+03  0.90197528715E+03  0.46999998093E+01 0. -1.
</event>
<event>
 5   0  0.1344119E-05  0.1892402E+04  0.7818609E-02  0.8658648E-01
       -1   -1    0    0    0  501  0.00000000000E+00  0.00000000000E+00  0.70198736023E+03  0.70198736025E+03  0.50400001928E-02 0.  1.
        1   -1    0    0  501    0  0.00000000000E+00  0.00000000000E+00 -0.12753738602E+04  0.12753738602E+04  0.50400001928E-02 0. -1.
    10030    2    1    2    0    0  0.00000000000E+00  0.00000000000E+00 -0.57338650000E+03  0.19773612205E+04  0.18924019969E+04 0.  0.
        2    1    3    3  502    0  0.70916439714E+03 -0.21872381571E+03 -0.90002260382E+03  0.11665311557E+04  0.25500000920E-02 0. -1.
       -2    1    3    3    0  502 -0.70916439714E+03  0.21872381571E+03  0.32663610382E+03  0.81083006484E+03  0.25500000920E-02 0.  1.
</event>
<event>
 5   0  0.1344119E-05  0.1899979E+04  0.7818609E-02  0.8654867E-01
       -1   -1    0    0    0  501  0.00000000000E+00  0.00000000000E+00  0.10294617637E+04  0.10294617638E+04  0.50400001928E-02 0. -1.
        1   -1    0    0  501    0  0.00000000000E+00  0.00000000000E+00 -0.87665236033E+03  0.87665236034E+03  0.50400001928E-02 0.  1.
    10030    2    1    2    0    0  0.00000000000E+00  0.00000000000E+00  0.15280940342E+03  0.19061141241E+04  0.18999790368E+04 0.  0.
        2    1    3    3  502    0 -0.49185205913E+03 -0.44558174002E+03 -0.60550959627E+03  0.89838934004E+03  0.25500000920E-02 0. -1.
       -2    1    3    3    0  502  0.49185205913E+03  0.44558174002E+03  0.75831899969E+03  0.10077247841E+04  0.25500000920E-02 0.  1.
</event>
<event>
 5   0  0.1010725E-05  0.1905111E+04  0.7818609E-02  0.8652317E-01
        3   -1    0    0  501    0  0.00000000000E+00  0.00000000000E+00  0.52722993593E+03  0.52722994560E+03  0.10100000352E+00 0.  1.
       -3   -1    0    0    0  501  0.00000000000E+00  0.00000000000E+00 -0.17209984863E+04  0.17209984893E+04  0.10100000352E+00 0. -1.
    10030    2    1    2    0    0  0.00000000000E+00  0.00000000000E+00 -0.11937685504E+04  0.22482284349E+04  0.19051109531E+04 0.  0.
        5    1    3    3  502    0  0.44494219535E+03  0.45499366734E+03  0.23953126098E+03  0.67999272754E+03  0.46999998093E+01 0.  1.
       -5    1    3    3    0  502 -0.44494219535E+03 -0.45499366734E+03 -0.14332998114E+04  0.15682357074E+04  0.46999998093E+01 0. -1.
</event>
<event>
 5   0  0.1471485E-05  0.1874199E+04  0.7818609E-02  0.8667807E-01
       -1   -1    0    0    0  501  0.00000000000E+00  0.00000000000E+00  0.46143691992E+03  0.46143691995E+03  0.50400001928E-02 0.  1.
        1   -1    0    0  501    0  0.00000000000E+00  0.00000000000E+00 -0.19030889668E+04  0.19030889668E+04  0.50400001928E-02 0. -1.
    10030    2    1    2    0    0  0.00000000000E+00  0.00000000000E+00 -0.14416520469E+04  0.23645258867E+04  0.18741990409E+04 0.  0.
        4    1    3    3  502    0 -0.63865045639E+03 -0.38945956559E+03 -0.14329436760E+04  0.16164412610E+04  0.12699999809E+01 0. -1.
       -4    1    3    3    0  502  0.63865045639E+03  0.38945956559E+03 -0.87083708563E+01  0.74808462576E+03  0.12699999809E+01 0.  1.
</event>
<event>
 5   0  0.1429067E-05  0.1902040E+04  0.7818609E-02  0.8653841E-01
        1   -1    0    0  501    0  0.00000000000E+00  0.00000000000E+00  0.15328821207E+04  0.15328821208E+04  0.50400001928E-02 0. -1.
       -1   -1    0    0    0  501  0.00000000000E+00  0.00000000000E+00 -0.59002540480E+03  0.59002540482E+03  0.50400001928E-02 0.  1.
    10030    2    1    2    0    0  0.00000000000E+00  0.00000000000E+00  0.94285671594E+03  0.21229075256E+04  0.19020403716E+04 0.  0.
        3    1    3    3  502    0  0.32617659905E+03 -0.62450758447E+03  0.11843830147E+04  0.13781016045E+04  0.10100000352E+00 0. -1.
       -3    1    3    3    0  502 -0.32617659905E+03  0.62450758447E+03 -0.24152629872E+03  0.74480592103E+03  0.10100000352E+00 0.  1.
</event>
<event>
 5   0  0.2879462E-05  0.1900033E+04  0.7818609E-02  0.8654840E-01
        2   -1    0    0  501    0  0.00000000000E+00  0.00000000000E+00  0.79171441652E+03  0.79171441653E+03  0.25500000920E-02 0. -1.
       -2   -1    0    0    0  501  0.00000000000E+00  0.00000000000E+00 -0.11399704985E+04  0.11399704985E+04  0.25500000920E-02 0.  1.
    10030    2    1    2    0    0  0.00000000000E+00  0.00000000000E+00 -0.34825608196E+03  0.19316849150E+04  0.19000327135E+04 0.  0.
        4    1    3    3  502    0 -0.52238864717E+03 -0.59190808001E+03  0.36314932105E+03  0.86897877774E+03  0.12699999809E+01 0. -1.
       -4    1    3    3    0  502  0.52238864717E+03  0.59190808001E+03 -0.71140540301E+03  0.10627061373E+04  0.12699999809E+01 0.  1.
</event>
<event>
 5   0  0.2789718E-05  0.1895346E+04  0.7818609E-02  0.8657176E-01
       -2   -1    0    0    0  501  0.00000000000E+00  0.00000000000E+00  0.58829907171E+03  0.58829907172E+03  0.25500000920E-02 0.  1.
        2   -1    0    0  501    0  0.00000000000E+00  0.00000000000E+00 -0.15265776324E+04  0.15265776324E+04  0.25500000920E-02 0. -1.
    10030    2    1    2    0    0  0.00000000000E+00  0.00000000000E+00 -0.93827856070E+03  0.21148767041E+04  0.18953460940E+04 0.  0.
        5    1    3    3  502    0 -0.71965224690E+00  0.24142410426E+03  0.55339589717E+03  0.60378408808E+03  0.46999998093E+01 0.  1.
       -5    1    3    3    0  502  0.71965224690E+00 -0.24142410426E+03 -0.14916744579E+04  0.15110926161E+04  0.46999998093E+01 0. -1.
</event>
<event>
 5   0  0.1327254E-05  0.1903670E+04  0.7818609E-02  0.8653032E-01
        1   -1    0    0  501    0  0.00000000000E+00  0.00000000000E+00  0.10362634104E+04  0.10362634104E+04  0.50400001928E-02 0.  1.
       -1   -1    0    0    0  501  0.00000000000E+00  0.00000000000E+00 -0.87428507751E+03  0.87428507752E+03  0.50400001928E-02 0. -1.
    10030    2    1    2    0    0  0.00000000000E+00  0.00000000000E+00  0.16197833284E+03  0.19105484879E+04  0.19036697571E+04 0.  0.
        5    1    3    3  502    0 -0.85311966059E+03  0.71302035876E+02  0.49850972560E+03  0.99067208102E+03  0.46999998093E+01 0.  1.
       -5    1    3    3    0  502  0.85311966059E+03 -0.71302035876E+02 -0.33653139276E+03  0.91987640687E+03  0.46999998093E+01 0. -1.
</event>
<event>
 5   0  0.2855141E-05  0.1956497E+04  0.7818609E-02  0.8627234E-01
       -2   -1    0    0    0  501  0.00000000000E+00  0.00000000000E+00  0.49316494982E+03  0.49316494982E+03  0.25500000920E-02 0. -1.
        2   -1    0    0  501    0  0.00000000000E+00  0.00000000000E+00 -0.19404657982E+04  0.19404657982E+04  0.25500000920E-02 0.  1.
    10030    2    1    2    0    0  0.00000000000E+00  0.00000000000E+00 -0.14473008484E+04  0.24336307480E+04  0.19564965811E+04 0.  0.
        1    1    3    3  502    0  0.50667841305E+03  0.59388758210E+03 -0.14569486603E+04  0.16529140550E+04  0.50400001928E-02 0.  1.
       -1    1    3    3    0  502 -0.50667841305E+03 -0.59388758210E+03  0.96478119590E+01  0.78071669299E+03  0.50400001928E-02 0. -1.
</event>
<event>
 5   0  0.2813537E-05  0.1899625E+04  0.7818609E-02  0.8655043E-01
       -2   -1    0    0    0  501  0.00000000000E+00  0.00000000000E+00  0.80353795779E+03  0.80353795779E+03  0.25500000920E-02 0. -1.
        2   -1    0    0  501    0  0.00000000000E+00  0.00000000000E+00 -0.11227143970E+04  0.11227143970E+04  0.25500000920E-02 0.  1.
    10030    2    1    2    0    0  0.00000000000E+00  0.00000000000E+00 -0.31917643924E+03  0.19262523548E+04  0.18996248406E+04 0.  0.
        2    1    3    3  502    0 -0.66989104618E+02 -0.76364357762E+02 -0.11171902566E+04  0.11217990572E+04  0.25500000920E-02 0.  1.
       -2    1    3    3    0  502  0.66989104618E+02  0.76364357762E+02  0.79801381739E+03  0.80445329760E+03  0.25500000920E-02 0. -1.
</event>
<event>
 5   0  0.2813537E-05  0.1898616E+04  0.7818609E-02  0.8655546E-01
        2   -1    0    0  501    0  0.00000000000E+00  0.00000000000E+00  0.81082057288E+03  0.81082057289E+03  0.25500000920E-02 0.  1.
       -2   -1    0    0    0  501  0.00000000000E+00  0.00000000000E+00 -0.11114490848E+04  0.11114490848E+04  0.25500000920E-02 0. -1.
    10030    2    1    2    0    0  0.00000000000E+00  0.00000000000E+00 -0.30062851196E+03  0.19222696577E+04  0.18986161104E+04 0.  0.
        2    1    3    3  502    0  0.93558921526E+03 -0.10774302229E+03 -0.27117500155E+03  0.98003654016E+03  0.25500000920E-02 0. -1.
       -2    1    3    3    0  502 -0.93558921526E+03  0.10774302229E+03 -0.29453510409E+02  0.94223311757E+03  0.25500000920E-02 0.  1.
</event>
<event>
 5   0  0.1471485E-05  0.1903221E+04  0.7818609E-02  0.8653255E-01
       -1   -1    0    0    0  501  0.00000000000E+00  0.00000000000E+00  0.88058552308E+03  0.88058552309E+03  0.50400001928E-02 0. -1.
        1   -1    0    0  501    0  0.00000000000E+00  0.00000000000E+00 -0.10283639843E+04  0.10283639843E+04  0.50400001928E-02 0.  1.
    10030    2    1    2    0    0  0.00000000000E+00  0.00000000000E+00 -0.14777846119E+03  0.19089495074E+04  0.19032208879E+04 0.  0.
        4    1    3    3  502    0  0.65055521226E+03  0.56978282557E+02 -0.76813749522E+03  0.10082189412E+04  0.12699999809E+01 0.  1.
       -4    1    3    3    0  502 -0.65055521226E+03 -0.56978282557E+02  0.62035903404E+03  0.90073056620E+03  0.12699999809E+01 0. -1.
</event>
<event>
 5   0  0.1413011E-05  0.1905950E+04  0.7818609E-02  0.8651901E-01
        1   -1    0    0  501    0  0.00000000000E+00  0.00000000000E+00  0.15434101058E+04  0.15434101058E+04  0.50400001928E-02 0.  1.
       -1   -1    0    0    0  501  0.00000000000E+00  0.00000000000E+00 -0.58841196106E+03  0.58841196108E+03  0.50400001928E-02 0. -1.
    10030    2    1    2    0    0  0.00000000000E+00  0.00000000000E+00  0.95499814478E+03  0.21318220669E+04  0.19059495976E+04 0.  0.
        1    1    3    3  502    0  0.81082357487E+02 -0.92750805845E+03  0.70484942246E+03  0.11677577898E+04  0.50400001928E-02 0.  1.
       -1    1    3    3    0  502 -0.81082357487E+02  0.92750805845E+03  0.25014872232E+03  0.96406427716E+03  0.50400001928E-02 0. -1.
</event>
<event>
 5   0  0.2789718E-05  0.1899317E+04  0.7818609E-02  0.8655196E-01
       -2   -1    0    0    0  501  0.00000000000E+00  0.00000000000E+00  0.46644843911E+03  0.46644843912E+03  0.25500000920E-02 0.  1.
        2   -1    0    0  501    0  0.00000000000E+00  0.00000000000E+00 -0.19334426987E+04  0.19334426987E+04  0.25500000920E-02 0. -1.
    10030    2    1    2    0    0  0.00000000000E+00  0.00000000000E+00 -0.14669942596E+04  0.23998911378E+04  0.18993170656E+04 0.  0.
        5    1    3    3  502    0 -0.27047865990E+03  0.42006178742E+03  0.28695038159E+03  0.57617117439E+03  0.46999998093E+01 0.  1.
       -5    1    3    3    0  502  0.27047865990E+03 -0.42006178742E+03 -0.17539446411E+04  0.18237199634E+04  0.46999998093E+01 0. -1.
</event>
<event>
 5   0  0.1327254E-05  0.1898050E+04  0.7818609E-02  0.8655827E-01
       -1   -1    0    0    0  501  0.00000000000E+00  0.00000000000E+00  0.62015151322E+03  0.62015151325E+03  0.50400001928E-02 0.  1.
        1   -1    0    0  501    0  0.00000000000E+00  0.00000000000E+00 -0.14523043194E+04  0.14523043194E+04  0.50400001928E-02 0. -1.
    10030    2    1    2    0    0  0.00000000000E+00  0.00000000000E+00 -0.83215280618E+03  0.20724558327E+04  0.18980502853E+04 0.  0.
        5    1    3    3  502    0 -0.16854189164E+03  0.94006597513E+01  0.60361475431E+03  0.62679151499E+03  0.46999998093E+01 0.  1.
       -5    1    3    3    0  502  0.16854189164E+03 -0.94006597513E+01 -0.14357675605E+04  0.14456643177E+04  0.46999998093E+01 0. -1.
</event>
<event>
 5   0  0.2813537E-05  0.1898867E+04  0.7818609E-02  0.8655421E-01
       -2   -1    0    0    0  501  0.00000000000E+00  0.00000000000E+00  0.70882358083E+03  0.70882358084E+03  0.25500000920E-02 0. -1.
        2   -1    0    0  501    0  0.00000000000E+00  0.00000000000E+00 -0.12717185013E+04  0.12717185013E+04  0.25500000920E-02 0.  1.
    10030    2    1    2    0    0  0.00000000000E+00  0.00000000000E+00 -0.56289492049E+03  0.19805420822E+04  0.18988670958E+04 0.  0.
        2    1    3    3  502    0  0.18297907346E+03  0.69887526491E+03  0.36109909426E+03  0.80765124473E+03  0.25500000920E-02 0. -1.
       -2    1    3    3    0  502 -0.18297907346E+03 -0.69887526491E+03 -0.92399401474E+03  0.11728908374E+04  0.25500000920E-02 0.  1.
</event>
<event>
 5   0  0.2879462E-05  0.1899010E+04  0.7818609E-02  0.8655349E-01
       -2   -1    0    0    0  501  0.00000000000E+00  0.00000000000E+00  0.12709905812E+04  0.12709905812E+04  0.25500000920E-02 0.  1.
        2   -1    0    0  501    0  0.00000000000E+00  0.00000000000E+00 -0.70933614327E+03  0.70933614327E+03  0.25500000920E-02 0. -1.
    10030    2    1    2    0    0  0.00000000000E+00  0.00000000000E+00  0.56165443798E+03  0.19803267245E+04  0.18990098020E+04 0.  0.
        4    1    3    3  502    0 -0.76829868961E+03  0.53621936491E+03  0.44151590774E+03  0.10357374153E+04  0.12699999809E+01 0. -1.
       -4    1    3    3    0  502  0.76829868961E+03 -0.53621936491E+03  0.12013853024E+03  0.94458930922E+03  0.12699999809E+01 0.  1.
</event>
<event>
 5   0  0.1471485E-05  0.1899656E+04  0.7818609E-02  0.8655028E-01
        1   -1    0    0  501    0  0.00000000000E+00  0.00000000000E+00  0.14619989176E+04  0.14619989176E+04  0.50400001928E-02 0.  1.
       -1   -1    0    0    0  501  0.00000000000E+00  0.00000000000E+00 -0.61708172682E+03  0.61708172684E+03  0.50400001928E-02 0. -1.
    10030    2    1    2    0    0  0.00000000000E+00  0.00000000000E+00  0.84491719075E+03  0.20790806444E+04  0.18996555653E+04 0.  0.
        4    1    3    3  502    0  0.64461415449E+03 -0.68957530128E+03  0.30699683092E+03  0.99261783754E+03  0.12699999809E+01 0.  1.
       -4    1    3    3    0  502 -0.64461415449E+03  0.68957530128E+03  0.53792035983E+03  0.10864628069E+04  0.12699999809E+01 0. -1.
</event>
<event>
 5   0  0.2789718E-05  0.1902026E+04  0.7818609E-02  0.8653849E-01
        2   -1    0    0  501    0  0.00000000000E+00  0.00000000000E+00  0.11385683653E+04  0.11385683653E+04  0.25500000920E-02 0. -1.
       -2   -1    0    0    0  501  0.00000000000E+00  0.00000000000E+00 -0.79435329818E+03  0.79435329818E+03  0.25500000920E-02 0.  1.
    10030    2    1    2    0    0  0.00000000000E+00  0.00000000000E+00  0.34421506716E+03  0.19329216635E+04  0.19020258003E+04 0.  0.
        5    1    3    3  502    0 -0.83450908198E+03 -0.37725299513E+03  0.43254803545E+03  0.10128401272E+04  0.46999998093E+01 0. -1.
       -5    1    3    3    0  502  0.83450908198E+03  0.37725299513E+03 -0.88332968289E+02  0.92008153635E+03  0.46999998093E+01 0.  1.
</event>
<event>
 5   0  0.2888776E-05  0.1950156E+04  0.7818609E-02  0.8630286E-01
        2   -1    0    0  501    0  0.00000000000E+00  0.00000000000E+00  0.18739159766E+04  0.18739159766E+04  0.25500000920E-02 0.  1.
       -2   -1    0    0    0  501  0.00000000000E+00  0.00000000000E+00 -0.50737421621E+03  0.50737421622E+03  0.25500000920E-02 0. -1.
    10030    2    1    2    0    0  0.00000000000E+00  0.00000000000E+00  0.13665417604E+04  0.23812901929E+04  0.19501555322E+04 0.  0.
        3    1    3    3  502    0 -0.20810112240E+02 -0.44283920106E+03  0.17437374852E+04  0.17992109510E+04  0.10100000352E+00 0.  1.
       -3    1    3    3    0  502  0.20810112240E+02  0.44283920106E+03 -0.37719572479E+03  0.58207924183E+03  0.10100000352E+00 0. -1.
</event>
<event>
 5   0  0.2879462E-05  0.1900162E+04  0.7818609E-02  0.8654776E-01
        2   -1    0    0  501    0  0.00000000000E+00  0.00000000000E+00  0.15758796335E+04  0.15758796335E+04  0.25500000920E-02 0. -1.
       -2   -1    0    0    0  501  0.00000000000E+00  0.00000000000E+00 -0.57279388640E+03  0.57279388641E+03  0.25500000920E-02 0.  1.
    10030    2    1    2    0    0  0.00000000000E+00  0.00000000000E+00  0.10030857471E+04  0.21486735199E+04  0.19001623297E+04 0.  0.
        4    1    3    3  502    0 -0.32706433915E+03  0.86121567927E+03  0.76428680006E+03  0.11969960124E+04  0.12699999809E+01 0. -1.
       -4    1    3    3    0  502  0.32706433915E+03 -0.86121567927E+03  0.23879894701E+03  0.95167750744E+03  0.12699999809E+01 0.  1.
</event>
<event>
 5   0  0.1344119E-05  0.1901706E+04  0.7818609E-02  0.8654008E-01
       -1   -1    0    0    0  501  0.00000000000E+00  0.00000000000E+00  0.92397616857E+03  0.92397616858E+03  0.50400001928E-02 0.  1.
        1   -1    0    0  501    0  0.00000000000E+00  0.00000000000E+00 -0.97851185440E+03  0.97851185441E+03  0.50400001928E-02 0. -1.
    10030    2    1    2    0    0  0.00000000000E+00  0.00000000000E+00 -0.54535685831E+02  0.19024880230E+04  0.19017062172E+04 0.  0.
        2    1    3    3  502    0 -0.34545611294E+03  0.58792878734E+02  0.85702150731E+03  0.92589545445E+03  0.25500000920E-02 0.  1.
       -2    1    3    3    0  502  0.34545611294E+03 -0.58792878734E+02 -0.91155719314E+03  0.97659256855E+03  0.25500000920E-02 0. -1.
</event>
<event>
 5   0  0.2789718E-05  0.1905906E+04  0.7818609E-02  0.8651922E-01
        2   -1    0    0  501    0  0.00000000000E+00  0.00000000000E+00  0.14569187996E+04  0.14569187996E+04  0.25500000920E-02 0. -1.
       -2   -1    0    0    0  501  0.00000000000E+00  0.00000000000E+00 -0.62331537920E+03  0.62331537920E+03  0.25500000920E-02 0.  1.
    10030    2    1    2    0    0  0.00000000000E+00  0.00000000000E+00  0.83360342035E+03  0.20802341788E+04  0.19059064972E+04 0.  0.
        5    1    3    3  502    0 -0.78491782054E+03 -0.36185874567E+03  0.85483243577E+03  0.12156472844E+04  0.46999998093E+01 0. -1.
       -5    1    3    3    0  502  0.78491782054E+03  0.36185874567E+03 -0.21229015412E+02  0.86458689436E+03  0.46999998093E+01 0.  1.
</event>
<event>
 5   0  0.1327254E-05  0.1908027E+04  0.7818609E-02  0.8650871E-01
       -1   -1    0    0    0  501  0.00000000000E+00  0.00000000000E+00  0.13711067756E+04  0.13711067756E+04  0.50400001928E-02 0. -1.
        1   -1    0    0  501    0  0.00000000000E+00  0.00000000000E+00 -0.66380084544E+03  0.66380084546E+03  0.50400001928E-02 0.  1.
    10030    2    1    2    0    0  0.00000000000E+00  0.00000000000E+00  0.70730593014E+03  0.20349076211E+04  0.19080270825E+04 0.  0.
        5    1    3    3  502    0  0.56687554042E+03  0.26177238713E+03  0.11228985134E+04  0.12848329939E+04  0.46999998093E+01 0. -1.
       -5    1    3    3    0  502 -0.56687554042E+03 -0.26177238713E+03 -0.41559258323E+03  0.75007462711E+03  0.46999998093E+01 0.  1.
</event>
<event>
 5   0  0.2879462E-05  0.1899080E+04  0.7818609E-02  0.8655314E-01
        2   -1    0    0  501    0  0.00000000000E+00  0.00000000000E+00  0.12913827560E+04  0.12913827560E+04  0.25500000920E-02 0.  1.
       -2   -1    0    0    0  501  0.00000000000E+00  0.00000000000E+00 -0.69818699152E+03  0.69818699152E+03  0.25500000920E-02 0. -1.
    10030    2    1    2    0    0  0.00000000000E+00  0.00000000000E+00  0.59319576451E+03  0.19895697476E+04  0.18990804526E+04 0.  0.
        4    1    3    3  502    0  0.56902571475E+03  0.36567976897E+03  0.99477013172E+03  0.12029468755E+04  0.12699999809E+01 0.  1.
       -4    1    3    3    0  502 -0.56902571475E+03 -0.36567976897E+03 -0.40157436721E+03  0.78662287202E+03  0.12699999809E+01 0. -1.
</event>
<event>
 5   0  0.1413011E-05  0.1894993E+04  0.7818609E-02  0.8657352E-01
        1   -1    0    0  501    0  0.00000000000E+00  0.00000000000E+00  0.78651846013E+03  0.78651846014E+03  0.50400001928E-02 0.  1.
       -1   -1    0    0    0  501  0.00000000000E+00  0.00000000000E+00 -0.11414226792E+04  0.11414226792E+04  0.50400001928E-02 0. -1.
    10030    2    1    2    0    0  0.00000000000E+00  0.00000000000E+00 -0.35490421911E+03  0.19279411394E+04  0.18949934122E+04 0.  0.
        1    1    3    3  502    0  0.40418694411E+03  0.60377480546E+03  0.44126533973E+03  0.85007423298E+03  0.50400001928E-02 0.  1.
       -1    1    3    3    0  502 -0.40418694411E+03 -0.60377480546E+03 -0.79616955883E+03  0.10778669064E+04  0.50400001928E-02 0. -1.
</event>
<event>
 5   0  0.2789718E-05  0.1901252E+04  0.7818609E-02  0.8654234E-01
       -2   -1    0    0    0  501  0.00000000000E+00  0.00000000000E+00  0.43980343998E+03  0.43980343999E+03  0.25500000920E-02 0. -1.
        2   -1    0    0  501    0  0.00000000000E+00  0.00000000000E+00 -0.20547577706E+04  0.20547577706E+04  0.25500000920E-02 0.  1.
    10030    2    1    2    0    0  0.00000000000E+00  0.00000000000E+00 -0.16149543307E+04  0.24945612106E+04  0.19012517307E+04 0.  0.
        5    1    3    3  502    0  0.19393900120E+03 -0.58563721569E+03  0.14146627399E+03  0.63294397956E+03  0.46999998093E+01 0. -1.
       -5    1    3    3    0  502 -0.19393900120E+03  0.58563721569E+03 -0.17564206046E+04  0.18616172311E+04  0.46999998093E+01 0.  1.
</event>
<event>
 5   0  0.1327254E-05  0.1951206E+04  0.7818609E-02  0.8629779E-01
       -1   -1    0    0    0  501  0.00000000000E+00  0.00000000000E+00  0.41365901177E+03  0.41365901180E+03  0.50400001928E-02 0.  1.
        1   -1    0    0  501    0  0.00000000000E+00  0.00000000000E+00 -0.23009321363E+04  0.23009321363E+04  0.50400001928E-02 0. -1.
    10030    2    1    2    0    0  0.00000000000E+00  0.00000000000E+00 -0.18872731245E+04  0.27145911481E+04  0.19512061026E+04 0.  0.
        5    1    3    3  502    0 -0.85524176025E+03  0.46197831190E+03 -0.10593419868E+04  0.14377377940E+04  0.46999998093E+01 0.  1.
       -5    1    3    3    0  502  0.85524176025E+03 -0.46197831190E+03 -0.82793113767E+03  0.12768533541E+04  0.46999998093E+01 0. -1.
</event>
<event>
 5   0  0.1327254E-05  0.1901491E+04  0.7818609E-02  0.8654114E-01
        1   -1    0    0  501    0  0.00000000000E+00  0.00000000000E+00  0.12880652153E+04  0.12880652153E+04  0.50400001928E-02 0. -1.
       -1   -1    0    0    0  501  0.00000000000E+00  0.00000000000E+00 -0.70176370396E+03  0.70176370397E+03  0.50400001928E-02 0.  1.
    10030    2    1    2    0    0  0.00000000000E+00  0.00000000000E+00  0.58630151134E+03  0.19898289193E+04  0.19014914320E+04 0.  0.
        5    1    3    3  502    0 -0.27229886507E+03 -0.18623996347E+02 -0.65987327742E+03  0.71410668490E+03  0.46999998093E+01 0.  1.
       -5    1    3    3    0  502  0.27229886507E+03  0.18623996347E+02  0.12461747888E+04  0.12757222344E+04  0.46999998093E+01 0. -1.
</event>
<event>
 5   0  0.2789718E-05  0.1868438E+04  0.7818609E-02  0.8670728E-01
        2   -1    0    0  501    0  0.00000000000E+00  0.00000000000E+00  0.87404298023E+03  0.87404298024E+03  0.25500000920E-02 0.  1.
       -2   -1    0    0    0  501  0.00000000000E+00  0.00000000000E+00 -0.99853763811E+03  0.99853763812E+03  0.25500000920E-02 0. -1.
    10030    2    1    2    0    0  0.00000000000E+00  0.00000000000E+00 -0.12449465788E+03  0.18725806184E+04  0.18684376501E+04 0.  0.
        5    1    3    3  502    0  0.80897543699E+03  0.46691975863E+03 -0.45256730994E+02  0.93516072434E+03  0.46999998093E+01 0. -1.
       -5    1    3    3    0  502 -0.80897543699E+03 -0.46691975863E+03 -0.79237926886E+02  0.93741989402E+03  0.46999998093E+01 0.  1.
</event>
<event>
 5   0  0.1413011E-05  0.1898777E+04  0.7818609E-02  0.8655465E-01
       -1   -1    0    0    0  501  0.00000000000E+00  0.00000000000E+00  0.92311297001E+03  0.92311297002E+03  0.50400001928E-02 0. -1.
        1   -1    0    0  501    0  0.00000000000E+00  0.00000000000E+00 -0.97641190421E+03  0.97641190422E+03  0.50400001928E-02 0.  1.
    10030    2    1    2    0    0  0.00000000000E+00  0.00000000000E+00 -0.53298934203E+02  0.18995248742E+04  0.18987769673E+04 0.  0.
        1    1    3    3  502    0  0.89128490000E+03 -0.22627102350E+03 -0.26285927206E+03  0.95639026865E+03  0.50400001928E-02 0.  1.
       -1    1    3    3    0  502 -0.89128490000E+03  0.22627102350E+03  0.20956033785E+03  0.94313460559E+03  0.50400001928E-02 0. -1.
</event>
<event>
 5   0  0.1471485E-05  0.1898890E+04  0.7818609E-02  0.8655409E-01
       -1   -1    0    0    0  501  0.00000000000E+00  0.00000000000E+00  0.52343691662E+03  0.52343691664E+03  0.50400001928E-02 0.  1.
        1   -1    0    0  501    0  0.00000000000E+00  0.00000000000E+00 -0.17221667757E+04  0.17221667757E+04  0.50400001928E-02 0. -1.
    10030    2    1    2    0    0  0.00000000000E+00  0.00000000000E+00 -0.11987298591E+04  0.22456036924E+04  0.18988898515E+04 0.  0.
        4    1    3    3  502    0  0.55160615280E+03  0.31734893611E+02  0.31373335351E+03  0.63537916340E+03  0.12699999809E+01 0.  1.
       -4    1    3    3    0  502 -0.55160615280E+03 -0.31734893611E+02 -0.15124632126E+04  0.16102245290E+04  0.12699999809E+01 0. -1.
</event>
<event>
 5   0  0.1327254E-05  0.1895558E+04  0.7818609E-02  0.8657070E-01
       -1   -1    0    0    0  501  0.00000000000E+00  0.00000000000E+00  0.59964043714E+03  0.59964043716E+03  0.50400001928E-02 0.  1.
        1   -1    0    0  501    0  0.00000000000E+00  0.00000000000E+00 -0.14980399897E+04  0.14980399897E+04  0.50400001928E-02 0. -1.
    10030    2    1    2    0    0  0.00000000000E+00  0.00000000000E+00 -0.89839955255E+03  0.20976804269E+04  0.18955583392E+04 0.  0.
        5    1    3    3  502    0  0.81018848517E+03  0.39176622216E+03 -0.77818172480E+03  0.11897373833E+04  0.46999998093E+01 0. -1.
       -5    1    3    3    0  502 -0.81018848517E+03 -0.39176622216E+03 -0.12021782775E+03  0.90794304360E+03  0.46999998093E+01 0.  1.
</event>
<event>
 5   0  0.1471485E-05  0.1898067E+04  0.7818609E-02  0.8655819E-01
        1   -1    0    0  501    0  0.00000000000E+00  0.00000000000E+00  0.10009693533E+04  0.10009693533E+04  0.50400001928E-02 0. -1.
       -1   -1    0    0    0  501  0.00000000000E+00  0.00000000000E+00 -0.89979239207E+03  0.89979239208E+03  0.50400001928E-02 0.  1.
    10030    2    1    2    0    0  0.00000000000E+00  0.00000000000E+00  0.10117696118E+03  0.19007617453E+04  0.18980670260E+04 0.  0.
        4    1    3    3  502    0  0.32703104444E+03 -0.81499464661E+03  0.41095687322E+03  0.96956317101E+03  0.12699999809E+01 0. -1.
       -4    1    3    3    0  502 -0.32703104444E+03  0.81499464661E+03 -0.30977991204E+03  0.93119857433E+03  0.12699999809E+01 0.  1.
</event>
<event>
 5   0  0.1471485E-05  0.1898618E+04  0.7818609E-02  0.8655545E-01
       -1   -1    0    0    0  501  0.00000000000E+00  0.00000000000E+00  0.71872520931E+03  0.71872520932E+03  0.50400001928E-02 0. -1.
        1   -1    0    0  501    0  0.00000000000E+00  0.00000000000E+00 -0.12538696716E+04  0.12538696716E+04  0.50400001928E-02 0.  1.
    10030    2    1    2    0    0  0.00000000000E+00  0.00000000000E+00 -0.53514446233E+03  0.19725948810E+04  0.18986181735E+04 0.  0.
        4    1    3    3  502    0 -0.51731085175E+03 -0.77786103307E+03 -0.92150936552E+02  0.93870746887E+03  0.12699999809E+01 0. -1.
       -4    1    3    3    0  502  0.51731085175E+03  0.77786103307E+03 -0.44299352578E+03  0.10338874121E+04  0.12699999809E+01 0.  1.
</event>
<event>
 5   0  0.1471485E-05  0.1899508E+04  0.7818609E-02  0.8655101E-01
       -1   -1    0    0    0  501  0.00000000000E+00  0.00000000000E+00  0.57001688830E+03  0.57001688832E+03  0.50400001928E-02 0.  1.
        1   -1    0    0  501    0  0.00000000000E+00  0.00000000000E+00 -0.15824672440E+04  0.15824672440E+04  0.50400001928E-02 0. -1.
    10030    2    1    2    0    0  0.00000000000E+00  0.00000000000E+00 -0.10124503557E+04  0.21524841323E+04  0.18995084146E+04 0.  0.
        4    1    3    3  502    0  0.82303539730E+03 -0.14206350120E+03 -0.10186205345E+04  0.13172542313E+04  0.12699999809E+01 0. -1.
       -4    1    3    3    0  502 -0.82303539730E+03  0.14206350120E+03  0.61701788285E+01  0.83522990104E+03  0.12699999809E+01 0.  1.
</event>
<event>
 5   0  0.1429067E-05  0.1916972E+04  0.7818609E-02  0.8646454E-01
        1   -1    0    0  501    0  0.00000000000E+00  0.00000000000E+00  0.53294538503E+03  0.53294538505E+03  0.50400001928E-02 0.  1.
       -1   -1    0    0    0  501  0.00000000000E+00  0.00000000000E+00 -0.17238077802E+04  0.17238077802E+04  0.50400001928E-02 0. -1.
    10030    2    1    2    0    0  0.00000000000E+00  0.00000000000E+00 -0.11908623951E+04  0.22567531652E+04  0.19169719885E+04 0.  0.
        3    1    3    3  502    0  0.57868680853E+02 -0.91330122484E+03 -0.93095225502E+03  0.13054271419E+04  0.10100000352E+00 0. -1.
       -3    1    3    3    0  502 -0.57868680853E+02  0.91330122484E+03 -0.25991014013E+03  0.95132602333E+03  0.10100000352E+00 0.  1.
</event>
<event>
 5   0  0.2813537E-05  0.1899083E+04  0.7818609E-02  0.8655313E-01
       -2   -1    0    0    0  501  0.00000000000E+00  0.00000000000E+00  0.48771380408E+03  0.48771380409E+03  0.25500000920E-02 0.  1.
        2   -1    0    0  501    0  0.00000000000E+00  0.00000000000E+00 -0.18486855700E+04  0.18486855700E+04  0.25500000920E-02 0. -1.
    10030    2    1    2    0    0  0.00000000000E+00  0.00000000000E+00 -0.13609717660E+04  0.23363993741E+04  0.18990834336E+04 0.  0.
        2    1    3    3  502    0 -0.55084145964E+03  0.16675019610E+03  0.24867700293E+03  0.62695469800E+03  0.25500000920E-02 0.  1.
       -2    1    3    3    0  502  0.55084145964E+03 -0.16675019610E+03 -0.16096487689E+04  0.17094446761E+04  0.25500000920E-02 0. -1.
</event>
<event>
 5   0  0.1429067E-05  0.1919289E+04  0.7818609E-02  0.8645314E-01
       -1   -1    0    0    0  501  0.00000000000E+00  0.00000000000E+00  0.19632396237E+04  0.19632396237E+04  0.50400001928E-02 0. -1.
        1   -1    0    0  501    0  0.00000000000E+00  0.00000000000E+00 -0.46908051868E+03  0.46908051870E+03  0.50400001928E-02 0.  1.
    10030    2    1    2    0    0  0.00000000000E+00  0.00000000000E+00  0.14941591050E+04  0.24323201424E+04  0.19192888902E+04 0.  0.
        3    1    3    3  502    0  0.63950476852E+03  0.66675767944E+03  0.10760546057E+04  0.14182473962E+04  0.10100000352E+00 0. -1.
       -3    1    3    3    0  502 -0.63950476852E+03 -0.66675767944E+03  0.41810449925E+03  0.10140727462E+04  0.10100000352E+00 0.  1.
</event>
<event>
 5   0  0.1413011E-05  0.1897867E+04  0.7818609E-02  0.8655919E-01
        1   -1    0    0  501    0  0.00000000000E+00  0.00000000000E+00  0.77371853153E+03  0.77371853155E+03  0.50400001928E-02 0.  1.
       -1   -1    0    0    0  501  0.00000000000E+00  0.00000000000E+00 -0.11638273341E+04  0.11638273341E+04  0.50400001928E-02 0. -1.
    10030    2    1    2    0    0  0.00000000000E+00  0.00000000000E+00 -0.39010880261E+03  0.19375458657E+04  0.18978669879E+04 0.  0.
        1    1    3    3  502    0 -0.48602926838E+03  0.78940752640E+03 -0.40198923025E+03  0.10104375457E+04  0.50400001928E-02 0. -1.
       -1    1    3    3    0  502  0.48602926838E+03 -0.78940752640E+03  0.11880427642E+02  0.92710832002E+03  0.50400001928E-02 0.  1.
</event>
<event>
 5   0  0.2789718E-05  0.1940331E+04  0.7818609E-02  0.8635037E-01
       -2   -1    0    0    0  501  0.00000000000E+00  0.00000000000E+00  0.80451251340E+03  0.80451251340E+03  0.25500000920E-02 0.  1.
        2   -1    0    0  501    0  0.00000000000E+00  0.00000000000E+00 -0.11699274760E+04  0.11699274760E+04  0.25500000920E-02 0. -1.
    10030    2    1    2    0    0  0.00000000000E+00  0.00000000000E+00 -0.36541496258E+03  0.19744399894E+04  0.19403312029E+04 0.  0.
        5    1    3    3  502    0 -0.35693480809E+03 -0.17984251571E+03  0.71683073306E+03  0.82074001824E+03  0.46999998093E+01 0.  1.
       -5    1    3    3    0  502  0.35693480809E+03  0.17984251571E+03 -0.10822456956E+04  0.11536999711E+04  0.46999998093E+01 0. -1.
</event>
<event>
 5   0  0.1344119E-05  0.1901262E+04  0.7818609E-02  0.8654228E-01
       -1   -1    0    0    0  501  0.00000000000E+00  0.00000000000E+00  0.69386157673E+03  0.69386157675E+03  0.50400001928E-02 0.  1.
        1   -1    0    0  501    0  0.00000000000E+00  0.00000000000E+00 -0.13024205400E+04  0.13024205401E+04  0.50400001928E-02 0. -1.
    10030    2    1    2    0    0  0.00000000000E+00  0.00000000000E+00 -0.60855896332E+03  0.19962821168E+04  0.19012622854E+04 0.  0.
        2    1    3    3  502    0 -0.12237234164E+03  0.76095050746E+03 -0.88857922298E+03  0.11762625984E+04  0.25500000920E-02 0. -1.
       -2    1    3    3    0  502  0.12237234164E+03 -0.76095050746E+03  0.28002025966E+03  0.82001951844E+03  0.25500000920E-02 0.  1.
</event>
<event>
 5   0  0.1327254E-05  0.1881706E+04  0.7818609E-02  0.8664016E-01
        1   -1    0    0  501    0  0.00000000000E+00  0.00000000000E+00  0.87672491585E+03  0.87672491587E+03  0.50400001928E-02 0. -1.
       -1   -1    0    0    0  501  0.00000000000E+00  0.00000000000E+00 -0.10096718456E+04  0.10096718456E+04  0.50400001928E-02 0.  1.
    10030    2    1    2    0    0  0.00000000000E+00  0.00000000000E+00 -0.13294692974E+03  0.18863967615E+04  0.18817061023E+04 0.  0.
        5    1    3    3  502    0  0.38901948667E+03 -0.28795942460E+03  0.74233729299E+03  0.88619610572E+03  0.46999998093E+01 0. -1.
       -5    1    3    3    0  502 -0.38901948667E+03  0.28795942460E+03 -0.87528422273E+03  0.10002006558E+04  0.46999998093E+01 0.  1.
</event>
<event>
 5   0  0.1471485E-05  0.1900585E+04  0.7818609E-02  0.8654565E-01
       -1   -1    0    0    0  501  0.00000000000E+00  0.00000000000E+00  0.12750940367E+04  0.12750940367E+04  0.50400001928E-02 0.  1.
        1   -1    0    0  501    0  0.00000000000E+00  0.00000000000E+00 -0.70822677812E+03  0.70822677814E+03  0.50400001928E-02 0. -1.
    10030    2    1    2    0    0  0.00000000000E+00  0.00000000000E+00  0.56686725861E+03  0.19833208149E+04  0.19005849010E+04 0.  0.
        4    1    3    3  502    0  0.43427464510E+03  0.25334099519E+03 -0.55806851349E+03  0.75114459718E+03  0.12699999809E+01 0. -1.
       -4    1    3    3    0  502 -0.43427464510E+03 -0.25334099519E+03  0.11249357721E+04  0.12321762177E+04  0.12699999809E+01 0.  1.
</event>
<event>
 5   0  0.1471485E-05  0.1899970E+04  0.7818609E-02  0.8654871E-01
       -1   -1    0    0    0  501  0.00000000000E+00  0.00000000000E+00  0.13288002370E+04  0.13288002370E+04  0.50400001928E-02 0. -1.
        1   -1    0    0  501    0  0.00000000000E+00  0.00000000000E+00 -0.67916280249E+03  0.67916280251E+03  0.50400001928E-02 0.  1.
    10030    2    1    2    0    0  0.00000000000E+00  0.00000000000E+00  0.64963743451E+03  0.20079630395E+04  0.18999702029E+04 0.  0.
        4    1    3    3  502    0 -0.67939015153E+03 -0.39067442356E+03 -0.24260907662E+03  0.82040127997E+03  0.12699999809E+01 0.  1.
       -4    1    3    3    0  502  0.67939015153E+03  0.39067442356E+03  0.89224651113E+03  0.11875617596E+04  0.12699999809E+01 0. -1.
</event>
<event>
 5   0  0.2879462E-05  0.1890688E+04  0.7818609E-02  0.8659506E-01
        2   -1    0    0  501    0  0.00000000000E+00  0.00000000000E+00  0.15901242365E+04  0.15901242365E+04  0.25500000920E-02 0. -1.
       -2   -1    0    0    0  501  0.00000000000E+00  0.00000000000E+00 -0.56201587025E+03  0.56201587025E+03  0.25500000920E-02 0.  1.
    10030    2    1    2    0    0  0.00000000000E+00  0.00000000000E+00  0.10281083662E+04  0.21521401067E+04  0.18906877654E+04 0.  0.
        4    1    3    3  502    0  0.83069630769E+03 -0.14863177267E+03  0.99902964825E+03  0.13077498272E+04  0.12699999809E+01 0. -1.
       -4    1    3    3    0  502 -0.83069630769E+03  0.14863177267E+03  0.29078717957E+02  0.84439027955E+03  0.12699999809E+01 0.  1.
</event>
<event>
 5   0  0.1429067E-05  0.1885526E+04  0.7818609E-02  0.8662095E-01
        1   -1    0    0  501    0  0.00000000000E+00  0.00000000000E+00  0.21327652576E+04  0.21327652576E+04  0.50400001928E-02 0. -1.
       -1   -1    0    0    0  501  0.00000000000E+00  0.00000000000E+00 -0.41673696755E+03  0.41673696758E+03  0.50400001928E-02 0.  1.
    10030    2    1    2    0    0  0.00000000000E+00  0.00000000000E+00  0.17160282900E+04  0.25495022252E+04  0.18855260550E+04 0.  0.
        3    1    3    3  502    0 -0.31726179373E+03 -0.27541304838E+02  0.20578377556E+04  0.20823327803E+04  0.10100000352E+00 0. -1.
       -3    1    3    3    0  502  0.31726179373E+03  0.27541304838E+02 -0.34180946560E+03  0.46716944485E+03  0.10100000352E+00 0.  1.
</event>
<event>
 5   0  0.2813537E-05  0.1898071E+04  0.7818609E-02  0.8655817E-01
       -2   -1    0    0    0  501  0.00000000000E+00  0.00000000000E+00  0.63047972737E+03  0.63047972737E+03  0.25500000920E-02 0.  1.
        2   -1    0    0  501    0  0.00000000000E+00  0.00000000000E+00 -0.14285445559E+04  0.14285445559E+04  0.25500000920E-02 0. -1.
    10030    2    1    2    0    0  0.00000000000E+00  0.00000000000E+00 -0.79806482858E+03  0.20590242833E+04  0.18980710020E+04 0.  0.
        2    1    3    3  502    0  0.15026239208E+03 -0.30644741368E+03  0.56159898602E+03  0.65717746837E+03  0.25500000920E-02 0.  1.
       -2    1    3    3    0  502 -0.15026239208E+03  0.30644741368E+03 -0.13596638146E+04  0.14018468149E+04  0.25500000920E-02 0. -1.
</event>
<event>
 5   0  0.2789718E-05  0.1897326E+04  0.7818609E-02  0.8656188E-01
        2   -1    0    0  501    0  0.00000000000E+00  0.00000000000E+00  0.12452158758E+04  0.12452158758E+04  0.25500000920E-02 0.  1.
       -2   -1    0    0    0  501  0.00000000000E+00  0.00000000000E+00 -0.72273545659E+03  0.72273545660E+03  0.25500000920E-02 0. -1.
    10030    2    1    2    0    0  0.00000000000E+00  0.00000000000E+00  0.52248041924E+03  0.19679513324E+04  0.18973261866E+04 0.  0.
        5    1    3    3  502    0  0.10770746316E+03 -0.80120192728E+03  0.77611920329E+03  0.11206732502E+04  0.46999998093E+01 0.  1.
       -5    1    3    3    0  502 -0.10770746316E+03  0.80120192728E+03 -0.25363878406E+03  0.84727808226E+03  0.46999998093E+01 0. -1.
</event>
<event>
 5   0  0.2888776E-05  0.1898450E+04  0.7818609E-02  0.8655628E-01
        2   -1    0    0  501    0  0.00000000000E+00  0.00000000000E+00  0.20766786690E+04  0.20766786690E+04  0.25500000920E-02 0.  1.
       -2   -1    0    0    0  501  0.00000000000E+00  0.00000000000E+00 -0.43387951956E+03  0.43387951957E+03  0.25500000920E-02 0. -1.
    10030    2    1    2    0    0  0.00000000000E+00  0.00000000000E+00  0.16427991494E+04  0.25105581886E+04  0.18984502556E+04 0.  0.
        3    1    3    3  502    0 -0.35193753155E+03 -0.63511590090E+03  0.12883884592E+02  0.72622189334E+03  0.10100000352E+00 0. -1.
       -3    1    3    3    0  502  0.35193753155E+03  0.63511590090E+03  0.16299152648E+04  0.17843362952E+04  0.10100000352E+00 0.  1.
</event>
<event>
 5   0  0.1344119E-05  0.1869381E+04  0.7818609E-02  0.8670249E-01
        1   -1    0    0  501    0  0.00000000000E+00  0.00000000000E+00  0.99250511114E+03  0.99250511115E+03  0.50400001928E-02 0.  1.
       -1   -1    0    0    0  501  0.00000000000E+00  0.00000000000E+00 -0.88024344471E+03  0.88024344473E+03  0.50400001928E-02 0. -1.
    10030    2    1    2    0    0  0.00000000000E+00  0.00000000000E+00  0.11226166643E+03  0.18727485559E+04  0.18693807723E+04 0.  0.
        2    1    3    3  502    0  0.76233985788E+03  0.53000765869E+03 -0.51654544314E+02  0.92991309763E+03  0.25500000920E-02 0.  1.
       -2    1    3    3    0  502 -0.76233985788E+03 -0.53000765869E+03  0.16391621074E+03  0.94283545825E+03  0.25500000920E-02 0. -1.
</event>
<event>
 5   0  0.2888776E-05  0.1899309E+04  0.7818609E-02  0.8655200E-01
       -2   -1    0    0    0  501  0.00000000000E+00  0.00000000000E+00  0.89018788520E+03  0.89018788520E+03  0.25500000920E-02 0.  1.
        2   -1    0    0  501    0  0.00000000000E+00  0.00000000000E+00 -0.10130939984E+04  0.10130939984E+04  0.25500000920E-02 0. -1.
    10030    2    1    2    0    0  0.00000000000E+00  0.00000000000E+00 -0.12290611318E+03  0.19032818836E+04  0.18993093523E+04 0.  0.
        3    1    3    3  502    0 -0.20281426217E+03  0.91807999221E+03  0.72390881346E+02  0.94299785097E+03  0.10100000352E+00 0. -1.
       -3    1    3    3    0  502  0.20281426217E+03 -0.91807999221E+03 -0.19529699453E+03  0.96028403262E+03  0.10100000352E+00 0.  1.
</event>
<event>
 5   0  0.1327254E-05  0.1901158E+04  0.7818609E-02  0.8654280E-01
        1   -1    0    0  501    0  0.00000000000E+00  0.00000000000E+00  0.11997637220E+04  0.11997637220E+04  0.50400001928E-02 0.  1.
       -1   -1    0    0    0  501  0.00000000000E+00  0.00000000000E+00 -0.75314899514E+03  0.75314899515E+03  0.50400001928E-02 0. -1.
    10030    2    1    2    0    0  0.00000000000E+00  0.00000000000E+00  0.44661472686E+03  0.19529127172E+04  0.19011584275E+04 0.  0.
        5    1    3    3  502    0 -0.50318730167E+02  0.94918098155E+03  0.21292066045E+03  0.97408100690E+03  0.46999998093E+01 0.  1.
       -5    1    3    3    0  502  0.50318730167E+02 -0.94918098155E+03  0.23369406642E+03  0.97883171027E+03  0.46999998093E+01 0. -1.
</event>
<event>
 5   0  0.1429067E-05  0.1897922E+04  0.7818609E-02  0.8655892E-01
       -1   -1    0    0    0  501  0.00000000000E+00  0.00000000000E+00  0.61835163432E+03  0.61835163434E+03  0.50400001928E-02 0. -1.
        1   -1    0    0  501    0  0.00000000000E+00  0.00000000000E+00 -0.14563340333E+04  0.14563340333E+04  0.50400001928E-02 0.  1.
    10030    2    1    2    0    0  0.00000000000E+00  0.00000000000E+00 -0.83798239894E+03  0.20746856676E+04  0.18979215259E+04 0.  0.
        3    1    3    3  502    0  0.47827832349E+03  0.81911762924E+03 -0.45034484043E+03  0.10500068241E+04  0.10100000352E+00 0.  1.
       -3    1    3    3    0  502 -0.47827832349E+03 -0.81911762924E+03 -0.38763755851E+03  0.10246788435E+04  0.10100000352E+00 0. -1.
</event>
<event>
 5   0  0.1413011E-05  0.1903612E+04  0.7818609E-02  0.8653061E-01
       -1   -1    0    0    0  501  0.00000000000E+00  0.00000000000E+00  0.67169926059E+03  0.67169926061E+03  0.50400001928E-02 0. -1.
        1   -1    0    0  501    0  0.00000000000E+00  0.00000000000E+00 -0.13487205607E+04  0.13487205607E+04  0.50400001928E-02 0.  1.
    10030    2    1    2    0    0  0.00000000000E+00  0.00000000000E+00 -0.67702130007E+03  0.20204198213E+04  0.19036119388E+04 0.  0.
        1    1    3    3  502    0 -0.10106105763E+03  0.94396088184E+03 -0.41095676926E+03  0.10344858385E+04  0.50400001928E-02 0. -1.
       -1    1    3    3    0  502  0.10106105763E+03 -0.94396088184E+03 -0.26606453081E+03  0.98593398278E+03  0.50400001928E-02 0.  1.
</event>
<event>
 5   0  0.2879462E-05  0.1900434E+04  0.7818609E-02  0.8654640E-01
        2   -1    0    0  501    0  0.00000000000E+00  0.00000000000E+00  0.99702329042E+03  0.99702329042E+03  0.25500000920E-02 0.  1.
       -2   -1    0    0    0  501  0.00000000000E+00  0.00000000000E+00 -0.90560786427E+03  0.90560786427E+03  0.25500000920E-02 0. -1.
    10030    2    1    2    0    0  0.00000000000E+00  0.00000000000E+00  0.91415426149E+02  0.19026311547E+04  0.19004337743E+04 0.  0.
        4    1    3    3  502    0  0.11074146622E+03 -0.26189154316E+03  0.95343111938E+03  0.99492882409E+03  0.12699999809E+01 0.  1.
       -4    1    3    3    0  502 -0.11074146622E+03  0.26189154316E+03 -0.86201569323E+03  0.90770233060E+03  0.12699999809E+01 0. -1.
</event>
<event>
 5   0  0.1471485E-05  0.1907294E+04  0.7818609E-02  0.8651234E-01
        1   -1    0    0  501    0  0.00000000000E+00  0.00000000000E+00  0.17355096751E+04  0.17355096751E+04  0.50400001928E-02 0. -1.
       -1   -1    0    0    0  501  0.00000000000E+00  0.00000000000E+00 -0.52402029952E+03  0.52402029954E+03  0.50400001928E-02 0.  1.
    10030    2    1    2    0    0  0.00000000000E+00  0.00000000000E+00  0.12114893756E+04  0.22595299746E+04  0.19072936846E+04 0.  0.
        4    1    3    3  502    0  0.67706495565E+03 -0.59486609259E+03  0.97501123347E+03  0.13277541717E+04  0.12699999809E+01 0. -1.
       -4    1    3    3    0  502 -0.67706495565E+03  0.59486609259E+03  0.23647814211E+03  0.93177580290E+03  0.12699999809E+01 0.  1.
</event>
<event>
 5   0  0.1010725E-05  0.1900114E+04  0.7818609E-02  0.8654799E-01
       -4   -1    0    0    0  501  0.00000000000E+00  0.00000000000E+00  0.67140633207E+03  0.67140753320E+03  0.12699999809E+01 0. -1.
        4   -1    0    0  501    0  0.00000000000E+00  0.00000000000E+00 -0.13443527182E+04  0.13443533180E+04  0.12699999809E+01 0.  1.
    10030    2    1    2    0    0  0.00000000000E+00  0.00000000000E+00 -0.67294638609E+03  0.20157608512E+04  0.19001144626E+04 0.  0.
        1    1    3    3  502    0  0.78493234809E+03  0.53471217712E+03 -0.31108243732E+03  0.99940391548E+03  0.50400001928E-02 0. -1.
       -1    1    3    3    0  502 -0.78493234809E+03 -0.53471217712E+03 -0.36186394877E+03  0.10163569358E+04  0.50400001928E-02 0.  1.
</event>
<event>
 5   0  0.1327254E-05  0.1900378E+04  0.7818609E-02  0.8654668E-01
       -1   -1    0    0    0  501  0.00000000000E+00  0.00000000000E+00  0.81611611146E+03  0.81611611148E+03  0.50400001928E-02 0.  1.
        1   -1    0    0  501    0  0.00000000000E+00  0.00000000000E+00 -0.11062879736E+04  0.11062879736E+04  0.50400001928E-02 0. -1.
    10030    2    1    2    0    0  0.00000000000E+00  0.00000000000E+00 -0.29017186214E+03  0.19224040851E+04  0.19003783194E+04 0.  0.
        5    1    3    3  502    0  0.34677697300E+03 -0.15547479301E+03 -0.10260472309E+04  0.10941762610E+04  0.46999998093E+01 0. -1.
       -5    1    3    3    0  502 -0.34677697300E+03  0.15547479301E+03  0.73587536871E+03  0.82822782406E+03  0.46999998093E+01 0.  1.
</event>
<event>
 5   0  0.2813537E-05  0.1905553E+04  0.7818609E-02  0.8652097E-01
        2   -1    0    0  501    0  0.00000000000E+00  0.00000000000E+00  0.91771292979E+03  0.91771292979E+03  0.25500000920E-02 0.  1.
       -2   -1    0    0    0  501  0.00000000000E+00  0.00000000000E+00 -0.98917975448E+03  0.98917975448E+03  0.25500000920E-02 0. -1.
    10030    2    1    2    0    0  0.00000000000E+00  0.00000000000E+00 -0.71466824686E+02  0.19068926843E+04  0.19055529912E+04 0.  0.
        2    1    3    3  502    0  0.55424324000E+03 -0.43152786131E+03  0.60844362078E+03  0.92930377372E+03  0.25500000920E-02 0.  1.
       -2    1    3    3    0  502 -0.55424324000E+03  0.43152786131E+03 -0.67991044546E+03  0.97758891055E+03  0.25500000920E-02 0. -1.
</event>
<event>
 5   0  0.2879462E-05  0.1903863E+04  0.7818609E-02  0.8652936E-01
       -2   -1    0    0    0  501  0.00000000000E+00  0.00000000000E+00  0.80540218571E+03  0.80540218572E+03  0.25500000920E-02 0. -1.
        2   -1    0    0  501    0  0.00000000000E+00  0.00000000000E+00 -0.11251197870E+04  0.11251197870E+04  0.25500000920E-02 0.  1.
    10030    2    1    2    0    0  0.00000000000E+00  0.00000000000E+00 -0.31971760132E+03  0.19305219728E+04  0.19038633729E+04 0.  0.
        4    1    3    3  502    0 -0.26193946195E+03 -0.78502093759E+03 -0.63687354710E+03  0.10442603517E+04  0.12699999809E+01 0. -1.
       -4    1    3    3    0  502  0.26193946195E+03  0.78502093759E+03  0.31715594577E+03  0.88626162109E+03  0.12699999809E+01 0.  1.
</event>
<event>
 5   0  0.2813537E-05  0.1897566E+04  0.7818609E-02  0.8656069E-01
        2   -1    0    0  501    0  0.00000000000E+00  0.00000000000E+00  0.41060043582E+03  0.41060043583E+03  0.25500000920E-02 0. -1.
       -2   -1    0    0    0  501  0.00000000000E+00  0.00000000000E+00 -0.21923720925E+04  0.21923720925E+04  0.25500000920E-02 0.  1.
    10030    2    1    2    0    0  0.00000000000E+00  0.00000000000E+00 -0.17817716567E+04  0.26029725283E+04  0.18975657424E+04 0.  0.
        2    1    3    3  502    0  0.56070510691E+03  0.21882909018E+03 -0.18969567375E+04  0.19901560872E+04  0.25500000920E-02 0.  1.
       -2    1    3    3    0  502 -0.56070510691E+03 -0.21882909018E+03  0.11518508082E+03  0.61281644109E+03  0.25500000920E-02 0. -1.
</event>
<event>
 5   0  0.1471485E-05  0.1900233E+04  0.7818609E-02  0.8654740E-01
        1   -1    0    0  501    0  0.00000000000E+00  0.00000000000E+00  0.15847217895E+04  0.15847217895E+04  0.50400001928E-02 0. -1.
       -1   -1    0    0    0  501  0.00000000000E+00  0.00000000000E+00 -0.56964020230E+03  0.56964020232E+03  0.50400001928E-02 0.  1.
    10030    2    1    2    0    0  0.00000000000E+00  0.00000000000E+00  0.10150815872E+04  0.21543619919E+04  0.19002328708E+04 0.  0.
        4    1    3    3  502    0  0.66913678977E+03 -0.55035823190E+03  0.65410874779E+02  0.86886041588E+03  0.12699999809E+01 0.  1.
       -4    1    3    3    0  502 -0.66913678977E+03  0.55035823190E+03  0.94967071246E+03  0.12855015760E+04  0.12699999809E+01 0. -1.
</event>
<event>
 5   0  0.2789718E-05  0.1898601E+04  0.7818609E-02  0.8655553E-01
       -2   -1    0    0    0  501  0.00000000000E+00  0.00000000000E+00  0.12598709491E+04  0.12598709491E+04  0.25500000920E-02 0. -1.
        2   -1    0    0  501    0  0.00000000000E+00  0.00000000000E+00 -0.71528858672E+03  0.71528858673E+03  0.25500000920E-02 0.  1.
    10030    2    1    2    0    0  0.00000000000E+00  0.00000000000E+00  0.54458236240E+03  0.19751595359E+04  0.18986008645E+04 0.  0.
        5    1    3    3  502    0 -0.13276308585E+03  0.35245244601E+03 -0.63422453155E+03  0.73763921404E+03  0.46999998093E+01 0.  1.
       -5    1    3    3    0  502  0.13276308585E+03 -0.35245244601E+03  0.11788068940E+04  0.12375203218E+04  0.46999998093E+01 0. -1.
</event>
<event>
 5   0  0.1344119E-05  0.1899536E+04  0.7818609E-02  0.8655087E-01
       -1   -1    0    0    0  501  0.00000000000E+00  0.00000000000E+00  0.51686547034E+03  0.51686547036E+03  0.50400001928E-02 0. -1.
        1   -1    0    0  501    0  0.00000000000E+00  0.00000000000E+00 -0.17452493036E+04  0.17452493036E+04  0.50400001928E-02 0.  1.
    10030    2    1    2    0    0  0.00000000000E+00  0.00000000000E+00 -0.12283838332E+04  0.22621147739E+04  0.18995358403E+04 0.  0.
        2    1    3    3  502    0 -0.38970340616E+03  0.24676717885E+03  0.37452080658E+03  0.59416211584E+03  0.25500000920E-02 0. -1.
       -2    1    3    3    0  502  0.38970340616E+03 -0.24676717885E+03 -0.16029046398E+04  0.16679526581E+04  0.25500000920E-02 0.  1.
</event>
<event>
 5   0  0.1413011E-05  0.1900921E+04  0.7818609E-02  0.8654398E-01
       -1   -1    0    0    0  501  0.00000000000E+00  0.00000000000E+00  0.73738793524E+03  0.73738793525E+03  0.50400001928E-02 0. -1.
        1   -1    0    0  501    0  0.00000000000E+00  0.00000000000E+00 -0.12251019289E+04  0.12251019289E+04  0.50400001928E-02 0.  1.
    10030    2    1    2    0    0  0.00000000000E+00  0.00000000000E+00 -0.48771399366E+03  0.19624898642E+04  0.19009212312E+04 0.  0.
        1    1    3    3  502    0  0.25786496374E+03  0.13386504852E+03  0.69041850696E+03  0.74906068213E+03  0.50400001928E-02 0. -1.
       -1    1    3    3    0  502 -0.25786496374E+03 -0.13386504852E+03 -0.11781325006E+04  0.12134291820E+04  0.50400001928E-02 0.  1.
</event>
<event>
 5   0  0.1327254E-05  0.1893949E+04  0.7818609E-02  0.8657874E-01
        1   -1    0    0  501    0  0.00000000000E+00  0.00000000000E+00  0.13750359434E+04  0.13750359434E+04  0.50400001928E-02 0. -1.
       -1   -1    0    0    0  501  0.00000000000E+00  0.00000000000E+00 -0.65217267073E+03  0.65217267075E+03  0.50400001928E-02 0.  1.
    10030    2    1    2    0    0  0.00000000000E+00  0.00000000000E+00  0.72286327266E+03  0.20272086142E+04  0.18939491689E+04 0.  0.
        5    1    3    3  502    0  0.88332315675E+03  0.56751655551E+02  0.12139789610E+01  0.88515767714E+03  0.46999998093E+01 0.  1.
       -5    1    3    3    0  502 -0.88332315675E+03 -0.56751655551E+02  0.72164929369E+03  0.11420509370E+04  0.46999998093E+01 0. -1.
</event>
<event>
 5   0  0.1471485E-05  0.1904344E+04  0.7818609E-02  0.8652697E-01
       -1   -1    0    0    0  501  0.00000000000E+00  0.00000000000E+00  0.11229880865E+04  0.11229880865E+04  0.50400001928E-02 0. -1.
        1   -1    0    0  501    0  0.00000000000E+00  0.00000000000E+00 -0.80733869582E+03  0.80733869584E+03  0.50400001928E-02 0.  1.
    10030    2    1    2    0    0  0.00000000000E+00  0.00000000000E+00  0.31564939071E+03  0.19303267824E+04  0.19043442307E+04 0.  0.
        4    1    3    3  502    0  0.58335914800E+03  0.63118428438E+03  0.57320677047E+03  0.10330871749E+04  0.12699999809E+01 0. -1.
       -4    1    3    3    0  502 -0.58335914800E+03 -0.63118428438E+03 -0.25755737976E+03  0.89723960745E+03  0.12699999809E+01 0.  1.
</event>
<event>
 5   0  0.2855141E-05  0.1901716E+04  0.7818609E-02  0.8654003E-01
       -2   -1    0    0    0  501  0.00000000000E+00  0.00000000000E+00  0.45485398955E+03  0.45485398955E+03  0.25500000920E-02 0. -1.
        2   -1    0    0  501    0  0.00000000000E+00  0.00000000000E+00 -0.19877391633E+04  0.19877391633E+04  0.25500000920E-02 0.  1.
    10030    2    1    2    0    0  0.00000000000E+00  0.00000000000E+00 -0.15328851738E+04  0.24425931529E+04  0.19017161603E+04 0.  0.
        1    1    3    3  502    0  0.15975064078E+03  0.22683476992E+03 -0.19345946027E+04  0.19543875145E+04  0.50400001928E-02 0.  1.
       -1    1    3    3    0  502 -0.15975064078E+03 -0.22683476992E+03  0.40170942889E+03  0.48820563839E+03  0.50400001928E-02 0. -1.
</event>
<event>
 5   0  0.1413011E-05  0.1895902E+04  0.7818609E-02  0.8656899E-01
        1   -1    0    0  501    0  0.00000000000E+00  0.00000000000E+00  0.60878547518E+03  0.60878547520E+03  0.50400001928E-02 0.  1.
       -1   -1    0    0    0  501  0.00000000000E+00  0.00000000000E+00 -0.14760720259E+04  0.14760720259E+04  0.50400001928E-02 0. -1.
    10030    2    1    2    0    0  0.00000000000E+00  0.00000000000E+00 -0.86728655071E+03  0.20848575011E+04  0.18959021174E+04 0.  0.
        1    1    3    3  502    0 -0.80810715318E+02  0.81783058349E+03  0.85922590002E+02  0.82629288179E+03  0.50400001928E-02 0.  1.
       -1    1    3    3    0  502  0.80810715318E+02 -0.81783058349E+03 -0.95320914071E+03  0.12585646193E+04  0.50400001928E-02 0. -1.
</event>
<event>
 5   0  0.2888776E-05  0.1899072E+04  0.7818609E-02  0.8655318E-01
       -2   -1    0    0    0  501  0.00000000000E+00  0.00000000000E+00  0.44715601616E+03  0.44715601617E+03  0.25500000920E-02 0.  1.
        2   -1    0    0  501    0  0.00000000000E+00  0.00000000000E+00 -0.20163409649E+04  0.20163409649E+04  0.25500000920E-02 0. -1.
    10030    2    1    2    0    0  0.00000000000E+00  0.00000000000E+00 -0.15691849487E+04  0.24634969810E+04  0.18990723979E+04 0.  0.
        3    1    3    3  502    0 -0.18231993762E+03  0.30502449867E+03  0.35764441436E+03  0.50417263091E+03  0.10100000352E+00 0.  1.
       -3    1    3    3    0  502  0.18231993762E+03 -0.30502449867E+03 -0.19268293631E+04  0.19593243501E+04  0.10100000352E+00 0. -1.
</event>
<event>
 5   0  0.2855141E-05  0.1899360E+04  0.7818609E-02  0.8655175E-01
        2   -1    0    0  501    0  0.00000000000E+00  0.00000000000E+00  0.13933176389E+04  0.13933176389E+04  0.25500000920E-02 0.  1.
       -2   -1    0    0    0  501  0.00000000000E+00  0.00000000000E+00 -0.64729841285E+03  0.64729841286E+03  0.25500000920E-02 0. -1.
    10030    2    1    2    0    0  0.00000000000E+00  0.00000000000E+00  0.74601922604E+03  0.20406160517E+04  0.18993602041E+04 0.  0.
        1    1    3    3  502    0 -0.16672726745E+01  0.45022579801E+03 -0.52535037954E+03  0.69188082087E+03  0.50400001928E-02 0. -1.
       -1    1    3    3    0  502  0.16672726745E+01 -0.45022579801E+03  0.12713696056E+04  0.13487352309E+04  0.50400001928E-02 0.  1.
</event>
<event>
 5   0  0.2855141E-05  0.1894022E+04  0.7818609E-02  0.8657838E-01
        2   -1    0    0  501    0  0.00000000000E+00  0.00000000000E+00  0.14085036115E+04  0.14085036115E+04  0.25500000920E-02 0.  1.
       -2   -1    0    0    0  501  0.00000000000E+00  0.00000000000E+00 -0.63672556709E+03  0.63672556710E+03  0.25500000920E-02 0. -1.
    10030    2    1    2    0    0  0.00000000000E+00  0.00000000000E+00  0.77177804442E+03  0.20452291786E+04  0.18940224506E+04 0.  0.
        1    1    3    3  502    0 -0.58404872182E+03 -0.60420718073E+03 -0.85605270467E+02  0.84469372501E+03  0.50400001928E-02 0. -1.
       -1    1    3    3    0  502  0.58404872182E+03  0.60420718073E+03  0.85738331489E+03  0.12005354536E+04  0.50400001928E-02 0.  1.
</event>
<event>
 5   0  0.2789718E-05  0.1899997E+04  0.7818609E-02  0.8654858E-01
        2   -1    0    0  501    0  0.00000000000E+00  0.00000000000E+00  0.23450283681E+04  0.23450283681E+04  0.25500000920E-02 0. -1.
       -2   -1    0    0    0  501  0.00000000000E+00  0.00000000000E+00 -0.38485570485E+03  0.38485570486E+03  0.25500000920E-02 0.  1.
    10030    2    1    2    0    0  0.00000000000E+00  0.00000000000E+00  0.19601726633E+04  0.27298840730E+04  0.18999974163E+04 0.  0.
        5    1    3    3  502    0 -0.60239602485E+03 -0.37410440829E+03  0.18883791368E+04  0.20171348327E+04  0.46999998093E+01 0. -1.
       -5    1    3    3    0  502  0.60239602485E+03  0.37410440829E+03  0.71793526476E+02  0.71274924027E+03  0.46999998093E+01 0.  1.
</event>
<event>
 5   0  0.1327254E-05  0.1900994E+04  0.7818609E-02  0.8654362E-01
       -1   -1    0    0    0  501  0.00000000000E+00  0.00000000000E+00  0.10640722774E+04  0.10640722774E+04  0.50400001928E-02 0.  1.
        1   -1    0    0  501    0  0.00000000000E+00  0.00000000000E+00 -0.84904393230E+03  0.84904393231E+03  0.50400001928E-02 0. -1.
    10030    2    1    2    0    0  0.00000000000E+00  0.00000000000E+00  0.21502834507E+03  0.19131162097E+04  0.19009935409E+04 0.  0.
        5    1    3    3  502    0 -0.83909978836E+03 -0.43265587654E+03 -0.33813523319E+01  0.94409379083E+03  0.46999998093E+01 0. -1.
       -5    1    3    3    0  502  0.83909978836E+03  0.43265587654E+03  0.21840969740E+03  0.96902241886E+03  0.46999998093E+01 0.  1.
</event>
<event>
 5   0  0.2888776E-05  0.1891768E+04  0.7818609E-02  0.8658965E-01
        2   -1    0    0  501    0  0.00000000000E+00  0.00000000000E+00  0.15049539666E+04  0.15049539666E+04  0.25500000920E-02 0.  1.
       -2   -1    0    0    0  501  0.00000000000E+00  0.00000000000E+00 -0.59450099540E+03  0.59450099540E+03  0.25500000920E-02 0. -1.
    10030    2    1    2    0    0  0.00000000000E+00  0.00000000000E+00  0.91045297121E+03  0.20994549620E+04  0.18917680949E+04 0.  0.
        3    1    3    3  502    0  0.94021737516E+03  0.89245781236E+02  0.39731424370E+03  0.10246131663E+04  0.10100000352E+00 0. -1.
       -3    1    3    3    0  502 -0.94021737516E+03 -0.89245781236E+02  0.51313872751E+03  0.10748417958E+04  0.10100000352E+00 0.  1.
</event>
<event>
 5   0  0.1344119E-05  0.1898949E+04  0.7818609E-02  0.8655379E-01
       -1   -1    0    0    0  501  0.00000000000E+00  0.00000000000E+00  0.36278489432E+03  0.36278489435E+03  0.50400001928E-02 0. -1.
        1   -1    0    0  501    0  0.00000000000E+00  0.00000000000E+00 -0.24849497831E+04  0.24849497831E+04  0.50400001928E-02 0.  1.
    10030    2    1    2    0    0  0.00000000000E+00  0.00000000000E+00 -0.21221648888E+04  0.28477346775E+04  0.18989494406E+04 0.  0.
        2    1    3    3  502    0 -0.84076015464E+03 -0.43044240827E+03 -0.91612145536E+03  0.13158407295E+04  0.25500000920E-02 0. -1.
       -2    1    3    3    0  502  0.84076015464E+03  0.43044240827E+03 -0.12060434335E+04  0.15318939480E+04  0.25500000920E-02 0.  1.
</event>
<event>
 5   0  0.1413011E-05  0.1879128E+04  0.7818609E-02  0.8665316E-01
       -1   -1    0    0    0  501  0.00000000000E+00  0.00000000000E+00  0.88028607346E+03  0.88028607347E+03  0.50400001928E-02 0.  1.
        1   -1    0    0  501    0  0.00000000000E+00  0.00000000000E+00 -0.10028338189E+04  0.10028338190E+04  0.50400001928E-02 0. -1.
    10030    2    1    2    0    0  0.00000000000E+00  0.00000000000E+00 -0.12254774549E+03  0.18831198924E+04  0.18791281434E+04 0.  0.
        1    1    3    3  502    0 -0.85760980578E+03 -0.17199282056E+03  0.28253586500E+03  0.91918584863E+03  0.50400001928E-02 0. -1.
       -1    1    3    3    0  502  0.85760980578E+03  0.17199282056E+03 -0.40508361049E+03  0.96393404380E+03  0.50400001928E-02 0.  1.
</event>
<event>
 5   0  0.1429067E-05  0.1873265E+04  0.7818609E-02  0.8668280E-01
       -1   -1    0    0    0  501  0.00000000000E+00  0.00000000000E+00  0.44884512399E+03  0.44884512402E+03  0.50400001928E-02 0. -1.
        1   -1    0    0  501    0  0.00000000000E+00  0.00000000000E+00 -0.19545284918E+04  0.19545284918E+04  0.50400001928E-02 0.  1.
    10030    2    1    2    0    0  0.00000000000E+00  0.00000000000E+00 -0.15056833678E+04  0.24033736158E+04  0.18732651529E+04 0.  0.
        3    1    3    3  502    0 -0.25337543182E+03  0.15392851893E+03  0.38705935753E+03  0.48755313027E+03  0.10100000352E+00 0. -1.
       -3    1    3    3    0  502  0.25337543182E+03 -0.15392851893E+03 -0.18927427253E+04  0.19158204856E+04  0.10100000352E+00 0.  1.
</event>
<event>
 5   0  0.1429067E-05  0.1904916E+04  0.7818609E-02  0.8652413E-01
       -1   -1    0    0    0  501  0.00000000000E+00  0.00000000000E+00  0.10941666534E+04  0.10941666534E+04  0.50400001928E-02 0. -1.
        1   -1    0    0  501    0  0.00000000000E+00  0.00000000000E+00 -0.82910217366E+03  0.82910217368E+03  0.50400001928E-02 0.  1.
    10030    2    1    2    0    0  0.00000000000E+00  0.00000000000E+00  0.26506447974E+03  0.19232688271E+04  0.19049156944E+04 0.  0.
        3    1    3    3  502    0 -0.68028334771E+03 -0.31033607692E+03 -0.46313680546E+03  0.87953943890E+03  0.10100000352E+00 0. -1.
       -3    1    3    3    0  502  0.68028334771E+03  0.31033607692E+03  0.72820128520E+03  0.10437293882E+04  0.10100000352E+00 0.  1.
</event>
<event>
 5   0  0.2813537E-05  0.1899911E+04  0.7818609E-02  0.8654901E-01
       -2   -1    0    0    0  501  0.00000000000E+00  0.00000000000E+00  0.14862126808E+04  0.14862126808E+04  0.25500000920E-02 0. -1.
        2   -1    0    0  501    0  0.00000000000E+00  0.00000000000E+00 -0.60719112802E+03  0.60719112803E+03  0.25500000920E-02 0.  1.
    10030    2    1    2    0    0  0.00000000000E+00  0.00000000000E+00  0.87902155276E+03  0.20934038088E+04  0.18999106865E+04 0.  0.
        2    1    3    3  502    0  0.13851559799E+03 -0.58671941965E+03 -0.36941698014E+03  0.70703263964E+03  0.25500000920E-02 0.  1.
       -2    1    3    3    0  502 -0.13851559799E+03  0.58671941965E+03  0.12484385329E+04  0.13863711692E+04  0.25500000920E-02 0. -1.
</event>
<event>
 5   0  0.1327254E-05  0.1898007E+04  0.7818609E-02  0.8655849E-01
       -1   -1    0    0    0  501  0.00000000000E+00  0.00000000000E+00  0.87243297874E+03  0.87243297875E+03  0.50400001928E-02 0.  1.
        1   -1    0    0  501    0  0.00000000000E+00  0.00000000000E+00 -0.10322938249E+04  0.10322938249E+04  0.50400001928E-02 0. -1.
    10030    2    1    2    0    0  0.00000000000E+00  0.00000000000E+00 -0.15986084612E+03  0.19047268036E+04  0.18980065085E+04 0.  0.
        5    1    3    3  502    0 -0.80994973870E+03  0.34141712607E+03 -0.43896926008E+03  0.98249698956E+03  0.46999998093E+01 0. -1.
       -5    1    3    3    0  502  0.80994973870E+03 -0.34141712607E+03  0.27910841396E+03  0.92222981406E+03  0.46999998093E+01 0.  1.
</event>
<event>
 5   0  0.2789718E-05  0.1898582E+04  0.7818609E-02  0.8655563E-01
        2   -1    0    0  501    0  0.00000000000E+00  0.00000000000E+00  0.12210197468E+04  0.12210197468E+04  0.25500000920E-02 0. -1.
       -2   -1    0    0    0  501  0.00000000000E+00  0.00000000000E+00 -0.73803317816E+03  0.73803317817E+03  0.25500000920E-02 0.  1.
    10030    2    1    2    0    0  0.00000000000E+00  0.00000000000E+00  0.48298656861E+03  0.19590529249E+04  0.18985816646E+04 0.  0.
        5    1    3    3  502    0 -0.43637259667E+03 -0.30850837412E+03 -0.56805432172E+03  0.77993990951E+03  0.46999998093E+01 0.  1.
       -5    1    3    3    0  502  0.43637259667E+03  0.30850837412E+03  0.10510408903E+04  0.11791130154E+04  0.46999998093E+01 0. -1.
</event>
<event>
 5   0  0.1344119E-05  0.1900298E+04  0.7818609E-02  0.8654708E-01
       -1   -1    0    0    0  501  0.00000000000E+00  0.00000000000E+00  0.61814972793E+03  0.61814972795E+03  0.50400001928E-02 0.  1.
        1   -1    0    0  501    0  0.00000000000E+00  0.00000000000E+00 -0.14604605750E+04  0.14604605750E+04  0.50400001928E-02 0. -1.
    10030    2    1    2    0    0  0.00000000000E+00  0.00000000000E+00 -0.84231084709E+03  0.20786103030E+04  0.19002981946E+04 0.  0.
        2    1    3    3  502    0  0.12012809119E+03 -0.46169091479E+03 -0.13199607190E+04  0.14035261162E+04  0.25500000920E-02 0. -1.
       -2    1    3    3    0  502 -0.12012809119E+03  0.46169091479E+03  0.47764987193E+03  0.67508418679E+03  0.25500000920E-02 0.  1.
</event>
<event>
 5   0  0.1344119E-05  0.1900257E+04  0.7818609E-02  0.8654729E-01
       -1   -1    0    0    0  501  0.00000000000E+00  0.00000000000E+00  0.99734762160E+03  0.99734762162E+03  0.50400001928E-02 0.  1.
        1   -1    0    0  501    0  0.00000000000E+00  0.00000000000E+00 -0.90514456011E+03  0.90514456013E+03  0.50400001928E-02 0. -1.
    10030    2    1    2    0    0  0.00000000000E+00  0.00000000000E+00  0.92203061489E+02  0.19024921817E+04  0.19002565872E+04 0.  0.
        2    1    3    3  502    0 -0.66934983948E+03  0.65662682790E+03  0.19976100312E+03  0.95869309850E+03  0.25500000920E-02 0. -1.
       -2    1    3    3    0  502  0.66934983948E+03 -0.65662682790E+03 -0.10755794163E+03  0.94379908325E+03  0.25500000920E-02 0.  1.
</event>
<event>
 5   0  0.1413011E-05  0.1897145E+04  0.7818609E-02  0.8656279E-01
       -1   -1    0    0    0  501  0.00000000000E+00  0.00000000000E+00  0.54579491289E+03  0.54579491292E+03  0.50400001928E-02 0. -1.
        1   -1    0    0  501    0  0.00000000000E+00  0.00000000000E+00 -0.16485854872E+04  0.16485854872E+04  0.50400001928E-02 0.  1.
    10030    2    1    2    0    0  0.00000000000E+00  0.00000000000E+00 -0.11027905743E+04  0.21943804001E+04  0.18971447730E+04 0.  0.
        1    1    3    3  502    0 -0.51117291434E+03  0.28624032640E+03  0.31151723979E+03  0.66353165977E+03  0.50400001928E-02 0. -1.
       -1    1    3    3    0  502  0.51117291434E+03 -0.28624032640E+03 -0.14143078140E+04  0.15308487403E+04  0.50400001928E-02 0.  1.
</event>
<event>
 5   0  0.1344119E-05  0.1882588E+04  0.7818609E-02  0.8663572E-01
        1   -1    0    0  501    0  0.00000000000E+00  0.00000000000E+00  0.13515344500E+04  0.13515344501E+04  0.50400001928E-02 0. -1.
       -1   -1    0    0    0  501  0.00000000000E+00  0.00000000000E+00 -0.65557656350E+03  0.65557656352E+03  0.50400001928E-02 0.  1.
    10030    2    1    2    0    0  0.00000000000E+00  0.00000000000E+00  0.69595788655E+03  0.20071110136E+04  0.18825879106E+04 0.  0.
        2    1    3    3  502    0  0.42818345491E+03 -0.14266790189E+02 -0.54560654733E+03  0.69370823612E+03  0.25500000920E-02 0.  1.
       -2    1    3    3    0  502 -0.42818345491E+03  0.14266790189E+02  0.12415644339E+04  0.13134027775E+04  0.25500000920E-02 0. -1.
</event>
<event>
 5   0  0.2855141E-05  0.1896647E+04  0.7818609E-02  0.8656527E-01
        2   -1    0    0  501    0  0.00000000000E+00  0.00000000000E+00  0.83718811555E+03  0.83718811556E+03  0.25500000920E-02 0. -1.
       -2   -1    0    0    0  501  0.00000000000E+00  0.00000000000E+00 -0.10742114862E+04  0.10742114862E+04  0.25500000920E-02 0.  1.
    10030    2    1    2    0    0  0.00000000000E+00  0.00000000000E+00 -0.23702337061E+03  0.19113996017E+04  0.18966466090E+04 0.  0.
        1    1    3    3  502    0 -0.25652323069E+03  0.79758070590E+03  0.32921644108E+03  0.90017921294E+03  0.50400001928E-02 0. -1.
       -1    1    3    3    0  502  0.25652323069E+03 -0.79758070590E+03 -0.56623981169E+03  0.10112203888E+04  0.50400001928E-02 0.  1.
</event>
<event>
 5   0  0.2855141E-05  0.1909004E+04  0.7818609E-02  0.8650387E-01
        2   -1    0    0  501    0  0.00000000000E+00  0.00000000000E+00  0.13591046868E+04  0.13591046868E+04  0.25500000920E-02 0.  1.
       -2   -1    0    0    0  501  0.00000000000E+00  0.00000000000E+00 -0.67034868785E+03  0.67034868786E+03  0.25500000920E-02 0. -1.
    10030    2    1    2    0    0  0.00000000000E+00  0.00000000000E+00  0.68875599890E+03  0.20294533746E+04  0.19090039743E+04 0.  0.
        1    1    3    3  502    0  0.43137113631E+03 -0.32843239339E+03  0.11795171975E+04  0.12981562747E+04  0.50400001928E-02 0.  1.
       -1    1    3    3    0  502 -0.43137113631E+03  0.32843239339E+03 -0.49076119861E+03  0.73129709992E+03  0.50400001928E-02 0. -1.
</event>
<event>
 5   0  0.1471485E-05  0.1901598E+04  0.7818609E-02  0.8654061E-01
       -1   -1    0    0    0  501  0.00000000000E+00  0.00000000000E+00  0.14854933230E+04  0.14854933230E+04  0.50400001928E-02 0. -1.
        1   -1    0    0  501    0  0.00000000000E+00  0.00000000000E+00 -0.60856489370E+03  0.60856489372E+03  0.50400001928E-02 0.  1.
    10030    2    1    2    0    0  0.00000000000E+00  0.00000000000E+00  0.87692842928E+03  0.20940582167E+04  0.19015983658E+04 0.  0.
        4    1    3    3  502    0  0.82825859495E+02  0.18941555062E+03  0.14604430691E+04  0.14750030321E+04  0.12699999809E+01 0. -1.
       -4    1    3    3    0  502 -0.82825859495E+02 -0.18941555062E+03 -0.58351463979E+03  0.61905518459E+03  0.12699999809E+01 0.  1.
</event>
<event>
 5   0  0.2789718E-05  0.1892210E+04  0.7818609E-02  0.8658744E-01
       -2   -1    0    0    0  501  0.00000000000E+00  0.00000000000E+00  0.95776052356E+03  0.95776052356E+03  0.25500000920E-02 0.  1.
        2   -1    0    0  501    0  0.00000000000E+00  0.00000000000E+00 -0.93459119698E+03  0.93459119699E+03  0.25500000920E-02 0. -1.
    10030    2    1    2    0    0  0.00000000000E+00  0.00000000000E+00  0.23169326575E+02  0.18923517205E+04  0.18922098765E+04 0.  0.
        5    1    3    3  502    0 -0.53832437199E+02 -0.69738693567E+03 -0.62552352473E+03  0.93837531901E+03  0.46999998093E+01 0. -1.
       -5    1    3    3    0  502  0.53832437199E+02  0.69738693567E+03  0.64869285131E+03  0.95397640153E+03  0.46999998093E+01 0.  1.
</event>
<event>
 5   0  0.1327254E-05  0.1899366E+04  0.7818609E-02  0.8655172E-01
       -1   -1    0    0    0  501  0.00000000000E+00  0.00000000000E+00  0.75688230456E+03  0.75688230458E+03  0.50400001928E-02 0. -1.
        1   -1    0    0  501    0  0.00000000000E+00  0.00000000000E+00 -0.11915953715E+04  0.11915953715E+04  0.50400001928E-02 0.  1.
    10030    2    1    2    0    0  0.00000000000E+00  0.00000000000E+00 -0.43471306695E+03  0.19484776761E+04  0.18993656319E+04 0.  0.
        5    1    3    3  502    0  0.77479235360E+03 -0.37820118080E+03  0.19110471203E+03  0.88310952057E+03  0.46999998093E+01 0. -1.
       -5    1    3    3    0  502 -0.77479235360E+03  0.37820118080E+03 -0.62581777898E+03  0.10653681555E+04  0.46999998093E+01 0.  1.
</event>
<event>
 5   0  0.1344119E-05  0.1907505E+04  0.7818609E-02  0.8651130E-01
        1   -1    0    0  501    0  0.00000000000E+00  0.00000000000E+00  0.93926752774E+03  0.93926752775E+03  0.50400001928E-02 0.  1.
       -1   -1    0    0    0  501  0.00000000000E+00  0.00000000000E+00 -0.96846053039E+03  0.96846053040E+03  0.50400001928E-02 0. -1.
    10030    2    1    2    0    0  0.00000000000E+00  0.00000000000E+00 -0.29193002651E+02  0.19077280582E+04  0.19075046822E+04 0.  0.
        2    1    3    3  502    0 -0.62408188216E+03 -0.61954196271E+03  0.35467984642E+03  0.94821317892E+03  0.25500000920E-02 0.  1.
       -2    1    3    3    0  502  0.62408188216E+03  0.61954196271E+03 -0.38387284908E+03  0.95951487923E+03  0.25500000920E-02 0. -1.
</event>
<event>
 5   0  0.2789718E-05  0.1900703E+04  0.7818609E-02  0.8654507E-01
       -2   -1    0    0    0  501  0.00000000000E+00  0.00000000000E+00  0.39191032010E+03  0.39191032011E+03  0.25500000920E-02 0.  1.
        2   -1    0    0  501    0  0.00000000000E+00  0.00000000000E+00 -0.23045266973E+04  0.23045266973E+04  0.25500000920E-02 0. -1.
    10030    2    1    2    0    0  0.00000000000E+00  0.00000000000E+00 -0.19126163772E+04  0.26964370174E+04  0.19007028128E+04 0.  0.
        5    1    3    3  502    0 -0.21402365447E+03 -0.78229475732E+03 -0.16590132335E+04  0.18466559536E+04  0.46999998093E+01 0. -1.
       -5    1    3    3    0  502  0.21402365447E+03  0.78229475732E+03 -0.25360314377E+03  0.84978106388E+03  0.46999998093E+01 0.  1.
</event>
<event>
 5   0  0.2855141E-05  0.1891431E+04  0.7818609E-02  0.8659134E-01
        2   -1    0    0  501    0  0.00000000000E+00  0.00000000000E+00  0.88548320990E+03  0.88548320991E+03  0.25500000920E-02 0. -1.
       -2   -1    0    0    0  501  0.00000000000E+00  0.00000000000E+00 -0.10100446011E+04  0.10100446011E+04  0.25500000920E-02 0.  1.
    10030    2    1    2    0    0  0.00000000000E+00  0.00000000000E+00 -0.12456139115E+03  0.18955278110E+04  0.18914307130E+04 0.  0.
        1    1    3    3  502    0  0.78400692559E+03  0.95576380202E+01 -0.59221656640E+03  0.98258774131E+03  0.50400001928E-02 0.  1.
       -1    1    3    3    0  502 -0.78400692559E+03 -0.95576380202E+01  0.46765517525E+03  0.91294006966E+03  0.50400001928E-02 0. -1.
</event>
<event>
 5   0  0.1344119E-05  0.1899269E+04  0.7818609E-02  0.8655220E-01
        1   -1    0    0  501    0  0.00000000000E+00  0.00000000000E+00  0.99904829723E+03  0.99904829725E+03  0.50400001928E-02 0.  1.
       -1   -1    0    0    0  501  0.00000000000E+00  0.00000000000E+00 -0.90266443860E+03  0.90266443861E+03  0.50400001928E-02 0. -1.
    10030    2    1    2    0    0  0.00000000000E+00  0.00000000000E+00  0.96383858638E+02  0.19017127359E+04  0.18992686702E+04 0.  0.
        2    1    3    3  502    0  0.69331708844E+03 -0.32225296380E+03 -0.51579999663E+03  0.92227175731E+03  0.25500000920E-02 0. -1.
       -2    1    3    3    0  502 -0.69331708844E+03  0.32225296380E+03  0.61218385527E+03  0.97944097855E+03  0.25500000920E-02 0.  1.
</event>
<event>
 5   0  0.1010725E-05  0.1900429E+04  0.7818609E-02  0.8654643E-01
        3   -1    0    0  501    0  0.00000000000E+00  0.00000000000E+00  0.96903679230E+03  0.96903679757E+03  0.10100000352E+00 0.  1.
       -3   -1    0    0    0  501  0.00000000000E+00  0.00000000000E+00 -0.93175767597E+03  0.93175768145E+03  0.10100000352E+00 0. -1.
    10030    2    1    2    0    0  0.00000000000E+00  0.00000000000E+00  0.37279116330E+02  0.19007944790E+04  0.19004288776E+04 0.  0.
        4    1    3    3  502    0  0.19670619620E+03 -0.69593351257E+03 -0.59783044453E+03  0.93830679144E+03  0.12699999809E+01 0. -1.
       -4    1    3    3    0  502 -0.19670619620E+03  0.69593351257E+03  0.63510956086E+03  0.96248768758E+03  0.12699999809E+01 0.  1.
</event>
<event>
 5   0  0.1327254E-05  0.1901399E+04  0.7818609E-02  0.8654161E-01
        1   -1    0    0  501    0  0.00000000000E+00  0.00000000000E+00  0.62213959120E+03  0.62213959122E+03  0.50400001928E-02 0.  1.
       -1   -1    0    0    0  501  0.00000000000E+00  0.00000000000E+00 -0.14527755467E+04  0.14527755467E+04  0.50400001928E-02 0. -1.
    10030    2    1    2    0    0  0.00000000000E+00  0.00000000000E+00 -0.83063595545E+03  0.20749151379E+04  0.19013986270E+04 0.  0.
        5    1    3    3  502    0  0.90515424905E+03  0.22025700367E+03 -0.62233996465E+03  0.11203332021E+04  0.46999998093E+01 0. -1.
       -5    1    3    3    0  502 -0.90515424905E+03 -0.22025700367E+03 -0.20829599080E+03  0.95458193573E+03  0.46999998093E+01 0.  1.
</event>
<event>
 5   0  0.1429067E-05  0.1899077E+04  0.7818609E-02  0.8655316E-01
        1   -1    0    0  501    0  0.00000000000E+00  0.00000000000E+00  0.15311280051E+04  0.15311280052E+04  0.50400001928E-02 0. -1.
       -1   -1    0    0    0  501  0.00000000000E+00  0.00000000000E+00 -0.58886190476E+03  0.58886190478E+03  0.50400001928E-02 0.  1.
    10030    2    1    2    0    0  0.00000000000E+00  0.00000000000E+00  0.94226610038E+03  0.21199899099E+04  0.18990765688E+04 0.  0.
        3    1    3    3  502    0 -0.74992235787E+03  0.15898845398E+03 -0.15437069134E+03  0.78197902266E+03  0.10100000352E+00 0.  1.
       -3    1    3    3    0  502  0.74992235787E+03 -0.15898845398E+03  0.10966367917E+04  0.13380108873E+04  0.10100000352E+00 0. -1.
</event>
<event>
 5   0  0.1327254E-05  0.1915849E+04  0.7818609E-02  0.8647007E-01
        1   -1    0    0  501    0  0.00000000000E+00  0.00000000000E+00  0.85335680450E+03  0.85335680452E+03  0.50400001928E-02 0. -1.
       -1   -1    0    0    0  501  0.00000000000E+00  0.00000000000E+00 -0.10753052013E+04  0.10753052013E+04  0.50400001928E-02 0.  1.
    10030    2    1    2    0    0  0.00000000000E+00  0.00000000000E+00 -0.22194839681E+03  0.19286620058E+04  0.19158486480E+04 0.  0.
        5    1    3    3  502    0  0.76457061283E+03 -0.57708632823E+03 -0.11123721261E+03  0.96436127032E+03  0.46999998093E+01 0.  1.
       -5    1    3    3    0  502 -0.76457061283E+03  0.57708632823E+03 -0.11071118420E+03  0.96430073552E+03  0.46999998093E+01 0. -1.
</event>
<event>
 5   0  0.1471485E-05  0.1899085E+04  0.7818609E-02  0.8655312E-01
       -1   -1    0    0    0  501  0.00000000000E+00  0.00000000000E+00  0.45200741869E+03  0.45200741872E+03  0.50400001928E-02 0.  1.
        1   -1    0    0  501    0  0.00000000000E+00  0.00000000000E+00 -0.19947250467E+04  0.19947250467E+04  0.50400001928E-02 0. -1.
    10030    2    1    2    0    0  0.00000000000E+00  0.00000000000E+00 -0.15427176280E+04  0.24467324654E+04  0.18990845367E+04 0.  0.
        4    1    3    3  502    0 -0.15884870131E+02  0.42652574323E+03  0.32144753666E+03  0.53432824225E+03  0.12699999809E+01 0.  1.
       -4    1    3    3    0  502  0.15884870131E+02 -0.42652574323E+03 -0.18641651647E+04  0.19124042232E+04  0.12699999809E+01 0. -1.
</event>
<event>
 5   0  0.1327254E-05  0.1904420E+04  0.7818609E-02  0.8652660E-01
       -1   -1    0    0    0  501  0.00000000000E+00  0.00000000000E+00  0.45215632839E+03  0.45215632842E+03  0.50400001928E-02 0.  1.
        1   -1    0    0  501    0  0.00000000000E+00  0.00000000000E+00 -0.20052874478E+04  0.20052874478E+04  0.50400001928E-02 0. -1.
    10030    2    1    2    0    0  0.00000000000E+00  0.00000000000E+00 -0.15531311194E+04  0.24574437762E+04  0.19044195019E+04 0.  0.
        5    1    3    3  502    0 -0.89730771117E+03  0.29951476322E+03 -0.63632743200E+03  0.11400898704E+04  0.46999998093E+01 0. -1.
       -5    1    3    3    0  502  0.89730771117E+03 -0.29951476322E+03 -0.91680368741E+03  0.13173539058E+04  0.46999998093E+01 0.  1.
</event>
<event>
 5   0  0.2879462E-05  0.1897395E+04  0.7818609E-02  0.8656154E-01
       -2   -1    0    0    0  501  0.00000000000E+00  0.00000000000E+00  0.57105545837E+03  0.57105545837E+03  0.25500000920E-02 0.  1.
        2   -1    0    0  501    0  0.00000000000E+00  0.00000000000E+00 -0.15760766281E+04  0.15760766281E+04  0.25500000920E-02 0. -1.
    10030    2    1    2    0    0  0.00000000000E+00  0.00000000000E+00 -0.10050211697E+04  0.21471320865E+04  0.18973952264E+04 0.  0.
        4    1    3    3  502    0 -0.21445771916E+03 -0.79016851786E+03  0.39802892569E+02  0.81972207673E+03  0.12699999809E+01 0.  1.
       -4    1    3    3    0  502  0.21445771916E+03  0.79016851786E+03 -0.10448240623E+04  0.13274100098E+04  0.12699999809E+01 0. -1.
</event>
<event>
 5   0  0.1327254E-05  0.1899458E+04  0.7818609E-02  0.8655126E-01
       -1   -1    0    0    0  501  0.00000000000E+00  0.00000000000E+00  0.47654920290E+03  0.47654920293E+03  0.50400001928E-02 0. -1.
        1   -1    0    0  501    0  0.00000000000E+00  0.00000000000E+00 -0.18927425432E+04  0.18927425432E+04  0.50400001928E-02 0.  1.
    10030    2    1    2    0    0  0.00000000000E+00  0.00000000000E+00 -0.14161933403E+04  0.23692917462E+04  0.18994577651E+04 0.  0.
        5    1    3    3  502    0  0.75599621452E+02  0.61693139493E+03 -0.16037986877E+04  0.17200325490E+04  0.46999998093E+01 0.  1.
       -5    1    3    3    0  502 -0.75599621452E+02 -0.61693139493E+03  0.18760534736E+03  0.64925919722E+03  0.46999998093E+01 0. -1.
</event>
<event>
 5   0  0.2888776E-05  0.1898599E+04  0.7818609E-02  0.8655554E-01
        2   -1    0    0  501    0  0.00000000000E+00  0.00000000000E+00  0.23505327847E+04  0.23505327847E+04  0.25500000920E-02 0. -1.
       -2   -1    0    0    0  501  0.00000000000E+00  0.00000000000E+00 -0.38338944831E+03  0.38338944832E+03  0.25500000920E-02 0.  1.
    10030    2    1    2    0    0  0.00000000000E+00  0.00000000000E+00  0.19671433364E+04  0.27339222330E+04  0.18985989230E+04 0.  0.
        3    1    3    3  502    0  0.12619305660E+03  0.22506879246E+03 -0.33192334166E+03  0.42042093646E+03  0.10100000352E+00 0.  1.
       -3    1    3    3    0  502 -0.12619305660E+03 -0.22506879246E+03  0.22990666780E+04  0.23135012966E+04  0.10100000352E+00 0. -1.
</event>
<event>
 5   0  0.2888776E-05  0.1897515E+04  0.7818609E-02  0.8656094E-01
        2   -1    0    0  501    0  0.00000000000E+00  0.00000000000E+00  0.13217225230E+04  0.13217225230E+04  0.25500000920E-02 0. -1.
       -2   -1    0    0    0  501  0.00000000000E+00  0.00000000000E+00 -0.68103628196E+03  0.68103628196E+03  0.25500000920E-02 0.  1.
    10030    2    1    2    0    0  0.00000000000E+00  0.00000000000E+00  0.64068624108E+03  0.20027588050E+04  0.18975152098E+04 0.  0.
        3    1    3    3  502    0  0.59900608603E+03 -0.73396732046E+03  0.26627014761E+03  0.98408135858E+03  0.10100000352E+00 0.  1.
       -3    1    3    3    0  502 -0.59900608603E+03  0.73396732046E+03  0.37441609348E+03  0.10186774464E+04  0.10100000352E+00 0. -1.
</event>
<event>
 5   0  0.1344119E-05  0.1903444E+04  0.7818609E-02  0.8653144E-01
       -1   -1    0    0    0  501  0.00000000000E+00  0.00000000000E+00  0.50476270638E+03  0.50476270640E+03  0.50400001928E-02 0. -1.
        1   -1    0    0  501    0  0.00000000000E+00  0.00000000000E+00 -0.17944558894E+04  0.17944558894E+04  0.50400001928E-02 0.  1.
    10030    2    1    2    0    0  0.00000000000E+00  0.00000000000E+00 -0.12896931830E+04  0.22992185958E+04  0.19034436280E+04 0.  0.
        2    1    3    3  502    0  0.32280716784E+03  0.31661887955E+03 -0.16564239682E+04  0.17170300943E+04  0.25500000920E-02 0.  1.
       -2    1    3    3    0  502 -0.32280716784E+03 -0.31661887955E+03  0.36673078514E+03  0.58218850149E+03  0.25500000920E-02 0. -1.
</event>
<event>
 5   0  0.2789718E-05  0.1902025E+04  0.7818609E-02  0.8653849E-01
       -2   -1    0    0    0  501  0.00000000000E+00  0.00000000000E+00  0.64329599168E+03  0.64329599169E+03  0.25500000920E-02 0. -1.
        2   -1    0    0  501    0  0.00000000000E+00  0.00000000000E+00 -0.14059231938E+04  0.14059231938E+04  0.25500000920E-02 0.  1.
    10030    2    1    2    0    0  0.00000000000E+00  0.00000000000E+00 -0.76262720208E+03  0.20492191855E+04  0.19020249790E+04 0.  0.
        5    1    3    3  502    0 -0.16306597798E+03 -0.53001116722E+01 -0.13907199739E+04  0.14002652392E+04  0.46999998093E+01 0.  1.
       -5    1    3    3    0  502  0.16306597798E+03  0.53001116722E+01  0.62809277181E+03  0.64895394625E+03  0.46999998093E+01 0. -1.
</event>
<event>
 5   0  0.1327254E-05  0.1900175E+04  0.7818609E-02  0.8654769E-01
       -1   -1    0    0    0  501  0.00000000000E+00  0.00000000000E+00  0.62970961623E+03  0.62970961625E+03  0.50400001928E-02 0.  1.
        1   -1    0    0  501    0  0.00000000000E+00  0.00000000000E+00 -0.14334636671E+04  0.14334636671E+04  0.50400001928E-02 0. -1.
    10030    2    1    2    0    0  0.00000000000E+00  0.00000000000E+00 -0.80375405090E+03  0.20631732834E+04  0.19001745770E+04 0.  0.
        5    1    3    3  502    0 -0.62223809774E+03  0.25763328484E+03  0.32574899340E+03  0.74812409160E+03  0.46999998093E+01 0.  1.
       -5    1    3    3    0  502  0.62223809774E+03 -0.25763328484E+03 -0.11295030443E+04  0.13150491918E+04  0.46999998093E+01 0. -1.
</event>
<event>
 5   0  0.1344119E-05  0.1900297E+04  0.7818609E-02  0.8654708E-01
       -1   -1    0    0    0  501  0.00000000000E+00  0.00000000000E+00  0.41194104831E+03  0.41194104835E+03  0.50400001928E-02 0.  1.
        1   -1    0    0  501    0  0.00000000000E+00  0.00000000000E+00 -0.21915332199E+04  0.21915332199E+04  0.50400001928E-02 0. -1.
    10030    2    1    2    0    0  0.00000000000E+00  0.00000000000E+00 -0.17795921716E+04  0.26034742683E+04  0.19002973368E+04 0.  0.
        2    1    3    3  502    0 -0.80589654175E+03  0.50237803577E+03 -0.84802539376E+03  0.12731849808E+04  0.25500000920E-02 0. -1.
       -2    1    3    3    0  502  0.80589654175E+03 -0.50237803577E+03 -0.93156677786E+03  0.13302892875E+04  0.25500000920E-02 0.  1.
</event>
<event>
 5   0  0.2789718E-05  0.1902747E+04  0.7818609E-02  0.8653490E-01
        2   -1    0    0  501    0  0.00000000000E+00  0.00000000000E+00  0.10489281223E+04  0.10489281223E+04  0.25500000920E-02 0. -1.
       -2   -1    0    0    0  501  0.00000000000E+00  0.00000000000E+00 -0.86289184691E+03  0.86289184692E+03  0.25500000920E-02 0.  1.
    10030    2    1    2    0    0  0.00000000000E+00  0.00000000000E+00  0.18603627536E+03  0.19118199692E+04  0.19027469876E+04 0.  0.
        5    1    3    3  502    0 -0.10078054713E+03 -0.71817991074E+03 -0.52566983118E+03  0.89570640518E+03  0.46999998093E+01 0.  1.
       -5    1    3    3    0  502  0.10078054713E+03  0.71817991074E+03  0.71170610654E+03  0.10161135640E+04  0.46999998093E+01 0. -1.
</event>
<event>
 5   0  0.2855141E-05  0.1900261E+04  0.7818609E-02  0.8654727E-01
       -2   -1    0    0    0  501  0.00000000000E+00  0.00000000000E+00  0.87321478904E+03  0.87321478904E+03  0.25500000920E-02 0.  1.
        2   -1    0    0  501    0  0.00000000000E+00  0.00000000000E+00 -0.10338211234E+04  0.10338211234E+04  0.25500000920E-02 0. -1.
    10030    2    1    2    0    0  0.00000000000E+00  0.00000000000E+00 -0.16060633435E+03  0.19070359124E+04  0.19002609233E+04 0.  0.
        1    1    3    3  502    0 -0.12793091273E+03  0.76383738694E+03 -0.63265990923E+03  0.10000362158E+04  0.50400001928E-02 0. -1.
       -1    1    3    3    0  502  0.12793091273E+03 -0.76383738694E+03  0.47205357488E+03  0.90699969664E+03  0.50400001928E-02 0.  1.
</event>
<event>
 5   0  0.1344119E-05  0.1901784E+04  0.7818609E-02  0.8653969E-01
        1   -1    0    0  501    0  0.00000000000E+00  0.00000000000E+00  0.64247168424E+03  0.64247168426E+03  0.50400001928E-02 0. -1.
       -1   -1    0    0    0  501  0.00000000000E+00  0.00000000000E+00 -0.14073706773E+04  0.14073706774E+04  0.50400001928E-02 0.  1.
    10030    2    1    2    0    0  0.00000000000E+00  0.00000000000E+00 -0.76489899311E+03  0.20498423616E+04  0.19017842248E+04 0.  0.
        2    1    3    3  502    0 -0.29430592106E+03 -0.67742118870E+03 -0.10279744369E+04  0.12657989118E+04  0.25500000920E-02 0.  1.
       -2    1    3    3    0  502  0.29430592106E+03  0.67742118870E+03  0.26307544383E+03  0.78404344983E+03  0.25500000920E-02 0. -1.
</event>
<event>
 5   0  0.2855141E-05  0.1899490E+04  0.7818609E-02  0.8655110E-01
        2   -1    0    0  501    0  0.00000000000E+00  0.00000000000E+00  0.26362441082E+04  0.26362441082E+04  0.25500000920E-02 0.  1.
       -2   -1    0    0    0  501  0.00000000000E+00  0.00000000000E+00 -0.34215937951E+03  0.34215937952E+03  0.25500000920E-02 0. -1.
    10030    2    1    2    0    0  0.00000000000E+00  0.00000000000E+00  0.22940847287E+04  0.29784034878E+04  0.18994900877E+04 0.  0.
        1    1    3    3  502    0 -0.71403874271E+03 -0.19114422746E+03  0.21197133885E+03  0.76897288008E+03  0.50400001928E-02 0. -1.
       -1    1    3    3    0  502  0.71403874271E+03  0.19114422746E+03  0.20821133899E+04  0.22094306077E+04  0.50400001928E-02 0.  1.
</event>
<event>
 5   0  0.1471485E-05  0.1898393E+04  0.7818609E-02  0.8655657E-01
        1   -1    0    0  501    0  0.00000000000E+00  0.00000000000E+00  0.68573504313E+03  0.68573504315E+03  0.50400001928E-02 0. -1.
       -1   -1    0    0    0  501  0.00000000000E+00  0.00000000000E+00 -0.13138802852E+04  0.13138802853E+04  0.50400001928E-02 0.  1.
    10030    2    1    2    0    0  0.00000000000E+00  0.00000000000E+00 -0.62814524212E+03  0.19996153284E+04  0.18983927456E+04 0.  0.
        4    1    3    3  502    0  0.32479357233E+03  0.29491774402E+02 -0.12530125713E+04  0.12947597252E+04  0.12699999809E+01 0.  1.
       -4    1    3    3    0  502 -0.32479357233E+03 -0.29491774402E+02  0.62486732916E+03  0.70485560318E+03  0.12699999809E+01 0. -1.
</event>
<event>
 5   0  0.2888776E-05  0.1897224E+04  0.7818609E-02  0.8656240E-01
        2   -1    0    0  501    0  0.00000000000E+00  0.00000000000E+00  0.10592278912E+04  0.10592278912E+04  0.25500000920E-02 0.  1.
       -2   -1    0    0    0  501  0.00000000000E+00  0.00000000000E+00 -0.84954755004E+03  0.84954755004E+03  0.25500000920E-02 0. -1.
    10030    2    1    2    0    0  0.00000000000E+00  0.00000000000E+00  0.20968034121E+03  0.19087754413E+04  0.18972237190E+04 0.  0.
        3    1    3    3  502    0 -0.78393500284E+03 -0.52128820295E+03  0.22203534849E+03  0.96726169437E+03  0.10100000352E+00 0. -1.
       -3    1    3    3    0  502  0.78393500284E+03  0.52128820295E+03 -0.12355007281E+02  0.94151374691E+03  0.10100000352E+00 0.  1.
</event>
<event>
 5   0  0.1471485E-05  0.1892470E+04  0.7818609E-02  0.8658614E-01
       -1   -1    0    0    0  501  0.00000000000E+00  0.00000000000E+00  0.16493635017E+04  0.16493635017E+04  0.50400001928E-02 0. -1.
        1   -1    0    0  501    0  0.00000000000E+00  0.00000000000E+00 -0.54285218481E+03  0.54285218483E+03  0.50400001928E-02 0.  1.
    10030    2    1    2    0    0  0.00000000000E+00  0.00000000000E+00  0.11065113169E+04  0.21922156865E+04  0.18924698999E+04 0.  0.
        4    1    3    3  502    0  0.20534673419E+03 -0.32866288186E+03 -0.44670446111E+03  0.59138232948E+03  0.12699999809E+01 0.  1.
       -4    1    3    3    0  502 -0.20534673419E+03  0.32866288186E+03  0.15532157780E+04  0.16008333570E+04  0.12699999809E+01 0. -1.
</event>
<event>
 5   0  0.2888776E-05  0.1906631E+04  0.7818609E-02  0.8651563E-01
        2   -1    0    0  501    0  0.00000000000E+00  0.00000000000E+00  0.13793329874E+04  0.13793329874E+04  0.25500000920E-02 0.  1.
       -2   -1    0    0    0  501  0.00000000000E+00  0.00000000000E+00 -0.65887690446E+03  0.65887690446E+03  0.25500000920E-02 0. -1.
    10030    2    1    2    0    0  0.00000000000E+00  0.00000000000E+00  0.72045608296E+03  0.20382098919E+04  0.19066312165E+04 0.  0.
        3    1    3    3  502    0 -0.86740631606E+02  0.81296923386E+03  0.88433543161E+03  0.12043637649E+04  0.10100000352E+00 0.  1.
       -3    1    3    3    0  502  0.86740631606E+02 -0.81296923386E+03 -0.16387934866E+03  0.83384612699E+03  0.10100000352E+00 0. -1.
</event>
<event>
 5   0  0.2879462E-05  0.1900066E+04  0.7818609E-02  0.8654823E-01
       -2   -1    0    0    0  501  0.00000000000E+00  0.00000000000E+00  0.29916608760E+03  0.29916608761E+03  0.25500000920E-02 0. -1.
        2   -1    0    0  501    0  0.00000000000E+00  0.00000000000E+00 -0.30169291021E+04  0.30169291021E+04  0.25500000920E-02 0.  1.
    10030    2    1    2    0    0  0.00000000000E+00  0.00000000000E+00 -0.27177630145E+04  0.33160951897E+04  0.19000661842E+04 0.  0.
        4    1    3    3  502    0  0.86776907846E+03 -0.25820180613E+03 -0.85647331594E+03  0.12462902953E+04  0.12699999809E+01 0. -1.
       -4    1    3    3    0  502 -0.86776907846E+03  0.25820180613E+03 -0.18612896986E+04  0.20698048944E+04  0.12699999809E+01 0.  1.
</event>
<event>
 5   0  0.2813537E-05  0.1900446E+04  0.7818609E-02  0.8654634E-01
        2   -1    0    0  501    0  0.00000000000E+00  0.00000000000E+00  0.12795043860E+04  0.12795043860E+04  0.25500000920E-02 0. -1.
       -2   -1    0    0    0  501  0.00000000000E+00  0.00000000000E+00 -0.70568262353E+03  0.70568262353E+03  0.25500000920E-02 0.  1.
    10030    2    1    2    0    0  0.00000000000E+00  0.00000000000E+00  0.57382176251E+03  0.19851870096E+04  0.19004462760E+04 0.  0.
        2    1    3    3  502    0  0.21121498716E+03 -0.20971304200E+03  0.12295528244E+04  0.12650658001E+04  0.25500000920E-02 0. -1.
       -2    1    3    3    0  502 -0.21121498716E+03  0.20971304200E+03 -0.65573106186E+03  0.72012120943E+03  0.25500000920E-02 0.  1.
</event>
<event>
 5   0  0.2813537E-05  0.1903531E+04  0.7818609E-02  0.8653101E-01
       -2   -1    0    0    0  501  0.00000000000E+00  0.00000000000E+00  0.10203663691E+04  0.10203663691E+04  0.25500000920E-02 0. -1.
        2   -1    0    0  501    0  0.00000000000E+00  0.00000000000E+00 -0.88777661241E+03  0.88777661242E+03  0.25500000920E-02 0.  1.
    10030    2    1    2    0    0  0.00000000000E+00  0.00000000000E+00  0.13258975665E+03  0.19081429815E+04  0.19035308230E+04 0.  0.
        2    1    3    3  502    0  0.37255249986E+03 -0.31122319264E+03  0.88693720227E+03  0.10110948727E+04  0.25500000920E-02 0. -1.
       -2    1    3    3    0  502 -0.37255249986E+03  0.31122319264E+03 -0.75434744562E+03  0.89704810880E+03  0.25500000920E-02 0.  1.
</event>
<event>
 5   0  0.1471485E-05  0.1897898E+04  0.7818609E-02  0.8655903E-01
        1   -1    0    0  501    0  0.00000000000E+00  0.00000000000E+00  0.85004471028E+03  0.85004471029E+03  0.50400001928E-02 0.  1.
       -1   -1    0    0    0  501  0.00000000000E+00  0.00000000000E+00 -0.10593615389E+04  0.10593615389E+04  0.50400001928E-02 0. -1.
    10030    2    1    2    0    0  0.00000000000E+00  0.00000000000E+00 -0.20931682859E+03  0.19094062492E+04  0.18978984930E+04 0.  0.
        4    1    3    3  502    0  0.47904679580E+03 -0.69554276968E+03 -0.53999158025E+03  0.10024261053E+04  0.12699999809E+01 0. -1.
       -4    1    3    3    0  502 -0.47904679580E+03  0.69554276968E+03  0.33067475166E+03  0.90698014383E+03  0.12699999809E+01 0.  1.
</event>
<event>
 5   0  0.2813537E-05  0.1906064E+04  0.7818609E-02  0.8651844E-01
       -2   -1    0    0    0  501  0.00000000000E+00  0.00000000000E+00  0.48348900198E+03  0.48348900199E+03  0.25500000920E-02 0. -1.
        2   -1    0    0  501    0  0.00000000000E+00  0.00000000000E+00 -0.18785749371E+04  0.18785749371E+04  0.25500000920E-02 0.  1.
    10030    2    1    2    0    0  0.00000000000E+00  0.00000000000E+00 -0.13950859351E+04  0.23620639390E+04  0.19060643446E+04 0.  0.
        2    1    3    3  502    0 -0.87795594278E+03  0.28815963266E+03 -0.98665363978E+03  0.13517869715E+04  0.25500000920E-02 0.  1.
       -2    1    3    3    0  502  0.87795594278E+03 -0.28815963266E+03 -0.40843229530E+03  0.10102769676E+04  0.25500000920E-02 0. -1.
</event>
<event>
 5   0  0.2789718E-05  0.1891078E+04  0.7818609E-02  0.8659310E-01
        2   -1    0    0  501    0  0.00000000000E+00  0.00000000000E+00  0.10230465088E+04  0.10230465088E+04  0.25500000920E-02 0.  1.
       -2   -1    0    0    0  501  0.00000000000E+00  0.00000000000E+00 -0.87390392024E+03  0.87390392024E+03  0.25500000920E-02 0. -1.
    10030    2    1    2    0    0  0.00000000000E+00  0.00000000000E+00  0.14914258852E+03  0.18969504290E+04  0.18910783745E+04 0.  0.
        5    1    3    3  502    0 -0.98262185974E+02  0.26502200143E+03  0.97966464010E+03  0.10196357269E+04  0.46999998093E+01 0.  1.
       -5    1    3    3    0  502  0.98262185974E+02 -0.26502200143E+03 -0.83052205158E+03  0.87731470214E+03  0.46999998093E+01 0. -1.
</event>
<event>
 5   0  0.2789718E-05  0.1901398E+04  0.7818609E-02  0.8654161E-01
        2   -1    0    0  501    0  0.00000000000E+00  0.00000000000E+00  0.15214022965E+04  0.15214022965E+04  0.25500000920E-02 0. -1.
       -2   -1    0    0    0  501  0.00000000000E+00  0.00000000000E+00 -0.59407624508E+03  0.59407624509E+03  0.25500000920E-02 0.  1.
    10030    2    1    2    0    0  0.00000000000E+00  0.00000000000E+00  0.92732605143E+03  0.21154785416E+04  0.19013983944E+04 0.  0.
        5    1    3    3  502    0 -0.24032973419E+03  0.91928895330E+03  0.49806912861E+03  0.10728212841E+04  0.46999998093E+01 0. -1.
       -5    1    3    3    0  502  0.24032973419E+03 -0.91928895330E+03  0.42925692282E+03  0.10426572575E+04  0.46999998093E+01 0.  1.
</event>
<event>
 5   0  0.2888776E-05  0.1901819E+04  0.7818609E-02  0.8653952E-01
       -2   -1    0    0    0  501  0.00000000000E+00  0.00000000000E+00  0.48697494140E+03  0.48697494140E+03  0.25500000920E-02 0. -1.
        2   -1    0    0  501    0  0.00000000000E+00  0.00000000000E+00 -0.18568276048E+04  0.18568276048E+04  0.25500000920E-02 0.  1.
    10030    2    1    2    0    0  0.00000000000E+00  0.00000000000E+00 -0.13698526634E+04  0.23438025462E+04  0.19018186181E+04 0.  0.
        3    1    3    3  502    0  0.11236992629E+02  0.53747523011E+03  0.28172103293E+03  0.60693710018E+03  0.10100000352E+00 0. -1.
       -3    1    3    3    0  502 -0.11236992629E+02 -0.53747523011E+03 -0.16515736964E+04  0.17368654460E+04  0.10100000352E+00 0.  1.
</event>
<event>
 5   0  0.1327254E-05  0.1907853E+04  0.7818609E-02  0.8650957E-01
        1   -1    0    0  501    0  0.00000000000E+00  0.00000000000E+00  0.16401147900E+04  0.16401147900E+04  0.50400001928E-02 0.  1.
       -1   -1    0    0    0  501  0.00000000000E+00  0.00000000000E+00 -0.55482472139E+03  0.55482472141E+03  0.50400001928E-02 0. -1.
    10030    2    1    2    0    0  0.00000000000E+00  0.00000000000E+00  0.10852900686E+04  0.21949395114E+04  0.19078534864E+04 0.  0.
        5    1    3    3  502    0 -0.17936112045E+03 -0.37918259594E+03 -0.44301429101E+03  0.61010950216E+03  0.46999998093E+01 0. -1.
       -5    1    3    3    0  502  0.17936112045E+03  0.37918259594E+03  0.15283043596E+04  0.15848300093E+04  0.46999998093E+01 0.  1.
</event>
<event>
 5   0  0.1413011E-05  0.1899603E+04  0.7818609E-02  0.8655054E-01
        1   -1    0    0  501    0  0.00000000000E+00  0.00000000000E+00  0.13468756270E+04  0.13468756271E+04  0.50400001928E-02 0. -1.
       -1   -1    0    0    0  501  0.00000000000E+00  0.00000000000E+00 -0.66978958176E+03  0.66978958178E+03  0.50400001928E-02 0.  1.
    10030    2    1    2    0    0  0.00000000000E+00  0.00000000000E+00  0.67708604529E+03  0.20166652088E+04  0.18996033933E+04 0.  0.
        1    1    3    3  502    0 -0.63472963908E+03 -0.56134928255E+02 -0.40919813954E+03  0.75728195695E+03  0.50400001928E-02 0.  1.
       -1    1    3    3    0  502  0.63472963908E+03  0.56134928255E+02  0.10862841848E+04  0.12593832519E+04  0.50400001928E-02 0. -1.
</event>
<event>
 5   0  0.2888776E-05  0.1895997E+04  0.7818609E-02  0.8656851E-01
       -2   -1    0    0    0  501  0.00000000000E+00  0.00000000000E+00  0.99896150462E+03  0.99896150462E+03  0.25500000920E-02 0.  1.
        2   -1    0    0  501    0  0.00000000000E+00  0.00000000000E+00 -0.89963564060E+03  0.89963564061E+03  0.25500000920E-02 0. -1.
    10030    2    1    2    0    0  0.00000000000E+00  0.00000000000E+00  0.99325864014E+02  0.18985971452E+04  0.18959972291E+04 0.  0.
        3    1    3    3  502    0  0.47987782716E+03  0.79296907732E+03  0.24898028281E+03  0.95972593901E+03  0.10100000352E+00 0.  1.
       -3    1    3    3    0  502 -0.47987782716E+03 -0.79296907732E+03 -0.14965441880E+03  0.93887120621E+03  0.10100000352E+00 0. -1.
</event>
<event>
 5   0  0.1344119E-05  0.1901362E+04  0.7818609E-02  0.8654179E-01
       -1   -1    0    0    0  501  0.00000000000E+00  0.00000000000E+00  0.14533284113E+04  0.14533284113E+04  0.50400001928E-02 0. -1.
        1   -1    0    0  501    0  0.00000000000E+00  0.00000000000E+00 -0.62187872397E+03  0.62187872399E+03  0.50400001928E-02 0.  1.
    10030    2    1    2    0    0  0.00000000000E+00  0.00000000000E+00  0.83144968736E+03  0.20752071353E+04  0.19013616363E+04 0.  0.
        2    1    3    3  502    0  0.14830023523E+02  0.42510198759E+03 -0.51222507769E+03  0.66581240577E+03  0.25500000920E-02 0.  1.
       -2    1    3    3    0  502 -0.14830023523E+02 -0.42510198759E+03  0.13436747650E+04  0.14093947296E+04  0.25500000920E-02 0. -1.
</event>
<event>
 5   0  0.2879462E-05  0.1899403E+04  0.7818609E-02  0.8655154E-01
        2   -1    0    0  501    0  0.00000000000E+00  0.00000000000E+00  0.14262816103E+04  0.14262816103E+04  0.25500000920E-02 0. -1.
       -2   -1    0    0    0  501  0.00000000000E+00  0.00000000000E+00 -0.63236666021E+03  0.63236666022E+03  0.25500000920E-02 0.  1.
    10030    2    1    2    0    0  0.00000000000E+00  0.00000000000E+00  0.79391495008E+03  0.20586482705E+04  0.18994029993E+04 0.  0.
        4    1    3    3  502    0  0.50428949716E+03  0.76482487328E+02 -0.47131501950E+03  0.69447600990E+03  0.12699999809E+01 0.  1.
       -4    1    3    3    0  502 -0.50428949716E+03 -0.76482487328E+02  0.12652299696E+04  0.13641722606E+04  0.12699999809E+01 0. -1.
</event>
<event>
 5   0  0.1471485E-05  0.1901869E+04  0.7818609E-02  0.8653927E-01
       -1   -1    0    0    0  501  0.00000000000E+00  0.00000000000E+00  0.87444810695E+03  0.87444810696E+03  0.50400001928E-02 0.  1.
        1   -1    0    0  501    0  0.00000000000E+00  0.00000000000E+00 -0.10341111980E+04  0.10341111980E+04  0.50400001928E-02 0. -1.
    10030    2    1    2    0    0  0.00000000000E+00  0.00000000000E+00 -0.15966309106E+03  0.19085593050E+04  0.19018691643E+04 0.  0.
        4    1    3    3  502    0  0.73742405131E+03 -0.49853633637E+03 -0.41558620684E+03  0.98236765946E+03  0.12699999809E+01 0. -1.
       -4    1    3    3    0  502 -0.73742405131E+03  0.49853633637E+03  0.25592311579E+03  0.92619164552E+03  0.12699999809E+01 0.  1.
</event>
<event>
 5   0  0.2879462E-05  0.1891822E+04  0.7818609E-02  0.8658938E-01
        2   -1    0    0  501    0  0.00000000000E+00  0.00000000000E+00  0.11630761646E+04  0.11630761646E+04  0.25500000920E-02 0. -1.
       -2   -1    0    0    0  501  0.00000000000E+00  0.00000000000E+00 -0.76929438724E+03  0.76929438724E+03  0.25500000920E-02 0.  1.
    10030    2    1    2    0    0  0.00000000000E+00  0.00000000000E+00  0.39378177738E+03  0.19323705519E+04  0.18918223652E+04 0.  0.
        4    1    3    3  502    0 -0.25200626169E+03  0.53226577421E+03  0.95298093885E+03  0.11202626000E+04  0.12699999809E+01 0. -1.
       -4    1    3    3    0  502  0.25200626169E+03 -0.53226577421E+03 -0.55919916147E+03  0.81210795182E+03  0.12699999809E+01 0.  1.
</event>
<event>
 5   0  0.2855141E-05  0.1901044E+04  0.7818609E-02  0.8654337E-01
       -2   -1    0    0    0  501  0.00000000000E+00  0.00000000000E+00  0.58147822519E+03  0.58147822520E+03  0.25500000920E-02 0. -1.
        2   -1    0    0  501    0  0.00000000000E+00  0.00000000000E+00 -0.15537840844E+04  0.15537840844E+04  0.25500000920E-02 0.  1.
    10030    2    1    2    0    0  0.00000000000E+00  0.00000000000E+00 -0.97230585917E+03  0.21352623096E+04  0.19010435153E+04 0.  0.
        1    1    3    3  502    0 -0.35208932384E+03 -0.32251814609E+03 -0.14093066570E+04  0.14879953293E+04  0.50400001928E-02 0.  1.
       -1    1    3    3    0  502  0.35208932384E+03  0.32251814609E+03  0.43700079778E+03  0.64726698032E+03  0.50400001928E-02 0. -1.
</event>
<event>
 5   0  0.2813537E-05  0.1901084E+04  0.7818609E-02  0.8654317E-01
       -2   -1    0    0    0  501  0.00000000000E+00  0.00000000000E+00  0.46923875127E+03  0.46923875127E+03  0.25500000920E-02 0.  1.
        2   -1    0    0  501    0  0.00000000000E+00  0.00000000000E+00 -0.19255237224E+04  0.19255237224E+04  0.25500000920E-02 0. -1.
    10030    2    1    2    0    0  0.00000000000E+00  0.00000000000E+00 -0.14562849712E+04  0.23947624737E+04  0.19010842665E+04 0.  0.
        2    1    3    3  502    0  0.18471518012E+03 -0.87219823692E+03 -0.31286569528E+03  0.94484623381E+03  0.25500000920E-02 0.  1.
       -2    1    3    3    0  502 -0.18471518012E+03  0.87219823692E+03 -0.11434192759E+04  0.14499162399E+04  0.25500000920E-02 0. -1.
</event>
<event>
 5   0  0.1429067E-05  0.1900577E+04  0.7818609E-02  0.8654569E-01
        1   -1    0    0  501    0  0.00000000000E+00  0.00000000000E+00  0.15553401448E+04  0.15553401448E+04  0.50400001928E-02 0. -1.
       -1   -1    0    0    0  501  0.00000000000E+00  0.00000000000E+00 -0.58061144101E+03  0.58061144104E+03  0.50400001928E-02 0.  1.
    10030    2    1    2    0    0  0.00000000000E+00  0.00000000000E+00  0.97472870378E+03  0.21359515858E+04  0.19005770521E+04 0.  0.
        3    1    3    3  502    0  0.53888941557E+02  0.49754841591E+03  0.13952393862E+04  0.14822791232E+04  0.10100000352E+00 0. -1.
       -3    1    3    3    0  502 -0.53888941557E+02 -0.49754841591E+03 -0.42051068239E+03  0.65367246263E+03  0.10100000352E+00 0.  1.
</event>
<event>
 5   0  0.1413011E-05  0.1899851E+04  0.7818609E-02  0.8654930E-01
       -1   -1    0    0    0  501  0.00000000000E+00  0.00000000000E+00  0.43441347409E+03  0.43441347411E+03  0.50400001928E-02 0. -1.
        1   -1    0    0  501    0  0.00000000000E+00  0.00000000000E+00 -0.20771886479E+04  0.20771886479E+04  0.50400001928E-02 0.  1.
    10030    2    1    2    0    0  0.00000000000E+00  0.00000000000E+00 -0.16427751738E+04  0.25116021220E+04  0.18998512962E+04 0.  0.
        1    1    3    3  502    0 -0.22987632360E+02  0.28147897202E+03 -0.20204051824E+04  0.20400480250E+04  0.50400001928E-02 0.  1.
       -1    1    3    3    0  502  0.22987632360E+02 -0.28147897202E+03  0.37763000867E+03  0.47155409701E+03  0.50400001928E-02 0. -1.
</event>
<event>
 5   0  0.1344119E-05  0.1899911E+04  0.7818609E-02  0.8654901E-01
        1   -1    0    0  501    0  0.00000000000E+00  0.00000000000E+00  0.82027283559E+03  0.82027283561E+03  0.50400001928E-02 0.  1.
       -1   -1    0    0    0  501  0.00000000000E+00  0.00000000000E+00 -0.11001400753E+04  0.11001400753E+04  0.50400001928E-02 0. -1.
    10030    2    1    2    0    0  0.00000000000E+00  0.00000000000E+00 -0.27986723974E+03  0.19204129109E+04  0.18999105444E+04 0.  0.
        2    1    3    3  502    0 -0.48810798651E+03  0.26700633914E+03 -0.91822529238E+03  0.10736291162E+04  0.25500000920E-02 0. -1.
       -2    1    3    3    0  502  0.48810798651E+03 -0.26700633914E+03  0.63835805264E+03  0.84678379473E+03  0.25500000920E-02 0.  1.
</event>
<event>
 5   0  0.2813537E-05  0.1890865E+04  0.7818609E-02  0.8659417E-01
        2   -1    0    0  501    0  0.00000000000E+00  0.00000000000E+00  0.10066210010E+04  0.10066210010E+04  0.25500000920E-02 0. -1.
       -2   -1    0    0    0  501  0.00000000000E+00  0.00000000000E+00 -0.88796297264E+03  0.88796297264E+03  0.25500000920E-02 0.  1.
    10030    2    1    2    0    0  0.00000000000E+00  0.00000000000E+00  0.11865802836E+03  0.18945839736E+04  0.18908645392E+04 0.  0.
        2    1    3    3  502    0  0.73215908560E+03 -0.26640571360E+03  0.59593194942E+03  0.98089949496E+03  0.25500000920E-02 0.  1.
       -2    1    3    3    0  502 -0.73215908560E+03  0.26640571360E+03 -0.47727392106E+03  0.91368447869E+03  0.25500000920E-02 0. -1.
</event>
<event>
 5   0  0.2789718E-05  0.1901255E+04  0.7818609E-02  0.8654232E-01
        2   -1    0    0  501    0  0.00000000000E+00  0.00000000000E+00  0.26208985273E+04  0.26208985273E+04  0.25500000920E-02 0. -1.
       -2   -1    0    0    0  501  0.00000000000E+00  0.00000000000E+00 -0.34480242549E+03  0.34480242550E+03  0.25500000920E-02 0.  1.
    10030    2    1    2    0    0  0.00000000000E+00  0.00000000000E+00  0.22760961018E+04  0.29657009528E+04  0.19012545008E+04 0.  0.
        5    1    3    3  502    0 -0.47695630793E+03  0.71318762444E+03  0.49955767380E+03  0.99282620170E+03  0.46999998093E+01 0.  1.
       -5    1    3    3    0  502  0.47695630793E+03 -0.71318762444E+03  0.17765384280E+04  0.19728747511E+04  0.46999998093E+01 0. -1.
</event>
<event>
 5   0  0.1413011E-05  0.1887987E+04  0.7818609E-02  0.8660859E-01
       -1   -1    0    0    0  501  0.00000000000E+00  0.00000000000E+00  0.48336107076E+03  0.48336107079E+03  0.50400001928E-02 0. -1.
        1   -1    0    0  501    0  0.00000000000E+00  0.00000000000E+00 -0.18435989626E+04  0.18435989626E+04  0.50400001928E-02 0.  1.
    10030    2    1    2    0    0  0.00000000000E+00  0.00000000000E+00 -0.13602378918E+04  0.23269600333E+04  0.18879872549E+04 0.  0.
        1    1    3    3  502    0 -0.53399788754E+03 -0.53963555905E+03 -0.13716030144E+04  0.15676910122E+04  0.50400001928E-02 0.  1.
       -1    1    3    3    0  502  0.53399788754E+03  0.53963555905E+03  0.11365122602E+02  0.75926902119E+03  0.50400001928E-02 0. -1.
</event>
<event>
 5   0  0.2855141E-05  0.1899279E+04  0.7818609E-02  0.8655216E-01
       -2   -1    0    0    0  501  0.00000000000E+00  0.00000000000E+00  0.13293284824E+04  0.13293284824E+04  0.25500000920E-02 0. -1.
        2   -1    0    0  501    0  0.00000000000E+00  0.00000000000E+00 -0.67839882753E+03  0.67839882754E+03  0.25500000920E-02 0.  1.
    10030    2    1    2    0    0  0.00000000000E+00  0.00000000000E+00  0.65092965485E+03  0.20077273099E+04  0.18992786882E+04 0.  0.
        1    1    3    3  502    0 -0.72990736969E+03 -0.63437109008E+02  0.96413677513E+03  0.12109288816E+04  0.50400001928E-02 0. -1.
       -1    1    3    3    0  502  0.72990736969E+03  0.63437109008E+02 -0.31320712029E+03  0.79679842831E+03  0.50400001928E-02 0.  1.
</event>
<event>
 5   0  0.1413011E-05  0.1899778E+04  0.7818609E-02  0.8654967E-01
       -1   -1    0    0    0  501  0.00000000000E+00  0.00000000000E+00  0.10092538371E+04  0.10092538371E+04  0.50400001928E-02 0.  1.
        1   -1    0    0  501    0  0.00000000000E+00  0.00000000000E+00 -0.89401559682E+03  0.89401559683E+03  0.50400001928E-02 0. -1.
    10030    2    1    2    0    0  0.00000000000E+00  0.00000000000E+00  0.11523824026E+03  0.19032694339E+04  0.18997775359E+04 0.  0.
        1    1    3    3  502    0  0.40016186642E+03  0.84994436514E+03 -0.83187172296E+02  0.94310924544E+03  0.50400001928E-02 0. -1.
       -1    1    3    3    0  502 -0.40016186642E+03 -0.84994436514E+03  0.19842541256E+03  0.96016018848E+03  0.50400001928E-02 0.  1.
</event>
<event>
 5   0  0.2789718E-05  0.1886850E+04  0.7818609E-02  0.8661430E-01
        2   -1    0    0  501    0  0.00000000000E+00  0.00000000000E+00  0.14159895832E+04  0.14159895832E+04  0.25500000920E-02 0. -1.
       -2   -1    0    0    0  501  0.00000000000E+00  0.00000000000E+00 -0.62857179036E+03  0.62857179037E+03  0.25500000920E-02 0.  1.
    10030    2    1    2    0    0  0.00000000000E+00  0.00000000000E+00  0.78741779288E+03  0.20445613736E+04  0.18868503995E+04 0.  0.
        5    1    3    3  502    0  0.72484555437E+03  0.54226650618E+03  0.68157335882E+03  0.11331453459E+04  0.46999998093E+01 0. -1.
       -5    1    3    3    0  502 -0.72484555437E+03 -0.54226650618E+03  0.10584443407E+03  0.91141602775E+03  0.46999998093E+01 0.  1.
</event>
<event>
 5   0  0.2855141E-05  0.1896807E+04  0.7818609E-02  0.8656448E-01
       -2   -1    0    0    0  501  0.00000000000E+00  0.00000000000E+00  0.72442476418E+03  0.72442476418E+03  0.25500000920E-02 0.  1.
        2   -1    0    0  501    0  0.00000000000E+00  0.00000000000E+00 -0.12416319728E+04  0.12416319728E+04  0.25500000920E-02 0. -1.
    10030    2    1    2    0    0  0.00000000000E+00  0.00000000000E+00 -0.51720720864E+03  0.19660567370E+04  0.18968067367E+04 0.  0.
        1    1    3    3  502    0 -0.66523645041E+03  0.24404910467E+01 -0.95924322183E+03  0.11673444434E+04  0.50400001928E-02 0. -1.
       -1    1    3    3    0  502  0.66523645041E+03 -0.24404910467E+01  0.44203601318E+03  0.79871229358E+03  0.50400001928E-02 0.  1.
</event>
<event>
 5   0  0.2789718E-05  0.1905801E+04  0.7818609E-02  0.8651974E-01
       -2   -1    0    0    0  501  0.00000000000E+00  0.00000000000E+00  0.67150314933E+03  0.67150314933E+03  0.25500000920E-02 0.  1.
        2   -1    0    0  501    0  0.00000000000E+00  0.00000000000E+00 -0.13522196113E+04  0.13522196113E+04  0.25500000920E-02 0. -1.
    10030    2    1    2    0    0  0.00000000000E+00  0.00000000000E+00 -0.68071646198E+03  0.20237227606E+04  0.19058013827E+04 0.  0.
        5    1    3    3  502    0  0.11498641085E+03 -0.80147346216E+03 -0.87385508609E+03  0.11913128836E+04  0.46999998093E+01 0. -1.
       -5    1    3    3    0  502 -0.11498641085E+03  0.80147346216E+03  0.19313862411E+03  0.83240987701E+03  0.46999998093E+01 0.  1.
</event>
<event>
 5   0  0.2789718E-05  0.1902557E+04  0.7818609E-02  0.8653585E-01
       -2   -1    0    0    0  501  0.00000000000E+00  0.00000000000E+00  0.54691112816E+03  0.54691112816E+03  0.25500000920E-02 0.  1.
        2   -1    0    0  501    0  0.00000000000E+00  0.00000000000E+00 -0.16546213768E+04  0.16546213768E+04  0.25500000920E-02 0. -1.
    10030    2    1    2    0    0  0.00000000000E+00  0.00000000000E+00 -0.11077102487E+04  0.22015325050E+04  0.19025570623E+04 0.  0.
        5    1    3    3  502    0 -0.57612756785E+02  0.71879844951E+03 -0.12717679262E+04  0.14619870687E+04  0.46999998093E+01 0. -1.
       -5    1    3    3    0  502  0.57612756785E+02 -0.71879844951E+03  0.16405767759E+03  0.73954543629E+03  0.46999998093E+01 0.  1.
</event>
<event>
 5   0  0.1344119E-05  0.1900945E+04  0.7818609E-02  0.8654386E-01
       -1   -1    0    0    0  501  0.00000000000E+00  0.00000000000E+00  0.89338609535E+03  0.89338609536E+03  0.50400001928E-02 0. -1.
        1   -1    0    0  501    0  0.00000000000E+00  0.00000000000E+00 -0.10112066311E+04  0.10112066311E+04  0.50400001928E-02 0.  1.
    10030    2    1    2    0    0  0.00000000000E+00  0.00000000000E+00 -0.11782053574E+03  0.19045927265E+04  0.19009449690E+04 0.  0.
        2    1    3    3  502    0 -0.29044816977E+03 -0.89103507180E+03 -0.21762606889E+03  0.96211472515E+03  0.25500000920E-02 0.  1.
       -2    1    3    3    0  502  0.29044816977E+03  0.89103507180E+03  0.99805533148E+02  0.94247800131E+03  0.25500000920E-02 0. -1.
</event>
<event>
 5   0  0.2888776E-05  0.1896681E+04  0.7818609E-02  0.8656510E-01
       -2   -1    0    0    0  501  0.00000000000E+00  0.00000000000E+00  0.37238871531E+03  0.37238871532E+03  0.25500000920E-02 0. -1.
        2   -1    0    0  501    0  0.00000000000E+00  0.00000000000E+00 -0.24150831647E+04  0.24150831647E+04  0.25500000920E-02 0.  1.
    10030    2    1    2    0    0  0.00000000000E+00  0.00000000000E+00 -0.20426944494E+04  0.27874718800E+04  0.18966810139E+04 0.  0.
        3    1    3    3  502    0  0.90275396544E+03 -0.18421041738E+03 -0.69124133789E+03  0.11518301947E+04  0.10100000352E+00 0. -1.
       -3    1    3    3    0  502 -0.90275396544E+03  0.18421041738E+03 -0.13514531115E+04  0.16356416853E+04  0.10100000352E+00 0.  1.
</event>
<event>
 5   0  0.1344119E-05  0.1903442E+04  0.7818609E-02  0.8653145E-01
       -1   -1    0    0    0  501  0.00000000000E+00  0.00000000000E+00  0.59119210283E+03  0.59119210285E+03  0.50400001928E-02 0. -1.
        1   -1    0    0  501    0  0.00000000000E+00  0.00000000000E+00 -0.15321124531E+04  0.15321124531E+04  0.50400001928E-02 0.  1.
    10030    2    1    2    0    0  0.00000000000E+00  0.00000000000E+00 -0.94092035026E+03  0.21233045560E+04  0.19034419171E+04 0.  0.
        2    1    3    3  502    0 -0.26677368156E+03 -0.90802851207E+03 -0.35841515202E+03  0.10120006903E+04  0.25500000920E-02 0.  1.
       -2    1    3    3    0  502  0.26677368156E+03  0.90802851207E+03 -0.58250519823E+03  0.11113038657E+04  0.25500000920E-02 0. -1.
</event>
<event>
 5   0  0.2879462E-05  0.1899815E+04  0.7818609E-02  0.8654949E-01
       -2   -1    0    0    0  501  0.00000000000E+00  0.00000000000E+00  0.82685779604E+03  0.82685779605E+03  0.25500000920E-02 0.  1.
        2   -1    0    0  501    0  0.00000000000E+00  0.00000000000E+00 -0.10912686888E+04  0.10912686888E+04  0.25500000920E-02 0. -1.
    10030    2    1    2    0    0  0.00000000000E+00  0.00000000000E+00 -0.26441089272E+03  0.19181264848E+04  0.18998147519E+04 0.  0.
        4    1    3    3  502    0 -0.29319347236E+03 -0.72756226309E+03 -0.67310532592E+03  0.10336254890E+04  0.12699999809E+01 0. -1.
       -4    1    3    3    0  502  0.29319347236E+03  0.72756226309E+03  0.40869443320E+03  0.88450099578E+03  0.12699999809E+01 0.  1.
</event>
<event>
 5   0  0.1429067E-05  0.1903603E+04  0.7818609E-02  0.8653065E-01
       -1   -1    0    0    0  501  0.00000000000E+00  0.00000000000E+00  0.95972330589E+03  0.95972330590E+03  0.50400001928E-02 0. -1.
        1   -1    0    0  501    0  0.00000000000E+00  0.00000000000E+00 -0.94394529670E+03  0.94394529671E+03  0.50400001928E-02 0.  1.
    10030    2    1    2    0    0  0.00000000000E+00  0.00000000000E+00  0.15778009190E+02  0.19036686026E+04  0.19036032157E+04 0.  0.
        3    1    3    3  502    0 -0.83027076125E+03  0.46271454217E+03 -0.41831975291E+02  0.95142220328E+03  0.10100000352E+00 0. -1.
       -3    1    3    3    0  502  0.83027076125E+03 -0.46271454217E+03  0.57609984481E+02  0.95224639933E+03  0.10100000352E+00 0.  1.
</event>
<event>
 5   0  0.2888776E-05  0.1911801E+04  0.7818609E-02  0.8649005E-01
       -2   -1    0    0    0  501  0.00000000000E+00  0.00000000000E+00  0.81588017535E+03  0.81588017535E+03  0.25500000920E-02 0. -1.
        2   -1    0    0  501    0  0.00000000000E+00  0.00000000000E+00 -0.11199508340E+04  0.11199508340E+04  0.25500000920E-02 0.  1.
    10030    2    1    2    0    0  0.00000000000E+00  0.00000000000E+00 -0.30407065866E+03  0.19358310094E+04  0.19118009131E+04 0.  0.
        3    1    3    3  502    0 -0.91081228997E+03 -0.10258992216E+03 -0.42681678903E+03  0.10110768029E+04  0.10100000352E+00 0. -1.
       -3    1    3    3    0  502  0.91081228997E+03  0.10258992216E+03  0.12274613037E+03  0.92475420649E+03  0.10100000352E+00 0.  1.
</event>
<event>
 5   0  0.1471485E-05  0.1868797E+04  0.7818609E-02  0.8670546E-01
        1   -1    0    0  501    0  0.00000000000E+00  0.00000000000E+00  0.17214945245E+04  0.17214945245E+04  0.50400001928E-02 0. -1.
       -1   -1    0    0    0  501  0.00000000000E+00  0.00000000000E+00 -0.50717578092E+03  0.50717578095E+03  0.50400001928E-02 0.  1.
    10030    2    1    2    0    0  0.00000000000E+00  0.00000000000E+00  0.12143187436E+04  0.22286703055E+04  0.18687967571E+04 0.  0.
        4    1    3    3  502    0 -0.41135803235E+03 -0.49330140283E+03  0.14164714546E+04  0.15552989100E+04  0.12699999809E+01 0. -1.
       -4    1    3    3    0  502  0.41135803235E+03  0.49330140283E+03 -0.20215271100E+03  0.67337139550E+03  0.12699999809E+01 0.  1.
</event>
<event>
 5   0  0.2855141E-05  0.1916100E+04  0.7818609E-02  0.8646883E-01
       -2   -1    0    0    0  501  0.00000000000E+00  0.00000000000E+00  0.12256111940E+04  0.12256111940E+04  0.25500000920E-02 0. -1.
        2   -1    0    0  501    0  0.00000000000E+00  0.00000000000E+00 -0.74889987831E+03  0.74889987831E+03  0.25500000920E-02 0.  1.
    10030    2    1    2    0    0  0.00000000000E+00  0.00000000000E+00  0.47671131569E+03  0.19745110723E+04  0.19161002834E+04 0.  0.
        1    1    3    3  502    0  0.88593632077E+03  0.26263614440E+03 -0.22336815744E+02  0.92431587792E+03  0.50400001928E-02 0.  1.
       -1    1    3    3    0  502 -0.88593632077E+03 -0.26263614440E+03  0.49904813143E+03  0.10501951944E+04  0.50400001928E-02 0. -1.
</event>
<event>
 5   0  0.1327254E-05  0.1897168E+04  0.7818609E-02  0.8656267E-01
        1   -1    0    0  501    0  0.00000000000E+00  0.00000000000E+00  0.18330347615E+04  0.18330347615E+04  0.50400001928E-02 0.  1.
       -1   -1    0    0    0  501  0.00000000000E+00  0.00000000000E+00 -0.49088638793E+03  0.49088638796E+03  0.50400001928E-02 0. -1.
    10030    2    1    2    0    0  0.00000000000E+00  0.00000000000E+00  0.13421483736E+04  0.23239211495E+04  0.18971682193E+04 0.  0.
        5    1    3    3  502    0 -0.53696359340E+02 -0.15694540621E+03  0.18151166689E+04  0.18226864161E+04  0.46999998093E+01 0.  1.
       -5    1    3    3    0  502  0.53696359340E+02  0.15694540621E+03 -0.47296829536E+03  0.50123473339E+03  0.46999998093E+01 0. -1.
</event>
<event>
 5   0  0.1471485E-05  0.1902320E+04  0.7818609E-02  0.8653702E-01
       -1   -1    0    0    0  501  0.00000000000E+00  0.00000000000E+00  0.90687413243E+03  0.90687413244E+03  0.50400001928E-02 0.  1.
        1   -1    0    0  501    0  0.00000000000E+00  0.00000000000E+00 -0.99760854211E+03  0.99760854212E+03  0.50400001928E-02 0. -1.
    10030    2    1    2    0    0  0.00000000000E+00  0.00000000000E+00 -0.90734409682E+02  0.19044826746E+04  0.19023200374E+04 0.  0.
        4    1    3    3  502    0  0.71237105982E+03 -0.45946011455E+03 -0.47728279904E+03  0.97281889727E+03  0.12699999809E+01 0. -1.
       -4    1    3    3    0  502 -0.71237105982E+03  0.45946011455E+03  0.38654838935E+03  0.93166377730E+03  0.12699999809E+01 0.  1.
</event>
<event>
 5   0  0.2888776E-05  0.1899202E+04  0.7818609E-02  0.8655253E-01
        2   -1    0    0  501    0  0.00000000000E+00  0.00000000000E+00  0.86236376393E+03  0.86236376394E+03  0.25500000920E-02 0.  1.
       -2   -1    0    0    0  501  0.00000000000E+00  0.00000000000E+00 -0.10456637109E+04  0.10456637109E+04  0.25500000920E-02 0. -1.
    10030    2    1    2    0    0  0.00000000000E+00  0.00000000000E+00 -0.18329994698E+03  0.19080274749E+04  0.18992024574E+04 0.  0.
        3    1    3    3  502    0 -0.29363937041E+03  0.45433157681E+03  0.69242590960E+03  0.87868931485E+03  0.10100000352E+00 0.  1.
       -3    1    3    3    0  502  0.29363937041E+03 -0.45433157681E+03 -0.87572585658E+03  0.10293381600E+04  0.10100000352E+00 0. -1.
</event>
<event>
 5   0  0.1327254E-05  0.1897319E+04  0.7818609E-02  0.8656192E-01
       -1   -1    0    0    0  501  0.00000000000E+00  0.00000000000E+00  0.96535329360E+03  0.96535329361E+03  0.50400001928E-02 0.  1.
        1   -1    0    0  501    0  0.00000000000E+00  0.00000000000E+00 -0.93225424112E+03  0.93225424114E+03  0.50400001928E-02 0. -1.
    10030    2    1    2    0    0  0.00000000000E+00  0.00000000000E+00  0.33099052474E+02  0.18976075347E+04  0.18973188474E+04 0.  0.
        5    1    3    3  502    0 -0.73508981505E+03 -0.39113875564E+03 -0.43803701225E+03  0.94087463376E+03  0.46999998093E+01 0. -1.
       -5    1    3    3    0  502  0.73508981505E+03  0.39113875564E+03  0.47113606473E+03  0.95673290099E+03  0.46999998093E+01 0.  1.
</event>
<event>
 5   0  0.1429067E-05  0.1899136E+04  0.7818609E-02  0.8655287E-01
        1   -1    0    0  501    0  0.00000000000E+00  0.00000000000E+00  0.96162841844E+03  0.96162841845E+03  0.50400001928E-02 0.  1.
       -1   -1    0    0    0  501  0.00000000000E+00  0.00000000000E+00 -0.93765846380E+03  0.93765846382E+03  0.50400001928E-02 0. -1.
    10030    2    1    2    0    0  0.00000000000E+00  0.00000000000E+00  0.23969954636E+02  0.18992868823E+04  0.18991356198E+04 0.  0.
        3    1    3    3  502    0 -0.69043324119E+03 -0.46430718999E+03  0.46962364056E+03  0.95541907098E+03  0.10100000352E+00 0.  1.
       -3    1    3    3    0  502  0.69043324119E+03  0.46430718999E+03 -0.44565368593E+03  0.94386781129E+03  0.10100000352E+00 0. -1.
</event>
<event>
 5   0  0.1344119E-05  0.1902455E+04  0.7818609E-02  0.8653635E-01
        1   -1    0    0  501    0  0.00000000000E+00  0.00000000000E+00  0.95839047800E+03  0.95839047801E+03  0.50400001928E-02 0. -1.
       -1   -1    0    0    0  501  0.00000000000E+00  0.00000000000E+00 -0.94411814028E+03  0.94411814029E+03  0.50400001928E-02 0.  1.
    10030    2    1    2    0    0  0.00000000000E+00  0.00000000000E+00  0.14272337716E+02  0.19025086183E+04  0.19024550831E+04 0.  0.
        2    1    3    3  502    0 -0.93985202427E+03 -0.41996542061E+02  0.14766876348E+03  0.95230856385E+03  0.25500000920E-02 0. -1.
       -2    1    3    3    0  502  0.93985202427E+03  0.41996542061E+02 -0.13339642576E+03  0.95020005445E+03  0.25500000920E-02 0.  1.
</event>
<event>
 5   0  0.2813537E-05  0.1891383E+04  0.7818609E-02  0.8659157E-01
        2   -1    0    0  501    0  0.00000000000E+00  0.00000000000E+00  0.91547931561E+03  0.91547931561E+03  0.25500000920E-02 0.  1.
       -2   -1    0    0    0  501  0.00000000000E+00  0.00000000000E+00 -0.97690100162E+03  0.97690100163E+03  0.25500000920E-02 0. -1.
    10030    2    1    2    0    0  0.00000000000E+00  0.00000000000E+00 -0.61421686012E+02  0.18923803172E+04  0.18913832614E+04 0.  0.
        2    1    3    3  502    0 -0.79627468460E+03 -0.39801168602E+03  0.28862191740E+03  0.93582545742E+03  0.25500000920E-02 0.  1.
       -2    1    3    3    0  502  0.79627468460E+03  0.39801168602E+03 -0.35004360341E+03  0.95655485982E+03  0.25500000920E-02 0. -1.
</event>
<event>
 5   0  0.1471485E-05  0.1898276E+04  0.7818609E-02  0.8655715E-01
        1   -1    0    0  501    0  0.00000000000E+00  0.00000000000E+00  0.12981765622E+04  0.12981765622E+04  0.50400001928E-02 0.  1.
       -1   -1    0    0    0  501  0.00000000000E+00  0.00000000000E+00 -0.69394449633E+03  0.69394449635E+03  0.50400001928E-02 0. -1.
    10030    2    1    2    0    0  0.00000000000E+00  0.00000000000E+00  0.60423206585E+03  0.19921210585E+04  0.18982755128E+04 0.  0.
        4    1    3    3  502    0  0.34129632925E+03 -0.94154860610E+02 -0.62205189927E+03  0.71575030592E+03  0.12699999809E+01 0. -1.
       -4    1    3    3    0  502 -0.34129632925E+03  0.94154860610E+02  0.12262839651E+04  0.12763707526E+04  0.12699999809E+01 0.  1.
</event>
<event>
 5   0  0.1344119E-05  0.1895639E+04  0.7818609E-02  0.8657030E-01
       -1   -1    0    0    0  501  0.00000000000E+00  0.00000000000E+00  0.11690586996E+04  0.11690586996E+04  0.50400001928E-02 0. -1.
        1   -1    0    0  501    0  0.00000000000E+00  0.00000000000E+00 -0.76844872031E+03  0.76844872033E+03  0.50400001928E-02 0.  1.
    10030    2    1    2    0    0  0.00000000000E+00  0.00000000000E+00  0.40060997933E+03  0.19375074200E+04  0.18956388493E+04 0.  0.
        2    1    3    3  502    0 -0.27824053360E+03 -0.46665284219E+03 -0.59349461343E+03  0.80462321980E+03  0.25500000920E-02 0.  1.
       -2    1    3    3    0  502  0.27824053360E+03  0.46665284219E+03  0.99410459276E+03  0.11328842002E+04  0.25500000920E-02 0. -1.
</event>
<event>
 5   0  0.1429067E-05  0.1906981E+04  0.7818609E-02  0.8651389E-01
       -1   -1    0    0    0  501  0.00000000000E+00  0.00000000000E+00  0.54617079362E+03  0.54617079365E+03  0.50400001928E-02 0. -1.
        1   -1    0    0  501    0  0.00000000000E+00  0.00000000000E+00 -0.16645780337E+04  0.16645780337E+04  0.50400001928E-02 0.  1.
    10030    2    1    2    0    0  0.00000000000E+00  0.00000000000E+00 -0.11184072401E+04  0.22107488273E+04  0.19069807610E+04 0.  0.
        3    1    3    3  502    0  0.28764621324E+03  0.90902467135E+03 -0.54898483622E+03  0.11002047799E+04  0.10100000352E+00 0.  1.
       -3    1    3    3    0  502 -0.28764621324E+03 -0.90902467135E+03 -0.56942240386E+03  0.11105440475E+04  0.10100000352E+00 0. -1.
</event>
<event>
 5   0  0.2855141E-05  0.1900084E+04  0.7818609E-02  0.8654814E-01
        2   -1    0    0  501    0  0.00000000000E+00  0.00000000000E+00  0.24903631877E+04  0.24903631877E+04  0.25500000920E-02 0. -1.
       -2   -1    0    0    0  501  0.00000000000E+00  0.00000000000E+00 -0.36242912157E+03  0.36242912158E+03  0.25500000920E-02 0.  1.
    10030    2    1    2    0    0  0.00000000000E+00  0.00000000000E+00  0.21279340661E+04  0.28527923092E+04  0.19000843587E+04 0.  0.
        1    1    3    3  502    0  0.29199933830E+03 -0.13703672603E+03 -0.27770053086E+03  0.42562925500E+03  0.50400001928E-02 0.  1.
       -1    1    3    3    0  502 -0.29199933830E+03  0.13703672603E+03  0.24056345969E+04  0.24271630542E+04  0.50400001928E-02 0. -1.
</event>
<event>
 5   0  0.2879462E-05  0.1900300E+04  0.7818609E-02  0.8654707E-01
       -2   -1    0    0    0  501  0.00000000000E+00  0.00000000000E+00  0.92956641902E+03  0.92956641903E+03  0.25500000920E-02 0. -1.
        2   -1    0    0  501    0  0.00000000000E+00  0.00000000000E+00 -0.97118952960E+03  0.97118952960E+03  0.25500000920E-02 0.  1.
    10030    2    1    2    0    0  0.00000000000E+00  0.00000000000E+00 -0.41623110574E+02  0.19007559486E+04  0.19003001586E+04 0.  0.
        4    1    3    3  502    0  0.57179831323E+03  0.14057511281E+03 -0.76669067885E+03  0.96671137538E+03  0.12699999809E+01 0.  1.
       -4    1    3    3    0  502 -0.57179831323E+03 -0.14057511281E+03  0.72506756828E+03  0.93404457325E+03  0.12699999809E+01 0. -1.
</event>
<event>
 5   0  0.1413011E-05  0.1901774E+04  0.7818609E-02  0.8653974E-01
       -1   -1    0    0    0  501  0.00000000000E+00  0.00000000000E+00  0.48400809816E+03  0.48400809819E+03  0.50400001928E-02 0.  1.
        1   -1    0    0  501    0  0.00000000000E+00  0.00000000000E+00 -0.18681217195E+04  0.18681217195E+04  0.50400001928E-02 0. -1.
    10030    2    1    2    0    0  0.00000000000E+00  0.00000000000E+00 -0.13841136214E+04  0.23521298177E+04  0.19017739515E+04 0.  0.
        1    1    3    3  502    0 -0.66921741607E+03 -0.66213314870E+03 -0.52651943725E+03  0.10786542423E+04  0.50400001928E-02 0. -1.
       -1    1    3    3    0  502  0.66921741607E+03  0.66213314870E+03 -0.85759418412E+03  0.12734755754E+04  0.50400001928E-02 0.  1.
</event>
<event>
 5   0  0.2855141E-05  0.1896788E+04  0.7818609E-02  0.8656457E-01
       -2   -1    0    0    0  501  0.00000000000E+00  0.00000000000E+00  0.11175784122E+04  0.11175784122E+04  0.25500000920E-02 0. -1.
        2   -1    0    0  501    0  0.00000000000E+00  0.00000000000E+00 -0.80482129027E+03  0.80482129027E+03  0.25500000920E-02 0.  1.
    10030    2    1    2    0    0  0.00000000000E+00  0.00000000000E+00  0.31275712192E+03  0.19223997025E+04  0.18967877052E+04 0.  0.
        1    1    3    3  502    0  0.36329172796E+03 -0.86733465858E+03  0.28133408894E+03  0.98152899051E+03  0.50400001928E-02 0.  1.
       -1    1    3    3    0  502 -0.36329172796E+03  0.86733465858E+03  0.31423032975E+02  0.94087071195E+03  0.50400001928E-02 0. -1.
</event>
<event>
 5   0  0.2879462E-05  0.1899628E+04  0.7818609E-02  0.8655041E-01
       -2   -1    0    0    0  501  0.00000000000E+00  0.00000000000E+00  0.48782606130E+03  0.48782606131E+03  0.25500000920E-02 0. -1.
        2   -1    0    0  501    0  0.00000000000E+00  0.00000000000E+00 -0.18493205870E+04  0.18493205870E+04  0.25500000920E-02 0.  1.
    10030    2    1    2    0    0  0.00000000000E+00  0.00000000000E+00 -0.13614945257E+04  0.23371466483E+04  0.18996281510E+04 0.  0.
        4    1    3    3  502    0 -0.36480951719E+03  0.79265567504E+03 -0.21916291318E+03  0.89967938646E+03  0.12699999809E+01 0. -1.
       -4    1    3    3    0  502  0.36480951719E+03 -0.79265567504E+03 -0.11423316125E+04  0.14374672619E+04  0.12699999809E+01 0.  1.
</event>
<event>
 5   0  0.2789718E-05  0.1900817E+04  0.7818609E-02  0.8654450E-01
        2   -1    0    0  501    0  0.00000000000E+00  0.00000000000E+00  0.17376828866E+04  0.17376828866E+04  0.25500000920E-02 0.  1.
       -2   -1    0    0    0  501  0.00000000000E+00  0.00000000000E+00 -0.51981646496E+03  0.51981646496E+03  0.25500000920E-02 0. -1.
    10030    2    1    2    0    0  0.00000000000E+00  0.00000000000E+00  0.12178664216E+04  0.22574993516E+04  0.19008168511E+04 0.  0.
        5    1    3    3  502    0  0.23677671972E+03 -0.68207621212E+02 -0.48120675530E+03  0.54064547158E+03  0.46999998093E+01 0. -1.
       -5    1    3    3    0  502 -0.23677671972E+03  0.68207621212E+02  0.16990731769E+04  0.17168538800E+04  0.46999998093E+01 0.  1.
</event>
<event>
 5   0  0.2855141E-05  0.1906213E+04  0.7818609E-02  0.8651770E-01
        2   -1    0    0  501    0  0.00000000000E+00  0.00000000000E+00  0.12093512617E+04  0.12093512617E+04  0.25500000920E-02 0. -1.
       -2   -1    0    0    0  501  0.00000000000E+00  0.00000000000E+00 -0.75115622964E+03  0.75115622965E+03  0.25500000920E-02 0.  1.
    10030    2    1    2    0    0  0.00000000000E+00  0.00000000000E+00  0.45819503207E+03  0.19605074914E+04  0.19062127206E+04 0.  0.
        1    1    3    3  502    0 -0.19331977165E+02 -0.38040444484E+03  0.11276706738E+04  0.11902614904E+04  0.50400001928E-02 0. -1.
       -1    1    3    3    0  502  0.19331977165E+02  0.38040444484E+03 -0.66947564176E+03  0.77024600092E+03  0.50400001928E-02 0.  1.
</event>
<event>
 5   0  0.2789718E-05  0.1903439E+04  0.7818609E-02  0.8653146E-01
        2   -1    0    0  501    0  0.00000000000E+00  0.00000000000E+00  0.10701840453E+04  0.10701840453E+04  0.25500000920E-02 0.  1.
       -2   -1    0    0    0  501  0.00000000000E+00  0.00000000000E+00 -0.84636868084E+03  0.84636868084E+03  0.25500000920E-02 0. -1.
    10030    2    1    2    0    0  0.00000000000E+00  0.00000000000E+00  0.22381536446E+03  0.19165527261E+04  0.19034392648E+04 0.  0.
        5    1    3    3  502    0  0.26231499922E+03 -0.28960494447E+03 -0.76186576008E+03  0.85623694679E+03  0.46999998093E+01 0. -1.
       -5    1    3    3    0  502 -0.26231499922E+03  0.28960494447E+03  0.98568112454E+03  0.10603157794E+04  0.46999998093E+01 0.  1.
</event>
<event>
 5   0  0.2855141E-05  0.1899526E+04  0.7818609E-02  0.8655092E-01
        2   -1    0    0  501    0  0.00000000000E+00  0.00000000000E+00  0.79195485805E+03  0.79195485806E+03  0.25500000920E-02 0.  1.
       -2   -1    0    0    0  501  0.00000000000E+00  0.00000000000E+00 -0.11390166795E+04  0.11390166795E+04  0.25500000920E-02 0. -1.
    10030    2    1    2    0    0  0.00000000000E+00  0.00000000000E+00 -0.34706182143E+03  0.19309715375E+04  0.18995260385E+04 0.  0.
        1    1    3    3  502    0  0.18725681814E+03 -0.41180479039E+02 -0.11191389888E+04  0.11354439766E+04  0.50400001928E-02 0. -1.
       -1    1    3    3    0  502 -0.18725681814E+03  0.41180479039E+02  0.77207716736E+03  0.79552756092E+03  0.50400001928E-02 0.  1.
</event>
<event>
 5   0  0.1471485E-05  0.1904233E+04  0.7818609E-02  0.8652752E-01
       -1   -1    0    0    0  501  0.00000000000E+00  0.00000000000E+00  0.52238775196E+03  0.52238775199E+03  0.50400001928E-02 0.  1.
        1   -1    0    0  501    0  0.00000000000E+00  0.00000000000E+00 -0.17353512219E+04  0.17353512219E+04  0.50400001928E-02 0. -1.
    10030    2    1    2    0    0  0.00000000000E+00  0.00000000000E+00 -0.12129634699E+04  0.22577389739E+04  0.19042334140E+04 0.  0.
        4    1    3    3  502    0  0.52258476582E+02 -0.72649165263E+03  0.12054355109E+03  0.73827733971E+03  0.12699999809E+01 0.  1.
       -4    1    3    3    0  502 -0.52258476582E+02  0.72649165263E+03 -0.13335070210E+04  0.15194616342E+04  0.12699999809E+01 0. -1.
</event>
<event>
 5   0  0.1429067E-05  0.1903929E+04  0.7818609E-02  0.8652903E-01
       -1   -1    0    0    0  501  0.00000000000E+00  0.00000000000E+00  0.98458426954E+03  0.98458426955E+03  0.50400001928E-02 0. -1.
        1   -1    0    0  501    0  0.00000000000E+00  0.00000000000E+00 -0.92042502204E+03  0.92042502206E+03  0.50400001928E-02 0.  1.
    10030    2    1    2    0    0  0.00000000000E+00  0.00000000000E+00  0.64159247498E+02  0.19050092916E+04  0.19039285680E+04 0.  0.
        3    1    3    3  502    0 -0.74569648568E+03  0.34978587687E+02  0.62313418703E+03  0.97241090882E+03  0.10100000352E+00 0. -1.
       -3    1    3    3    0  502  0.74569648568E+03 -0.34978587687E+02 -0.55897493953E+03  0.93259838279E+03  0.10100000352E+00 0.  1.
</event>
<event>
 5   0  0.2855141E-05  0.1908529E+04  0.7818609E-02  0.8650622E-01
        2   -1    0    0  501    0  0.00000000000E+00  0.00000000000E+00  0.19874028529E+04  0.19874028529E+04  0.25500000920E-02 0.  1.
       -2   -1    0    0    0  501  0.00000000000E+00  0.00000000000E+00 -0.45819645952E+03  0.45819645953E+03  0.25500000920E-02 0. -1.
    10030    2    1    2    0    0  0.00000000000E+00  0.00000000000E+00  0.15292063934E+04  0.24455993124E+04  0.19085292252E+04 0.  0.
        1    1    3    3  502    0 -0.69463328310E+03  0.56980675338E+03  0.35250475875E+03  0.96511902849E+03  0.50400001928E-02 0. -1.
       -1    1    3    3    0  502  0.69463328310E+03 -0.56980675338E+03  0.11767016346E+04  0.14804802839E+04  0.50400001928E-02 0.  1.
</event>
<event>
 5   0  0.1344119E-05  0.1896127E+04  0.7818609E-02  0.8656787E-01
       -1   -1    0    0    0  501  0.00000000000E+00  0.00000000000E+00  0.16340214588E+04  0.16340214588E+04  0.50400001928E-02 0. -1.
        1   -1    0    0  501    0  0.00000000000E+00  0.00000000000E+00 -0.55006884465E+03  0.55006884467E+03  0.50400001928E-02 0.  1.
    10030    2    1    2    0    0  0.00000000000E+00  0.00000000000E+00  0.10839526142E+04  0.21840903035E+04  0.18961268903E+04 0.  0.
        2    1    3    3  502    0  0.24162665073E+03 -0.55375992736E+03 -0.29959076755E+03  0.67437980656E+03  0.25500000920E-02 0.  1.
       -2    1    3    3    0  502 -0.24162665073E+03  0.55375992736E+03  0.13835433817E+04  0.15097104970E+04  0.25500000920E-02 0. -1.
</event>
<event>
 5   0  0.2813537E-05  0.1895489E+04  0.7818609E-02  0.8657105E-01
       -2   -1    0    0    0  501  0.00000000000E+00  0.00000000000E+00  0.44221000391E+03  0.44221000392E+03  0.25500000920E-02 0. -1.
        2   -1    0    0  501    0  0.00000000000E+00  0.00000000000E+00 -0.20312067994E+04  0.20312067994E+04  0.25500000920E-02 0.  1.
    10030    2    1    2    0    0  0.00000000000E+00  0.00000000000E+00 -0.15889967955E+04  0.24734168033E+04  0.18954893476E+04 0.  0.
        2    1    3    3  502    0  0.87638219039E+02  0.51596437953E+03 -0.18255482776E+04  0.18990856253E+04  0.25500000920E-02 0.  1.
       -2    1    3    3    0  502 -0.87638219039E+02 -0.51596437953E+03  0.23655148208E+03  0.57433117804E+03  0.25500000920E-02 0. -1.
</event>
<event>
 5   0  0.1471485E-05  0.1905808E+04  0.7818609E-02  0.8651971E-01
       -1   -1    0    0    0  501  0.00000000000E+00  0.00000000000E+00  0.94577323304E+03  0.94577323305E+03  0.50400001928E-02 0. -1.
        1   -1    0    0  501    0  0.00000000000E+00  0.00000000000E+00 -0.96008813962E+03  0.96008813963E+03  0.50400001928E-02 0.  1.
    10030    2    1    2    0    0  0.00000000000E+00  0.00000000000E+00 -0.14314906580E+02  0.19058613727E+04  0.19058076124E+04 0.  0.
        4    1    3    3  502    0  0.80642773708E+03 -0.47008458182E+03  0.18446956294E+03  0.95149137765E+03  0.12699999809E+01 0.  1.
       -4    1    3    3    0  502 -0.80642773708E+03  0.47008458182E+03 -0.19878446952E+03  0.95436999503E+03  0.12699999809E+01 0. -1.
</event>
<event>
 5   0  0.2789718E-05  0.1899437E+04  0.7818609E-02  0.8655137E-01
        2   -1    0    0  501    0  0.00000000000E+00  0.00000000000E+00  0.19129699152E+04  0.19129699152E+04  0.25500000920E-02 0. -1.
       -2   -1    0    0    0  501  0.00000000000E+00  0.00000000000E+00 -0.47150000881E+03  0.47150000882E+03  0.25500000920E-02 0.  1.
    10030    2    1    2    0    0  0.00000000000E+00  0.00000000000E+00  0.14414699064E+04  0.23844699241E+04  0.18994371081E+04 0.  0.
        5    1    3    3  502    0 -0.21871958768E+03  0.86109071629E+03  0.29943670022E+03  0.93754994915E+03  0.46999998093E+01 0.  1.
       -5    1    3    3    0  502  0.21871958768E+03 -0.86109071629E+03  0.11420332062E+04  0.14469199749E+04  0.46999998093E+01 0. -1.
</event>
<event>
 5   0  0.1413011E-05  0.1897867E+04  0.7818609E-02  0.8655919E-01
        1   -1    0    0  501    0  0.00000000000E+00  0.00000000000E+00  0.10464484007E+04  0.10464484007E+04  0.50400001928E-02 0. -1.
       -1   -1    0    0    0  501  0.00000000000E+00  0.00000000000E+00 -0.86050572277E+03  0.86050572278E+03  0.50400001928E-02 0.  1.
    10030    2    1    2    0    0  0.00000000000E+00  0.00000000000E+00  0.18594267793E+03  0.19069541235E+04  0.18978670527E+04 0.  0.
        1    1    3    3  502    0  0.23244515925E+02 -0.85033149280E+03  0.51554520015E+03  0.99468125979E+03  0.50400001928E-02 0. -1.
       -1    1    3    3    0  502 -0.23244515925E+02  0.85033149280E+03 -0.32960252222E+03  0.91227286370E+03  0.50400001928E-02 0.  1.
</event>
<event>
 5   0  0.2855141E-05  0.1899516E+04  0.7818609E-02  0.8655097E-01
       -2   -1    0    0    0  501  0.00000000000E+00  0.00000000000E+00  0.11580354121E+04  0.11580354121E+04  0.25500000920E-02 0.  1.
        2   -1    0    0  501    0  0.00000000000E+00  0.00000000000E+00 -0.77894015605E+03  0.77894015605E+03  0.25500000920E-02 0. -1.
    10030    2    1    2    0    0  0.00000000000E+00  0.00000000000E+00  0.37909525609E+03  0.19369755682E+04  0.18995160275E+04 0.  0.
        1    1    3    3  502    0  0.23171401897E+03  0.79266888957E+03 -0.28877081395E+03  0.87487366979E+03  0.50400001928E-02 0. -1.
       -1    1    3    3    0  502 -0.23171401897E+03 -0.79266888957E+03  0.66786607003E+03  0.10621018984E+04  0.50400001928E-02 0.  1.
</event>
<event>
 5   0  0.1344119E-05  0.1899173E+04  0.7818609E-02  0.8655268E-01
       -1   -1    0    0    0  501  0.00000000000E+00  0.00000000000E+00  0.10926955916E+04  0.10926955916E+04  0.50400001928E-02 0.  1.
        1   -1    0    0  501    0  0.00000000000E+00  0.00000000000E+00 -0.82522045780E+03  0.82522045782E+03  0.50400001928E-02 0. -1.
    10030    2    1    2    0    0  0.00000000000E+00  0.00000000000E+00  0.26747513381E+03  0.19179160494E+04  0.18991732479E+04 0.  0.
        2    1    3    3  502    0  0.37737087984E+03 -0.25274353056E+03 -0.70841482113E+03  0.84151032792E+03  0.25500000920E-02 0. -1.
       -2    1    3    3    0  502 -0.37737087984E+03  0.25274353056E+03  0.97588995494E+03  0.10764057215E+04  0.25500000920E-02 0.  1.
</event>
<event>
 5   0  0.1344119E-05  0.1901370E+04  0.7818609E-02  0.8654175E-01
        1   -1    0    0  501    0  0.00000000000E+00  0.00000000000E+00  0.13913092246E+04  0.13913092246E+04  0.50400001928E-02 0. -1.
       -1   -1    0    0    0  501  0.00000000000E+00  0.00000000000E+00 -0.64960559109E+03  0.64960559111E+03  0.50400001928E-02 0.  1.
    10030    2    1    2    0    0  0.00000000000E+00  0.00000000000E+00  0.74170363351E+03  0.20409148157E+04  0.19013702967E+04 0.  0.
        2    1    3    3  502    0 -0.79540616021E+03  0.12484112727E+03  0.91346795211E+03  0.12176534672E+04  0.25500000920E-02 0. -1.
       -2    1    3    3    0  502  0.79540616021E+03 -0.12484112727E+03 -0.17176431860E+03  0.82326134848E+03  0.25500000920E-02 0.  1.
</event>
<event>
 5   0  0.1327254E-05  0.1921121E+04  0.7818609E-02  0.8644414E-01
       -1   -1    0    0    0  501  0.00000000000E+00  0.00000000000E+00  0.30862741258E+03  0.30862741262E+03  0.50400001928E-02 0. -1.
        1   -1    0    0  501    0  0.00000000000E+00  0.00000000000E+00 -0.29896134920E+04  0.29896134920E+04  0.50400001928E-02 0.  1.
    10030    2    1    2    0    0  0.00000000000E+00  0.00000000000E+00 -0.26809860794E+04  0.32982409046E+04  0.19211212109E+04 0.  0.
        5    1    3    3  502    0 -0.86051537947E+03 -0.31431956093E+03 -0.84477431301E+03  0.12461738380E+04  0.46999998093E+01 0.  1.
       -5    1    3    3    0  502  0.86051537947E+03  0.31431956093E+03 -0.18362117664E+04  0.20520670665E+04  0.46999998093E+01 0. -1.
</event>
<event>
 5   0  0.1327254E-05  0.1902743E+04  0.7818609E-02  0.8653492E-01
       -1   -1    0    0    0  501  0.00000000000E+00  0.00000000000E+00  0.11020022731E+04  0.11020022731E+04  0.50400001928E-02 0. -1.
        1   -1    0    0  501    0  0.00000000000E+00  0.00000000000E+00 -0.82133036707E+03  0.82133036708E+03  0.50400001928E-02 0.  1.
    10030    2    1    2    0    0  0.00000000000E+00  0.00000000000E+00  0.28067190599E+03  0.19233326402E+04  0.19027432107E+04 0.  0.
        5    1    3    3  502    0  0.82460450421E+03  0.71689193597E+02  0.61442487871E+03  0.10308501106E+04  0.46999998093E+01 0. -1.
       -5    1    3    3    0  502 -0.82460450421E+03 -0.71689193597E+02 -0.33375297272E+03  0.89248252960E+03  0.46999998093E+01 0.  1.
</event>
<event>
 5   0  0.1471485E-05  0.1893531E+04  0.7818609E-02  0.8658083E-01
        1   -1    0    0  501    0  0.00000000000E+00  0.00000000000E+00  0.93256401007E+03  0.93256401008E+03  0.50400001928E-02 0. -1.
       -1   -1    0    0    0  501  0.00000000000E+00  0.00000000000E+00 -0.96118357565E+03  0.96118357566E+03  0.50400001928E-02 0.  1.
    10030    2    1    2    0    0  0.00000000000E+00  0.00000000000E+00 -0.28619565579E+02  0.18937475857E+04  0.18935313145E+04 0.  0.
        4    1    3    3  502    0 -0.91880391909E+03 -0.22582578203E+03  0.19836045244E+02  0.94635775854E+03  0.12699999809E+01 0.  1.
       -4    1    3    3    0  502  0.91880391909E+03  0.22582578203E+03 -0.48455610823E+02  0.94738982720E+03  0.12699999809E+01 0. -1.
</event>
<event>
 5   0  0.2879462E-05  0.1893807E+04  0.7818609E-02  0.8657945E-01
       -2   -1    0    0    0  501  0.00000000000E+00  0.00000000000E+00  0.53907912607E+03  0.53907912608E+03  0.25500000920E-02 0. -1.
        2   -1    0    0  501    0  0.00000000000E+00  0.00000000000E+00 -0.16632552106E+04  0.16632552106E+04  0.25500000920E-02 0.  1.
    10030    2    1    2    0    0  0.00000000000E+00  0.00000000000E+00 -0.11241760845E+04  0.22023343366E+04  0.18938069229E+04 0.  0.
        4    1    3    3  502    0  0.83150589236E+02 -0.28442632569E+03 -0.16079428474E+04  0.16350211524E+04  0.12699999809E+01 0.  1.
       -4    1    3    3    0  502 -0.83150589236E+02  0.28442632569E+03  0.48376676293E+03  0.56731318427E+03  0.12699999809E+01 0. -1.
</event>
<event>
 5   0  0.2855141E-05  0.1900845E+04  0.7818609E-02  0.8654436E-01
        2   -1    0    0  501    0  0.00000000000E+00  0.00000000000E+00  0.61197323920E+03  0.61197323920E+03  0.25500000920E-02 0.  1.
       -2   -1    0    0    0  501  0.00000000000E+00  0.00000000000E+00 -0.14760490197E+04  0.14760490197E+04  0.25500000920E-02 0. -1.
    10030    2    1    2    0    0  0.00000000000E+00  0.00000000000E+00 -0.86407578052E+03  0.20880222589E+04  0.19008445490E+04 0.  0.
        1    1    3    3  502    0  0.91800743660E+03  0.55688039688E+02 -0.69535875429E+03  0.11529798821E+04  0.50400001928E-02 0. -1.
       -1    1    3    3    0  502 -0.91800743660E+03 -0.55688039688E+02 -0.16871702623E+03  0.93504237679E+03  0.50400001928E-02 0.  1.
</event>
<event>
 5   0  0.2789718E-05  0.1898771E+04  0.7818609E-02  0.8655468E-01
       -2   -1    0    0    0  501  0.00000000000E+00  0.00000000000E+00  0.33130391907E+03  0.33130391908E+03  0.25500000920E-02 0.  1.
        2   -1    0    0  501    0  0.00000000000E+00  0.00000000000E+00 -0.27205622961E+04  0.27205622961E+04  0.25500000920E-02 0. -1.
    10030    2    1    2    0    0  0.00000000000E+00  0.00000000000E+00 -0.23892583770E+04  0.30518662152E+04  0.18987711298E+04 0.  0.
        5    1    3    3  502    0 -0.68634542861E+03 -0.43726406345E+03 -0.40879842435E+03  0.91071848027E+03  0.46999998093E+01 0.  1.
       -5    1    3    3    0  502  0.68634542861E+03  0.43726406345E+03 -0.19804599527E+04  0.21411477349E+04  0.46999998093E+01 0. -1.
</event>
<event>
 5   0  0.2813537E-05  0.1893515E+04  0.7818609E-02  0.8658091E-01
       -2   -1    0    0    0  501  0.00000000000E+00  0.00000000000E+00  0.92584839779E+03  0.92584839780E+03  0.25500000920E-02 0. -1.
        2   -1    0    0  501    0  0.00000000000E+00  0.00000000000E+00 -0.96813924629E+03  0.96813924630E+03  0.25500000920E-02 0.  1.
    10030    2    1    2    0    0  0.00000000000E+00  0.00000000000E+00 -0.42290848499E+02  0.18939876441E+04  0.18935154291E+04 0.  0.
        2    1    3    3  502    0 -0.42284779009E+02  0.71615552606E+02 -0.96447837647E+03  0.96805750274E+03  0.25500000920E-02 0.  1.
       -2    1    3    3    0  502  0.42284779009E+02 -0.71615552606E+02  0.92218752798E+03  0.92593014136E+03  0.25500000920E-02 0. -1.
</event>
<event>
 5   0  0.1344119E-05  0.1900830E+04  0.7818609E-02  0.8654443E-01
        1   -1    0    0  501    0  0.00000000000E+00  0.00000000000E+00  0.30762466319E+04  0.30762466319E+04  0.50400001928E-02 0. -1.
       -1   -1    0    0    0  501  0.00000000000E+00  0.00000000000E+00 -0.29363348597E+03  0.29363348601E+03  0.50400001928E-02 0.  1.
    10030    2    1    2    0    0  0.00000000000E+00  0.00000000000E+00  0.27826131460E+04  0.33698801179E+04  0.19008303683E+04 0.  0.
        2    1    3    3  502    0 -0.90161029957E+03  0.29092606547E+02  0.19218040186E+04  0.21229880352E+04  0.25500000920E-02 0. -1.
       -2    1    3    3    0  502  0.90161029957E+03 -0.29092606547E+02  0.86080912741E+03  0.12468920827E+04  0.25500000920E-02 0.  1.
</event>
<event>
 5   0  0.1413011E-05  0.1906289E+04  0.7818609E-02  0.8651732E-01
        1   -1    0    0  501    0  0.00000000000E+00  0.00000000000E+00  0.14036840468E+04  0.14036840468E+04  0.50400001928E-02 0. -1.
       -1   -1    0    0    0  501  0.00000000000E+00  0.00000000000E+00 -0.64721440807E+03  0.64721440809E+03  0.50400001928E-02 0.  1.
    10030    2    1    2    0    0  0.00000000000E+00  0.00000000000E+00  0.75646963874E+03  0.20508984549E+04  0.19062891066E+04 0.  0.
        1    1    3    3  502    0  0.85680414546E+03  0.32445253027E+03  0.66104817786E+03  0.11297643478E+04  0.50400001928E-02 0. -1.
       -1    1    3    3    0  502 -0.85680414546E+03 -0.32445253027E+03  0.95421460880E+02  0.92113410712E+03  0.50400001928E-02 0.  1.
</event>
<event>
 5   0  0.2789718E-05  0.1896850E+04  0.7818609E-02  0.8656426E-01
        2   -1    0    0  501    0  0.00000000000E+00  0.00000000000E+00  0.86372806729E+03  0.86372806729E+03  0.25500000920E-02 0. -1.
       -2   -1    0    0    0  501  0.00000000000E+00  0.00000000000E+00 -0.10414277060E+04  0.10414277060E+04  0.25500000920E-02 0.  1.
    10030    2    1    2    0    0  0.00000000000E+00  0.00000000000E+00 -0.17769963869E+03  0.19051557733E+04  0.18968503786E+04 0.  0.
        5    1    3    3  502    0  0.58392228205E+03  0.66258514810E+02  0.65881053988E+03  0.88284134458E+03  0.46999998093E+01 0. -1.
       -5    1    3    3    0  502 -0.58392228205E+03 -0.66258514810E+02 -0.83651017857E+03  0.10223144287E+04  0.46999998093E+01 0.  1.
</event>
<event>
 5   0  0.2855141E-05  0.1896821E+04  0.7818609E-02  0.8656440E-01
       -2   -1    0    0    0  501  0.00000000000E+00  0.00000000000E+00  0.56708589283E+03  0.56708589283E+03  0.25500000920E-02 0.  1.
        2   -1    0    0  501    0  0.00000000000E+00  0.00000000000E+00 -0.15861484145E+04  0.15861484145E+04  0.25500000920E-02 0. -1.
    10030    2    1    2    0    0  0.00000000000E+00  0.00000000000E+00 -0.10190625217E+04  0.21532343074E+04  0.18968209086E+04 0.  0.
        1    1    3    3  502    0 -0.10237791365E+03 -0.73092712782E+03  0.16658928955E+03  0.75662916598E+03  0.50400001928E-02 0.  1.
       -1    1    3    3    0  502  0.10237791365E+03  0.73092712782E+03 -0.11856518113E+04  0.13966051414E+04  0.50400001928E-02 0. -1.
</event>
<event>
 5   0  0.1010725E-05  0.1896761E+04  0.7818609E-02  0.8656470E-01
        3   -1    0    0  501    0  0.00000000000E+00  0.00000000000E+00  0.10450288220E+04  0.10450288269E+04  0.10100000352E+00 0.  1.
       -3   -1    0    0    0  501  0.00000000000E+00  0.00000000000E+00 -0.86067051111E+03  0.86067051704E+03  0.10100000352E+00 0. -1.
    10030    2    1    2    0    0  0.00000000000E+00  0.00000000000E+00  0.18435831093E+03  0.19056993440E+04  0.18967609240E+04 0.  0.
        2    1    3    3  502    0  0.14675236124E+03 -0.11608891659E+03 -0.84194012690E+03  0.86248250381E+03  0.25500000920E-02 0. -1.
       -2    1    3    3    0  502 -0.14675236124E+03  0.11608891659E+03  0.10262984378E+04  0.10432168402E+04  0.25500000920E-02 0.  1.
</event>
<event>
 5   0  0.1429067E-05  0.1900950E+04  0.7818609E-02  0.8654384E-01
        1   -1    0    0  501    0  0.00000000000E+00  0.00000000000E+00  0.10031204101E+04  0.10031204101E+04  0.50400001928E-02 0. -1.
       -1   -1    0    0    0  501  0.00000000000E+00  0.00000000000E+00 -0.90059218850E+03  0.90059218852E+03  0.50400001928E-02 0.  1.
    10030    2    1    2    0    0  0.00000000000E+00  0.00000000000E+00  0.10252822161E+03  0.19037125986E+04  0.19009496632E+04 0.  0.
        3    1    3    3  502    0  0.58025446182E+03  0.40795020796E+02  0.80405002868E+03  0.99239907950E+03  0.10100000352E+00 0. -1.
       -3    1    3    3    0  502 -0.58025446182E+03 -0.40795020796E+02 -0.70152180706E+03  0.91131351914E+03  0.10100000352E+00 0.  1.
</event>
<event>
 5   0  0.2789718E-05  0.1903221E+04  0.7818609E-02  0.8653255E-01
        2   -1    0    0  501    0  0.00000000000E+00  0.00000000000E+00  0.14364827389E+04  0.14364827389E+04  0.25500000920E-02 0.  1.
       -2   -1    0    0    0  501  0.00000000000E+00  0.00000000000E+00 -0.63040252060E+03  0.63040252060E+03  0.25500000920E-02 0. -1.
    10030    2    1    2    0    0  0.00000000000E+00  0.00000000000E+00  0.80608021828E+03  0.20668852595E+04  0.19032207853E+04 0.  0.
        5    1    3    3  502    0  0.39665925504E+03  0.52638242834E+03  0.11484488010E+04  0.13241502045E+04  0.46999998093E+01 0.  1.
       -5    1    3    3    0  502 -0.39665925504E+03 -0.52638242834E+03 -0.34236858274E+03  0.74273505500E+03  0.46999998093E+01 0. -1.
</event>
<event>
 5   0  0.1429067E-05  0.1923646E+04  0.7818609E-02  0.8643175E-01
        1   -1    0    0  501    0  0.00000000000E+00  0.00000000000E+00  0.78837373672E+03  0.78837373674E+03  0.50400001928E-02 0. -1.
       -1   -1    0    0    0  501  0.00000000000E+00  0.00000000000E+00 -0.11734322941E+04  0.11734322941E+04  0.50400001928E-02 0.  1.
    10030    2    1    2    0    0  0.00000000000E+00  0.00000000000E+00 -0.38505855738E+03  0.19618060308E+04  0.19236457080E+04 0.  0.
        3    1    3    3  502    0  0.95053027013E+03  0.13047344653E+03 -0.26148777384E+03  0.99443802258E+03  0.10100000352E+00 0. -1.
       -3    1    3    3    0  502 -0.95053027013E+03 -0.13047344653E+03 -0.12357078354E+03  0.96736800827E+03  0.10100000352E+00 0.  1.
</event>
<event>
 5   0  0.2789718E-05  0.1900690E+04  0.7818609E-02  0.8654513E-01
        2   -1    0    0  501    0  0.00000000000E+00  0.00000000000E+00  0.15381624849E+04  0.15381624849E+04  0.25500000920E-02 0.  1.
       -2   -1    0    0    0  501  0.00000000000E+00  0.00000000000E+00 -0.58716506045E+03  0.58716506046E+03  0.25500000920E-02 0. -1.
    10030    2    1    2    0    0  0.00000000000E+00  0.00000000000E+00  0.95099742445E+03  0.21253275454E+04  0.19006896311E+04 0.  0.
        5    1    3    3  502    0  0.38067181867E+03  0.76561055150E+03  0.11669666061E+02  0.85511918537E+03  0.46999998093E+01 0. -1.
       -5    1    3    3    0  502 -0.38067181867E+03 -0.76561055150E+03  0.93932775839E+03  0.12702083600E+04  0.46999998093E+01 0.  1.
</event>
<event>
 5   0  0.1344119E-05  0.1901074E+04  0.7818609E-02  0.8654322E-01
        1   -1    0    0  501    0  0.00000000000E+00  0.00000000000E+00  0.81719889489E+03  0.81719889491E+03  0.50400001928E-02 0. -1.
       -1   -1    0    0    0  501  0.00000000000E+00  0.00000000000E+00 -0.11056313202E+04  0.11056313202E+04  0.50400001928E-02 0.  1.
    10030    2    1    2    0    0  0.00000000000E+00  0.00000000000E+00 -0.28843242534E+03  0.19228302152E+04  0.19010741102E+04 0.  0.
        2    1    3    3  502    0 -0.39626486979E+03  0.48033312159E+03  0.58217738621E+03  0.85245308595E+03  0.25500000920E-02 0. -1.
       -2    1    3    3    0  502  0.39626486979E+03 -0.48033312159E+03 -0.87060981156E+03  0.10703771292E+04  0.25500000920E-02 0.  1.
</event>
<event>
 5   0  0.2855141E-05  0.1895336E+04  0.7818609E-02  0.8657181E-01
        2   -1    0    0  501    0  0.00000000000E+00  0.00000000000E+00  0.11918328088E+04  0.11918328088E+04  0.25500000920E-02 0. -1.
       -2   -1    0    0    0  501  0.00000000000E+00  0.00000000000E+00 -0.75352432802E+03  0.75352432802E+03  0.25500000920E-02 0.  1.
    10030    2    1    2    0    0  0.00000000000E+00  0.00000000000E+00  0.43830848073E+03  0.19453571368E+04  0.18953363990E+04 0.  0.
        1    1    3    3  502    0 -0.63960061843E+02  0.84515434632E+03  0.65425012211E+03  0.10707100359E+04  0.50400001928E-02 0. -1.
       -1    1    3    3    0  502  0.63960061843E+02 -0.84515434632E+03 -0.21594164138E+03  0.87464710091E+03  0.50400001928E-02 0.  1.
</event>
<event>
 5   0  0.1344119E-05  0.1893902E+04  0.7818609E-02  0.8657898E-01
       -1   -1    0    0    0  501  0.00000000000E+00  0.00000000000E+00  0.68325087571E+03  0.68325087573E+03  0.50400001928E-02 0.  1.
        1   -1    0    0  501    0  0.00000000000E+00  0.00000000000E+00 -0.13124257535E+04  0.13124257535E+04  0.50400001928E-02 0. -1.
    10030    2    1    2    0    0  0.00000000000E+00  0.00000000000E+00 -0.62917487779E+03  0.19956766292E+04  0.18939018406E+04 0.  0.
        2    1    3    3  502    0 -0.81614002882E+02 -0.79315461160E+03 -0.85288260235E+03  0.11675460662E+04  0.25500000920E-02 0. -1.
       -2    1    3    3    0  502  0.81614002882E+02  0.79315461160E+03  0.22370772456E+03  0.82813056301E+03  0.25500000920E-02 0.  1.
</event>
<event>
 5   0  0.2879462E-05  0.1899989E+04  0.7818609E-02  0.8654862E-01
        2   -1    0    0  501    0  0.00000000000E+00  0.00000000000E+00  0.12302868076E+04  0.12302868076E+04  0.25500000920E-02 0. -1.
       -2   -1    0    0    0  501  0.00000000000E+00  0.00000000000E+00 -0.73355993059E+03  0.73355993059E+03  0.25500000920E-02 0.  1.
    10030    2    1    2    0    0  0.00000000000E+00  0.00000000000E+00  0.49672687696E+03  0.19638467381E+04  0.18999885317E+04 0.  0.
        4    1    3    3  502    0 -0.43591665131E+03  0.84320858736E+03  0.20882271582E+03  0.97192211016E+03  0.12699999809E+01 0.  1.
       -4    1    3    3    0  502  0.43591665131E+03 -0.84320858736E+03  0.28790416115E+03  0.99192462798E+03  0.12699999809E+01 0. -1.
</event>
<event>
 5   0  0.1471485E-05  0.1900431E+04  0.7818609E-02  0.8654642E-01
       -1   -1    0    0    0  501  0.00000000000E+00  0.00000000000E+00  0.78924988702E+03  0.78924988704E+03  0.50400001928E-02 0. -1.
        1   -1    0    0  501    0  0.00000000000E+00  0.00000000000E+00 -0.11440099462E+04  0.11440099462E+04  0.50400001928E-02 0.  1.
    10030    2    1    2    0    0  0.00000000000E+00  0.00000000000E+00 -0.35476005917E+03  0.19332598332E+04  0.19004312361E+04 0.  0.
        4    1    3    3  502    0  0.16211902321E+03 -0.34445201393E+03  0.70827881818E+03  0.80410836631E+03  0.12699999809E+01 0. -1.
       -4    1    3    3    0  502 -0.16211902321E+03  0.34445201393E+03 -0.10630388774E+04  0.11291514669E+04  0.12699999809E+01 0.  1.
</event>
<event>
 5   0  0.1344119E-05  0.1897791E+04  0.7818609E-02  0.8655957E-01
       -1   -1    0    0    0  501  0.00000000000E+00  0.00000000000E+00  0.60201190105E+03  0.60201190107E+03  0.50400001928E-02 0. -1.
        1   -1    0    0  501    0  0.00000000000E+00  0.00000000000E+00 -0.14956558933E+04  0.14956558933E+04  0.50400001928E-02 0.  1.
    10030    2    1    2    0    0  0.00000000000E+00  0.00000000000E+00 -0.89364399227E+03  0.20976677944E+04  0.18977909766E+04 0.  0.
        2    1    3    3  502    0 -0.15119956160E+03  0.81173121564E+03  0.70007104045E+02  0.82865545825E+03  0.25500000920E-02 0. -1.
       -2    1    3    3    0  502  0.15119956160E+03 -0.81173121564E+03 -0.96365109631E+03  0.12690123362E+04  0.25500000920E-02 0.  1.
</event>
<event>
 5   0  0.1327254E-05  0.1900233E+04  0.7818609E-02  0.8654740E-01
        1   -1    0    0  501    0  0.00000000000E+00  0.00000000000E+00  0.61648976762E+03  0.61648976764E+03  0.50400001928E-02 0. -1.
       -1   -1    0    0    0  501  0.00000000000E+00  0.00000000000E+00 -0.14642927979E+04  0.14642927979E+04  0.50400001928E-02 0.  1.
    10030    2    1    2    0    0  0.00000000000E+00  0.00000000000E+00 -0.84780303028E+03  0.20807825655E+04  0.19002331717E+04 0.  0.
        5    1    3    3  502    0 -0.11513451249E+03  0.27593162823E+03  0.56362004081E+03  0.63803123734E+03  0.46999998093E+01 0. -1.
       -5    1    3    3    0  502  0.11513451249E+03 -0.27593162823E+03 -0.14114230711E+04  0.14427513282E+04  0.46999998093E+01 0.  1.
</event>
<event>
 5   0  0.1344119E-05  0.1898813E+04  0.7818609E-02  0.8655447E-01
        1   -1    0    0  501    0  0.00000000000E+00  0.00000000000E+00  0.84918984031E+03  0.84918984033E+03  0.50400001928E-02 0. -1.
       -1   -1    0    0    0  501  0.00000000000E+00  0.00000000000E+00 -0.10614506449E+04  0.10614506449E+04  0.50400001928E-02 0.  1.
    10030    2    1    2    0    0  0.00000000000E+00  0.00000000000E+00 -0.21226080455E+03  0.19106404852E+04  0.18988134228E+04 0.  0.
        2    1    3    3  502    0  0.75607614183E+03 -0.42045437822E+03 -0.49964183057E+03  0.99903702397E+03  0.25500000920E-02 0.  1.
       -2    1    3    3    0  502 -0.75607614183E+03  0.42045437822E+03  0.28738102602E+03  0.91160346123E+03  0.25500000920E-02 0. -1.
</event>
<event>
 5   0  0.1429067E-05  0.1897978E+04  0.7818609E-02  0.8655864E-01
        1   -1    0    0  501    0  0.00000000000E+00  0.00000000000E+00  0.75716032953E+03  0.75716032955E+03  0.50400001928E-02 0.  1.
       -1   -1    0    0    0  501  0.00000000000E+00  0.00000000000E+00 -0.11894179842E+04  0.11894179842E+04  0.50400001928E-02 0. -1.
    10030    2    1    2    0    0  0.00000000000E+00  0.00000000000E+00 -0.43225765465E+03  0.19465783137E+04  0.18979779903E+04 0.  0.
        3    1    3    3  502    0 -0.30594400129E+03  0.25056097354E+03 -0.11008875082E+04  0.11697588851E+04  0.10100000352E+00 0. -1.
       -3    1    3    3    0  502  0.30594400129E+03 -0.25056097354E+03  0.66862985357E+03  0.77681942861E+03  0.10100000352E+00 0.  1.
</event>
<event>
 5   0  0.1327254E-05  0.1886720E+04  0.7818609E-02  0.8661495E-01
       -1   -1    0    0    0  501  0.00000000000E+00  0.00000000000E+00  0.79455207829E+03  0.79455207831E+03  0.50400001928E-02 0.  1.
        1   -1    0    0  501    0  0.00000000000E+00  0.00000000000E+00 -0.11200372305E+04  0.11200372306E+04  0.50400001928E-02 0. -1.
    10030    2    1    2    0    0  0.00000000000E+00  0.00000000000E+00 -0.32548515225E+03  0.19145893089E+04  0.18867198089E+04 0.  0.
        5    1    3    3  502    0 -0.12158413235E+03 -0.39952229769E+03 -0.10211126588E+04  0.11032197966E+04  0.46999998093E+01 0. -1.
       -5    1    3    3    0  502  0.12158413235E+03  0.39952229769E+03  0.69562750655E+03  0.81136951228E+03  0.46999998093E+01 0.  1.
</event>
<event>
 5   0  0.1327254E-05  0.1899757E+04  0.7818609E-02  0.8654977E-01
        1   -1    0    0  501    0  0.00000000000E+00  0.00000000000E+00  0.89228074079E+03  0.89228074080E+03  0.50400001928E-02 0.  1.
       -1   -1    0    0    0  501  0.00000000000E+00  0.00000000000E+00 -0.10111945677E+04  0.10111945677E+04  0.50400001928E-02 0. -1.
    10030    2    1    2    0    0  0.00000000000E+00  0.00000000000E+00 -0.11891382687E+03  0.19034753085E+04  0.18997572876E+04 0.  0.
        5    1    3    3  502    0 -0.78852892225E+03  0.50054968738E+03  0.11385414463E+03  0.94091057334E+03  0.46999998093E+01 0.  1.
       -5    1    3    3    0  502  0.78852892225E+03 -0.50054968738E+03 -0.23276797149E+03  0.96256473513E+03  0.46999998093E+01 0. -1.
</event>
<event>
 5   0  0.1327254E-05  0.1900976E+04  0.7818609E-02  0.8654371E-01
        1   -1    0    0  501    0  0.00000000000E+00  0.00000000000E+00  0.12591601335E+04  0.12591601335E+04  0.50400001928E-02 0.  1.
       -1   -1    0    0    0  501  0.00000000000E+00  0.00000000000E+00 -0.71748446080E+03  0.71748446082E+03  0.50400001928E-02 0. -1.
    10030    2    1    2    0    0  0.00000000000E+00  0.00000000000E+00  0.54167567274E+03  0.19766445944E+04  0.19009764117E+04 0.  0.
        5    1    3    3  502    0 -0.82700354127E+03  0.22343257804E+03  0.69899101922E+03  0.11056525264E+04  0.46999998093E+01 0.  1.
       -5    1    3    3    0  502  0.82700354127E+03 -0.22343257804E+03 -0.15731534648E+03  0.87099206795E+03  0.46999998093E+01 0. -1.
</event>
<event>
 5   0  0.2879462E-05  0.1901222E+04  0.7818609E-02  0.8654248E-01
       -2   -1    0    0    0  501  0.00000000000E+00  0.00000000000E+00  0.86877518891E+03  0.86877518892E+03  0.25500000920E-02 0.  1.
        2   -1    0    0  501    0  0.00000000000E+00  0.00000000000E+00 -0.10401559091E+04  0.10401559091E+04  0.25500000920E-02 0. -1.
    10030    2    1    2    0    0  0.00000000000E+00  0.00000000000E+00 -0.17138072018E+03  0.19089310980E+04  0.19012223925E+04 0.  0.
        4    1    3    3  502    0  0.15151985187E+02  0.68361893102E+03  0.57736255490E+03  0.89493773985E+03  0.12699999809E+01 0.  1.
       -4    1    3    3    0  502 -0.15151985187E+02 -0.68361893102E+03 -0.74874327508E+03  0.10139933582E+04  0.12699999809E+01 0. -1.
</event>
<event>
 5   0  0.1471485E-05  0.1890370E+04  0.7818609E-02  0.8659665E-01
        1   -1    0    0  501    0  0.00000000000E+00  0.00000000000E+00  0.58573379665E+03  0.58573379667E+03  0.50400001928E-02 0. -1.
       -1   -1    0    0    0  501  0.00000000000E+00  0.00000000000E+00 -0.15252234299E+04  0.15252234299E+04  0.50400001928E-02 0.  1.
    10030    2    1    2    0    0  0.00000000000E+00  0.00000000000E+00 -0.93948963323E+03  0.21109572266E+04  0.18903702392E+04 0.  0.
        4    1    3    3  502    0  0.36312205857E+02 -0.91054734980E+03 -0.74993884065E+03  0.11801800414E+04  0.12699999809E+01 0.  1.
       -4    1    3    3    0  502 -0.36312205857E+02  0.91054734980E+03 -0.18955079258E+03  0.93077718515E+03  0.12699999809E+01 0. -1.
</event>
<event>
 5   0  0.2888776E-05  0.1900775E+04  0.7818609E-02  0.8654471E-01
        2   -1    0    0  501    0  0.00000000000E+00  0.00000000000E+00  0.44616977407E+03  0.44616977408E+03  0.25500000920E-02 0.  1.
       -2   -1    0    0    0  501  0.00000000000E+00  0.00000000000E+00 -0.20244237099E+04  0.20244237099E+04  0.25500000920E-02 0. -1.
    10030    2    1    2    0    0  0.00000000000E+00  0.00000000000E+00 -0.15782539358E+04  0.24705934839E+04  0.19007752831E+04 0.  0.
        3    1    3    3  502    0 -0.87171411453E+03  0.35841743535E+03 -0.94772222932E+03  0.13366098868E+04  0.10100000352E+00 0.  1.
       -3    1    3    3    0  502  0.87171411453E+03 -0.35841743535E+03 -0.63053170647E+03  0.11339835971E+04  0.10100000352E+00 0. -1.
</event>
<event>
 5   0  0.2855141E-05  0.1899989E+04  0.7818609E-02  0.8654862E-01
       -2   -1    0    0    0  501  0.00000000000E+00  0.00000000000E+00  0.68353755451E+03  0.68353755452E+03  0.25500000920E-02 0. -1.
        2   -1    0    0  501    0  0.00000000000E+00  0.00000000000E+00 -0.13203220993E+04  0.13203220993E+04  0.25500000920E-02 0.  1.
    10030    2    1    2    0    0  0.00000000000E+00  0.00000000000E+00 -0.63678454482E+03  0.20038596539E+04  0.18999891989E+04 0.  0.
        1    1    3    3  502    0  0.43602955603E+02  0.86005539885E+03 -0.74143580222E+03  0.11363641827E+04  0.50400001928E-02 0.  1.
       -1    1    3    3    0  502 -0.43602955603E+02 -0.86005539885E+03  0.10465125740E+03  0.86749547118E+03  0.50400001928E-02 0. -1.
</event>
<event>
 5   0  0.1471485E-05  0.1874307E+04  0.7818609E-02  0.8667752E-01
       -1   -1    0    0    0  501  0.00000000000E+00  0.00000000000E+00  0.52434395935E+03  0.52434395937E+03  0.50400001928E-02 0.  1.
        1   -1    0    0  501    0  0.00000000000E+00  0.00000000000E+00 -0.16749626128E+04  0.16749626129E+04  0.50400001928E-02 0. -1.
    10030    2    1    2    0    0  0.00000000000E+00  0.00000000000E+00 -0.11506186535E+04  0.21993065722E+04  0.18743068353E+04 0.  0.
        4    1    3    3  502    0 -0.87467680522E+03 -0.30167731235E+03 -0.40053141180E+03  0.10082141336E+04  0.12699999809E+01 0.  1.
       -4    1    3    3    0  502  0.87467680522E+03  0.30167731235E+03 -0.75008724170E+03  0.11910924387E+04  0.12699999809E+01 0. -1.
</event>
<event>
 5   0  0.2855141E-05  0.1901073E+04  0.7818609E-02  0.8654322E-01
        2   -1    0    0  501    0  0.00000000000E+00  0.00000000000E+00  0.11877709029E+04  0.11877709029E+04  0.25500000920E-02 0.  1.
       -2   -1    0    0    0  501  0.00000000000E+00  0.00000000000E+00 -0.76068527478E+03  0.76068527478E+03  0.25500000920E-02 0. -1.
    10030    2    1    2    0    0  0.00000000000E+00  0.00000000000E+00  0.42708562814E+03  0.19484561777E+04  0.19010732081E+04 0.  0.
        1    1    3    3  502    0 -0.84549685654E+02  0.43588186099E+03  0.10749538708E+04  0.11630423339E+04  0.50400001928E-02 0.  1.
       -1    1    3    3    0  502  0.84549685654E+02 -0.43588186099E+03 -0.64786824269E+03  0.78541384377E+03  0.50400001928E-02 0. -1.
</event>
<event>
 5   0  0.2888776E-05  0.1897944E+04  0.7818609E-02  0.8655881E-01
        2   -1    0    0  501    0  0.00000000000E+00  0.00000000000E+00  0.18490116509E+04  0.18490116509E+04  0.25500000920E-02 0. -1.
       -2   -1    0    0    0  501  0.00000000000E+00  0.00000000000E+00 -0.48704263215E+03  0.48704263216E+03  0.25500000920E-02 0.  1.
    10030    2    1    2    0    0  0.00000000000E+00  0.00000000000E+00  0.13619690188E+04  0.23360542831E+04  0.18979436255E+04 0.  0.
        3    1    3    3  502    0  0.87277135696E+03  0.12446697140E+03  0.24874318992E+03  0.91602131702E+03  0.10100000352E+00 0.  1.
       -3    1    3    3    0  502 -0.87277135696E+03 -0.12446697140E+03  0.11132258289E+04  0.14200329661E+04  0.10100000352E+00 0. -1.
</event>
<event>
 5   0  0.1344119E-05  0.1900402E+04  0.7818609E-02  0.8654656E-01
       -1   -1    0    0    0  501  0.00000000000E+00  0.00000000000E+00  0.13156266556E+04  0.13156266556E+04  0.50400001928E-02 0.  1.
        1   -1    0    0  501    0  0.00000000000E+00  0.00000000000E+00 -0.68627550663E+03  0.68627550665E+03  0.50400001928E-02 0. -1.
    10030    2    1    2    0    0  0.00000000000E+00  0.00000000000E+00  0.62935114893E+03  0.20019021622E+04  0.19004024307E+04 0.  0.
        2    1    3    3  502    0  0.71674627322E+02 -0.72769076055E+02 -0.68047582875E+03  0.68809878953E+03  0.25500000920E-02 0. -1.
       -2    1    3    3    0  502 -0.71674627322E+02  0.72769076055E+02  0.13098269777E+04  0.13138033727E+04  0.25500000920E-02 0.  1.
</event>
<event>
 5   0  0.2888776E-05  0.1901222E+04  0.7818609E-02  0.8654249E-01
        2   -1    0    0  501    0  0.00000000000E+00  0.00000000000E+00  0.13929591206E+04  0.13929591206E+04  0.25500000920E-02 0.  1.
       -2   -1    0    0    0  501  0.00000000000E+00  0.00000000000E+00 -0.64873472928E+03  0.64873472928E+03  0.25500000920E-02 0. -1.
    10030    2    1    2    0    0  0.00000000000E+00  0.00000000000E+00  0.74422439133E+03  0.20416938499E+04  0.19012216683E+04 0.  0.
        3    1    3    3  502    0  0.86942495717E+03  0.37654968916E+03  0.28912703689E+03  0.99059773784E+03  0.10100000352E+00 0. -1.
       -3    1    3    3    0  502 -0.86942495717E+03 -0.37654968916E+03  0.45509735444E+03  0.10510961121E+04  0.10100000352E+00 0.  1.
</event>
<event>
 5   0  0.1413011E-05  0.1899082E+04  0.7818609E-02  0.8655313E-01
       -1   -1    0    0    0  501  0.00000000000E+00  0.00000000000E+00  0.10180244662E+04  0.10180244662E+04  0.50400001928E-02 0. -1.
        1   -1    0    0  501    0  0.00000000000E+00  0.00000000000E+00 -0.88566468171E+03  0.88566468173E+03  0.50400001928E-02 0.  1.
    10030    2    1    2    0    0  0.00000000000E+00  0.00000000000E+00  0.13235978445E+03  0.19036891479E+04  0.18990822150E+04 0.  0.
        1    1    3    3  502    0  0.30569720346E+03  0.31444919921E+03 -0.77806222355E+03  0.89314607026E+03  0.50400001928E-02 0.  1.
       -1    1    3    3    0  502 -0.30569720346E+03 -0.31444919921E+03  0.91042200800E+03  0.10105430776E+04  0.50400001928E-02 0. -1.
</event>
<event>
 5   0  0.1344119E-05  0.1900842E+04  0.7818609E-02  0.8654437E-01
       -1   -1    0    0    0  501  0.00000000000E+00  0.00000000000E+00  0.12409286660E+04  0.12409286660E+04  0.50400001928E-02 0.  1.
        1   -1    0    0  501    0  0.00000000000E+00  0.00000000000E+00 -0.72792282484E+03  0.72792282486E+03  0.50400001928E-02 0. -1.
    10030    2    1    2    0    0  0.00000000000E+00  0.00000000000E+00  0.51300584115E+03  0.19688514909E+04  0.19008422344E+04 0.  0.
        2    1    3    3  502    0  0.66697679798E+02 -0.76787134893E+03  0.83247894177E+03  0.11345026124E+04  0.25500000920E-02 0.  1.
       -2    1    3    3    0  502 -0.66697679798E+02  0.76787134893E+03 -0.31947310062E+03  0.83434887848E+03  0.25500000920E-02 0. -1.
</event>
<event>
 5   0  0.1413011E-05  0.1894618E+04  0.7818609E-02  0.8657540E-01
        1   -1    0    0  501    0  0.00000000000E+00  0.00000000000E+00  0.15006035076E+04  0.15006035076E+04  0.50400001928E-02 0. -1.
       -1   -1    0    0    0  501  0.00000000000E+00  0.00000000000E+00 -0.59802255339E+03  0.59802255341E+03  0.50400001928E-02 0.  1.
    10030    2    1    2    0    0  0.00000000000E+00  0.00000000000E+00  0.90258095420E+03  0.20986260610E+04  0.18946184220E+04 0.  0.
        1    1    3    3  502    0 -0.58124940454E+03  0.15559478608E+03 -0.35915867754E+03  0.70075356824E+03  0.50400001928E-02 0.  1.
       -1    1    3    3    0  502  0.58124940454E+03 -0.15559478608E+03  0.12617396317E+04  0.13978724928E+04  0.50400001928E-02 0. -1.
</event>
<event>
 5   0  0.2855141E-05  0.1901127E+04  0.7818609E-02  0.8654295E-01
        2   -1    0    0  501    0  0.00000000000E+00  0.00000000000E+00  0.11606813414E+04  0.11606813414E+04  0.25500000920E-02 0. -1.
       -2   -1    0    0    0  501  0.00000000000E+00  0.00000000000E+00 -0.77848344027E+03  0.77848344027E+03  0.25500000920E-02 0.  1.
    10030    2    1    2    0    0  0.00000000000E+00  0.00000000000E+00  0.38219790114E+03  0.19391647817E+04  0.19011272485E+04 0.  0.
        1    1    3    3  502    0  0.29155323491E+03 -0.31038436034E+03  0.10579433137E+04  0.11404322842E+04  0.50400001928E-02 0. -1.
       -1    1    3    3    0  502 -0.29155323491E+03  0.31038436034E+03 -0.67574541253E+03  0.79873249747E+03  0.50400001928E-02 0.  1.
</event>
<event>
 5   0  0.1413011E-05  0.1902034E+04  0.7818609E-02  0.8653844E-01
        1   -1    0    0  501    0  0.00000000000E+00  0.00000000000E+00  0.29082703852E+03  0.29082703856E+03  0.50400001928E-02 0. -1.
       -1   -1    0    0    0  501  0.00000000000E+00  0.00000000000E+00 -0.31098674687E+04  0.31098674687E+04  0.50400001928E-02 0.  1.
    10030    2    1    2    0    0  0.00000000000E+00  0.00000000000E+00 -0.28190404302E+04  0.34006945073E+04  0.19020342228E+04 0.  0.
        1    1    3    3  502    0  0.81512910051E+03  0.47856541573E+03 -0.15968111265E+04  0.18556039667E+04  0.50400001928E-02 0. -1.
       -1    1    3    3    0  502 -0.81512910051E+03 -0.47856541573E+03 -0.12222293037E+04  0.15450905405E+04  0.50400001928E-02 0.  1.
</event>
<event>
 5   0  0.1471485E-05  0.1902856E+04  0.7818609E-02  0.8653436E-01
        1   -1    0    0  501    0  0.00000000000E+00  0.00000000000E+00  0.22006416730E+04  0.22006416731E+04  0.50400001928E-02 0. -1.
       -1   -1    0    0    0  501  0.00000000000E+00  0.00000000000E+00 -0.41134169921E+03  0.41134169924E+03  0.50400001928E-02 0.  1.
    10030    2    1    2    0    0  0.00000000000E+00  0.00000000000E+00  0.17892999738E+04  0.26119833723E+04  0.19028564688E+04 0.  0.
        4    1    3    3  502    0  0.51943139067E+03 -0.65411304322E+02 -0.19584223558E+03  0.55896636972E+03  0.12699999809E+01 0.  1.
       -4    1    3    3    0  502 -0.51943139067E+03  0.65411304322E+02  0.19851422094E+04  0.20530170026E+04  0.12699999809E+01 0. -1.
</event>
<event>
 5   0  0.2813537E-05  0.1901451E+04  0.7818609E-02  0.8654135E-01
        2   -1    0    0  501    0  0.00000000000E+00  0.00000000000E+00  0.93117955417E+03  0.93117955417E+03  0.25500000920E-02 0. -1.
       -2   -1    0    0    0  501  0.00000000000E+00  0.00000000000E+00 -0.97068134102E+03  0.97068134102E+03  0.25500000920E-02 0.  1.
    10030    2    1    2    0    0  0.00000000000E+00  0.00000000000E+00 -0.39501786847E+02  0.19018608952E+04  0.19014506235E+04 0.  0.
        2    1    3    3  502    0 -0.32704297393E+02  0.65805916418E+03  0.66579263315E+03  0.93669165951E+03  0.25500000920E-02 0. -1.
       -2    1    3    3    0  502  0.32704297393E+02 -0.65805916418E+03 -0.70529441999E+03  0.96516923569E+03  0.25500000920E-02 0.  1.
</event>
<event>
 5   0  0.2813537E-05  0.1901881E+04  0.7818609E-02  0.8653920E-01
        2   -1    0    0  501    0  0.00000000000E+00  0.00000000000E+00  0.12692472580E+04  0.12692472580E+04  0.25500000920E-02 0. -1.
       -2   -1    0    0    0  501  0.00000000000E+00  0.00000000000E+00 -0.71246022690E+03  0.71246022690E+03  0.25500000920E-02 0.  1.
    10030    2    1    2    0    0  0.00000000000E+00  0.00000000000E+00  0.55678703109E+03  0.19817074849E+04  0.19018813732E+04 0.  0.
        2    1    3    3  502    0  0.30911748294E+03 -0.33674017524E+03  0.11472637643E+04  0.12349743757E+04  0.25500000920E-02 0. -1.
       -2    1    3    3    0  502 -0.30911748294E+03  0.33674017524E+03 -0.59047673318E+03  0.74673310916E+03  0.25500000920E-02 0.  1.
</event>
<event>
 5   0  0.1010725E-05  0.1900948E+04  0.7818609E-02  0.8654385E-01
       -4   -1    0    0    0  501  0.00000000000E+00  0.00000000000E+00  0.12777273651E+04  0.12777279963E+04  0.12699999809E+01 0.  1.
        4   -1    0    0  501    0  0.00000000000E+00  0.00000000000E+00 -0.70703582722E+03  0.70703696783E+03  0.12699999809E+01 0. -1.
    10030    2    1    2    0    0  0.00000000000E+00  0.00000000000E+00  0.57069153789E+03  0.19847649641E+04  0.19009479560E+04 0.  0.
        3    1    3    3  502    0  0.71055577314E+03 -0.86583921022E+02  0.93822865417E+03  0.11801098677E+04  0.10100000352E+00 0.  1.
       -3    1    3    3    0  502 -0.71055577314E+03  0.86583921022E+02 -0.36753711628E+03  0.80465509640E+03  0.10100000352E+00 0. -1.
</event>
<event>
 5   0  0.2855141E-05  0.1893424E+04  0.7818609E-02  0.8658137E-01
       -2   -1    0    0    0  501  0.00000000000E+00  0.00000000000E+00  0.43067382798E+03  0.43067382799E+03  0.25500000920E-02 0.  1.
        2   -1    0    0  501    0  0.00000000000E+00  0.00000000000E+00 -0.20810722538E+04  0.20810722538E+04  0.25500000920E-02 0. -1.
    10030    2    1    2    0    0  0.00000000000E+00  0.00000000000E+00 -0.16503984258E+04  0.25117460818E+04  0.18934237285E+04 0.  0.
        1    1    3    3  502    0  0.92953038475E+03  0.10974652591E+03 -0.10137034011E+04  0.13797338952E+04  0.50400001928E-02 0.  1.
       -1    1    3    3    0  502 -0.92953038475E+03 -0.10974652591E+03 -0.63669502479E+03  0.11320121867E+04  0.50400001928E-02 0. -1.
</event>
<event>
 5   0  0.1429067E-05  0.1901008E+04  0.7818609E-02  0.8654355E-01
       -1   -1    0    0    0  501  0.00000000000E+00  0.00000000000E+00  0.69851650794E+03  0.69851650795E+03  0.50400001928E-02 0. -1.
        1   -1    0    0  501    0  0.00000000000E+00  0.00000000000E+00 -0.12933953055E+04  0.12933953055E+04  0.50400001928E-02 0.  1.
    10030    2    1    2    0    0  0.00000000000E+00  0.00000000000E+00 -0.59487879755E+03  0.19919118135E+04  0.19010081243E+04 0.  0.
        3    1    3    3  502    0 -0.62484017870E+03 -0.68008159072E+03 -0.61920752047E+02  0.92561893276E+03  0.10100000352E+00 0. -1.
       -3    1    3    3    0  502  0.62484017870E+03  0.68008159072E+03 -0.53295804551E+03  0.10662928807E+04  0.10100000352E+00 0.  1.
</event>
<event>
 5   0  0.2879462E-05  0.1892834E+04  0.7818609E-02  0.8658431E-01
       -2   -1    0    0    0  501  0.00000000000E+00  0.00000000000E+00  0.50208391435E+03  0.50208391436E+03  0.25500000920E-02 0.  1.
        2   -1    0    0  501    0  0.00000000000E+00  0.00000000000E+00 -0.17839758146E+04  0.17839758146E+04  0.25500000920E-02 0. -1.
    10030    2    1    2    0    0  0.00000000000E+00  0.00000000000E+00 -0.12818919002E+04  0.22860597289E+04  0.18928344461E+04 0.  0.
        4    1    3    3  502    0  0.90287281995E+02  0.77351997619E+02  0.49302793676E+03  0.50716199005E+03  0.12699999809E+01 0.  1.
       -4    1    3    3    0  502 -0.90287281995E+02 -0.77351997619E+02 -0.17749198370E+04  0.17788977389E+04  0.12699999809E+01 0. -1.
</event>
<event>
 5   0  0.2789718E-05  0.1900742E+04  0.7818609E-02  0.8654487E-01
       -2   -1    0    0    0  501  0.00000000000E+00  0.00000000000E+00  0.46983186569E+03  0.46983186569E+03  0.25500000920E-02 0. -1.
        2   -1    0    0  501    0  0.00000000000E+00  0.00000000000E+00 -0.19224003097E+04  0.19224003097E+04  0.25500000920E-02 0.  1.
    10030    2    1    2    0    0  0.00000000000E+00  0.00000000000E+00 -0.14525684440E+04  0.23922321754E+04  0.19007418805E+04 0.  0.
        5    1    3    3  502    0  0.80985442777E+03  0.18774014134E+03 -0.14669255163E+03  0.84418679778E+03  0.46999998093E+01 0. -1.
       -5    1    3    3    0  502 -0.80985442777E+03 -0.18774014134E+03 -0.13058758924E+04  0.15480453776E+04  0.46999998093E+01 0.  1.
</event>
<event>
 5   0  0.2888776E-05  0.1906501E+04  0.7818609E-02  0.8651627E-01
       -2   -1    0    0    0  501  0.00000000000E+00  0.00000000000E+00  0.48795013551E+03  0.48795013552E+03  0.25500000920E-02 0. -1.
        2   -1    0    0  501    0  0.00000000000E+00  0.00000000000E+00 -0.18622526172E+04  0.18622526172E+04  0.25500000920E-02 0.  1.
    10030    2    1    2    0    0  0.00000000000E+00  0.00000000000E+00 -0.13743024817E+04  0.23502027527E+04  0.19065008963E+04 0.  0.
        3    1    3    3  502    0 -0.57902084958E+03 -0.69899585427E+03 -0.32811940489E+03  0.96515423772E+03  0.10100000352E+00 0. -1.
       -3    1    3    3    0  502  0.57902084958E+03  0.69899585427E+03 -0.10461830768E+04  0.13850485150E+04  0.10100000352E+00 0.  1.
</event>
<event>
 5   0  0.1413011E-05  0.1900885E+04  0.7818609E-02  0.8654416E-01
       -1   -1    0    0    0  501  0.00000000000E+00  0.00000000000E+00  0.13306537868E+04  0.13306537868E+04  0.50400001928E-02 0. -1.
        1   -1    0    0  501    0  0.00000000000E+00  0.00000000000E+00 -0.67886970761E+03  0.67886970763E+03  0.50400001928E-02 0.  1.
    10030    2    1    2    0    0  0.00000000000E+00  0.00000000000E+00  0.65178407917E+03  0.20095234944E+04  0.19008845806E+04 0.  0.
        1    1    3    3  502    0 -0.18360112717E+03 -0.18161314668E+03 -0.64106835632E+03  0.69113048438E+03  0.50400001928E-02 0.  1.
       -1    1    3    3    0  502  0.18360112717E+03  0.18161314668E+03  0.12928524355E+04  0.13183930100E+04  0.50400001928E-02 0. -1.
</event>
<event>
 5   0  0.1344119E-05  0.1899856E+04  0.7818609E-02  0.8654928E-01
       -1   -1    0    0    0  501  0.00000000000E+00  0.00000000000E+00  0.62211058084E+03  0.62211058086E+03  0.50400001928E-02 0. -1.
        1   -1    0    0  501    0  0.00000000000E+00  0.00000000000E+00 -0.14504869567E+04  0.14504869567E+04  0.50400001928E-02 0.  1.
    10030    2    1    2    0    0  0.00000000000E+00  0.00000000000E+00 -0.82837637587E+03  0.20725975376E+04  0.18998560821E+04 0.  0.
        2    1    3    3  502    0 -0.52495481007E+03 -0.52021503072E+03 -0.10652438151E+04  0.12965128679E+04  0.25500000920E-02 0.  1.
       -2    1    3    3    0  502  0.52495481007E+03  0.52021503072E+03  0.23686743927E+03  0.77608466973E+03  0.25500000920E-02 0. -1.
</event>
<event>
 5   0  0.1344119E-05  0.1894577E+04  0.7818609E-02  0.8657561E-01
       -1   -1    0    0    0  501  0.00000000000E+00  0.00000000000E+00  0.14888177555E+04  0.14888177556E+04  0.50400001928E-02 0.  1.
        1   -1    0    0  501    0  0.00000000000E+00  0.00000000000E+00 -0.60273014420E+03  0.60273014422E+03  0.50400001928E-02 0. -1.
    10030    2    1    2    0    0  0.00000000000E+00  0.00000000000E+00  0.88608761135E+03  0.20915478998E+04  0.18945768293E+04 0.  0.
        2    1    3    3  502    0  0.12650782262E+03 -0.87276312172E+03  0.61199876188E+02  0.88400515873E+03  0.25500000920E-02 0. -1.
       -2    1    3    3    0  502 -0.12650782262E+03  0.87276312172E+03  0.82488773516E+03  0.12075427410E+04  0.25500000920E-02 0.  1.
</event>
<event>
 5   0  0.2813537E-05  0.1899107E+04  0.7818609E-02  0.8655301E-01
       -2   -1    0    0    0  501  0.00000000000E+00  0.00000000000E+00  0.41387899042E+03  0.41387899043E+03  0.25500000920E-02 0. -1.
        2   -1    0    0  501    0  0.00000000000E+00  0.00000000000E+00 -0.21785403723E+04  0.21785403723E+04  0.25500000920E-02 0.  1.
    10030    2    1    2    0    0  0.00000000000E+00  0.00000000000E+00 -0.17646613819E+04  0.25924193627E+04  0.18991072533E+04 0.  0.
        2    1    3    3  502    0 -0.62678750730E+03 -0.62069251443E+03 -0.13621111273E+04  0.16227965060E+04  0.25500000920E-02 0.  1.
       -2    1    3    3    0  502  0.62678750730E+03  0.62069251443E+03 -0.40255025455E+03  0.96962285669E+03  0.25500000920E-02 0. -1.
</event>
<event>
 5   0  0.2879462E-05  0.1902185E+04  0.7818609E-02  0.8653769E-01
       -2   -1    0    0    0  501  0.00000000000E+00  0.00000000000E+00  0.10492094339E+04  0.10492094339E+04  0.25500000920E-02 0. -1.
        2   -1    0    0  501    0  0.00000000000E+00  0.00000000000E+00 -0.86215119646E+03  0.86215119647E+03  0.25500000920E-02 0.  1.
    10030    2    1    2    0    0  0.00000000000E+00  0.00000000000E+00  0.18705823743E+03  0.19113606304E+04  0.19021852368E+04 0.  0.
        4    1    3    3  502    0  0.52098393264E+03 -0.49156260230E+03 -0.53520267491E+03  0.89414851461E+03  0.12699999809E+01 0.  1.
       -4    1    3    3    0  502 -0.52098393264E+03  0.49156260230E+03  0.72226091234E+03  0.10172121158E+04  0.12699999809E+01 0. -1.
</event>
<event>
 5   0  0.2789718E-05  0.1899944E+04  0.7818609E-02  0.8654884E-01
       -2   -1    0    0    0  501  0.00000000000E+00  0.00000000000E+00  0.68473537290E+03  0.68473537290E+03  0.25500000920E-02 0. -1.
        2   -1    0    0  501    0  0.00000000000E+00  0.00000000000E+00 -0.13179494890E+04  0.13179494890E+04  0.25500000920E-02 0.  1.
    10030    2    1    2    0    0  0.00000000000E+00  0.00000000000E+00 -0.63321411608E+03  0.20026848619E+04  0.18999438253E+04 0.  0.
        5    1    3    3  502    0  0.28300991598E+03 -0.78873485453E+03  0.15505773315E+03  0.85221022870E+03  0.46999998093E+01 0.  1.
       -5    1    3    3    0  502 -0.28300991598E+03  0.78873485453E+03 -0.78827184923E+03  0.11504746332E+04  0.46999998093E+01 0. -1.
</event>
<event>
 5   0  0.1413011E-05  0.1901188E+04  0.7818609E-02  0.8654265E-01
       -1   -1    0    0    0  501  0.00000000000E+00  0.00000000000E+00  0.62221169909E+03  0.62221169911E+03  0.50400001928E-02 0.  1.
        1   -1    0    0  501    0  0.00000000000E+00  0.00000000000E+00 -0.14522859488E+04  0.14522859488E+04  0.50400001928E-02 0. -1.
    10030    2    1    2    0    0  0.00000000000E+00  0.00000000000E+00 -0.83007424967E+03  0.20744976479E+04  0.19011883734E+04 0.  0.
        1    1    3    3  502    0 -0.75831447445E+03 -0.19102806155E+03 -0.10047643204E+04  0.12732179319E+04  0.50400001928E-02 0. -1.
       -1    1    3    3    0  502  0.75831447445E+03  0.19102806155E+03  0.17469007072E+03  0.80127971601E+03  0.50400001928E-02 0.  1.
</event>
<event>
 5   0  0.1471485E-05  0.1908327E+04  0.7818609E-02  0.8650723E-01
        1   -1    0    0  501    0  0.00000000000E+00  0.00000000000E+00  0.69336537297E+03  0.69336537299E+03  0.50400001928E-02 0.  1.
       -1   -1    0    0    0  501  0.00000000000E+00  0.00000000000E+00 -0.13130565481E+04  0.13130565481E+04  0.50400001928E-02 0. -1.
    10030    2    1    2    0    0  0.00000000000E+00  0.00000000000E+00 -0.61969117517E+03  0.20064219211E+04  0.19083269565E+04 0.  0.
        4    1    3    3  502    0 -0.49198493428E+03  0.80701485168E+03 -0.44735127407E+03  0.10456801240E+04  0.12699999809E+01 0.  1.
       -4    1    3    3    0  502  0.49198493428E+03 -0.80701485168E+03 -0.17233990110E+03  0.96074179715E+03  0.12699999809E+01 0. -1.
</event>
<event>
 5   0  0.2813537E-05  0.1907712E+04  0.7818609E-02  0.8651027E-01
        2   -1    0    0  501    0  0.00000000000E+00  0.00000000000E+00  0.55869960244E+03  0.55869960245E+03  0.25500000920E-02 0. -1.
       -2   -1    0    0    0  501  0.00000000000E+00  0.00000000000E+00 -0.16284973112E+04  0.16284973112E+04  0.25500000920E-02 0.  1.
    10030    2    1    2    0    0  0.00000000000E+00  0.00000000000E+00 -0.10697977087E+04  0.21871969136E+04  0.19077115090E+04 0.  0.
        2    1    3    3  502    0 -0.92357877147E+03 -0.21732462524E+03 -0.42248857626E+03  0.10386165495E+04  0.25500000920E-02 0.  1.
       -2    1    3    3    0  502  0.92357877147E+03  0.21732462524E+03 -0.64730913248E+03  0.11485803641E+04  0.25500000920E-02 0. -1.
</event>
<event>
 5   0  0.2855141E-05  0.1901189E+04  0.7818609E-02  0.8654265E-01
       -2   -1    0    0    0  501  0.00000000000E+00  0.00000000000E+00  0.77228491084E+03  0.77228491085E+03  0.25500000920E-02 0. -1.
        2   -1    0    0  501    0  0.00000000000E+00  0.00000000000E+00 -0.11700733514E+04  0.11700733514E+04  0.25500000920E-02 0.  1.
    10030    2    1    2    0    0  0.00000000000E+00  0.00000000000E+00 -0.39778844059E+03  0.19423582623E+04  0.19011890952E+04 0.  0.
        1    1    3    3  502    0 -0.52674783377E+03  0.73583046545E+03 -0.49626453357E+03  0.10320795713E+04  0.50400001928E-02 0.  1.
       -1    1    3    3    0  502  0.52674783377E+03 -0.73583046545E+03  0.98476092979E+02  0.91027869094E+03  0.50400001928E-02 0. -1.
</event>
<event>
 5   0  0.2855141E-05  0.1894610E+04  0.7818609E-02  0.8657544E-01
       -2   -1    0    0    0  501  0.00000000000E+00  0.00000000000E+00  0.66750277534E+03  0.66750277534E+03  0.25500000920E-02 0.  1.
        2   -1    0    0  501    0  0.00000000000E+00  0.00000000000E+00 -0.13443936202E+04  0.13443936202E+04  0.25500000920E-02 0. -1.
    10030    2    1    2    0    0  0.00000000000E+00  0.00000000000E+00 -0.67689084486E+03  0.20118963955E+04  0.18946096935E+04 0.  0.
        1    1    3    3  502    0  0.53675792107E+03  0.55211740316E+03 -0.92436688985E+03  0.12030780689E+04  0.50400001928E-02 0. -1.
       -1    1    3    3    0  502 -0.53675792107E+03 -0.55211740316E+03  0.24747604499E+03  0.80881832668E+03  0.50400001928E-02 0.  1.
</event>
<event>
 5   0  0.1344119E-05  0.1899228E+04  0.7818609E-02  0.8655241E-01
        1   -1    0    0  501    0  0.00000000000E+00  0.00000000000E+00  0.17006190619E+04  0.17006190619E+04  0.50400001928E-02 0. -1.
       -1   -1    0    0    0  501  0.00000000000E+00  0.00000000000E+00 -0.53025780717E+03  0.53025780720E+03  0.50400001928E-02 0.  1.
    10030    2    1    2    0    0  0.00000000000E+00  0.00000000000E+00  0.11703612548E+04  0.22308768691E+04  0.18992277743E+04 0.  0.
        2    1    3    3  502    0  0.99484112283E+02  0.75339004505E+03 -0.83708083409E+02  0.76452644938E+03  0.25500000920E-02 0.  1.
       -2    1    3    3    0  502 -0.99484112283E+02 -0.75339004505E+03  0.12540693382E+04  0.14663504198E+04  0.25500000920E-02 0. -1.
</event>
<event>
 5   0  0.2789718E-05  0.1889136E+04  0.7818609E-02  0.8660283E-01
       -2   -1    0    0    0  501  0.00000000000E+00  0.00000000000E+00  0.51843713016E+03  0.51843713016E+03  0.25500000920E-02 0. -1.
        2   -1    0    0  501    0  0.00000000000E+00  0.00000000000E+00 -0.17209591185E+04  0.17209591185E+04  0.25500000920E-02 0.  1.
    10030    2    1    2    0    0  0.00000000000E+00  0.00000000000E+00 -0.12025219884E+04  0.22393962487E+04  0.18891364234E+04 0.  0.
        5    1    3    3  502    0 -0.20721581616E+02 -0.10223986833E+03  0.51157369165E+03  0.52212269306E+03  0.46999998093E+01 0. -1.
       -5    1    3    3    0  502  0.20721581616E+02  0.10223986833E+03 -0.17140956800E+04  0.17172735557E+04  0.46999998093E+01 0.  1.
</event>
<event>
 5   0  0.1471485E-05  0.1901223E+04  0.7818609E-02  0.8654248E-01
        1   -1    0    0  501    0  0.00000000000E+00  0.00000000000E+00  0.16454164014E+04  0.16454164014E+04  0.50400001928E-02 0. -1.
       -1   -1    0    0    0  501  0.00000000000E+00  0.00000000000E+00 -0.54919997996E+03  0.54919997998E+03  0.50400001928E-02 0.  1.
    10030    2    1    2    0    0  0.00000000000E+00  0.00000000000E+00  0.10962164215E+04  0.21946163814E+04  0.19012234532E+04 0.  0.
        4    1    3    3  502    0  0.54021713375E+03 -0.41285337995E+03  0.13149946859E+04  0.14803699206E+04  0.12699999809E+01 0. -1.
       -4    1    3    3    0  502 -0.54021713375E+03  0.41285337995E+03 -0.21877826442E+03  0.71424646084E+03  0.12699999809E+01 0.  1.
</event>
<event>
 5   0  0.1413011E-05  0.1889576E+04  0.7818609E-02  0.8660063E-01
       -1   -1    0    0    0  501  0.00000000000E+00  0.00000000000E+00  0.67706081662E+03  0.67706081664E+03  0.50400001928E-02 0. -1.
        1   -1    0    0  501    0  0.00000000000E+00  0.00000000000E+00 -0.13183812105E+04  0.13183812105E+04  0.50400001928E-02 0.  1.
    10030    2    1    2    0    0  0.00000000000E+00  0.00000000000E+00 -0.64132039386E+03  0.19954420271E+04  0.18895758879E+04 0.  0.
        1    1    3    3  502    0  0.92657985940E+03  0.71778021367E+02 -0.50025281347E+03  0.10554407599E+04  0.50400001928E-02 0. -1.
       -1    1    3    3    0  502 -0.92657985940E+03 -0.71778021367E+02 -0.14106758039E+03  0.94000126726E+03  0.50400001928E-02 0.  1.
</event>
<event>
 5   0  0.1413011E-05  0.1902541E+04  0.7818609E-02  0.8653593E-01
       -1   -1    0    0    0  501  0.00000000000E+00  0.00000000000E+00  0.68794958892E+03  0.68794958894E+03  0.50400001928E-02 0.  1.
        1   -1    0    0  501    0  0.00000000000E+00  0.00000000000E+00 -0.13153803695E+04  0.13153803695E+04  0.50400001928E-02 0. -1.
    10030    2    1    2    0    0  0.00000000000E+00  0.00000000000E+00 -0.62743078055E+03  0.20033299584E+04  0.19025408111E+04 0.  0.
        1    1    3    3  502    0  0.38204207081E+03  0.22321470257E+03 -0.12004278116E+04  0.12793779262E+04  0.50400001928E-02 0. -1.
       -1    1    3    3    0  502 -0.38204207081E+03 -0.22321470257E+03  0.57299703102E+03  0.72395203218E+03  0.50400001928E-02 0.  1.
</event>
<event>
 5   0  0.1344119E-05  0.1892930E+04  0.7818609E-02  0.8658384E-01
       -1   -1    0    0    0  501  0.00000000000E+00  0.00000000000E+00  0.78287835542E+03  0.78287835543E+03  0.50400001928E-02 0. -1.
        1   -1    0    0  501    0  0.00000000000E+00  0.00000000000E+00 -0.11442334550E+04  0.11442334550E+04  0.50400001928E-02 0.  1.
    10030    2    1    2    0    0  0.00000000000E+00  0.00000000000E+00 -0.36135509960E+03  0.19271118105E+04  0.18929295872E+04 0.  0.
        2    1    3    3  502    0 -0.38164428140E+03  0.54062873747E+03  0.50819775377E+03  0.83438405200E+03  0.25500000920E-02 0. -1.
       -2    1    3    3    0  502  0.38164428140E+03 -0.54062873747E+03 -0.86955285336E+03  0.10927277585E+04  0.25500000920E-02 0.  1.
</event>
<event>
 5   0  0.1429067E-05  0.1896780E+04  0.7818609E-02  0.8656461E-01
       -1   -1    0    0    0  501  0.00000000000E+00  0.00000000000E+00  0.93785413305E+03  0.93785413307E+03  0.50400001928E-02 0. -1.
        1   -1    0    0  501    0  0.00000000000E+00  0.00000000000E+00 -0.95904444457E+03  0.95904444459E+03  0.50400001928E-02 0.  1.
    10030    2    1    2    0    0  0.00000000000E+00  0.00000000000E+00 -0.21190311519E+02  0.18968985777E+04  0.18967802152E+04 0.  0.
        3    1    3    3  502    0  0.25636813941E+02 -0.42819854094E+03  0.83529008504E+03  0.93899987916E+03  0.10100000352E+00 0. -1.
       -3    1    3    3    0  502 -0.25636813941E+02  0.42819854094E+03 -0.85648039655E+03  0.95789869850E+03  0.10100000352E+00 0.  1.
</event>
<event>
 5   0  0.2888776E-05  0.1905495E+04  0.7818609E-02  0.8652126E-01
        2   -1    0    0  501    0  0.00000000000E+00  0.00000000000E+00  0.15974623424E+04  0.15974623424E+04  0.25500000920E-02 0.  1.
       -2   -1    0    0    0  501  0.00000000000E+00  0.00000000000E+00 -0.56823137891E+03  0.56823137891E+03  0.25500000920E-02 0. -1.
    10030    2    1    2    0    0  0.00000000000E+00  0.00000000000E+00  0.10292309635E+04  0.21656937214E+04  0.19054954522E+04 0.  0.
        3    1    3    3  502    0  0.31093227457E+02  0.45499841041E+03  0.14653446373E+04  0.15346743168E+04  0.10100000352E+00 0.  1.
       -3    1    3    3    0  502 -0.31093227457E+02 -0.45499841041E+03 -0.43611367379E+03  0.63101940457E+03  0.10100000352E+00 0. -1.
</event>
<event>
 5   0  0.1429067E-05  0.1894124E+04  0.7818609E-02  0.8657787E-01
        1   -1    0    0  501    0  0.00000000000E+00  0.00000000000E+00  0.14903011167E+04  0.14903011167E+04  0.50400001928E-02 0.  1.
       -1   -1    0    0    0  501  0.00000000000E+00  0.00000000000E+00 -0.60184243101E+03  0.60184243103E+03  0.50400001928E-02 0. -1.
    10030    2    1    2    0    0  0.00000000000E+00  0.00000000000E+00  0.88845868573E+03  0.20921435478E+04  0.18941240161E+04 0.  0.
        3    1    3    3  502    0 -0.62536620180E+03  0.49075318723E+03 -0.12437475835E+03  0.80460590841E+03  0.10100000352E+00 0. -1.
       -3    1    3    3    0  502  0.62536620180E+03 -0.49075318723E+03  0.10128334441E+04  0.12875376394E+04  0.10100000352E+00 0.  1.
</event>
<event>
 5   0  0.2879462E-05  0.1898531E+04  0.7818609E-02  0.8655588E-01
        2   -1    0    0  501    0  0.00000000000E+00  0.00000000000E+00  0.12296587507E+04  0.12296587507E+04  0.25500000920E-02 0.  1.
       -2   -1    0    0    0  501  0.00000000000E+00  0.00000000000E+00 -0.73280898656E+03  0.73280898657E+03  0.25500000920E-02 0. -1.
    10030    2    1    2    0    0  0.00000000000E+00  0.00000000000E+00  0.49684976417E+03  0.19624677373E+04  0.18985309931E+04 0.  0.
        4    1    3    3  502    0  0.23473349736E+03  0.34459314540E+03 -0.63308954063E+03  0.75805555865E+03  0.12699999809E+01 0. -1.
       -4    1    3    3    0  502 -0.23473349736E+03 -0.34459314540E+03  0.11299393048E+04  0.12044121787E+04  0.12699999809E+01 0.  1.
</event>
<event>
 5   0  0.2888776E-05  0.1895530E+04  0.7818609E-02  0.8657084E-01
       -2   -1    0    0    0  501  0.00000000000E+00  0.00000000000E+00  0.38142509222E+03  0.38142509223E+03  0.25500000920E-02 0. -1.
        2   -1    0    0  501    0  0.00000000000E+00  0.00000000000E+00 -0.23550070270E+04  0.23550070270E+04  0.25500000920E-02 0.  1.
    10030    2    1    2    0    0  0.00000000000E+00  0.00000000000E+00 -0.19735819347E+04  0.27364321192E+04  0.18955302925E+04 0.  0.
        3    1    3    3  502    0 -0.50685312658E+03  0.96294865341E+02  0.16094508860E+03  0.54044067645E+03  0.10100000352E+00 0. -1.
       -3    1    3    3    0  502  0.50685312658E+03 -0.96294865341E+02 -0.21345270233E+04  0.21959914427E+04  0.10100000352E+00 0.  1.
</event>
<event>
 5   0  0.2813537E-05  0.1899578E+04  0.7818609E-02  0.8655067E-01
        2   -1    0    0  501    0  0.00000000000E+00  0.00000000000E+00  0.10563262352E+04  0.10563262352E+04  0.25500000920E-02 0. -1.
       -2   -1    0    0    0  501  0.00000000000E+00  0.00000000000E+00 -0.85399656726E+03  0.85399656726E+03  0.25500000920E-02 0.  1.
    10030    2    1    2    0    0  0.00000000000E+00  0.00000000000E+00  0.20232966793E+03  0.19103228025E+04  0.18995778255E+04 0.  0.
        2    1    3    3  502    0  0.27847777489E+03 -0.89798552853E+03  0.23672754831E+03  0.96951937200E+03  0.25500000920E-02 0.  1.
       -2    1    3    3    0  502 -0.27847777489E+03  0.89798552853E+03 -0.34397880379E+02  0.94080343045E+03  0.25500000920E-02 0. -1.
</event>
<event>
 5   0  0.1327254E-05  0.1874706E+04  0.7818609E-02  0.8667550E-01
       -1   -1    0    0    0  501  0.00000000000E+00  0.00000000000E+00  0.46385014340E+03  0.46385014343E+03  0.50400001928E-02 0.  1.
        1   -1    0    0  501    0  0.00000000000E+00  0.00000000000E+00 -0.18942115559E+04  0.18942115559E+04  0.50400001928E-02 0. -1.
    10030    2    1    2    0    0  0.00000000000E+00  0.00000000000E+00 -0.14303614125E+04  0.23580616993E+04  0.18747056322E+04 0.  0.
        5    1    3    3  502    0  0.31715703208E+03 -0.12240610881E+03  0.38355869979E+03  0.51255361150E+03  0.46999998093E+01 0.  1.
       -5    1    3    3    0  502 -0.31715703208E+03  0.12240610881E+03 -0.18139201123E+04  0.18455080878E+04  0.46999998093E+01 0. -1.
</event>
<event>
 5   0  0.1413011E-05  0.1899823E+04  0.7818609E-02  0.8654944E-01
       -1   -1    0    0    0  501  0.00000000000E+00  0.00000000000E+00  0.99430984440E+03  0.99430984442E+03  0.50400001928E-02 0.  1.
        1   -1    0    0  501    0  0.00000000000E+00  0.00000000000E+00 -0.90749610283E+03  0.90749610285E+03  0.50400001928E-02 0. -1.
    10030    2    1    2    0    0  0.00000000000E+00  0.00000000000E+00  0.86813741573E+02  0.19018059473E+04  0.18998234748E+04 0.  0.
        1    1    3    3  502    0 -0.48574139516E+03  0.42355948913E+03  0.74197815300E+03  0.98279139361E+03  0.50400001928E-02 0.  1.
       -1    1    3    3    0  502  0.48574139516E+03 -0.42355948913E+03 -0.65516441142E+03  0.91901455365E+03  0.50400001928E-02 0. -1.
</event>
<event>
 5   0  0.2855141E-05  0.1898362E+04  0.7818609E-02  0.8655672E-01
       -2   -1    0    0    0  501  0.00000000000E+00  0.00000000000E+00  0.74496862098E+03  0.74496862098E+03  0.25500000920E-02 0. -1.
        2   -1    0    0  501    0  0.00000000000E+00  0.00000000000E+00 -0.12093729982E+04  0.12093729982E+04  0.25500000920E-02 0.  1.
    10030    2    1    2    0    0  0.00000000000E+00  0.00000000000E+00 -0.46440437723E+03  0.19543416192E+04  0.18983623835E+04 0.  0.
        1    1    3    3  502    0 -0.30116177634E+02 -0.48736362325E+03 -0.10701541155E+04  0.11762908298E+04  0.50400001928E-02 0.  1.
       -1    1    3    3    0  502  0.30116177634E+02  0.48736362325E+03  0.60574973826E+03  0.77805078937E+03  0.50400001928E-02 0. -1.
</event>
<event>
 5   0  0.2879462E-05  0.1900787E+04  0.7818609E-02  0.8654465E-01
        2   -1    0    0  501    0  0.00000000000E+00  0.00000000000E+00  0.20821680612E+04  0.20821680612E+04  0.25500000920E-02 0. -1.
       -2   -1    0    0    0  501  0.00000000000E+00  0.00000000000E+00 -0.43380179990E+03  0.43380179991E+03  0.25500000920E-02 0.  1.
    10030    2    1    2    0    0  0.00000000000E+00  0.00000000000E+00  0.16483662613E+04  0.25159698611E+04  0.19007874712E+04 0.  0.
        4    1    3    3  502    0  0.19791574662E+02  0.48362480130E+03 -0.25842826220E+03  0.54869976715E+03  0.12699999809E+01 0.  1.
       -4    1    3    3    0  502 -0.19791574662E+02 -0.48362480130E+03  0.19067945235E+04  0.19672700939E+04  0.12699999809E+01 0. -1.
</event>
<event>
 5   0  0.1010725E-05  0.1900709E+04  0.7818609E-02  0.8654504E-01
        4   -1    0    0  501    0  0.00000000000E+00  0.00000000000E+00  0.71547604517E+03  0.71547717232E+03  0.12699999809E+01 0.  1.
       -4   -1    0    0    0  501  0.00000000000E+00  0.00000000000E+00 -0.12623364294E+04  0.12623370682E+04  0.12699999809E+01 0. -1.
    10030    2    1    2    0    0  0.00000000000E+00  0.00000000000E+00 -0.54686038422E+03  0.19778142406E+04  0.19007085232E+04 0.  0.
        4    1    3    3  502    0  0.11017371738E+02 -0.18292038958E+03  0.69691740612E+03  0.72060858672E+03  0.12699999809E+01 0.  1.
       -4    1    3    3    0  502 -0.11017371738E+02  0.18292038958E+03 -0.12437777903E+04  0.12572056538E+04  0.12699999809E+01 0. -1.
</event>
<event>
 5   0  0.2888776E-05  0.1889957E+04  0.7818609E-02  0.8659872E-01
       -2   -1    0    0    0  501  0.00000000000E+00  0.00000000000E+00  0.49862391060E+03  0.49862391061E+03  0.25500000920E-02 0. -1.
        2   -1    0    0  501    0  0.00000000000E+00  0.00000000000E+00 -0.17908976357E+04  0.17908976357E+04  0.25500000920E-02 0.  1.
    10030    2    1    2    0    0  0.00000000000E+00  0.00000000000E+00 -0.12922737251E+04  0.22895215463E+04  0.18899570181E+04 0.  0.
        3    1    3    3  502    0 -0.83777227962E+01 -0.67913164269E+03  0.14980438969E+03  0.69550797243E+03  0.10100000352E+00 0. -1.
       -3    1    3    3    0  502  0.83777227962E+01  0.67913164269E+03 -0.14420781148E+04  0.15940135739E+04  0.10100000352E+00 0.  1.
</event>
<event>
 5   0  0.2879462E-05  0.1899914E+04  0.7818609E-02  0.8654899E-01
        2   -1    0    0  501    0  0.00000000000E+00  0.00000000000E+00  0.14144306219E+04  0.14144306219E+04  0.25500000920E-02 0.  1.
       -2   -1    0    0    0  501  0.00000000000E+00  0.00000000000E+00 -0.63800844239E+03  0.63800844239E+03  0.25500000920E-02 0. -1.
    10030    2    1    2    0    0  0.00000000000E+00  0.00000000000E+00  0.77642217953E+03  0.20524390643E+04  0.18999143959E+04 0.  0.
        4    1    3    3  502    0  0.67116579449E+03  0.66572846367E+03  0.28710732671E+03  0.98797274304E+03  0.12699999809E+01 0.  1.
       -4    1    3    3    0  502 -0.67116579449E+03 -0.66572846367E+03  0.48931485282E+03  0.10644663213E+04  0.12699999809E+01 0. -1.
</event>
<event>
 5   0  0.1327254E-05  0.1900281E+04  0.7818609E-02  0.8654717E-01
       -1   -1    0    0    0  501  0.00000000000E+00  0.00000000000E+00  0.79393609408E+03  0.79393609409E+03  0.50400001928E-02 0.  1.
        1   -1    0    0  501    0  0.00000000000E+00  0.00000000000E+00 -0.11370774311E+04  0.11370774311E+04  0.50400001928E-02 0. -1.
    10030    2    1    2    0    0  0.00000000000E+00  0.00000000000E+00 -0.34314133698E+03  0.19310135252E+04  0.19002808364E+04 0.  0.
        5    1    3    3  502    0  0.57269392810E+03 -0.97273508100E+02 -0.93559757567E+03  0.11012744364E+04  0.46999998093E+01 0. -1.
       -5    1    3    3    0  502 -0.57269392810E+03  0.97273508100E+02  0.59245623869E+03  0.82973908876E+03  0.46999998093E+01 0.  1.
</event>
<event>
 5   0  0.1344119E-05  0.1899166E+04  0.7818609E-02  0.8655271E-01
       -1   -1    0    0    0  501  0.00000000000E+00  0.00000000000E+00  0.87612060490E+03  0.87612060491E+03  0.50400001928E-02 0.  1.
        1   -1    0    0  501    0  0.00000000000E+00  0.00000000000E+00 -0.10292056179E+04  0.10292056179E+04  0.50400001928E-02 0. -1.
    10030    2    1    2    0    0  0.00000000000E+00  0.00000000000E+00 -0.15308501300E+03  0.19053262228E+04  0.18991663945E+04 0.  0.
        2    1    3    3  502    0  0.84451643596E+03 -0.39068812411E+03  0.11344708242E+03  0.93739824058E+03  0.25500000920E-02 0.  1.
       -2    1    3    3    0  502 -0.84451643596E+03  0.39068812411E+03 -0.26653209542E+03  0.96792798225E+03  0.25500000920E-02 0. -1.
</event>
<event>
 5   0  0.2879462E-05  0.1901223E+04  0.7818609E-02  0.8654248E-01
        2   -1    0    0  501    0  0.00000000000E+00  0.00000000000E+00  0.13908126088E+04  0.13908126088E+04  0.25500000920E-02 0. -1.
       -2   -1    0    0    0  501  0.00000000000E+00  0.00000000000E+00 -0.64973663510E+03  0.64973663511E+03  0.25500000920E-02 0.  1.
    10030    2    1    2    0    0  0.00000000000E+00  0.00000000000E+00  0.74107597367E+03  0.20405492439E+04  0.19012226640E+04 0.  0.
        4    1    3    3  502    0 -0.77369557243E+03 -0.26560081669E+03  0.89029016330E+03  0.12090354918E+04  0.12699999809E+01 0. -1.
       -4    1    3    3    0  502  0.77369557243E+03  0.26560081669E+03 -0.14921418963E+03  0.83151375209E+03  0.12699999809E+01 0.  1.
</event>
<event>
 5   0  0.2888776E-05  0.1901261E+04  0.7818609E-02  0.8654229E-01
        2   -1    0    0  501    0  0.00000000000E+00  0.00000000000E+00  0.14119683999E+04  0.14119683999E+04  0.25500000920E-02 0. -1.
       -2   -1    0    0    0  501  0.00000000000E+00  0.00000000000E+00 -0.64002737562E+03  0.64002737562E+03  0.25500000920E-02 0.  1.
    10030    2    1    2    0    0  0.00000000000E+00  0.00000000000E+00  0.77194102429E+03  0.20519957755E+04  0.19012610862E+04 0.  0.
        3    1    3    3  502    0 -0.42580700632E+03 -0.84556287851E+03  0.47887797042E+03  0.10609487777E+04  0.10100000352E+00 0. -1.
       -3    1    3    3    0  502  0.42580700632E+03  0.84556287851E+03  0.29306305387E+03  0.99104699783E+03  0.10100000352E+00 0.  1.
</event>
<event>
 5   0  0.1010725E-05  0.1894401E+04  0.7818609E-02  0.8657648E-01
       -3   -1    0    0    0  501  0.00000000000E+00  0.00000000000E+00  0.91277903962E+03  0.91277904520E+03  0.10100000352E+00 0.  1.
        3   -1    0    0  501    0  0.00000000000E+00  0.00000000000E+00 -0.98292002982E+03  0.98292003501E+03  0.10100000352E+00 0. -1.
    10030    2    1    2    0    0  0.00000000000E+00  0.00000000000E+00 -0.70140990203E+02  0.18956990802E+04  0.18944010252E+04 0.  0.
        5    1    3    3  502    0  0.15041149185E+03  0.24109027999E+03 -0.93924846114E+03  0.98130418411E+03  0.46999998093E+01 0. -1.
       -5    1    3    3    0  502 -0.15041149185E+03 -0.24109027999E+03  0.86910747094E+03  0.91439489611E+03  0.46999998093E+01 0.  1.
</event>
<event>
 5   0  0.2813537E-05  0.1899718E+04  0.7818609E-02  0.8654997E-01
       -2   -1    0    0    0  501  0.00000000000E+00  0.00000000000E+00  0.62925755358E+03  0.62925755359E+03  0.25500000920E-02 0.  1.
        2   -1    0    0  501    0  0.00000000000E+00  0.00000000000E+00 -0.14338047699E+04  0.14338047699E+04  0.25500000920E-02 0. -1.
    10030    2    1    2    0    0  0.00000000000E+00  0.00000000000E+00 -0.80454721628E+03  0.20630623235E+04  0.18997183810E+04 0.  0.
        2    1    3    3  502    0  0.67114176736E+02  0.87554423459E+03 -0.79555919986E+03  0.11849035657E+04  0.25500000920E-02 0. -1.
       -2    1    3    3    0  502 -0.67114176736E+02 -0.87554423459E+03 -0.89880164271E+01  0.87815875779E+03  0.25500000920E-02 0.  1.
</event>
<event>
 5   0  0.2879462E-05  0.1902789E+04  0.7818609E-02  0.8653469E-01
        2   -1    0    0  501    0  0.00000000000E+00  0.00000000000E+00  0.12566704297E+04  0.12566704297E+04  0.25500000920E-02 0.  1.
       -2   -1    0    0    0  501  0.00000000000E+00  0.00000000000E+00 -0.72027791357E+03  0.72027791357E+03  0.25500000920E-02 0. -1.
    10030    2    1    2    0    0  0.00000000000E+00  0.00000000000E+00  0.53639251610E+03  0.19769483432E+04  0.19027894840E+04 0.  0.
        4    1    3    3  502    0 -0.58972055005E+03  0.74638102054E+03  0.28605292763E+03  0.99331910546E+03  0.12699999809E+01 0. -1.
       -4    1    3    3    0  502  0.58972055005E+03 -0.74638102054E+03  0.25033958847E+03  0.98362923778E+03  0.12699999809E+01 0.  1.
</event>
<event>
 5   0  0.1413011E-05  0.1905042E+04  0.7818609E-02  0.8652351E-01
       -1   -1    0    0    0  501  0.00000000000E+00  0.00000000000E+00  0.12332392958E+04  0.12332392959E+04  0.50400001928E-02 0. -1.
        1   -1    0    0  501    0  0.00000000000E+00  0.00000000000E+00 -0.73570183230E+03  0.73570183232E+03  0.50400001928E-02 0.  1.
    10030    2    1    2    0    0  0.00000000000E+00  0.00000000000E+00  0.49753746354E+03  0.19689411282E+04  0.19050421619E+04 0.  0.
        1    1    3    3  502    0 -0.47480895408E+02 -0.39366168949E+03 -0.64634814532E+03  0.75828087552E+03  0.50400001928E-02 0.  1.
       -1    1    3    3    0  502  0.47480895408E+02  0.39366168949E+03  0.11438856089E+04  0.12106602527E+04  0.50400001928E-02 0. -1.
</event>
<event>
 5   0  0.2813537E-05  0.1908155E+04  0.7818609E-02  0.8650808E-01
       -2   -1    0    0    0  501  0.00000000000E+00  0.00000000000E+00  0.70110375744E+03  0.70110375745E+03  0.25500000920E-02 0.  1.
        2   -1    0    0  501    0  0.00000000000E+00  0.00000000000E+00 -0.12983291196E+04  0.12983291196E+04  0.25500000920E-02 0. -1.
    10030    2    1    2    0    0  0.00000000000E+00  0.00000000000E+00 -0.59722536215E+03  0.19994328770E+04  0.19081545264E+04 0.  0.
        2    1    3    3  502    0 -0.39940266415E+03 -0.42501674212E+03  0.49255667392E+03  0.76339622493E+03  0.25500000920E-02 0.  1.
       -2    1    3    3    0  502  0.39940266415E+03  0.42501674212E+03 -0.10897820361E+04  0.12360366521E+04  0.25500000920E-02 0. -1.
</event>
<event>
 5   0  0.1327254E-05  0.1899785E+04  0.7818609E-02  0.8654964E-01
       -1   -1    0    0    0  501  0.00000000000E+00  0.00000000000E+00  0.15141274557E+04  0.15141274557E+04  0.50400001928E-02 0.  1.
        1   -1    0    0  501    0  0.00000000000E+00  0.00000000000E+00 -0.59591779733E+03  0.59591779735E+03  0.50400001928E-02 0. -1.
    10030    2    1    2    0    0  0.00000000000E+00  0.00000000000E+00  0.91820965841E+03  0.21100452531E+04  0.18997847229E+04 0.  0.
        5    1    3    3  502    0  0.86497793461E+03  0.11956579050E+03  0.87437082213E+03  0.12357302417E+04  0.46999998093E+01 0.  1.
       -5    1    3    3    0  502 -0.86497793461E+03 -0.11956579050E+03  0.43838836282E+02  0.87431501141E+03  0.46999998093E+01 0. -1.
</event>
<event>
 5   0  0.1429067E-05  0.1898903E+04  0.7818609E-02  0.8655402E-01
       -1   -1    0    0    0  501  0.00000000000E+00  0.00000000000E+00  0.81120242144E+03  0.81120242145E+03  0.50400001928E-02 0. -1.
        1   -1    0    0  501    0  0.00000000000E+00  0.00000000000E+00 -0.11112620482E+04  0.11112620482E+04  0.50400001928E-02 0.  1.
    10030    2    1    2    0    0  0.00000000000E+00  0.00000000000E+00 -0.30005962678E+03  0.19224644697E+04  0.18989033302E+04 0.  0.
        3    1    3    3  502    0  0.94643168464E+03  0.16202335995E+02 -0.75200586735E+02  0.94955283573E+03  0.10100000352E+00 0. -1.
       -3    1    3    3    0  502 -0.94643168464E+03 -0.16202335995E+02 -0.22485904004E+03  0.97291163395E+03  0.10100000352E+00 0.  1.
</event>
<event>
 5   0  0.2789718E-05  0.1894517E+04  0.7818609E-02  0.8657591E-01
        2   -1    0    0  501    0  0.00000000000E+00  0.00000000000E+00  0.24536653022E+04  0.24536653022E+04  0.25500000920E-02 0. -1.
       -2   -1    0    0    0  501  0.00000000000E+00  0.00000000000E+00 -0.36569717161E+03  0.36569717162E+03  0.25500000920E-02 0.  1.
    10030    2    1    2    0    0  0.00000000000E+00  0.00000000000E+00  0.20879681305E+04  0.28193624738E+04  0.18945167839E+04 0.  0.
        5    1    3    3  502    0 -0.48898947468E+02 -0.93232859918E+03  0.12823173451E+04  0.15861864920E+04  0.46999998093E+01 0. -1.
       -5    1    3    3    0  502  0.48898947468E+02  0.93232859918E+03  0.80565078545E+03  0.12331759818E+04  0.46999998093E+01 0.  1.
</event>
<event>
 5   0  0.1327254E-05  0.1899792E+04  0.7818609E-02  0.8654960E-01
       -1   -1    0    0    0  501  0.00000000000E+00  0.00000000000E+00  0.87033275883E+03  0.87033275884E+03  0.50400001928E-02 0. -1.
        1   -1    0    0  501    0  0.00000000000E+00  0.00000000000E+00 -0.10367330559E+04  0.10367330559E+04  0.50400001928E-02 0.  1.
    10030    2    1    2    0    0  0.00000000000E+00  0.00000000000E+00 -0.16640029704E+03  0.19070658147E+04  0.18997923473E+04 0.  0.
        5    1    3    3  502    0 -0.24680144009E+03 -0.54069102530E+03  0.66059746911E+03  0.88863313119E+03  0.46999998093E+01 0. -1.
       -5    1    3    3    0  502  0.24680144009E+03  0.54069102530E+03 -0.82699776614E+03  0.10184326835E+04  0.46999998093E+01 0.  1.
</event>
<event>
 5   0  0.2888776E-05  0.1907310E+04  0.7818609E-02  0.8651226E-01
       -2   -1    0    0    0  501  0.00000000000E+00  0.00000000000E+00  0.40368758685E+03  0.40368758686E+03  0.25500000920E-02 0. -1.
        2   -1    0    0  501    0  0.00000000000E+00  0.00000000000E+00 -0.22528743474E+04  0.22528743474E+04  0.25500000920E-02 0.  1.
    10030    2    1    2    0    0  0.00000000000E+00  0.00000000000E+00 -0.18491867606E+04  0.26565619343E+04  0.19073095279E+04 0.  0.
        3    1    3    3  502    0  0.38955453838E+03 -0.53439939681E+02  0.28552751801E+03  0.48593676468E+03  0.10100000352E+00 0. -1.
       -3    1    3    3    0  502 -0.38955453838E+03  0.53439939681E+02 -0.21347142786E+04  0.21706251696E+04  0.10100000352E+00 0.  1.
</event>
<event>
 5   0  0.1413011E-05  0.1905372E+04  0.7818609E-02  0.8652187E-01
        1   -1    0    0  501    0  0.00000000000E+00  0.00000000000E+00  0.12633753890E+04  0.12633753890E+04  0.50400001928E-02 0. -1.
       -1   -1    0    0    0  501  0.00000000000E+00  0.00000000000E+00 -0.71840122945E+03  0.71840122946E+03  0.50400001928E-02 0.  1.
    10030    2    1    2    0    0  0.00000000000E+00  0.00000000000E+00  0.54497415959E+03  0.19817766185E+04  0.19053718091E+04 0.  0.
        1    1    3    3  502    0  0.66649669680E+03 -0.60168538207E+03  0.60363640638E+03  0.10819519661E+04  0.50400001928E-02 0. -1.
       -1    1    3    3    0  502 -0.66649669680E+03  0.60168538207E+03 -0.58662246792E+02  0.89982465240E+03  0.50400001928E-02 0.  1.
</event>
<event>
 5   0  0.1327254E-05  0.1899281E+04  0.7818609E-02  0.8655214E-01
       -1   -1    0    0    0  501  0.00000000000E+00  0.00000000000E+00  0.12702152207E+04  0.12702152207E+04  0.50400001928E-02 0. -1.
        1   -1    0    0  501    0  0.00000000000E+00  0.00000000000E+00 -0.70997189439E+03  0.70997189440E+03  0.50400001928E-02 0.  1.
    10030    2    1    2    0    0  0.00000000000E+00  0.00000000000E+00  0.56024332632E+03  0.19801871151E+04  0.18992810288E+04 0.  0.
        5    1    3    3  502    0  0.70274641892E+03 -0.61786640325E+03  0.11141523241E+03  0.94236238549E+03  0.46999998093E+01 0.  1.
       -5    1    3    3    0  502 -0.70274641892E+03  0.61786640325E+03  0.44882809392E+03  0.10378247296E+04  0.46999998093E+01 0. -1.
</event>
<event>
 5   0  0.2888776E-05  0.1907215E+04  0.7818609E-02  0.8651273E-01
       -2   -1    0    0    0  501  0.00000000000E+00  0.00000000000E+00  0.79847069820E+03  0.79847069820E+03  0.25500000920E-02 0. -1.
        2   -1    0    0  501    0  0.00000000000E+00  0.00000000000E+00 -0.11388863337E+04  0.11388863337E+04  0.25500000920E-02 0.  1.
    10030    2    1    2    0    0  0.00000000000E+00  0.00000000000E+00 -0.34041563550E+03  0.19373570319E+04  0.19072151069E+04 0.  0.
        3    1    3    3  502    0 -0.31225428724E+03  0.66501760639E+03  0.44736117659E+03  0.86016462914E+03  0.10100000352E+00 0. -1.
       -3    1    3    3    0  502  0.31225428724E+03 -0.66501760639E+03 -0.78777681209E+03  0.10771924028E+04  0.10100000352E+00 0.  1.
</event>
<event>
 5   0  0.2789718E-05  0.1894580E+04  0.7818609E-02  0.8657559E-01
       -2   -1    0    0    0  501  0.00000000000E+00  0.00000000000E+00  0.61672773710E+03  0.61672773711E+03  0.25500000920E-02 0.  1.
        2   -1    0    0  501    0  0.00000000000E+00  0.00000000000E+00 -0.14550319727E+04  0.14550319727E+04  0.25500000920E-02 0. -1.
    10030    2    1    2    0    0  0.00000000000E+00  0.00000000000E+00 -0.83830423563E+03  0.20717597098E+04  0.18945802448E+04 0.  0.
        5    1    3    3  502    0 -0.35744529001E+03  0.51390864576E+03 -0.11966028761E+04  0.13504627964E+04  0.46999998093E+01 0. -1.
       -5    1    3    3    0  502  0.35744529001E+03 -0.51390864576E+03  0.35829864045E+03  0.72129691340E+03  0.46999998093E+01 0.  1.
</event>
<event>
 5   0  0.2789718E-05  0.1898105E+04  0.7818609E-02  0.8655800E-01
       -2   -1    0    0    0  501  0.00000000000E+00  0.00000000000E+00  0.45714844234E+03  0.45714844234E+03  0.25500000920E-02 0.  1.
        2   -1    0    0  501    0  0.00000000000E+00  0.00000000000E+00 -0.19702579293E+04  0.19702579293E+04  0.25500000920E-02 0. -1.
    10030    2    1    2    0    0  0.00000000000E+00  0.00000000000E+00 -0.15131094869E+04  0.24274063716E+04  0.18981046793E+04 0.  0.
        5    1    3    3  502    0  0.47102781358E+03 -0.82214739511E+03 -0.68786788898E+03  0.11708876390E+04  0.46999998093E+01 0.  1.
       -5    1    3    3    0  502 -0.47102781358E+03  0.82214739511E+03 -0.82524159797E+03  0.12565187326E+04  0.46999998093E+01 0. -1.
</event>
<event>
 5   0  0.1471485E-05  0.1900984E+04  0.7818609E-02  0.8654367E-01
        1   -1    0    0  501    0  0.00000000000E+00  0.00000000000E+00  0.13065023322E+04  0.13065023322E+04  0.50400001928E-02 0.  1.
       -1   -1    0    0    0  501  0.00000000000E+00  0.00000000000E+00 -0.69149143842E+03  0.69149143844E+03  0.50400001928E-02 0. -1.
    10030    2    1    2    0    0  0.00000000000E+00  0.00000000000E+00  0.61501089379E+03  0.19979937707E+04  0.19009841420E+04 0.  0.
        4    1    3    3  502    0  0.48048618019E+03 -0.53176710181E+03 -0.34868692000E+03  0.79701154383E+03  0.12699999809E+01 0. -1.
       -4    1    3    3    0  502 -0.48048618019E+03  0.53176710181E+03  0.96369781379E+03  0.12009822268E+04  0.12699999809E+01 0.  1.
</event>
<event>
 5   0  0.1010725E-05  0.1896017E+04  0.7818609E-02  0.8656842E-01
        3   -1    0    0  501    0  0.00000000000E+00  0.00000000000E+00  0.16245796167E+04  0.16245796198E+04  0.10100000352E+00 0.  1.
       -3   -1    0    0    0  501  0.00000000000E+00  0.00000000000E+00 -0.55320155939E+03  0.55320156861E+03  0.10100000352E+00 0. -1.
    10030    2    1    2    0    0  0.00000000000E+00  0.00000000000E+00  0.10713780573E+04  0.21777811885E+04  0.18960168678E+04 0.  0.
        1    1    3    3  502    0  0.76418539354E+02 -0.28944635033E+03  0.15688629047E+04  0.15971693075E+04  0.50400001928E-02 0.  1.
       -1    1    3    3    0  502 -0.76418539354E+02  0.28944635033E+03 -0.49748484743E+03  0.58061188096E+03  0.50400001928E-02 0. -1.
</event>
<event>
 5   0  0.1471485E-05  0.1900133E+04  0.7818609E-02  0.8654790E-01
        1   -1    0    0  501    0  0.00000000000E+00  0.00000000000E+00  0.83132657814E+03  0.83132657815E+03  0.50400001928E-02 0. -1.
       -1   -1    0    0    0  501  0.00000000000E+00  0.00000000000E+00 -0.10857667756E+04  0.10857667756E+04  0.50400001928E-02 0.  1.
    10030    2    1    2    0    0  0.00000000000E+00  0.00000000000E+00 -0.25444019750E+03  0.19170933538E+04  0.19001334461E+04 0.  0.
        4    1    3    3  502    0  0.71534625960E+03  0.26607246234E+03  0.44361281969E+03  0.88278466968E+03  0.12699999809E+01 0. -1.
       -4    1    3    3    0  502 -0.71534625960E+03 -0.26607246234E+03 -0.69805301719E+03  0.10343086841E+04  0.12699999809E+01 0.  1.
</event>
<event>
 5   0  0.1429067E-05  0.1907174E+04  0.7818609E-02  0.8651294E-01
        1   -1    0    0  501    0  0.00000000000E+00  0.00000000000E+00  0.12236042829E+04  0.12236042829E+04  0.50400001928E-02 0.  1.
       -1   -1    0    0    0  501  0.00000000000E+00  0.00000000000E+00 -0.74315522563E+03  0.74315522565E+03  0.50400001928E-02 0. -1.
    10030    2    1    2    0    0  0.00000000000E+00  0.00000000000E+00  0.48044905730E+03  0.19667595086E+04  0.19071737383E+04 0.  0.
        3    1    3    3  502    0  0.30864068580E+03  0.84890259505E+03  0.55544299669E+03  0.10603827713E+04  0.10100000352E+00 0.  1.
       -3    1    3    3    0  502 -0.30864068580E+03 -0.84890259505E+03 -0.74993939390E+02  0.90637673732E+03  0.10100000352E+00 0. -1.
</event>
<event>
 5   0  0.1413011E-05  0.1897228E+04  0.7818609E-02  0.8656237E-01
       -1   -1    0    0    0  501  0.00000000000E+00  0.00000000000E+00  0.10009875062E+04  0.10009875062E+04  0.50400001928E-02 0.  1.
        1   -1    0    0  501    0  0.00000000000E+00  0.00000000000E+00 -0.89898082818E+03  0.89898082820E+03  0.50400001928E-02 0. -1.
    10030    2    1    2    0    0  0.00000000000E+00  0.00000000000E+00  0.10200667799E+03  0.18999683344E+04  0.18972280594E+04 0.  0.
        1    1    3    3  502    0  0.65600015950E+03 -0.15004122205E+03 -0.61855789449E+03  0.91403634854E+03  0.50400001928E-02 0. -1.
       -1    1    3    3    0  502 -0.65600015950E+03  0.15004122205E+03  0.72056457249E+03  0.98593198585E+03  0.50400001928E-02 0.  1.
</event>
<event>
 5   0  0.2789718E-05  0.1899206E+04  0.7818609E-02  0.8655252E-01
       -2   -1    0    0    0  501  0.00000000000E+00  0.00000000000E+00  0.65066882409E+03  0.65066882410E+03  0.25500000920E-02 0. -1.
        2   -1    0    0  501    0  0.00000000000E+00  0.00000000000E+00 -0.13858747410E+04  0.13858747410E+04  0.25500000920E-02 0.  1.
    10030    2    1    2    0    0  0.00000000000E+00  0.00000000000E+00 -0.73520591691E+03  0.20365435651E+04  0.18992056109E+04 0.  0.
        5    1    3    3  502    0 -0.64895922259E+02  0.42143349405E+03  0.54222553679E+03  0.68981757978E+03  0.46999998093E+01 0. -1.
       -5    1    3    3    0  502  0.64895922259E+02 -0.42143349405E+03 -0.12774314537E+04  0.13467259853E+04  0.46999998093E+01 0.  1.
</event>
<event>
 5   0  0.2789718E-05  0.1899256E+04  0.7818609E-02  0.8655227E-01
       -2   -1    0    0    0  501  0.00000000000E+00  0.00000000000E+00  0.11243992053E+04  0.11243992053E+04  0.25500000920E-02 0.  1.
        2   -1    0    0  501    0  0.00000000000E+00  0.00000000000E+00 -0.80202248019E+03  0.80202248019E+03  0.25500000920E-02 0. -1.
    10030    2    1    2    0    0  0.00000000000E+00  0.00000000000E+00  0.32237672507E+03  0.19264216855E+04  0.18992561063E+04 0.  0.
        5    1    3    3  502    0  0.76398019085E+03  0.36883781784E+03 -0.27160461241E+03  0.89078517240E+03  0.46999998093E+01 0.  1.
       -5    1    3    3    0  502 -0.76398019085E+03 -0.36883781784E+03  0.59398133748E+03  0.10356365131E+04  0.46999998093E+01 0. -1.
</event>
<event>
 5   0  0.2789718E-05  0.1899370E+04  0.7818609E-02  0.8655170E-01
        2   -1    0    0  501    0  0.00000000000E+00  0.00000000000E+00  0.15399106650E+04  0.15399106650E+04  0.25500000920E-02 0. -1.
       -2   -1    0    0    0  501  0.00000000000E+00  0.00000000000E+00 -0.58568432067E+03  0.58568432067E+03  0.25500000920E-02 0.  1.
    10030    2    1    2    0    0  0.00000000000E+00  0.00000000000E+00  0.95422634432E+03  0.21255949857E+04  0.18993699289E+04 0.  0.
        5    1    3    3  502    0  0.49965166680E+03 -0.64537722562E+03 -0.66218959546E+02  0.81888374760E+03  0.46999998093E+01 0.  1.
       -5    1    3    3    0  502 -0.49965166680E+03  0.64537722562E+03  0.10204453039E+04  0.13067112381E+04  0.46999998093E+01 0. -1.
</event>
<event>
 5   0  0.1413011E-05  0.1898513E+04  0.7818609E-02  0.8655597E-01
        1   -1    0    0  501    0  0.00000000000E+00  0.00000000000E+00  0.81973641804E+03  0.81973641805E+03  0.50400001928E-02 0. -1.
       -1   -1    0    0    0  501  0.00000000000E+00  0.00000000000E+00 -0.10992404888E+04  0.10992404888E+04  0.50400001928E-02 0.  1.
    10030    2    1    2    0    0  0.00000000000E+00  0.00000000000E+00 -0.27950407079E+03  0.19189769069E+04  0.18985125345E+04 0.  0.
        1    1    3    3  502    0 -0.32306944088E+03  0.53880117125E+03 -0.85904545095E+03  0.10642554452E+04  0.50400001928E-02 0.  1.
       -1    1    3    3    0  502  0.32306944088E+03 -0.53880117125E+03  0.57954138016E+03  0.85472146171E+03  0.50400001928E-02 0. -1.
</event>
<event>
 5   0  0.2855141E-05  0.1900301E+04  0.7818609E-02  0.8654707E-01
       -2   -1    0    0    0  501  0.00000000000E+00  0.00000000000E+00  0.10445071345E+04  0.10445071345E+04  0.25500000920E-02 0.  1.
        2   -1    0    0  501    0  0.00000000000E+00  0.00000000000E+00 -0.86431769567E+03  0.86431769568E+03  0.25500000920E-02 0. -1.
    10030    2    1    2    0    0  0.00000000000E+00  0.00000000000E+00  0.18018943881E+03  0.19088248302E+04  0.19003010284E+04 0.  0.
        1    1    3    3  502    0 -0.26521216529E+03 -0.10383950928E+03 -0.82042906433E+03  0.86846069913E+03  0.50400001928E-02 0. -1.
       -1    1    3    3    0  502  0.26521216529E+03  0.10383950928E+03  0.10006185031E+04  0.10403641310E+04  0.50400001928E-02 0.  1.
</event>
<event>
 5   0  0.2855141E-05  0.1899219E+04  0.7818609E-02  0.8655245E-01
       -2   -1    0    0    0  501  0.00000000000E+00  0.00000000000E+00  0.60235254876E+03  0.60235254876E+03  0.25500000920E-02 0.  1.
        2   -1    0    0  501    0  0.00000000000E+00  0.00000000000E+00 -0.14970602289E+04  0.14970602289E+04  0.25500000920E-02 0. -1.
    10030    2    1    2    0    0  0.00000000000E+00  0.00000000000E+00 -0.89470768014E+03  0.20994127777E+04  0.18992188337E+04 0.  0.
        1    1    3    3  502    0  0.69383800683E+03 -0.24262493312E+03 -0.11119609279E+04  0.13329422880E+04  0.50400001928E-02 0. -1.
       -1    1    3    3    0  502 -0.69383800683E+03  0.24262493312E+03  0.21725324774E+03  0.76647048969E+03  0.50400001928E-02 0.  1.
</event>
<event>
 5   0  0.1429067E-05  0.1901797E+04  0.7818609E-02  0.8653962E-01
       -1   -1    0    0    0  501  0.00000000000E+00  0.00000000000E+00  0.11249551696E+04  0.11249551696E+04  0.50400001928E-02 0. -1.
        1   -1    0    0  501    0  0.00000000000E+00  0.00000000000E+00 -0.80377273029E+03  0.80377273031E+03  0.50400001928E-02 0.  1.
    10030    2    1    2    0    0  0.00000000000E+00  0.00000000000E+00  0.32118243928E+03  0.19287278999E+04  0.19017973479E+04 0.  0.
        3    1    3    3  502    0  0.33945855562E+03 -0.78912515019E+03 -0.25292977408E+03  0.89550214655E+03  0.10100000352E+00 0.  1.
       -3    1    3    3    0  502 -0.33945855562E+03  0.78912515019E+03  0.57411221336E+03  0.10332257533E+04  0.10100000352E+00 0. -1.
</event>
<event>
 5   0  0.2879462E-05  0.1902045E+04  0.7818609E-02  0.8653839E-01
        2   -1    0    0  501    0  0.00000000000E+00  0.00000000000E+00  0.15438850481E+04  0.15438850481E+04  0.25500000920E-02 0.  1.
       -2   -1    0    0    0  501  0.00000000000E+00  0.00000000000E+00 -0.58582339854E+03  0.58582339854E+03  0.25500000920E-02 0. -1.
    10030    2    1    2    0    0  0.00000000000E+00  0.00000000000E+00  0.95806164959E+03  0.21297084467E+04  0.19020452002E+04 0.  0.
        4    1    3    3  502    0  0.79064764215E+03 -0.41636020923E+03  0.84351287542E+03  0.12288185797E+04  0.12699999809E+01 0.  1.
       -4    1    3    3    0  502 -0.79064764215E+03  0.41636020923E+03  0.11454877416E+03  0.90088986699E+03  0.12699999809E+01 0. -1.
</event>
<event>
 5   0  0.1344119E-05  0.1897835E+04  0.7818609E-02  0.8655935E-01
       -1   -1    0    0    0  501  0.00000000000E+00  0.00000000000E+00  0.72630107207E+03  0.72630107209E+03  0.50400001928E-02 0.  1.
        1   -1    0    0  501    0  0.00000000000E+00  0.00000000000E+00 -0.12397680530E+04  0.12397680530E+04  0.50400001928E-02 0. -1.
    10030    2    1    2    0    0  0.00000000000E+00  0.00000000000E+00 -0.51346698093E+03  0.19660691251E+04  0.18978354681E+04 0.  0.
        2    1    3    3  502    0 -0.12138199653E+02 -0.24456794856E+03  0.69300701824E+03  0.73499628889E+03  0.25500000920E-02 0.  1.
       -2    1    3    3    0  502  0.12138199653E+02  0.24456794856E+03 -0.12064739992E+04  0.12310728362E+04  0.25500000920E-02 0. -1.
</event>
<event>
 5   0  0.2813537E-05  0.1898472E+04  0.7818609E-02  0.8655617E-01
       -2   -1    0    0    0  501  0.00000000000E+00  0.00000000000E+00  0.62692687324E+03  0.62692687325E+03  0.25500000920E-02 0. -1.
        2   -1    0    0  501    0  0.00000000000E+00  0.00000000000E+00 -0.14372470819E+04  0.14372470819E+04  0.25500000920E-02 0.  1.
    10030    2    1    2    0    0  0.00000000000E+00  0.00000000000E+00 -0.81032020863E+03  0.20641739551E+04  0.18984718266E+04 0.  0.
        2    1    3    3  502    0 -0.88544042140E+03  0.22329904863E+03 -0.12334299587E+03  0.92145575022E+03  0.25500000920E-02 0. -1.
       -2    1    3    3    0  502  0.88544042140E+03 -0.22329904863E+03 -0.68697721276E+03  0.11427182049E+04  0.25500000920E-02 0.  1.
</event>
<event>
 5   0  0.1413011E-05  0.1898076E+04  0.7818609E-02  0.8655815E-01
        1   -1    0    0  501    0  0.00000000000E+00  0.00000000000E+00  0.99099383193E+03  0.99099383195E+03  0.50400001928E-02 0.  1.
       -1   -1    0    0    0  501  0.00000000000E+00  0.00000000000E+00 -0.90885867954E+03  0.90885867955E+03  0.50400001928E-02 0. -1.
    10030    2    1    2    0    0  0.00000000000E+00  0.00000000000E+00  0.82135152395E+02  0.18998525115E+04  0.18980762319E+04 0.  0.
        1    1    3    3  502    0 -0.87015125246E+03  0.36093312463E+03  0.15622924735E+03  0.95490496928E+03  0.50400001928E-02 0.  1.
       -1    1    3    3    0  502  0.87015125246E+03 -0.36093312463E+03 -0.74094094953E+02  0.94494754222E+03  0.50400001928E-02 0. -1.
</event>
<event>
 5   0  0.2813537E-05  0.1903577E+04  0.7818609E-02  0.8653078E-01
       -2   -1    0    0    0  501  0.00000000000E+00  0.00000000000E+00  0.43864594058E+03  0.43864594059E+03  0.25500000920E-02 0.  1.
        2   -1    0    0  501    0  0.00000000000E+00  0.00000000000E+00 -0.20652222828E+04  0.20652222828E+04  0.25500000920E-02 0. -1.
    10030    2    1    2    0    0  0.00000000000E+00  0.00000000000E+00 -0.16265763422E+04  0.25038682234E+04  0.19035770231E+04 0.  0.
        2    1    3    3  502    0 -0.14961412001E+03 -0.28031073107E+03  0.36682469726E+03  0.48530284296E+03  0.25500000920E-02 0.  1.
       -2    1    3    3    0  502  0.14961412001E+03  0.28031073107E+03 -0.19934010395E+04  0.20185653804E+04  0.25500000920E-02 0. -1.
</event>
<event>
 5   0  0.2789718E-05  0.1897616E+04  0.7818609E-02  0.8656044E-01
        2   -1    0    0  501    0  0.00000000000E+00  0.00000000000E+00  0.19852921090E+04  0.19852921090E+04  0.25500000920E-02 0.  1.
       -2   -1    0    0    0  501  0.00000000000E+00  0.00000000000E+00 -0.45345314642E+03  0.45345314643E+03  0.25500000920E-02 0. -1.
    10030    2    1    2    0    0  0.00000000000E+00  0.00000000000E+00  0.15318389626E+04  0.24387452554E+04  0.18976163505E+04 0.  0.
        5    1    3    3  502    0 -0.31683651168E+03 -0.70477501193E+03  0.58354196786E+02  0.77493257439E+03  0.46999998093E+01 0. -1.
       -5    1    3    3    0  502  0.31683651168E+03  0.70477501193E+03  0.14734847658E+04  0.16638126811E+04  0.46999998093E+01 0.  1.
</event>
<event>
 5   0  0.2789718E-05  0.1898140E+04  0.7818609E-02  0.8655783E-01
       -2   -1    0    0    0  501  0.00000000000E+00  0.00000000000E+00  0.84438052652E+03  0.84438052652E+03  0.25500000920E-02 0. -1.
        2   -1    0    0  501    0  0.00000000000E+00  0.00000000000E+00 -0.10667393936E+04  0.10667393936E+04  0.25500000920E-02 0.  1.
    10030    2    1    2    0    0  0.00000000000E+00  0.00000000000E+00 -0.22235886711E+03  0.19111199202E+04  0.18981401116E+04 0.  0.
        5    1    3    3  502    0  0.90018107554E+02  0.15997037496E+03  0.82632591594E+03  0.84648118107E+03  0.46999998093E+01 0. -1.
       -5    1    3    3    0  502 -0.90018107554E+02 -0.15997037496E+03 -0.10486847831E+04  0.10646387391E+04  0.46999998093E+01 0.  1.
</event>
<event>
 5   0  0.1010725E-05  0.1900512E+04  0.7818609E-02  0.8654602E-01
        4   -1    0    0  501    0  0.00000000000E+00  0.00000000000E+00  0.10217372222E+04  0.10217380115E+04  0.12699999809E+01 0.  1.
       -4   -1    0    0    0  501  0.00000000000E+00  0.00000000000E+00 -0.88377362296E+03  0.88377453546E+03  0.12699999809E+01 0. -1.
    10030    2    1    2    0    0  0.00000000000E+00  0.00000000000E+00  0.13796359921E+03  0.19055125469E+04  0.19005115395E+04 0.  0.
        3    1    3    3  502    0  0.27353933094E+03 -0.61683192738E+03  0.73983184220E+03  0.10013273976E+04  0.10100000352E+00 0.  1.
       -3    1    3    3    0  502 -0.27353933094E+03  0.61683192738E+03 -0.60186824298E+03  0.90418514935E+03  0.10100000352E+00 0. -1.
</event>
<event>
 5   0  0.1429067E-05  0.1901264E+04  0.7818609E-02  0.8654228E-01
        1   -1    0    0  501    0  0.00000000000E+00  0.00000000000E+00  0.14981352713E+04  0.14981352713E+04  0.50400001928E-02 0. -1.
       -1   -1    0    0    0  501  0.00000000000E+00  0.00000000000E+00 -0.60321728319E+03  0.60321728321E+03  0.50400001928E-02 0.  1.
    10030    2    1    2    0    0  0.00000000000E+00  0.00000000000E+00  0.89491798807E+03  0.21013525545E+04  0.19012638830E+04 0.  0.
        3    1    3    3  502    0  0.48209888706E+03  0.13833782785E+03 -0.44508247671E+03  0.67056328023E+03  0.10100000352E+00 0.  1.
       -3    1    3    3    0  502 -0.48209888706E+03 -0.13833782785E+03  0.13400004648E+04  0.14307892743E+04  0.10100000352E+00 0. -1.
</event>
<event>
 5   0  0.1429067E-05  0.1898088E+04  0.7818609E-02  0.8655809E-01
        1   -1    0    0  501    0  0.00000000000E+00  0.00000000000E+00  0.79443701424E+03  0.79443701426E+03  0.50400001928E-02 0. -1.
       -1   -1    0    0    0  501  0.00000000000E+00  0.00000000000E+00 -0.11337397610E+04  0.11337397610E+04  0.50400001928E-02 0.  1.
    10030    2    1    2    0    0  0.00000000000E+00  0.00000000000E+00 -0.33930274677E+03  0.19281767753E+04  0.18980883338E+04 0.  0.
        3    1    3    3  502    0  0.20782284908E+03  0.92082627297E+03 -0.70256298223E+02  0.94659775999E+03  0.10100000352E+00 0. -1.
       -3    1    3    3    0  502 -0.20782284908E+03 -0.92082627297E+03 -0.26904644855E+03  0.98157901529E+03  0.10100000352E+00 0.  1.
</event>
<event>
 5   0  0.1327254E-05  0.1899710E+04  0.7818609E-02  0.8655001E-01
        1   -1    0    0  501    0  0.00000000000E+00  0.00000000000E+00  0.96269849935E+03  0.96269849937E+03  0.50400001928E-02 0. -1.
       -1   -1    0    0    0  501  0.00000000000E+00  0.00000000000E+00 -0.93718280788E+03  0.93718280789E+03  0.50400001928E-02 0.  1.
    10030    2    1    2    0    0  0.00000000000E+00  0.00000000000E+00  0.25515691475E+02  0.18998813073E+04  0.18997099597E+04 0.  0.
        5    1    3    3  502    0 -0.39132505727E+03 -0.49386111434E+03  0.72357387341E+03  0.95948701971E+03  0.46999998093E+01 0. -1.
       -5    1    3    3    0  502  0.39132505727E+03  0.49386111434E+03 -0.69805818193E+03  0.94039428756E+03  0.46999998093E+01 0.  1.
</event>
<event>
 5   0  0.2855141E-05  0.1900967E+04  0.7818609E-02  0.8654375E-01
        2   -1    0    0  501    0  0.00000000000E+00  0.00000000000E+00  0.57205571312E+03  0.57205571312E+03  0.25500000920E-02 0.  1.
       -2   -1    0    0    0  501  0.00000000000E+00  0.00000000000E+00 -0.15792495933E+04  0.15792495933E+04  0.25500000920E-02 0. -1.
    10030    2    1    2    0    0  0.00000000000E+00  0.00000000000E+00 -0.10071938801E+04  0.21513053064E+04  0.19009668616E+04 0.  0.
        1    1    3    3  502    0  0.59672166725E+03 -0.60910918900E+03 -0.97880975432E+03  0.12981368524E+04  0.50400001928E-02 0. -1.
       -1    1    3    3    0  502 -0.59672166725E+03  0.60910918900E+03 -0.28384125814E+02  0.85316845401E+03  0.50400001928E-02 0.  1.
</event>
<event>
 5   0  0.1327254E-05  0.1900240E+04  0.7818609E-02  0.8654737E-01
       -1   -1    0    0    0  501  0.00000000000E+00  0.00000000000E+00  0.84795608926E+03  0.84795608928E+03  0.50400001928E-02 0.  1.
        1   -1    0    0  501    0  0.00000000000E+00  0.00000000000E+00 -0.10645928100E+04  0.10645928100E+04  0.50400001928E-02 0. -1.
    10030    2    1    2    0    0  0.00000000000E+00  0.00000000000E+00 -0.21663672071E+03  0.19125488993E+04  0.19002399384E+04 0.  0.
        5    1    3    3  502    0  0.24388572863E+03  0.78532777013E+03 -0.58730643550E+03  0.10105300067E+04  0.46999998093E+01 0.  1.
       -5    1    3    3    0  502 -0.24388572863E+03 -0.78532777013E+03  0.37066971479E+03  0.90201889261E+03  0.46999998093E+01 0. -1.
</event>
<event>
 5   0  0.2855141E-05  0.1900165E+04  0.7818609E-02  0.8654774E-01
       -2   -1    0    0    0  501  0.00000000000E+00  0.00000000000E+00  0.32695727298E+03  0.32695727299E+03  0.25500000920E-02 0.  1.
        2   -1    0    0  501    0  0.00000000000E+00  0.00000000000E+00 -0.27607796325E+04  0.27607796325E+04  0.25500000920E-02 0. -1.
    10030    2    1    2    0    0  0.00000000000E+00  0.00000000000E+00 -0.24338223596E+04  0.30877369055E+04  0.19001652349E+04 0.  0.
        1    1    3    3  502    0 -0.31978548667E+03 -0.61851490813E+02  0.23339773426E+03  0.40070296578E+03  0.50400001928E-02 0.  1.
       -1    1    3    3    0  502  0.31978548667E+03  0.61851490813E+02 -0.26672200938E+04  0.26870339397E+04  0.50400001928E-02 0. -1.
</event>
<event>
 5   0  0.2888776E-05  0.1900489E+04  0.7818609E-02  0.8654613E-01
        2   -1    0    0  501    0  0.00000000000E+00  0.00000000000E+00  0.15583230426E+04  0.15583230426E+04  0.25500000920E-02 0. -1.
       -2   -1    0    0    0  501  0.00000000000E+00  0.00000000000E+00 -0.57944636727E+03  0.57944636727E+03  0.25500000920E-02 0.  1.
    10030    2    1    2    0    0  0.00000000000E+00  0.00000000000E+00  0.97887667530E+03  0.21377694098E+04  0.19004890171E+04 0.  0.
        3    1    3    3  502    0 -0.17682007877E+03  0.42840883067E+03 -0.44369097360E+03  0.64160825798E+03  0.10100000352E+00 0.  1.
       -3    1    3    3    0  502  0.17682007877E+03 -0.42840883067E+03  0.14225676489E+04  0.14961611519E+04  0.10100000352E+00 0. -1.
</event>
<event>
 5   0  0.2813537E-05  0.1897577E+04  0.7818609E-02  0.8656063E-01
        2   -1    0    0  501    0  0.00000000000E+00  0.00000000000E+00  0.81725619054E+03  0.81725619055E+03  0.25500000920E-02 0.  1.
       -2   -1    0    0    0  501  0.00000000000E+00  0.00000000000E+00 -0.11014902647E+04  0.11014902647E+04  0.25500000920E-02 0. -1.
    10030    2    1    2    0    0  0.00000000000E+00  0.00000000000E+00 -0.28423407416E+03  0.19187464553E+04  0.18975771264E+04 0.  0.
        2    1    3    3  502    0 -0.74571308667E+03 -0.41878557220E+03 -0.55746758632E+03  0.10209013042E+04  0.25500000920E-02 0. -1.
       -2    1    3    3    0  502  0.74571308667E+03  0.41878557220E+03  0.27323351215E+03  0.89784515106E+03  0.25500000920E-02 0.  1.
</event>
<event>
 5   0  0.1344119E-05  0.1876221E+04  0.7818609E-02  0.8666784E-01
       -1   -1    0    0    0  501  0.00000000000E+00  0.00000000000E+00  0.11173907662E+04  0.11173907662E+04  0.50400001928E-02 0.  1.
        1   -1    0    0  501    0  0.00000000000E+00  0.00000000000E+00 -0.78759455942E+03  0.78759455944E+03  0.50400001928E-02 0. -1.
    10030    2    1    2    0    0  0.00000000000E+00  0.00000000000E+00  0.32979620675E+03  0.19049853256E+04  0.18762205502E+04 0.  0.
        2    1    3    3  502    0  0.52346104520E+03 -0.12735923341E+03 -0.61487301062E+03  0.81749658065E+03  0.25500000920E-02 0. -1.
       -2    1    3    3    0  502 -0.52346104520E+03  0.12735923341E+03  0.94466921737E+03  0.10874887450E+04  0.25500000920E-02 0.  1.
</event>
<event>
 5   0  0.2789718E-05  0.1899254E+04  0.7818609E-02  0.8655228E-01
        2   -1    0    0  501    0  0.00000000000E+00  0.00000000000E+00  0.84829731001E+03  0.84829731002E+03  0.25500000920E-02 0.  1.
       -2   -1    0    0    0  501  0.00000000000E+00  0.00000000000E+00 -0.10630605782E+04  0.10630605783E+04  0.25500000920E-02 0. -1.
    10030    2    1    2    0    0  0.00000000000E+00  0.00000000000E+00 -0.21476326824E+03  0.19113578883E+04  0.18992539892E+04 0.  0.
        5    1    3    3  502    0 -0.80465740577E+03 -0.25977764694E+03 -0.54235295305E+03  0.10045530261E+04  0.46999998093E+01 0. -1.
       -5    1    3    3    0  502  0.80465740577E+03  0.25977764694E+03  0.32758968482E+03  0.90680486220E+03  0.46999998093E+01 0.  1.
</event>
<event>
 5   0  0.2789718E-05  0.1911121E+04  0.7818609E-02  0.8649340E-01
       -2   -1    0    0    0  501  0.00000000000E+00  0.00000000000E+00  0.49614193382E+03  0.49614193382E+03  0.25500000920E-02 0.  1.
        2   -1    0    0  501    0  0.00000000000E+00  0.00000000000E+00 -0.18403926705E+04  0.18403926705E+04  0.25500000920E-02 0. -1.
    10030    2    1    2    0    0  0.00000000000E+00  0.00000000000E+00 -0.13442507367E+04  0.23365346044E+04  0.19111211145E+04 0.  0.
        5    1    3    3  502    0  0.35916909701E+03  0.85119677688E+03 -0.97043823972E+03  0.13398921077E+04  0.46999998093E+01 0. -1.
       -5    1    3    3    0  502 -0.35916909701E+03 -0.85119677688E+03 -0.37381249700E+03  0.99664249665E+03  0.46999998093E+01 0.  1.
</event>
<event>
 5   0  0.2855141E-05  0.1899023E+04  0.7818609E-02  0.8655343E-01
       -2   -1    0    0    0  501  0.00000000000E+00  0.00000000000E+00  0.99224643154E+03  0.99224643154E+03  0.25500000920E-02 0.  1.
        2   -1    0    0  501    0  0.00000000000E+00  0.00000000000E+00 -0.90861682683E+03  0.90861682683E+03  0.25500000920E-02 0. -1.
    10030    2    1    2    0    0  0.00000000000E+00  0.00000000000E+00  0.83629604710E+02  0.19008632584E+04  0.18990227003E+04 0.  0.
        1    1    3    3  502    0  0.45425836988E+03  0.83095351915E+03 -0.27080581841E+02  0.94740053596E+03  0.50400001928E-02 0. -1.
       -1    1    3    3    0  502 -0.45425836988E+03 -0.83095351915E+03  0.11071018655E+03  0.95346272241E+03  0.50400001928E-02 0.  1.
</event>
<event>
 5   0  0.2879462E-05  0.1895418E+04  0.7818609E-02  0.8657141E-01
        2   -1    0    0  501    0  0.00000000000E+00  0.00000000000E+00  0.19873861635E+04  0.19873861635E+04  0.25500000920E-02 0. -1.
       -2   -1    0    0    0  501  0.00000000000E+00  0.00000000000E+00 -0.45192620567E+03  0.45192620567E+03  0.25500000920E-02 0.  1.
    10030    2    1    2    0    0  0.00000000000E+00  0.00000000000E+00  0.15354599578E+04  0.24393123692E+04  0.18954175140E+04 0.  0.
        4    1    3    3  502    0 -0.44976937831E+03  0.66303191120E+03  0.11626440432E+03  0.80958188810E+03  0.12699999809E+01 0.  1.
       -4    1    3    3    0  502  0.44976937831E+03 -0.66303191120E+03  0.14191955535E+04  0.16297304811E+04  0.12699999809E+01 0. -1.
</event>
<event>
 5   0  0.1344119E-05  0.1900660E+04  0.7818609E-02  0.8654528E-01
        1   -1    0    0  501    0  0.00000000000E+00  0.00000000000E+00  0.20815463496E+04  0.20815463496E+04  0.50400001928E-02 0. -1.
       -1   -1    0    0    0  501  0.00000000000E+00  0.00000000000E+00 -0.43387309704E+03  0.43387309707E+03  0.50400001928E-02 0.  1.
    10030    2    1    2    0    0  0.00000000000E+00  0.00000000000E+00  0.16476732526E+04  0.25154194467E+04  0.19006598448E+04 0.  0.
        2    1    3    3  502    0  0.44798033314E+03 -0.20756962982E+03  0.18984835718E+04  0.19616348800E+04  0.25500000920E-02 0. -1.
       -2    1    3    3    0  502 -0.44798033314E+03  0.20756962982E+03 -0.25081031919E+03  0.55378456671E+03  0.25500000920E-02 0.  1.
</event>
<event>
 5   0  0.1344119E-05  0.1897820E+04  0.7818609E-02  0.8655942E-01
       -1   -1    0    0    0  501  0.00000000000E+00  0.00000000000E+00  0.41992874085E+03  0.41992874088E+03  0.50400001928E-02 0.  1.
        1   -1    0    0  501    0  0.00000000000E+00  0.00000000000E+00 -0.21442449540E+04  0.21442449540E+04  0.50400001928E-02 0. -1.
    10030    2    1    2    0    0  0.00000000000E+00  0.00000000000E+00 -0.17243162131E+04  0.25641736949E+04  0.18978198899E+04 0.  0.
        2    1    3    3  502    0  0.68069991451E+03 -0.26860864918E+02  0.30351756482E+02  0.68190549845E+03  0.25500000920E-02 0.  1.
       -2    1    3    3    0  502 -0.68069991451E+03  0.26860864918E+02 -0.17546679696E+04  0.18822681964E+04  0.25500000920E-02 0. -1.
</event>
<event>
 5   0  0.2789718E-05  0.1900148E+04  0.7818609E-02  0.8654783E-01
        2   -1    0    0  501    0  0.00000000000E+00  0.00000000000E+00  0.72166731459E+03  0.72166731459E+03  0.25500000920E-02 0.  1.
       -2   -1    0    0    0  501  0.00000000000E+00  0.00000000000E+00 -0.12507708470E+04  0.12507708470E+04  0.25500000920E-02 0. -1.
    10030    2    1    2    0    0  0.00000000000E+00  0.00000000000E+00 -0.52910353243E+03  0.19724381616E+04  0.19001478241E+04 0.  0.
        5    1    3    3  502    0  0.99977566347E+02  0.31310338790E+03 -0.11898618823E+04  0.12344321100E+04  0.46999998093E+01 0. -1.
       -5    1    3    3    0  502 -0.99977566347E+02 -0.31310338790E+03  0.66075834986E+03  0.73800605160E+03  0.46999998093E+01 0.  1.
</event>
<event>
 5   0  0.2888776E-05  0.1893718E+04  0.7818609E-02  0.8657990E-01
        2   -1    0    0  501    0  0.00000000000E+00  0.00000000000E+00  0.18080697606E+04  0.18080697607E+04  0.25500000920E-02 0.  1.
       -2   -1    0    0    0  501  0.00000000000E+00  0.00000000000E+00 -0.49585583489E+03  0.49585583489E+03  0.25500000920E-02 0. -1.
    10030    2    1    2    0    0  0.00000000000E+00  0.00000000000E+00  0.13122139258E+04  0.23039255955E+04  0.18937179734E+04 0.  0.
        3    1    3    3  502    0 -0.94461608232E+03  0.21276769179E+02  0.73100230303E+03  0.11946198647E+04  0.10100000352E+00 0. -1.
       -3    1    3    3    0  502  0.94461608232E+03 -0.21276769179E+02  0.58121162274E+03  0.11093057309E+04  0.10100000352E+00 0.  1.
</event>
<event>
 5   0  0.1344119E-05  0.1901178E+04  0.7818609E-02  0.8654270E-01
        1   -1    0    0  501    0  0.00000000000E+00  0.00000000000E+00  0.58936322605E+03  0.58936322607E+03  0.50400001928E-02 0.  1.
       -1   -1    0    0    0  501  0.00000000000E+00  0.00000000000E+00 -0.15332125062E+04  0.15332125062E+04  0.50400001928E-02 0. -1.
    10030    2    1    2    0    0  0.00000000000E+00  0.00000000000E+00 -0.94384928011E+03  0.21225757322E+04  0.19011776023E+04 0.  0.
        2    1    3    3  502    0  0.49796347606E+03 -0.45641027817E+03 -0.12186482922E+04  0.13933347141E+04  0.25500000920E-02 0. -1.
       -2    1    3    3    0  502 -0.49796347606E+03  0.45641027817E+03  0.27479901205E+03  0.72924101814E+03  0.25500000920E-02 0.  1.
</event>
<event>
 5   0  0.2879462E-05  0.1898934E+04  0.7818609E-02  0.8655387E-01
       -2   -1    0    0    0  501  0.00000000000E+00  0.00000000000E+00  0.58143531545E+03  0.58143531545E+03  0.25500000920E-02 0. -1.
        2   -1    0    0  501    0  0.00000000000E+00  0.00000000000E+00 -0.15504526148E+04  0.15504526148E+04  0.25500000920E-02 0.  1.
    10030    2    1    2    0    0  0.00000000000E+00  0.00000000000E+00 -0.96901729934E+03  0.21318879302E+04  0.18989343382E+04 0.  0.
        4    1    3    3  502    0 -0.26371914776E+03 -0.11354927558E+03  0.53152553947E+03  0.60412104655E+03  0.12699999809E+01 0. -1.
       -4    1    3    3    0  502  0.26371914776E+03  0.11354927558E+03 -0.15005428388E+04  0.15277668837E+04  0.12699999809E+01 0.  1.
</event>
<event>
 5   0  0.1471485E-05  0.1899661E+04  0.7818609E-02  0.8655025E-01
        1   -1    0    0  501    0  0.00000000000E+00  0.00000000000E+00  0.87322004785E+03  0.87322004787E+03  0.50400001928E-02 0.  1.
       -1   -1    0    0    0  501  0.00000000000E+00  0.00000000000E+00 -0.10331625005E+04  0.10331625006E+04  0.50400001928E-02 0. -1.
    10030    2    1    2    0    0  0.00000000000E+00  0.00000000000E+00 -0.15994245269E+03  0.19063825484E+04  0.18996612416E+04 0.  0.
        4    1    3    3  502    0  0.35317613853E+03 -0.42702107771E+03  0.69418299053E+03  0.88824097118E+03  0.12699999809E+01 0.  1.
       -4    1    3    3    0  502 -0.35317613853E+03  0.42702107771E+03 -0.85412544323E+03  0.10181415772E+04  0.12699999809E+01 0. -1.
</event>
<event>
 5   0  0.1429067E-05  0.1899943E+04  0.7818609E-02  0.8654885E-01
        1   -1    0    0  501    0  0.00000000000E+00  0.00000000000E+00  0.16656262278E+04  0.16656262278E+04  0.50400001928E-02 0.  1.
       -1   -1    0    0    0  501  0.00000000000E+00  0.00000000000E+00 -0.54180601957E+03  0.54180601959E+03  0.50400001928E-02 0. -1.
    10030    2    1    2    0    0  0.00000000000E+00  0.00000000000E+00  0.11238202082E+04  0.22074322474E+04  0.18999434903E+04 0.  0.
        3    1    3    3  502    0 -0.48316389985E+01  0.43297432474E+02  0.16644649506E+04  0.16650350129E+04  0.10100000352E+00 0.  1.
       -3    1    3    3    0  502  0.48316389985E+01 -0.43297432474E+02 -0.54064474232E+03  0.54239723450E+03  0.10100000352E+00 0. -1.
</event>
<event>
 5   0  0.2888776E-05  0.1905523E+04  0.7818609E-02  0.8652112E-01
        2   -1    0    0  501    0  0.00000000000E+00  0.00000000000E+00  0.63650425706E+03  0.63650425706E+03  0.25500000920E-02 0.  1.
       -2   -1    0    0    0  501  0.00000000000E+00  0.00000000000E+00 -0.14261563939E+04  0.14261563939E+04  0.25500000920E-02 0. -1.
    10030    2    1    2    0    0  0.00000000000E+00  0.00000000000E+00 -0.78965213687E+03  0.20626606510E+04  0.19055231470E+04 0.  0.
        3    1    3    3  502    0 -0.18024474000E+03  0.20138284539E+03 -0.13837928963E+04  0.14099382989E+04  0.10100000352E+00 0. -1.
       -3    1    3    3    0  502  0.18024474000E+03 -0.20138284539E+03  0.59414075941E+03  0.65272235209E+03  0.10100000352E+00 0.  1.
</event>
<event>
 5   0  0.1344119E-05  0.1902397E+04  0.7818609E-02  0.8653664E-01
        1   -1    0    0  501    0  0.00000000000E+00  0.00000000000E+00  0.66457564897E+03  0.66457564899E+03  0.50400001928E-02 0. -1.
       -1   -1    0    0    0  501  0.00000000000E+00  0.00000000000E+00 -0.13614384581E+04  0.13614384581E+04  0.50400001928E-02 0.  1.
    10030    2    1    2    0    0  0.00000000000E+00  0.00000000000E+00 -0.69686280908E+03  0.20260141071E+04  0.19023972738E+04 0.  0.
        2    1    3    3  502    0 -0.25067959901E+03 -0.52496407543E+03  0.45303293371E+03  0.73733735894E+03  0.25500000920E-02 0. -1.
       -2    1    3    3    0  502  0.25067959901E+03  0.52496407543E+03 -0.11498957428E+04  0.12886767481E+04  0.25500000920E-02 0.  1.
</event>
<event>
 5   0  0.2855141E-05  0.1902170E+04  0.7818609E-02  0.8653777E-01
        2   -1    0    0  501    0  0.00000000000E+00  0.00000000000E+00  0.17520280896E+04  0.17520280896E+04  0.25500000920E-02 0. -1.
       -2   -1    0    0    0  501  0.00000000000E+00  0.00000000000E+00 -0.51629465645E+03  0.51629465646E+03  0.25500000920E-02 0.  1.
    10030    2    1    2    0    0  0.00000000000E+00  0.00000000000E+00  0.12357334332E+04  0.22683227461E+04  0.19021700667E+04 0.  0.
        1    1    3    3  502    0  0.57016992419E+03 -0.98263165414E+02  0.15180310767E+04  0.16245515510E+04  0.50400001928E-02 0. -1.
       -1    1    3    3    0  502 -0.57016992419E+03  0.98263165414E+02 -0.28229764346E+03  0.64377119511E+03  0.50400001928E-02 0.  1.
</event>
<event>
 5   0  0.2888776E-05  0.1902035E+04  0.7818609E-02  0.8653844E-01
        2   -1    0    0  501    0  0.00000000000E+00  0.00000000000E+00  0.69564120585E+03  0.69564120586E+03  0.25500000920E-02 0. -1.
       -2   -1    0    0    0  501  0.00000000000E+00  0.00000000000E+00 -0.13001453429E+04  0.13001453429E+04  0.25500000920E-02 0.  1.
    10030    2    1    2    0    0  0.00000000000E+00  0.00000000000E+00 -0.60450413705E+03  0.19957865488E+04  0.19020354088E+04 0.  0.
        3    1    3    3  502    0 -0.74285418053E+02 -0.59411961100E+03 -0.10775475390E+04  0.12327226551E+04  0.10100000352E+00 0.  1.
       -3    1    3    3    0  502  0.74285418053E+02  0.59411961100E+03  0.47304340191E+03  0.76306389365E+03  0.10100000352E+00 0. -1.
</event>
<event>
 5   0  0.1429067E-05  0.1901469E+04  0.7818609E-02  0.8654125E-01
       -1   -1    0    0    0  501  0.00000000000E+00  0.00000000000E+00  0.37443113064E+03  0.37443113068E+03  0.50400001928E-02 0.  1.
        1   -1    0    0  501    0  0.00000000000E+00  0.00000000000E+00 -0.24140520290E+04  0.24140520290E+04  0.50400001928E-02 0. -1.
    10030    2    1    2    0    0  0.00000000000E+00  0.00000000000E+00 -0.20396208984E+04  0.27884831597E+04  0.19014691485E+04 0.  0.
        3    1    3    3  502    0  0.89639219822E+03 -0.31671806525E+03 -0.10078143717E+04  0.13854671140E+04  0.10100000352E+00 0. -1.
       -3    1    3    3    0  502 -0.89639219822E+03  0.31671806525E+03 -0.10318065267E+04  0.14030160458E+04  0.10100000352E+00 0.  1.
</event>
<event>
 5   0  0.1413011E-05  0.1900138E+04  0.7818609E-02  0.8654788E-01
        1   -1    0    0  501    0  0.00000000000E+00  0.00000000000E+00  0.76623927823E+03  0.76623927824E+03  0.50400001928E-02 0. -1.
       -1   -1    0    0    0  501  0.00000000000E+00  0.00000000000E+00 -0.11780010560E+04  0.11780010560E+04  0.50400001928E-02 0.  1.
    10030    2    1    2    0    0  0.00000000000E+00  0.00000000000E+00 -0.41176177779E+03  0.19442403343E+04  0.19001375518E+04 0.  0.
        1    1    3    3  502    0 -0.56362214589E+03 -0.39997659245E+03 -0.87291629782E+03  0.11133885489E+04  0.50400001928E-02 0.  1.
       -1    1    3    3    0  502  0.56362214589E+03  0.39997659245E+03  0.46115452003E+03  0.83085178535E+03  0.50400001928E-02 0. -1.
</event>
<event>
 5   0  0.2855141E-05  0.1900740E+04  0.7818609E-02  0.8654488E-01
       -2   -1    0    0    0  501  0.00000000000E+00  0.00000000000E+00  0.90552324780E+03  0.90552324781E+03  0.25500000920E-02 0. -1.
        2   -1    0    0  501    0  0.00000000000E+00  0.00000000000E+00 -0.99743821986E+03  0.99743821986E+03  0.25500000920E-02 0.  1.
    10030    2    1    2    0    0  0.00000000000E+00  0.00000000000E+00 -0.91914972058E+02  0.19029614677E+04  0.19007403782E+04 0.  0.
        1    1    3    3  502    0 -0.86293244809E+03 -0.25914143159E+03 -0.34862980234E+03  0.96610011419E+03  0.50400001928E-02 0.  1.
       -1    1    3    3    0  502  0.86293244809E+03  0.25914143159E+03  0.25671483028E+03  0.93686135348E+03  0.50400001928E-02 0. -1.
</event>
<event>
 5   0  0.1344119E-05  0.1901131E+04  0.7818609E-02  0.8654294E-01
        1   -1    0    0  501    0  0.00000000000E+00  0.00000000000E+00  0.14804811434E+04  0.14804811434E+04  0.50400001928E-02 0. -1.
       -1   -1    0    0    0  501  0.00000000000E+00  0.00000000000E+00 -0.61032501251E+03  0.61032501253E+03  0.50400001928E-02 0.  1.
    10030    2    1    2    0    0  0.00000000000E+00  0.00000000000E+00  0.87015613089E+03  0.20908061559E+04  0.19011308975E+04 0.  0.
        2    1    3    3  502    0 -0.38492276647E+03  0.48504709358E+03 -0.35808271405E+03  0.71530374614E+03  0.25500000920E-02 0.  1.
       -2    1    3    3    0  502  0.38492276647E+03 -0.48504709358E+03  0.12282388449E+04  0.13755024098E+04  0.25500000920E-02 0. -1.
</event>
<event>
 5   0  0.1413011E-05  0.1894734E+04  0.7818609E-02  0.8657482E-01
       -1   -1    0    0    0  501  0.00000000000E+00  0.00000000000E+00  0.37430688408E+03  0.37430688412E+03  0.50400001928E-02 0. -1.
        1   -1    0    0  501    0  0.00000000000E+00  0.00000000000E+00 -0.23977776746E+04  0.23977776746E+04  0.50400001928E-02 0.  1.
    10030    2    1    2    0    0  0.00000000000E+00  0.00000000000E+00 -0.20234707905E+04  0.27720845587E+04  0.18947344829E+04 0.  0.
        1    1    3    3  502    0 -0.70963759524E+03  0.10437747426E+03 -0.10627095101E+03  0.72510253673E+03  0.50400001928E-02 0. -1.
       -1    1    3    3    0  502  0.70963759524E+03 -0.10437747426E+03 -0.19171998395E+04  0.20469820220E+04  0.50400001928E-02 0.  1.
</event>
<event>
 5   0  0.2888776E-05  0.1902274E+04  0.7818609E-02  0.8653725E-01
       -2   -1    0    0    0  501  0.00000000000E+00  0.00000000000E+00  0.50345603333E+03  0.50345603333E+03  0.25500000920E-02 0. -1.
        2   -1    0    0  501    0  0.00000000000E+00  0.00000000000E+00 -0.17969035023E+04  0.17969035023E+04  0.25500000920E-02 0.  1.
    10030    2    1    2    0    0  0.00000000000E+00  0.00000000000E+00 -0.12934474690E+04  0.23003595356E+04  0.19022743330E+04 0.  0.
        3    1    3    3  502    0 -0.34247996920E+03  0.67240153508E+03 -0.13468946709E+04  0.15438722804E+04  0.10100000352E+00 0.  1.
       -3    1    3    3    0  502  0.34247996920E+03 -0.67240153508E+03  0.53447201898E+02  0.75648725519E+03  0.10100000352E+00 0. -1.
</event>
<event>
 5   0  0.1471485E-05  0.1902844E+04  0.7818609E-02  0.8653442E-01
        1   -1    0    0  501    0  0.00000000000E+00  0.00000000000E+00  0.27268701069E+04  0.27268701069E+04  0.50400001928E-02 0.  1.
       -1   -1    0    0    0  501  0.00000000000E+00  0.00000000000E+00 -0.33195721609E+03  0.33195721613E+03  0.50400001928E-02 0. -1.
    10030    2    1    2    0    0  0.00000000000E+00  0.00000000000E+00  0.23949128908E+04  0.30588273230E+04  0.19028444071E+04 0.  0.
        4    1    3    3  502    0 -0.79601001113E+03 -0.52102563960E+03  0.12137661833E+04  0.15421833924E+04  0.12699999809E+01 0.  1.
       -4    1    3    3    0  502  0.79601001113E+03  0.52102563960E+03  0.11811467074E+04  0.15166439306E+04  0.12699999809E+01 0. -1.
</event>
<event>
 5   0  0.1413011E-05  0.1897665E+04  0.7818609E-02  0.8656019E-01
        1   -1    0    0  501    0  0.00000000000E+00  0.00000000000E+00  0.77548639368E+03  0.77548639370E+03  0.50400001928E-02 0.  1.
       -1   -1    0    0    0  501  0.00000000000E+00  0.00000000000E+00 -0.11609275201E+04  0.11609275201E+04  0.50400001928E-02 0. -1.
    10030    2    1    2    0    0  0.00000000000E+00  0.00000000000E+00 -0.38544112643E+03  0.19364139138E+04  0.18976654035E+04 0.  0.
        1    1    3    3  502    0 -0.40304026315E+03  0.60337039938E+03  0.43114381419E+03  0.84402741727E+03  0.50400001928E-02 0.  1.
       -1    1    3    3    0  502  0.40304026315E+03 -0.60337039938E+03 -0.81658494062E+03  0.10923864966E+04  0.50400001928E-02 0. -1.
</event>
<event>
 5   0  0.1413011E-05  0.1902453E+04  0.7818609E-02  0.8653636E-01
       -1   -1    0    0    0  501  0.00000000000E+00  0.00000000000E+00  0.54749929839E+03  0.54749929841E+03  0.50400001928E-02 0. -1.
        1   -1    0    0  501    0  0.00000000000E+00  0.00000000000E+00 -0.16526637000E+04  0.16526637000E+04  0.50400001928E-02 0.  1.
    10030    2    1    2    0    0  0.00000000000E+00  0.00000000000E+00 -0.11051644016E+04  0.22001629984E+04  0.19024533805E+04 0.  0.
        1    1    3    3  502    0  0.15894254458E+03  0.58078052008E+03  0.29903810539E+03  0.67230389965E+03  0.50400001928E-02 0. -1.
       -1    1    3    3    0  502 -0.15894254458E+03 -0.58078052008E+03 -0.14042025070E+04  0.15278590988E+04  0.50400001928E-02 0.  1.
</event>
<event>
 5   0  0.2813537E-05  0.1902171E+04  0.7818609E-02  0.8653776E-01
        2   -1    0    0  501    0  0.00000000000E+00  0.00000000000E+00  0.16310055542E+04  0.16310055542E+04  0.25500000920E-02 0. -1.
       -2   -1    0    0    0  501  0.00000000000E+00  0.00000000000E+00 -0.55460500324E+03  0.55460500324E+03  0.25500000920E-02 0.  1.
    10030    2    1    2    0    0  0.00000000000E+00  0.00000000000E+00  0.10764005510E+04  0.21856105575E+04  0.19021712233E+04 0.  0.
        2    1    3    3  502    0  0.55621593554E+03 -0.66008245298E+03  0.79346096196E+02  0.86682225091E+03  0.25500000920E-02 0.  1.
       -2    1    3    3    0  502 -0.55621593554E+03  0.66008245298E+03  0.99705445479E+03  0.13187883066E+04  0.25500000920E-02 0. -1.
</event>
<event>
 5   0  0.2879462E-05  0.1925925E+04  0.7818609E-02  0.8642058E-01
       -2   -1    0    0    0  501  0.00000000000E+00  0.00000000000E+00  0.77108542027E+03  0.77108542027E+03  0.25500000920E-02 0.  1.
        2   -1    0    0  501    0  0.00000000000E+00  0.00000000000E+00 -0.12025861214E+04  0.12025861214E+04  0.25500000920E-02 0. -1.
    10030    2    1    2    0    0  0.00000000000E+00  0.00000000000E+00 -0.43150070112E+03  0.19736715417E+04  0.19259248426E+04 0.  0.
        4    1    3    3  502    0 -0.22276961215E+03 -0.64307051017E+03 -0.91391026681E+03  0.11394733739E+04  0.12699999809E+01 0. -1.
       -4    1    3    3    0  502  0.22276961215E+03  0.64307051017E+03  0.48240956569E+03  0.83419816777E+03  0.12699999809E+01 0.  1.
</event>
<event>
 5   0  0.2888776E-05  0.1899684E+04  0.7818609E-02  0.8655014E-01
       -2   -1    0    0    0  501  0.00000000000E+00  0.00000000000E+00  0.10164078220E+04  0.10164078220E+04  0.25500000920E-02 0.  1.
        2   -1    0    0  501    0  0.00000000000E+00  0.00000000000E+00 -0.88763599131E+03  0.88763599132E+03  0.25500000920E-02 0. -1.
    10030    2    1    2    0    0  0.00000000000E+00  0.00000000000E+00  0.12877183072E+03  0.19040438134E+04  0.18996843577E+04 0.  0.
        3    1    3    3  502    0 -0.76762790371E+02 -0.58573483114E+03 -0.68111013004E+03  0.90160348149E+03  0.10100000352E+00 0. -1.
       -3    1    3    3    0  502  0.76762790371E+02  0.58573483114E+03  0.80988196076E+03  0.10024403319E+04  0.10100000352E+00 0.  1.
</event>
<event>
 5   0  0.1429067E-05  0.1900777E+04  0.7818609E-02  0.8654470E-01
        1   -1    0    0  501    0  0.00000000000E+00  0.00000000000E+00  0.22821898124E+04  0.22821898124E+04  0.50400001928E-02 0. -1.
       -1   -1    0    0    0  501  0.00000000000E+00  0.00000000000E+00 -0.39577709593E+03  0.39577709597E+03  0.50400001928E-02 0.  1.
    10030    2    1    2    0    0  0.00000000000E+00  0.00000000000E+00  0.18864127164E+04  0.26779669083E+04  0.19007771635E+04 0.  0.
        3    1    3    3  502    0  0.42525356829E+03  0.33772604494E+03 -0.15566491117E+03  0.56491685543E+03  0.10100000352E+00 0.  1.
       -3    1    3    3    0  502 -0.42525356829E+03 -0.33772604494E+03  0.20420776276E+04  0.21130500529E+04  0.10100000352E+00 0. -1.
</event>
<event>
 5   0  0.2789718E-05  0.1898284E+04  0.7818609E-02  0.8655711E-01
        2   -1    0    0  501    0  0.00000000000E+00  0.00000000000E+00  0.13563022273E+04  0.13563022273E+04  0.25500000920E-02 0.  1.
       -2   -1    0    0    0  501  0.00000000000E+00  0.00000000000E+00 -0.66421048456E+03  0.66421048456E+03  0.25500000920E-02 0. -1.
    10030    2    1    2    0    0  0.00000000000E+00  0.00000000000E+00  0.69209174276E+03  0.20205127119E+04  0.18982836033E+04 0.  0.
        5    1    3    3  502    0  0.90201030392E+02  0.18810749576E+03 -0.63949319924E+03  0.67267696387E+03  0.46999998093E+01 0. -1.
       -5    1    3    3    0  502 -0.90201030392E+02 -0.18810749576E+03  0.13315849420E+04  0.13478357480E+04  0.46999998093E+01 0.  1.
</event>
<event>
 5   0  0.2813537E-05  0.1915272E+04  0.7818609E-02  0.8647292E-01
        2   -1    0    0  501    0  0.00000000000E+00  0.00000000000E+00  0.92487551456E+03  0.92487551457E+03  0.25500000920E-02 0. -1.
       -2   -1    0    0    0  501  0.00000000000E+00  0.00000000000E+00 -0.99155646136E+03  0.99155646136E+03  0.25500000920E-02 0.  1.
    10030    2    1    2    0    0  0.00000000000E+00  0.00000000000E+00 -0.66680946795E+02  0.19164319759E+04  0.19152715655E+04 0.  0.
        2    1    3    3  502    0  0.52178336286E+03  0.62590021772E+03  0.47001235115E+03  0.94070216888E+03  0.25500000920E-02 0. -1.
       -2    1    3    3    0  502 -0.52178336286E+03 -0.62590021772E+03 -0.53669329794E+03  0.97572980705E+03  0.25500000920E-02 0.  1.
</event>
<event>
 5   0  0.1429067E-05  0.1898455E+04  0.7818609E-02  0.8655626E-01
        1   -1    0    0  501    0  0.00000000000E+00  0.00000000000E+00  0.10419515212E+04  0.10419515213E+04  0.50400001928E-02 0. -1.
       -1   -1    0    0    0  501  0.00000000000E+00  0.00000000000E+00 -0.86475495403E+03  0.86475495405E+03  0.50400001928E-02 0.  1.
    10030    2    1    2    0    0  0.00000000000E+00  0.00000000000E+00  0.17719656721E+03  0.19067064753E+04  0.18984548874E+04 0.  0.
        3    1    3    3  502    0 -0.28553680261E+03 -0.12028250501E+03 -0.81253817071E+03  0.86960763320E+03  0.10100000352E+00 0.  1.
       -3    1    3    3    0  502  0.28553680261E+03  0.12028250501E+03  0.98973473792E+03  0.10370988421E+04  0.10100000352E+00 0. -1.
</event>
<event>
 5   0  0.2789718E-05  0.1898568E+04  0.7818609E-02  0.8655569E-01
        2   -1    0    0  501    0  0.00000000000E+00  0.00000000000E+00  0.69006301283E+03  0.69006301283E+03  0.25500000920E-02 0. -1.
       -2   -1    0    0    0  501  0.00000000000E+00  0.00000000000E+00 -0.13058812450E+04  0.13058812450E+04  0.25500000920E-02 0.  1.
    10030    2    1    2    0    0  0.00000000000E+00  0.00000000000E+00 -0.61581823216E+03  0.19959442578E+04  0.18985682461E+04 0.  0.
        5    1    3    3  502    0  0.41633672482E+02  0.46079694222E+03  0.56348917922E+03  0.72911544336E+03  0.46999998093E+01 0. -1.
       -5    1    3    3    0  502 -0.41633672482E+02 -0.46079694222E+03 -0.11793074114E+04  0.12668288145E+04  0.46999998093E+01 0.  1.
</event>
<event>
 5   0  0.1010725E-05  0.1927571E+04  0.7818609E-02  0.8641253E-01
        3   -1    0    0  501    0  0.00000000000E+00  0.00000000000E+00  0.95530625258E+03  0.95530625792E+03  0.10100000352E+00 0.  1.
       -3   -1    0    0    0  501  0.00000000000E+00  0.00000000000E+00 -0.97233973216E+03  0.97233973741E+03  0.10100000352E+00 0. -1.
    10030    2    1    2    0    0  0.00000000000E+00  0.00000000000E+00 -0.17033479581E+02  0.19276459953E+04  0.19275707364E+04 0.  0.
        3    1    3    3  502    0  0.83428239069E+03  0.48215999606E+03  0.10896811701E+02  0.96365145147E+03  0.10100000352E+00 0.  1.
       -3    1    3    3    0  502 -0.83428239069E+03 -0.48215999606E+03 -0.27930291282E+02  0.96399454386E+03  0.10100000352E+00 0. -1.
</event>
<event>
 5   0  0.2789718E-05  0.1900962E+04  0.7818609E-02  0.8654378E-01
       -2   -1    0    0    0  501  0.00000000000E+00  0.00000000000E+00  0.64934210024E+03  0.64934210025E+03  0.25500000920E-02 0.  1.
        2   -1    0    0  501    0  0.00000000000E+00  0.00000000000E+00 -0.13912754651E+04  0.13912754651E+04  0.25500000920E-02 0. -1.
    10030    2    1    2    0    0  0.00000000000E+00  0.00000000000E+00 -0.74193336490E+03  0.20406175654E+04  0.19009615804E+04 0.  0.
        5    1    3    3  502    0 -0.41343244962E+02 -0.91805234938E+03 -0.63140612466E+03  0.11150000737E+04  0.46999998093E+01 0. -1.
       -5    1    3    3    0  502  0.41343244962E+02  0.91805234938E+03 -0.11052724024E+03  0.92561749170E+03  0.46999998093E+01 0.  1.
</event>
<event>
 5   0  0.2855141E-05  0.1900710E+04  0.7818609E-02  0.8654503E-01
        2   -1    0    0  501    0  0.00000000000E+00  0.00000000000E+00  0.15998911848E+04  0.15998911848E+04  0.25500000920E-02 0.  1.
       -2   -1    0    0    0  501  0.00000000000E+00  0.00000000000E+00 -0.56452278357E+03  0.56452278358E+03  0.25500000920E-02 0. -1.
    10030    2    1    2    0    0  0.00000000000E+00  0.00000000000E+00  0.10353684012E+04  0.21644139684E+04  0.19007104199E+04 0.  0.
        1    1    3    3  502    0  0.26434842310E+03 -0.19508637559E+02  0.15569449962E+04  0.15793474592E+04  0.50400001928E-02 0.  1.
       -1    1    3    3    0  502 -0.26434842310E+03  0.19508637559E+02 -0.52157659495E+03  0.58506650918E+03  0.50400001928E-02 0. -1.
</event>
<event>
 5   0  0.2879462E-05  0.1898821E+04  0.7818609E-02  0.8655444E-01
       -2   -1    0    0    0  501  0.00000000000E+00  0.00000000000E+00  0.81059722800E+03  0.81059722800E+03  0.25500000920E-02 0. -1.
        2   -1    0    0  501    0  0.00000000000E+00  0.00000000000E+00 -0.11119950854E+04  0.11119950854E+04  0.25500000920E-02 0.  1.
    10030    2    1    2    0    0  0.00000000000E+00  0.00000000000E+00 -0.30139785737E+03  0.19225923134E+04  0.18988208275E+04 0.  0.
        4    1    3    3  502    0 -0.68510596610E+03  0.13376828466E+03  0.50087450964E+03  0.85915134061E+03  0.12699999809E+01 0. -1.
       -4    1    3    3    0  502  0.68510596610E+03 -0.13376828466E+03 -0.80227236701E+03  0.10634409728E+04  0.12699999809E+01 0.  1.
</event>
<event>
 5   0  0.1429067E-05  0.1904153E+04  0.7818609E-02  0.8652792E-01
       -1   -1    0    0    0  501  0.00000000000E+00  0.00000000000E+00  0.70617447570E+03  0.70617447571E+03  0.50400001928E-02 0.  1.
        1   -1    0    0  501    0  0.00000000000E+00  0.00000000000E+00 -0.12836062647E+04  0.12836062647E+04  0.50400001928E-02 0. -1.
    10030    2    1    2    0    0  0.00000000000E+00  0.00000000000E+00 -0.57743178898E+03  0.19897807404E+04  0.19041533352E+04 0.  0.
        3    1    3    3  502    0 -0.23019912058E+03  0.19173706757E+03  0.65563482460E+03  0.72084101688E+03  0.10100000352E+00 0.  1.
       -3    1    3    3    0  502  0.23019912058E+03 -0.19173706757E+03 -0.12330666136E+04  0.12689397235E+04  0.10100000352E+00 0. -1.
</event>
<event>
 5   0  0.1471485E-05  0.1900491E+04  0.7818609E-02  0.8654612E-01
       -1   -1    0    0    0  501  0.00000000000E+00  0.00000000000E+00  0.81531627734E+03  0.81531627736E+03  0.50400001928E-02 0.  1.
        1   -1    0    0  501    0  0.00000000000E+00  0.00000000000E+00 -0.11075044302E+04  0.11075044302E+04  0.50400001928E-02 0. -1.
    10030    2    1    2    0    0  0.00000000000E+00  0.00000000000E+00 -0.29218815287E+03  0.19228207076E+04  0.19004908726E+04 0.  0.
        4    1    3    3  502    0 -0.17966464286E+03  0.81567548886E+03  0.31239580523E+03  0.89173910930E+03  0.12699999809E+01 0.  1.
       -4    1    3    3    0  502  0.17966464286E+03 -0.81567548886E+03 -0.60458395810E+03  0.10310815983E+04  0.12699999809E+01 0. -1.
</event>
<event>
 5   0  0.2855141E-05  0.1900798E+04  0.7818609E-02  0.8654459E-01
        2   -1    0    0  501    0  0.00000000000E+00  0.00000000000E+00  0.15676575953E+04  0.15676575953E+04  0.25500000920E-02 0.  1.
       -2   -1    0    0    0  501  0.00000000000E+00  0.00000000000E+00 -0.57618344943E+03  0.57618344944E+03  0.25500000920E-02 0. -1.
    10030    2    1    2    0    0  0.00000000000E+00  0.00000000000E+00  0.99147414591E+03  0.21438410448E+04  0.19007981069E+04 0.  0.
        1    1    3    3  502    0  0.92399033488E+03  0.64082750493E+02  0.25543693864E+03  0.96078757669E+03  0.50400001928E-02 0. -1.
       -1    1    3    3    0  502 -0.92399033488E+03 -0.64082750493E+02  0.73603720727E+03  0.11830534681E+04  0.50400001928E-02 0.  1.
</event>
<event>
 5   0  0.1413011E-05  0.1901102E+04  0.7818609E-02  0.8654308E-01
        1   -1    0    0  501    0  0.00000000000E+00  0.00000000000E+00  0.11427918479E+04  0.11427918479E+04  0.50400001928E-02 0. -1.
       -1   -1    0    0    0  501  0.00000000000E+00  0.00000000000E+00 -0.79064915255E+03  0.79064915256E+03  0.50400001928E-02 0.  1.
    10030    2    1    2    0    0  0.00000000000E+00  0.00000000000E+00  0.35214269531E+03  0.19334410004E+04  0.19011022130E+04 0.  0.
        1    1    3    3  502    0  0.25535727649E+03  0.81150734940E+03  0.60730767196E+03  0.10452627063E+04  0.50400001928E-02 0.  1.
       -1    1    3    3    0  502 -0.25535727649E+03 -0.81150734940E+03 -0.25516497665E+03  0.88817829411E+03  0.50400001928E-02 0. -1.
</event>
<event>
 5   0  0.2879462E-05  0.1903710E+04  0.7818609E-02  0.8653012E-01
        2   -1    0    0  501    0  0.00000000000E+00  0.00000000000E+00  0.12747186216E+04  0.12747186216E+04  0.25500000920E-02 0. -1.
       -2   -1    0    0    0  501  0.00000000000E+00  0.00000000000E+00 -0.71076703363E+03  0.71076703364E+03  0.25500000920E-02 0.  1.
    10030    2    1    2    0    0  0.00000000000E+00  0.00000000000E+00  0.56395158793E+03  0.19854856552E+04  0.19037100340E+04 0.  0.
        4    1    3    3  502    0  0.38507372512E+03  0.86850688290E+03  0.34315012484E+03  0.10101186071E+04  0.12699999809E+01 0. -1.
       -4    1    3    3    0  502 -0.38507372512E+03 -0.86850688290E+03  0.22080146310E+03  0.97536704806E+03  0.12699999809E+01 0.  1.
</event>
<event>
 5   0  0.2789718E-05  0.1899527E+04  0.7818609E-02  0.8655092E-01
        2   -1    0    0  501    0  0.00000000000E+00  0.00000000000E+00  0.82893633416E+03  0.82893633416E+03  0.25500000920E-02 0. -1.
       -2   -1    0    0    0  501  0.00000000000E+00  0.00000000000E+00 -0.10882020782E+04  0.10882020782E+04  0.25500000920E-02 0.  1.
    10030    2    1    2    0    0  0.00000000000E+00  0.00000000000E+00 -0.25926574403E+03  0.19171384123E+04  0.18995265110E+04 0.  0.
        5    1    3    3  502    0 -0.43221656972E+03 -0.72631625087E+02  0.72075965098E+03  0.84356569429E+03  0.46999998093E+01 0. -1.
       -5    1    3    3    0  502  0.43221656972E+03  0.72631625087E+02 -0.98002539501E+03  0.10735727181E+04  0.46999998093E+01 0.  1.
</event>
<event>
 5   0  0.2789718E-05  0.1899534E+04  0.7818609E-02  0.8655088E-01
        2   -1    0    0  501    0  0.00000000000E+00  0.00000000000E+00  0.16611872387E+04  0.16611872387E+04  0.25500000920E-02 0.  1.
       -2   -1    0    0    0  501  0.00000000000E+00  0.00000000000E+00 -0.54301981679E+03  0.54301981680E+03  0.25500000920E-02 0. -1.
    10030    2    1    2    0    0  0.00000000000E+00  0.00000000000E+00  0.11181674219E+04  0.22042070555E+04  0.18995342482E+04 0.  0.
        5    1    3    3  502    0  0.19913749179E+03 -0.54746071101E+03  0.14295075978E+04  0.15436589756E+04  0.46999998093E+01 0.  1.
       -5    1    3    3    0  502 -0.19913749179E+03  0.54746071101E+03 -0.31134017590E+03  0.66054807990E+03  0.46999998093E+01 0. -1.
</event>
<event>
 5   0  0.1471485E-05  0.1898259E+04  0.7818609E-02  0.8655724E-01
       -1   -1    0    0    0  501  0.00000000000E+00  0.00000000000E+00  0.94327229881E+03  0.94327229882E+03  0.50400001928E-02 0. -1.
        1   -1    0    0  501    0  0.00000000000E+00  0.00000000000E+00 -0.95502279906E+03  0.95502279907E+03  0.50400001928E-02 0.  1.
    10030    2    1    2    0    0  0.00000000000E+00  0.00000000000E+00 -0.11750500250E+02  0.18982950979E+04  0.18982587296E+04 0.  0.
        4    1    3    3  502    0  0.16182318545E+03 -0.18275549239E+03  0.91134384046E+03  0.94346993688E+03  0.12699999809E+01 0. -1.
       -4    1    3    3    0  502 -0.16182318545E+03  0.18275549239E+03 -0.92309434071E+03  0.95482516101E+03  0.12699999809E+01 0.  1.
</event>
<event>
 5   0  0.1471485E-05  0.1903050E+04  0.7818609E-02  0.8653339E-01
        1   -1    0    0  501    0  0.00000000000E+00  0.00000000000E+00  0.90933412322E+03  0.90933412324E+03  0.50400001928E-02 0. -1.
       -1   -1    0    0    0  501  0.00000000000E+00  0.00000000000E+00 -0.99567391951E+03  0.99567391953E+03  0.50400001928E-02 0.  1.
    10030    2    1    2    0    0  0.00000000000E+00  0.00000000000E+00 -0.86339796290E+02  0.19050080428E+04  0.19030504677E+04 0.  0.
        4    1    3    3  502    0  0.78757016982E+03  0.26908578847E+03 -0.50486523920E+03  0.97342922527E+03  0.12699999809E+01 0.  1.
       -4    1    3    3    0  502 -0.78757016982E+03 -0.26908578847E+03  0.41852544291E+03  0.93157881750E+03  0.12699999809E+01 0. -1.
</event>
<event>
 5   0  0.1413011E-05  0.1901263E+04  0.7818609E-02  0.8654228E-01
       -1   -1    0    0    0  501  0.00000000000E+00  0.00000000000E+00  0.18071522576E+04  0.18071522576E+04  0.50400001928E-02 0. -1.
        1   -1    0    0  501    0  0.00000000000E+00  0.00000000000E+00 -0.50006881483E+03  0.50006881486E+03  0.50400001928E-02 0.  1.
    10030    2    1    2    0    0  0.00000000000E+00  0.00000000000E+00  0.13070834427E+04  0.23072210724E+04  0.19012632513E+04 0.  0.
        1    1    3    3  502    0 -0.36213310583E+03 -0.58760254315E+03 -0.13969889238E+03  0.70422504614E+03  0.50400001928E-02 0.  1.
       -1    1    3    3    0  502  0.36213310583E+03  0.58760254315E+03  0.14467823351E+04  0.16029960263E+04  0.50400001928E-02 0. -1.
</event>
<event>
 5   0  0.2789718E-05  0.1902436E+04  0.7818609E-02  0.8653645E-01
       -2   -1    0    0    0  501  0.00000000000E+00  0.00000000000E+00  0.64454722846E+03  0.64454722846E+03  0.25500000920E-02 0. -1.
        2   -1    0    0  501    0  0.00000000000E+00  0.00000000000E+00 -0.14038003427E+04  0.14038003427E+04  0.25500000920E-02 0.  1.
    10030    2    1    2    0    0  0.00000000000E+00  0.00000000000E+00 -0.75925311420E+03  0.20483475711E+04  0.19024359334E+04 0.  0.
        5    1    3    3  502    0  0.27687248707E+03 -0.91001834717E+03 -0.38105653559E+03  0.10247038302E+04  0.46999998093E+01 0. -1.
       -5    1    3    3    0  502 -0.27687248707E+03  0.91001834717E+03 -0.37819657861E+03  0.10236437409E+04  0.46999998093E+01 0.  1.
</event>
<event>
 5   0  0.2855141E-05  0.1898016E+04  0.7818609E-02  0.8655845E-01
       -2   -1    0    0    0  501  0.00000000000E+00  0.00000000000E+00  0.68590220685E+03  0.68590220686E+03  0.25500000920E-02 0. -1.
        2   -1    0    0  501    0  0.00000000000E+00  0.00000000000E+00 -0.13130384858E+04  0.13130384858E+04  0.25500000920E-02 0.  1.
    10030    2    1    2    0    0  0.00000000000E+00  0.00000000000E+00 -0.62713627894E+03  0.19989406927E+04  0.18980158009E+04 0.  0.
        1    1    3    3  502    0  0.45890978629E+03  0.30935673473E+03  0.49834370065E+03  0.74474574539E+03  0.50400001928E-02 0. -1.
       -1    1    3    3    0  502 -0.45890978629E+03 -0.30935673473E+03 -0.11254799796E+04  0.12541949473E+04  0.50400001928E-02 0.  1.
</event>
<event>
 5   0  0.2855141E-05  0.1895759E+04  0.7818609E-02  0.8656971E-01
        2   -1    0    0  501    0  0.00000000000E+00  0.00000000000E+00  0.16860600043E+04  0.16860600043E+04  0.25500000920E-02 0. -1.
       -2   -1    0    0    0  501  0.00000000000E+00  0.00000000000E+00 -0.53288441687E+03  0.53288441687E+03  0.25500000920E-02 0.  1.
    10030    2    1    2    0    0  0.00000000000E+00  0.00000000000E+00  0.11531755874E+04  0.22189444212E+04  0.18957585312E+04 0.  0.
        1    1    3    3  502    0  0.89340844662E+03 -0.23482836827E+03  0.32787259782E+03  0.98021602490E+03  0.50400001928E-02 0.  1.
       -1    1    3    3    0  502 -0.89340844662E+03  0.23482836827E+03  0.82530298960E+03  0.12387283963E+04  0.50400001928E-02 0. -1.
</event>
<event>
 5   0  0.2855141E-05  0.1894901E+04  0.7818609E-02  0.8657399E-01
        2   -1    0    0  501    0  0.00000000000E+00  0.00000000000E+00  0.11988178621E+04  0.11988178621E+04  0.25500000920E-02 0. -1.
       -2   -1    0    0    0  501  0.00000000000E+00  0.00000000000E+00 -0.74878981737E+03  0.74878981737E+03  0.25500000920E-02 0.  1.
    10030    2    1    2    0    0  0.00000000000E+00  0.00000000000E+00  0.45002804473E+03  0.19476076795E+04  0.18949011668E+04 0.  0.
        1    1    3    3  502    0 -0.68102603722E+03 -0.59988171730E+03  0.50462515201E+03  0.10384127706E+04  0.50400001928E-02 0. -1.
       -1    1    3    3    0  502  0.68102603722E+03  0.59988171730E+03 -0.54597107280E+02  0.90919490885E+03  0.50400001928E-02 0.  1.
</event>
<event>
 5   0  0.1344119E-05  0.1907155E+04  0.7818609E-02  0.8651303E-01
        1   -1    0    0  501    0  0.00000000000E+00  0.00000000000E+00  0.97731776254E+03  0.97731776255E+03  0.50400001928E-02 0.  1.
       -1   -1    0    0    0  501  0.00000000000E+00  0.00000000000E+00 -0.93041354591E+03  0.93041354592E+03  0.50400001928E-02 0. -1.
    10030    2    1    2    0    0  0.00000000000E+00  0.00000000000E+00  0.46904216631E+02  0.19077313085E+04  0.19071546187E+04 0.  0.
        2    1    3    3  502    0  0.80163716822E+02 -0.44997568270E+03 -0.81370318957E+03  0.93328303169E+03  0.25500000920E-02 0. -1.
       -2    1    3    3    0  502 -0.80163716822E+02  0.44997568270E+03  0.86060740620E+03  0.97444827679E+03  0.25500000920E-02 0.  1.
</event>
<event>
 5   0  0.1327254E-05  0.1899356E+04  0.7818609E-02  0.8655177E-01
       -1   -1    0    0    0  501  0.00000000000E+00  0.00000000000E+00  0.13824491286E+04  0.13824491286E+04  0.50400001928E-02 0.  1.
        1   -1    0    0  501    0  0.00000000000E+00  0.00000000000E+00 -0.65238450946E+03  0.65238450948E+03  0.50400001928E-02 0. -1.
    10030    2    1    2    0    0  0.00000000000E+00  0.00000000000E+00  0.73006461917E+03  0.20348336381E+04  0.18993560979E+04 0.  0.
        5    1    3    3  502    0 -0.87949314813E+03 -0.66086242358E+02  0.74227175681E+03  0.11527640869E+04  0.46999998093E+01 0.  1.
       -5    1    3    3    0  502  0.87949314813E+03  0.66086242358E+02 -0.12207137633E+02  0.88206955125E+03  0.46999998093E+01 0. -1.
</event>
<event>
 5   0  0.2789718E-05  0.1901364E+04  0.7818609E-02  0.8654178E-01
       -2   -1    0    0    0  501  0.00000000000E+00  0.00000000000E+00  0.83586836275E+03  0.83586836275E+03  0.25500000920E-02 0.  1.
        2   -1    0    0  501    0  0.00000000000E+00  0.00000000000E+00 -0.10812661655E+04  0.10812661655E+04  0.25500000920E-02 0. -1.
    10030    2    1    2    0    0  0.00000000000E+00  0.00000000000E+00 -0.24539780272E+03  0.19171345282E+04  0.19013639099E+04 0.  0.
        5    1    3    3  502    0  0.94186877487E+03 -0.11404092693E+03 -0.61766150460E+02  0.95076772633E+03  0.46999998093E+01 0. -1.
       -5    1    3    3    0  502 -0.94186877487E+03  0.11404092693E+03 -0.18363165226E+03  0.96636680189E+03  0.46999998093E+01 0.  1.
</event>
<event>
 5   0  0.1471485E-05  0.1901402E+04  0.7818609E-02  0.8654159E-01
        1   -1    0    0  501    0  0.00000000000E+00  0.00000000000E+00  0.13788819022E+04  0.13788819023E+04  0.50400001928E-02 0.  1.
       -1   -1    0    0    0  501  0.00000000000E+00  0.00000000000E+00 -0.65548175253E+03  0.65548175255E+03  0.50400001928E-02 0. -1.
    10030    2    1    2    0    0  0.00000000000E+00  0.00000000000E+00  0.72340014972E+03  0.20343636548E+04  0.19014015103E+04 0.  0.
        4    1    3    3  502    0  0.30503926188E+03 -0.89222080020E+03  0.49152524137E+03  0.10633464080E+04  0.12699999809E+01 0.  1.
       -4    1    3    3    0  502 -0.30503926188E+03  0.89222080020E+03  0.23187490835E+03  0.97101724682E+03  0.12699999809E+01 0. -1.
</event>
<event>
 5   0  0.2813537E-05  0.1900931E+04  0.7818609E-02  0.8654393E-01
       -2   -1    0    0    0  501  0.00000000000E+00  0.00000000000E+00  0.20997268299E+04  0.20997268299E+04  0.25500000920E-02 0.  1.
        2   -1    0    0  501    0  0.00000000000E+00  0.00000000000E+00 -0.43023907383E+03  0.43023907384E+03  0.25500000920E-02 0. -1.
    10030    2    1    2    0    0  0.00000000000E+00  0.00000000000E+00  0.16694877561E+04  0.25299659037E+04  0.19009308526E+04 0.  0.
        2    1    3    3  502    0  0.26320266126E+03 -0.71714123053E+03  0.15874047738E+04  0.17616529458E+04  0.25500000920E-02 0.  1.
       -2    1    3    3    0  502 -0.26320266126E+03  0.71714123053E+03  0.82082982284E+02  0.76831295799E+03  0.25500000920E-02 0. -1.
</event>
<event>
 5   0  0.1413011E-05  0.1898071E+04  0.7818609E-02  0.8655817E-01
        1   -1    0    0  501    0  0.00000000000E+00  0.00000000000E+00  0.93471195741E+03  0.93471195743E+03  0.50400001928E-02 0. -1.
       -1   -1    0    0    0  501  0.00000000000E+00  0.00000000000E+00 -0.96357876321E+03  0.96357876322E+03  0.50400001928E-02 0.  1.
    10030    2    1    2    0    0  0.00000000000E+00  0.00000000000E+00 -0.28866805797E+02  0.18982907206E+04  0.18980712230E+04 0.  0.
        1    1    3    3  502    0 -0.33158446053E+02  0.47697298097E+03 -0.83432445204E+03  0.96161322704E+03  0.50400001928E-02 0.  1.
       -1    1    3    3    0  502  0.33158446053E+02 -0.47697298097E+03  0.80545764624E+03  0.93667749361E+03  0.50400001928E-02 0. -1.
</event>
<event>
 5   0  0.2888776E-05  0.1903574E+04  0.7818609E-02  0.8653079E-01
       -2   -1    0    0    0  501  0.00000000000E+00  0.00000000000E+00  0.34681340577E+03  0.34681340578E+03  0.25500000920E-02 0.  1.
        2   -1    0    0  501    0  0.00000000000E+00  0.00000000000E+00 -0.26120631156E+04  0.26120631156E+04  0.25500000920E-02 0. -1.
    10030    2    1    2    0    0  0.00000000000E+00  0.00000000000E+00 -0.22652497098E+04  0.29588765214E+04  0.19035740125E+04 0.  0.
        3    1    3    3  502    0 -0.68691484624E+03 -0.29194444047E+03 -0.20506500678E+04  0.21822578383E+04  0.10100000352E+00 0. -1.
       -3    1    3    3    0  502  0.68691484624E+03  0.29194444047E+03 -0.21459964207E+03  0.77661868306E+03  0.10100000352E+00 0.  1.
</event>
<event>
 5   0  0.2789718E-05  0.1899186E+04  0.7818609E-02  0.8655262E-01
       -2   -1    0    0    0  501  0.00000000000E+00  0.00000000000E+00  0.52251325778E+03  0.52251325779E+03  0.25500000920E-02 0.  1.
        2   -1    0    0  501    0  0.00000000000E+00  0.00000000000E+00 -0.17257491327E+04  0.17257491327E+04  0.25500000920E-02 0. -1.
    10030    2    1    2    0    0  0.00000000000E+00  0.00000000000E+00 -0.12032358749E+04  0.22482623905E+04  0.18991859324E+04 0.  0.
        5    1    3    3  502    0  0.50496983141E+03  0.68874976650E+03 -0.11018425495E+03  0.86112335442E+03  0.46999998093E+01 0.  1.
       -5    1    3    3    0  502 -0.50496983141E+03 -0.68874976650E+03 -0.10930516200E+04  0.13871390361E+04  0.46999998093E+01 0. -1.
</event>
<event>
 5   0  0.1413011E-05  0.1898099E+04  0.7818609E-02  0.8655803E-01
       -1   -1    0    0    0  501  0.00000000000E+00  0.00000000000E+00  0.57326122076E+03  0.57326122078E+03  0.50400001928E-02 0. -1.
        1   -1    0    0  501    0  0.00000000000E+00  0.00000000000E+00 -0.15711767279E+04  0.15711767279E+04  0.50400001928E-02 0.  1.
    10030    2    1    2    0    0  0.00000000000E+00  0.00000000000E+00 -0.99791550715E+03  0.21444379487E+04  0.18980987215E+04 0.  0.
        1    1    3    3  502    0 -0.50181145750E+03  0.77049249516E+03 -0.76444756766E+03  0.11957648212E+04  0.50400001928E-02 0.  1.
       -1    1    3    3    0  502  0.50181145750E+03 -0.77049249516E+03 -0.23346793949E+03  0.94867312747E+03  0.50400001928E-02 0. -1.
</event>
<event>
 5   0  0.1471485E-05  0.1887343E+04  0.7818609E-02  0.8661182E-01
        1   -1    0    0  501    0  0.00000000000E+00  0.00000000000E+00  0.21247846168E+04  0.21247846168E+04  0.50400001928E-02 0.  1.
       -1   -1    0    0    0  501  0.00000000000E+00  0.00000000000E+00 -0.41910868118E+03  0.41910868121E+03  0.50400001928E-02 0. -1.
    10030    2    1    2    0    0  0.00000000000E+00  0.00000000000E+00  0.17056759356E+04  0.25438932980E+04  0.18873427654E+04 0.  0.
        4    1    3    3  502    0 -0.26167473739E+03  0.34414102181E+03  0.19834491997E+04  0.20300194708E+04  0.12699999809E+01 0.  1.
       -4    1    3    3    0  502  0.26167473739E+03 -0.34414102181E+03 -0.27777326414E+03  0.51387382717E+03  0.12699999809E+01 0. -1.
</event>
<event>
 5   0  0.1010725E-05  0.1900646E+04  0.7818609E-02  0.8654535E-01
        3   -1    0    0  501    0  0.00000000000E+00  0.00000000000E+00  0.90204422361E+03  0.90204422926E+03  0.10100000352E+00 0. -1.
       -3   -1    0    0    0  501  0.00000000000E+00  0.00000000000E+00 -0.10011856863E+04  0.10011856914E+04  0.10100000352E+00 0.  1.
    10030    2    1    2    0    0  0.00000000000E+00  0.00000000000E+00 -0.99141462696E+02  0.19032299207E+04  0.19006459695E+04 0.  0.
        1    1    3    3  502    0 -0.90071852134E+03  0.24740526976E+03 -0.22476730812E+03  0.96074115402E+03  0.50400001928E-02 0. -1.
       -1    1    3    3    0  502  0.90071852134E+03 -0.24740526976E+03  0.12562584543E+03  0.94248876665E+03  0.50400001928E-02 0.  1.
</event>
<event>
 5   0  0.1327254E-05  0.1898324E+04  0.7818609E-02  0.8655691E-01
        1   -1    0    0  501    0  0.00000000000E+00  0.00000000000E+00  0.85941282411E+03  0.85941282413E+03  0.50400001928E-02 0. -1.
       -1   -1    0    0    0  501  0.00000000000E+00  0.00000000000E+00 -0.10482834912E+04  0.10482834912E+04  0.50400001928E-02 0.  1.
    10030    2    1    2    0    0  0.00000000000E+00  0.00000000000E+00 -0.18887066704E+03  0.19076963153E+04  0.18983237612E+04 0.  0.
        5    1    3    3  502    0  0.10946088750E+03  0.20299022006E+03  0.83081641169E+03  0.86224399985E+03  0.46999998093E+01 0. -1.
       -5    1    3    3    0  502 -0.10946088750E+03 -0.20299022006E+03 -0.10196870787E+04  0.10454523154E+04  0.46999998093E+01 0.  1.
</event>
<event>
 5   0  0.2789718E-05  0.1898833E+04  0.7818609E-02  0.8655438E-01
        2   -1    0    0  501    0  0.00000000000E+00  0.00000000000E+00  0.21861618382E+04  0.21861618382E+04  0.25500000920E-02 0.  1.
       -2   -1    0    0    0  501  0.00000000000E+00  0.00000000000E+00 -0.41231679152E+03  0.41231679153E+03  0.25500000920E-02 0. -1.
    10030    2    1    2    0    0  0.00000000000E+00  0.00000000000E+00  0.17738450467E+04  0.25984786298E+04  0.18988325201E+04 0.  0.
        5    1    3    3  502    0  0.65729028847E+03  0.39452238397E+03  0.16533716208E+04  0.18224539065E+04  0.46999998093E+01 0.  1.
       -5    1    3    3    0  502 -0.65729028847E+03 -0.39452238397E+03  0.12047342589E+03  0.77602472327E+03  0.46999998093E+01 0. -1.
</event>
<event>
 5   0  0.2789718E-05  0.1895095E+04  0.7818609E-02  0.8657302E-01
       -2   -1    0    0    0  501  0.00000000000E+00  0.00000000000E+00  0.65568603534E+03  0.65568603535E+03  0.25500000920E-02 0.  1.
        2   -1    0    0  501    0  0.00000000000E+00  0.00000000000E+00 -0.13693238862E+04  0.13693238862E+04  0.25500000920E-02 0. -1.
    10030    2    1    2    0    0  0.00000000000E+00  0.00000000000E+00 -0.71363785082E+03  0.20250099215E+04  0.18950953011E+04 0.  0.
        5    1    3    3  502    0 -0.34804140633E+02  0.40434867298E+03 -0.12717370626E+04  0.13349331159E+04  0.46999998093E+01 0. -1.
       -5    1    3    3    0  502  0.34804140633E+02 -0.40434867298E+03  0.55809921174E+03  0.69007680565E+03  0.46999998093E+01 0.  1.
</event>
<event>
 5   0  0.2789718E-05  0.1899986E+04  0.7818609E-02  0.8654863E-01
        2   -1    0    0  501    0  0.00000000000E+00  0.00000000000E+00  0.16228709140E+04  0.16228709140E+04  0.25500000920E-02 0. -1.
       -2   -1    0    0    0  501  0.00000000000E+00  0.00000000000E+00 -0.55610529993E+03  0.55610529994E+03  0.25500000920E-02 0.  1.
    10030    2    1    2    0    0  0.00000000000E+00  0.00000000000E+00  0.10667656141E+04  0.21789762140E+04  0.18999864383E+04 0.  0.
        5    1    3    3  502    0 -0.69336620801E+03  0.54075744572E+03  0.12101573992E+03  0.88760476160E+03  0.46999998093E+01 0.  1.
       -5    1    3    3    0  502  0.69336620801E+03 -0.54075744572E+03  0.94574987420E+03  0.12913714524E+04  0.46999998093E+01 0. -1.
</event>
<event>
 5   0  0.2789718E-05  0.1896816E+04  0.7818609E-02  0.8656443E-01
        2   -1    0    0  501    0  0.00000000000E+00  0.00000000000E+00  0.13112944239E+04  0.13112944239E+04  0.25500000920E-02 0.  1.
       -2   -1    0    0    0  501  0.00000000000E+00  0.00000000000E+00 -0.68594673244E+03  0.68594673245E+03  0.25500000920E-02 0. -1.
    10030    2    1    2    0    0  0.00000000000E+00  0.00000000000E+00  0.62534769150E+03  0.19972411564E+04  0.18968164122E+04 0.  0.
        5    1    3    3  502    0  0.22112186769E+03  0.52305010914E+03  0.11124813771E+04  0.12490449157E+04  0.46999998093E+01 0.  1.
       -5    1    3    3    0  502 -0.22112186769E+03 -0.52305010914E+03 -0.48713368556E+03  0.74819624073E+03  0.46999998093E+01 0. -1.
</event>
<event>
 5   0  0.1344119E-05  0.1899014E+04  0.7818609E-02  0.8655347E-01
       -1   -1    0    0    0  501  0.00000000000E+00  0.00000000000E+00  0.55804876128E+03  0.55804876130E+03  0.50400001928E-02 0. -1.
        1   -1    0    0  501    0  0.00000000000E+00  0.00000000000E+00 -0.16155640456E+04  0.16155640456E+04  0.50400001928E-02 0.  1.
    10030    2    1    2    0    0  0.00000000000E+00  0.00000000000E+00 -0.10575152843E+04  0.21736128069E+04  0.18990139699E+04 0.  0.
        2    1    3    3  502    0 -0.40895731294E+03 -0.34260278935E+03 -0.14277908973E+04  0.15242078603E+04  0.25500000920E-02 0.  1.
       -2    1    3    3    0  502  0.40895731294E+03  0.34260278935E+03  0.37027561297E+03  0.64940494658E+03  0.25500000920E-02 0. -1.
</event>
<event>
 5   0  0.2888776E-05  0.1896876E+04  0.7818609E-02  0.8656413E-01
       -2   -1    0    0    0  501  0.00000000000E+00  0.00000000000E+00  0.42091018592E+03  0.42091018593E+03  0.25500000920E-02 0. -1.
        2   -1    0    0  501    0  0.00000000000E+00  0.00000000000E+00 -0.21371188340E+04  0.21371188340E+04  0.25500000920E-02 0.  1.
    10030    2    1    2    0    0  0.00000000000E+00  0.00000000000E+00 -0.17162086481E+04  0.25580290199E+04  0.18968764702E+04 0.  0.
        3    1    3    3  502    0 -0.26386749052E+03 -0.76405596768E+03 -0.18907294274E+03  0.83015430022E+03  0.10100000352E+00 0. -1.
       -3    1    3    3    0  502  0.26386749052E+03  0.76405596768E+03 -0.15271357053E+04  0.17278747197E+04  0.10100000352E+00 0.  1.
</event>
<event>
 5   0  0.2879462E-05  0.1903238E+04  0.7818609E-02  0.8653246E-01
       -2   -1    0    0    0  501  0.00000000000E+00  0.00000000000E+00  0.11977006342E+04  0.11977006342E+04  0.25500000920E-02 0. -1.
        2   -1    0    0  501    0  0.00000000000E+00  0.00000000000E+00 -0.75609765571E+03  0.75609765572E+03  0.25500000920E-02 0.  1.
    10030    2    1    2    0    0  0.00000000000E+00  0.00000000000E+00  0.44160297853E+03  0.19537982900E+04  0.19032379166E+04 0.  0.
        4    1    3    3  502    0  0.84463492467E+02  0.60775559803E+03 -0.52589774798E+03  0.80812808559E+03  0.12699999809E+01 0.  1.
       -4    1    3    3    0  502 -0.84463492467E+02 -0.60775559803E+03  0.96750072650E+03  0.11456702044E+04  0.12699999809E+01 0. -1.
</event>
<event>
 5   0  0.2888776E-05  0.1892306E+04  0.7818609E-02  0.8658696E-01
       -2   -1    0    0    0  501  0.00000000000E+00  0.00000000000E+00  0.34591250957E+03  0.34591250958E+03  0.25500000920E-02 0.  1.
        2   -1    0    0  501    0  0.00000000000E+00  0.00000000000E+00 -0.25879533417E+04  0.25879533417E+04  0.25500000920E-02 0. -1.
    10030    2    1    2    0    0  0.00000000000E+00  0.00000000000E+00 -0.22420408322E+04  0.29338658513E+04  0.18923059320E+04 0.  0.
        3    1    3    3  502    0  0.71123538683E+02  0.85901658079E+03 -0.17259565876E+04  0.19292211373E+04  0.10100000352E+00 0. -1.
       -3    1    3    3    0  502 -0.71123538683E+02 -0.85901658079E+03 -0.51608424451E+03  0.10046447140E+04  0.10100000352E+00 0.  1.
</event>
<event>
 5   0  0.1344119E-05  0.1903523E+04  0.7818609E-02  0.8653105E-01
        1   -1    0    0  501    0  0.00000000000E+00  0.00000000000E+00  0.20756755099E+04  0.20756755099E+04  0.50400001928E-02 0. -1.
       -1   -1    0    0    0  501  0.00000000000E+00  0.00000000000E+00 -0.43641224566E+03  0.43641224569E+03  0.50400001928E-02 0.  1.
    10030    2    1    2    0    0  0.00000000000E+00  0.00000000000E+00  0.16392632642E+04  0.25120877556E+04  0.19035232708E+04 0.  0.
        2    1    3    3  502    0  0.80846327946E+02 -0.44720982841E+03 -0.28397372313E+03  0.53588602781E+03  0.25500000920E-02 0.  1.
       -2    1    3    3    0  502 -0.80846327946E+02  0.44720982841E+03  0.19232369873E+04  0.19762017278E+04  0.25500000920E-02 0. -1.
</event>
<event>
 5   0  0.2813537E-05  0.1902967E+04  0.7818609E-02  0.8653381E-01
       -2   -1    0    0    0  501  0.00000000000E+00  0.00000000000E+00  0.16704797963E+04  0.16704797963E+04  0.25500000920E-02 0. -1.
        2   -1    0    0  501    0  0.00000000000E+00  0.00000000000E+00 -0.54195281177E+03  0.54195281177E+03  0.25500000920E-02 0.  1.
    10030    2    1    2    0    0  0.00000000000E+00  0.00000000000E+00  0.11285269845E+04  0.22124326081E+04  0.19029673908E+04 0.  0.
        2    1    3    3  502    0  0.69436130487E+03  0.89972119216E+02  0.13133105755E+04  0.14882934091E+04  0.25500000920E-02 0. -1.
       -2    1    3    3    0  502 -0.69436130487E+03 -0.89972119216E+02 -0.18478359098E+03  0.72413919894E+03  0.25500000920E-02 0.  1.
</event>
<event>
 5   0  0.1471485E-05  0.1898410E+04  0.7818609E-02  0.8655648E-01
        1   -1    0    0  501    0  0.00000000000E+00  0.00000000000E+00  0.63136014410E+03  0.63136014412E+03  0.50400001928E-02 0. -1.
       -1   -1    0    0    0  501  0.00000000000E+00  0.00000000000E+00 -0.14270614017E+04  0.14270614017E+04  0.50400001928E-02 0.  1.
    10030    2    1    2    0    0  0.00000000000E+00  0.00000000000E+00 -0.79570125764E+03  0.20584215459E+04  0.18984095367E+04 0.  0.
        4    1    3    3  502    0 -0.15320388834E+03 -0.25564880875E+03  0.57930851350E+03  0.65148116744E+03  0.12699999809E+01 0. -1.
       -4    1    3    3    0  502  0.15320388834E+03  0.25564880875E+03 -0.13750097711E+04  0.14069403784E+04  0.12699999809E+01 0.  1.
</event>
<event>
 5   0  0.1471485E-05  0.1902846E+04  0.7818609E-02  0.8653441E-01
       -1   -1    0    0    0  501  0.00000000000E+00  0.00000000000E+00  0.91935364263E+03  0.91935364264E+03  0.50400001928E-02 0.  1.
        1   -1    0    0  501    0  0.00000000000E+00  0.00000000000E+00 -0.98461106140E+03  0.98461106142E+03  0.50400001928E-02 0. -1.
    10030    2    1    2    0    0  0.00000000000E+00  0.00000000000E+00 -0.65257418775E+02  0.19039647041E+04  0.19028460431E+04 0.  0.
        4    1    3    3  502    0  0.74656720378E+03  0.51724681090E+03  0.25090566119E+03  0.94226435615E+03  0.12699999809E+01 0.  1.
       -4    1    3    3    0  502 -0.74656720378E+03 -0.51724681090E+03 -0.31616307997E+03  0.96170034791E+03  0.12699999809E+01 0. -1.
</event>
<event>
 5   0  0.2879462E-05  0.1900893E+04  0.7818609E-02  0.8654412E-01
        2   -1    0    0  501    0  0.00000000000E+00  0.00000000000E+00  0.99595484581E+03  0.99595484581E+03  0.25500000920E-02 0.  1.
       -2   -1    0    0    0  501  0.00000000000E+00  0.00000000000E+00 -0.90701803972E+03  0.90701803973E+03  0.25500000920E-02 0. -1.
    10030    2    1    2    0    0  0.00000000000E+00  0.00000000000E+00  0.88936806085E+02  0.19029728855E+04  0.19008934867E+04 0.  0.
        4    1    3    3  502    0 -0.61441846617E+03  0.47267076190E+03 -0.50606015900E+03  0.92575709458E+03  0.12699999809E+01 0. -1.
       -4    1    3    3    0  502  0.61441846617E+03 -0.47267076190E+03  0.59499696509E+03  0.97721579096E+03  0.12699999809E+01 0.  1.
</event>
<event>
 5   0  0.1327254E-05  0.1882581E+04  0.7818609E-02  0.8663576E-01
       -1   -1    0    0    0  501  0.00000000000E+00  0.00000000000E+00  0.56358074250E+03  0.56358074252E+03  0.50400001928E-02 0. -1.
        1   -1    0    0  501    0  0.00000000000E+00  0.00000000000E+00 -0.15721398828E+04  0.15721398828E+04  0.50400001928E-02 0.  1.
    10030    2    1    2    0    0  0.00000000000E+00  0.00000000000E+00 -0.10085591403E+04  0.21357206253E+04  0.18825809544E+04 0.  0.
        5    1    3    3  502    0 -0.59556810808E+03  0.47784517256E+03 -0.11287176369E+04  0.13627409783E+04  0.46999998093E+01 0.  1.
       -5    1    3    3    0  502  0.59556810808E+03 -0.47784517256E+03  0.12015849660E+03  0.77297964695E+03  0.46999998093E+01 0. -1.
</event>
<event>
 5   0  0.1344119E-05  0.1914026E+04  0.7818609E-02  0.8647906E-01
        1   -1    0    0  501    0  0.00000000000E+00  0.00000000000E+00  0.10623688499E+04  0.10623688499E+04  0.50400001928E-02 0.  1.
       -1   -1    0    0    0  501  0.00000000000E+00  0.00000000000E+00 -0.86210574082E+03  0.86210574084E+03  0.50400001928E-02 0. -1.
    10030    2    1    2    0    0  0.00000000000E+00  0.00000000000E+00  0.20026310904E+03  0.19244745907E+04  0.19140264203E+04 0.  0.
        2    1    3    3  502    0  0.28502527643E+03  0.24922129675E+02 -0.81809714365E+03  0.86668532767E+03  0.25500000920E-02 0. -1.
       -2    1    3    3    0  502 -0.28502527643E+03 -0.24922129675E+02  0.10183602527E+04  0.10577892630E+04  0.25500000920E-02 0.  1.
</event>
<event>
 5   0  0.2888776E-05  0.1903709E+04  0.7818609E-02  0.8653012E-01
       -2   -1    0    0    0  501  0.00000000000E+00  0.00000000000E+00  0.71518267427E+03  0.71518267428E+03  0.25500000920E-02 0.  1.
        2   -1    0    0  501    0  0.00000000000E+00  0.00000000000E+00 -0.12668467479E+04  0.12668467479E+04  0.25500000920E-02 0. -1.
    10030    2    1    2    0    0  0.00000000000E+00  0.00000000000E+00 -0.55166407359E+03  0.19820294221E+04  0.19037088486E+04 0.  0.
        3    1    3    3  502    0 -0.61850491173E+03 -0.71438678557E+03 -0.39513257994E+03  0.10242199818E+04  0.10100000352E+00 0.  1.
       -3    1    3    3    0  502  0.61850491173E+03  0.71438678557E+03 -0.15653149365E+03  0.95780944031E+03  0.10100000352E+00 0. -1.
</event>
<event>
 5   0  0.2888776E-05  0.1902690E+04  0.7818609E-02  0.8653519E-01
        2   -1    0    0  501    0  0.00000000000E+00  0.00000000000E+00  0.14883421627E+04  0.14883421627E+04  0.25500000920E-02 0. -1.
       -2   -1    0    0    0  501  0.00000000000E+00  0.00000000000E+00 -0.60809738537E+03  0.60809738538E+03  0.25500000920E-02 0.  1.
    10030    2    1    2    0    0  0.00000000000E+00  0.00000000000E+00  0.88024477728E+03  0.20964395480E+04  0.19026896517E+04 0.  0.
        3    1    3    3  502    0 -0.20226774100E+03  0.56202177909E+03  0.12559795008E+04  0.13907786437E+04  0.10100000352E+00 0. -1.
       -3    1    3    3    0  502  0.20226774100E+03 -0.56202177909E+03 -0.37573472351E+03  0.70566090431E+03  0.10100000352E+00 0.  1.
</event>
<event>
 5   0  0.2879462E-05  0.1904070E+04  0.7818609E-02  0.8652833E-01
       -2   -1    0    0    0  501  0.00000000000E+00  0.00000000000E+00  0.85803707825E+03  0.85803707825E+03  0.25500000920E-02 0. -1.
        2   -1    0    0  501    0  0.00000000000E+00  0.00000000000E+00 -0.10563298422E+04  0.10563298422E+04  0.25500000920E-02 0.  1.
    10030    2    1    2    0    0  0.00000000000E+00  0.00000000000E+00 -0.19829276398E+03  0.19143669205E+04  0.19040695066E+04 0.  0.
        4    1    3    3  502    0 -0.84579527441E+03 -0.25392242933E+03  0.25847703091E+03  0.92014033426E+03  0.12699999809E+01 0. -1.
       -4    1    3    3    0  502  0.84579527441E+03  0.25392242933E+03 -0.45676979489E+03  0.99422658622E+03  0.12699999809E+01 0.  1.
</event>
<event>
 5   0  0.1413011E-05  0.1868486E+04  0.7818609E-02  0.8670704E-01
        1   -1    0    0  501    0  0.00000000000E+00  0.00000000000E+00  0.11113381418E+04  0.11113381418E+04  0.50400001928E-02 0. -1.
       -1   -1    0    0    0  501  0.00000000000E+00  0.00000000000E+00 -0.78536881404E+03  0.78536881406E+03  0.50400001928E-02 0.  1.
    10030    2    1    2    0    0  0.00000000000E+00  0.00000000000E+00  0.32596932776E+03  0.18967069559E+04  0.18684863590E+04 0.  0.
        1    1    3    3  502    0  0.36874905391E+03 -0.54933843057E+03 -0.50656955780E+03  0.83328344096E+03  0.50400001928E-02 0.  1.
       -1    1    3    3    0  502 -0.36874905391E+03  0.54933843057E+03  0.83253888556E+03  0.10634235149E+04  0.50400001928E-02 0. -1.
</event>
<event>
 5   0  0.2879462E-05  0.1902240E+04  0.7818609E-02  0.8653742E-01
        2   -1    0    0  501    0  0.00000000000E+00  0.00000000000E+00  0.21125905670E+04  0.21125905670E+04  0.25500000920E-02 0.  1.
       -2   -1    0    0    0  501  0.00000000000E+00  0.00000000000E+00 -0.42820841591E+03  0.42820841591E+03  0.25500000920E-02 0. -1.
    10030    2    1    2    0    0  0.00000000000E+00  0.00000000000E+00  0.16843821511E+04  0.25407989829E+04  0.19022397958E+04 0.  0.
        4    1    3    3  502    0  0.77000889069E+03 -0.43354456616E+03  0.13120664386E+04  0.15818958673E+04  0.12699999809E+01 0.  1.
       -4    1    3    3    0  502 -0.77000889069E+03  0.43354456616E+03  0.37231571248E+03  0.95890311567E+03  0.12699999809E+01 0. -1.
</event>
<event>
 5   0  0.1429067E-05  0.1897629E+04  0.7818609E-02  0.8656037E-01
       -1   -1    0    0    0  501  0.00000000000E+00  0.00000000000E+00  0.30923469477E+03  0.30923469481E+03  0.50400001928E-02 0.  1.
        1   -1    0    0  501    0  0.00000000000E+00  0.00000000000E+00 -0.29112166201E+04  0.29112166201E+04  0.50400001928E-02 0. -1.
    10030    2    1    2    0    0  0.00000000000E+00  0.00000000000E+00 -0.26019819253E+04  0.32204513149E+04  0.18976292399E+04 0.  0.
        3    1    3    3  502    0  0.14387125201E+03 -0.15149762908E+03  0.26971206540E+03  0.34116722761E+03  0.10100000352E+00 0.  1.
       -3    1    3    3    0  502 -0.14387125201E+03  0.15149762908E+03 -0.28716939907E+04  0.28792840873E+04  0.10100000352E+00 0. -1.
</event>
<event>
 5   0  0.2888776E-05  0.1902153E+04  0.7818609E-02  0.8653786E-01
        2   -1    0    0  501    0  0.00000000000E+00  0.00000000000E+00  0.11483484122E+04  0.11483484122E+04  0.25500000920E-02 0. -1.
       -2   -1    0    0    0  501  0.00000000000E+00  0.00000000000E+00 -0.78769331938E+03  0.78769331938E+03  0.25500000920E-02 0.  1.
    10030    2    1    2    0    0  0.00000000000E+00  0.00000000000E+00  0.36065509284E+03  0.19360417316E+04  0.19021528568E+04 0.  0.
        3    1    3    3  502    0  0.77262305535E+03 -0.18486365928E+03  0.71254453332E+03  0.10671647859E+04  0.10100000352E+00 0. -1.
       -3    1    3    3    0  502 -0.77262305535E+03  0.18486365928E+03 -0.35188944049E+03  0.86887694566E+03  0.10100000352E+00 0.  1.
</event>
<event>
 5   0  0.2789718E-05  0.1897946E+04  0.7818609E-02  0.8655879E-01
       -2   -1    0    0    0  501  0.00000000000E+00  0.00000000000E+00  0.64928957097E+03  0.64928957098E+03  0.25500000920E-02 0. -1.
        2   -1    0    0  501    0  0.00000000000E+00  0.00000000000E+00 -0.13869772236E+04  0.13869772236E+04  0.25500000920E-02 0.  1.
    10030    2    1    2    0    0  0.00000000000E+00  0.00000000000E+00 -0.73768765263E+03  0.20362667946E+04  0.18979460967E+04 0.  0.
        5    1    3    3  502    0 -0.15415163070E+03  0.87821858468E+03 -0.20369195672E+02  0.89188990456E+03  0.46999998093E+01 0. -1.
       -5    1    3    3    0  502  0.15415163070E+03 -0.87821858468E+03 -0.71731845696E+03  0.11443768900E+04  0.46999998093E+01 0.  1.
</event>
<event>
 5   0  0.1413011E-05  0.1900102E+04  0.7818609E-02  0.8654805E-01
        1   -1    0    0  501    0  0.00000000000E+00  0.00000000000E+00  0.79387936214E+03  0.79387936215E+03  0.50400001928E-02 0.  1.
       -1   -1    0    0    0  501  0.00000000000E+00  0.00000000000E+00 -0.11369449467E+04  0.11369449467E+04  0.50400001928E-02 0. -1.
    10030    2    1    2    0    0  0.00000000000E+00  0.00000000000E+00 -0.34306558459E+03  0.19308243089E+04  0.19001022384E+04 0.  0.
        1    1    3    3  502    0 -0.23588353886E+03  0.57220426690E+03 -0.90397708415E+03  0.10955516125E+04  0.50400001928E-02 0. -1.
       -1    1    3    3    0  502  0.23588353886E+03 -0.57220426690E+03  0.56091149956E+03  0.83527269639E+03  0.50400001928E-02 0.  1.
</event>
<event>
 5   0  0.1413011E-05  0.1897038E+04  0.7818609E-02  0.8656332E-01
       -1   -1    0    0    0  501  0.00000000000E+00  0.00000000000E+00  0.12131090012E+04  0.12131090012E+04  0.50400001928E-02 0.  1.
        1   -1    0    0  501    0  0.00000000000E+00  0.00000000000E+00 -0.74163829760E+03  0.74163829762E+03  0.50400001928E-02 0. -1.
    10030    2    1    2    0    0  0.00000000000E+00  0.00000000000E+00  0.47147070359E+03  0.19547472988E+04  0.18970377903E+04 0.  0.
        1    1    3    3  502    0  0.28695412856E+03 -0.20852584253E+03 -0.67072019521E+03  0.75874322349E+03  0.50400001928E-02 0. -1.
       -1    1    3    3    0  502 -0.28695412856E+03  0.20852584253E+03  0.11421908988E+04  0.11960040753E+04  0.50400001928E-02 0.  1.
</event>
<event>
 5   0  0.2855141E-05  0.1897007E+04  0.7818609E-02  0.8656348E-01
        2   -1    0    0  501    0  0.00000000000E+00  0.00000000000E+00  0.22046470349E+04  0.22046470349E+04  0.25500000920E-02 0. -1.
       -2   -1    0    0    0  501  0.00000000000E+00  0.00000000000E+00 -0.40807381777E+03  0.40807381778E+03  0.25500000920E-02 0.  1.
    10030    2    1    2    0    0  0.00000000000E+00  0.00000000000E+00  0.17965732172E+04  0.26127208527E+04  0.18970068344E+04 0.  0.
        1    1    3    3  502    0  0.85300807551E+03  0.41462266233E+03  0.88294959347E+03  0.12958143052E+04  0.50400001928E-02 0.  1.
       -1    1    3    3    0  502 -0.85300807551E+03 -0.41462266233E+03  0.91362362370E+03  0.13169065475E+04  0.50400001928E-02 0. -1.
</event>
<event>
 5   0  0.1471485E-05  0.1899023E+04  0.7818609E-02  0.8655343E-01
       -1   -1    0    0    0  501  0.00000000000E+00  0.00000000000E+00  0.59463147069E+03  0.59463147071E+03  0.50400001928E-02 0. -1.
        1   -1    0    0  501    0  0.00000000000E+00  0.00000000000E+00 -0.15161859174E+04  0.15161859174E+04  0.50400001928E-02 0.  1.
    10030    2    1    2    0    0  0.00000000000E+00  0.00000000000E+00 -0.92155444672E+03  0.21108173881E+04  0.18990227613E+04 0.  0.
        4    1    3    3  502    0  0.34638068060E+03 -0.13670766465E+03  0.51007869123E+03  0.63154607561E+03  0.12699999809E+01 0. -1.
       -4    1    3    3    0  502 -0.34638068060E+03  0.13670766465E+03 -0.14316331379E+04  0.14792713125E+04  0.12699999809E+01 0.  1.
</event>
<event>
 5   0  0.2789718E-05  0.1916063E+04  0.7818609E-02  0.8646902E-01
        2   -1    0    0  501    0  0.00000000000E+00  0.00000000000E+00  0.12570138399E+04  0.12570138399E+04  0.25500000920E-02 0.  1.
       -2   -1    0    0    0  501  0.00000000000E+00  0.00000000000E+00 -0.73016216844E+03  0.73016216844E+03  0.25500000920E-02 0. -1.
    10030    2    1    2    0    0  0.00000000000E+00  0.00000000000E+00  0.52685167151E+03  0.19871760084E+04  0.19160625784E+04 0.  0.
        5    1    3    3  502    0  0.69071404543E+03  0.58351339064E+03  0.59176400829E+03  0.10806389319E+04  0.46999998093E+01 0.  1.
       -5    1    3    3    0  502 -0.69071404543E+03 -0.58351339064E+03 -0.64912336779E+02  0.90653707650E+03  0.46999998093E+01 0. -1.
</event>
<event>
 5   0  0.1344119E-05  0.1898435E+04  0.7818609E-02  0.8655636E-01
       -1   -1    0    0    0  501  0.00000000000E+00  0.00000000000E+00  0.56420646285E+03  0.56420646287E+03  0.50400001928E-02 0.  1.
        1   -1    0    0  501    0  0.00000000000E+00  0.00000000000E+00 -0.15969583995E+04  0.15969583996E+04  0.50400001928E-02 0. -1.
    10030    2    1    2    0    0  0.00000000000E+00  0.00000000000E+00 -0.10327519367E+04  0.21611648624E+04  0.18984354084E+04 0.  0.
        2    1    3    3  502    0 -0.45353910142E+03 -0.73415094099E+03 -0.66258736807E+02  0.86548572540E+03  0.25500000920E-02 0.  1.
       -2    1    3    3    0  502  0.45353910142E+03  0.73415094099E+03 -0.96649319989E+03  0.12956791370E+04  0.25500000920E-02 0. -1.
</event>
<event>
 5   0  0.1327254E-05  0.1897844E+04  0.7818609E-02  0.8655930E-01
       -1   -1    0    0    0  501  0.00000000000E+00  0.00000000000E+00  0.13680059069E+04  0.13680059069E+04  0.50400001928E-02 0.  1.
        1   -1    0    0  501    0  0.00000000000E+00  0.00000000000E+00 -0.65822282680E+03  0.65822282682E+03  0.50400001928E-02 0. -1.
    10030    2    1    2    0    0  0.00000000000E+00  0.00000000000E+00  0.70978308013E+03  0.20262287338E+04  0.18978437398E+04 0.  0.
        5    1    3    3  502    0  0.15780295749E+02  0.55865620720E+03  0.11736353201E+04  0.12999183552E+04  0.46999998093E+01 0.  1.
       -5    1    3    3    0  502 -0.15780295749E+02 -0.55865620720E+03 -0.46385223993E+03  0.72631037860E+03  0.46999998093E+01 0. -1.
</event>
<event>
 5   0  0.1429067E-05  0.1894027E+04  0.7818609E-02  0.8657835E-01
       -1   -1    0    0    0  501  0.00000000000E+00  0.00000000000E+00  0.56141364098E+03  0.56141364101E+03  0.50400001928E-02 0.  1.
        1   -1    0    0  501    0  0.00000000000E+00  0.00000000000E+00 -0.15974585731E+04  0.15974585731E+04  0.50400001928E-02 0. -1.
    10030    2    1    2    0    0  0.00000000000E+00  0.00000000000E+00 -0.10360449321E+04  0.21588722141E+04  0.18940274907E+04 0.  0.
        3    1    3    3  502    0 -0.47052892165E+03  0.23924989186E+03 -0.14142207780E+04  0.15095225722E+04  0.10100000352E+00 0. -1.
       -3    1    3    3    0  502  0.47052892165E+03 -0.23924989186E+03  0.37817584587E+03  0.64934964192E+03  0.10100000352E+00 0.  1.
</event>
<event>
 5   0  0.2789718E-05  0.1921118E+04  0.7818609E-02  0.8644415E-01
        2   -1    0    0  501    0  0.00000000000E+00  0.00000000000E+00  0.35728581928E+03  0.35728581929E+03  0.25500000920E-02 0.  1.
       -2   -1    0    0    0  501  0.00000000000E+00  0.00000000000E+00 -0.25824529543E+04  0.25824529543E+04  0.25500000920E-02 0. -1.
    10030    2    1    2    0    0  0.00000000000E+00  0.00000000000E+00 -0.22251671351E+04  0.29397387736E+04  0.19211182364E+04 0.  0.
        5    1    3    3  502    0  0.67694632221E+03 -0.68101782181E+03 -0.11503813942E+04  0.14984795757E+04  0.46999998093E+01 0.  1.
       -5    1    3    3    0  502 -0.67694632221E+03  0.68101782181E+03 -0.10747857409E+04  0.14412591979E+04  0.46999998093E+01 0. -1.
</event>
<event>
 5   0  0.1344119E-05  0.1907118E+04  0.7818609E-02  0.8651321E-01
       -1   -1    0    0    0  501  0.00000000000E+00  0.00000000000E+00  0.52109898664E+03  0.52109898667E+03  0.50400001928E-02 0. -1.
        1   -1    0    0  501    0  0.00000000000E+00  0.00000000000E+00 -0.17449182164E+04  0.17449182164E+04  0.50400001928E-02 0.  1.
    10030    2    1    2    0    0  0.00000000000E+00  0.00000000000E+00 -0.12238192298E+04  0.22660172031E+04  0.19071183648E+04 0.  0.
        2    1    3    3  502    0 -0.21798942839E+02 -0.44051080157E+03 -0.16164390871E+04  0.16755298513E+04  0.25500000920E-02 0.  1.
       -2    1    3    3    0  502  0.21798942839E+02  0.44051080157E+03  0.39261985736E+03  0.59048735178E+03  0.25500000920E-02 0. -1.
</event>
<event>
 5   0  0.1429067E-05  0.1906311E+04  0.7818609E-02  0.8651721E-01
       -1   -1    0    0    0  501  0.00000000000E+00  0.00000000000E+00  0.75240244439E+03  0.75240244441E+03  0.50400001928E-02 0.  1.
        1   -1    0    0  501    0  0.00000000000E+00  0.00000000000E+00 -0.12074731486E+04  0.12074731487E+04  0.50400001928E-02 0. -1.
    10030    2    1    2    0    0  0.00000000000E+00  0.00000000000E+00 -0.45507070426E+03  0.19598755931E+04  0.19063113582E+04 0.  0.
        3    1    3    3  502    0 -0.50562010166E+03 -0.62731099236E+03  0.29602314289E+03  0.85837082876E+03  0.10100000352E+00 0.  1.
       -3    1    3    3    0  502  0.50562010166E+03  0.62731099236E+03 -0.75109384715E+03  0.11015047643E+04  0.10100000352E+00 0. -1.
</event>
<event>
 5   0  0.2789718E-05  0.1896602E+04  0.7818609E-02  0.8656550E-01
       -2   -1    0    0    0  501  0.00000000000E+00  0.00000000000E+00  0.66215093624E+03  0.66215093624E+03  0.25500000920E-02 0.  1.
        2   -1    0    0  501    0  0.00000000000E+00  0.00000000000E+00 -0.13581111974E+04  0.13581111974E+04  0.25500000920E-02 0. -1.
    10030    2    1    2    0    0  0.00000000000E+00  0.00000000000E+00 -0.69596026119E+03  0.20202621337E+04  0.18966018042E+04 0.  0.
        5    1    3    3  502    0  0.39573523321E+03  0.66656271880E+03 -0.92979860805E+03  0.12105617599E+04  0.46999998093E+01 0. -1.
       -5    1    3    3    0  502 -0.39573523321E+03 -0.66656271880E+03  0.23383834685E+03  0.80970037382E+03  0.46999998093E+01 0.  1.
</event>
<event>
 5   0  0.2789718E-05  0.1895490E+04  0.7818609E-02  0.8657105E-01
        2   -1    0    0  501    0  0.00000000000E+00  0.00000000000E+00  0.10732886562E+04  0.10732886562E+04  0.25500000920E-02 0.  1.
       -2   -1    0    0    0  501  0.00000000000E+00  0.00000000000E+00 -0.83688636075E+03  0.83688636075E+03  0.25500000920E-02 0. -1.
    10030    2    1    2    0    0  0.00000000000E+00  0.00000000000E+00  0.23640229546E+03  0.19101750170E+04  0.18954900554E+04 0.  0.
        5    1    3    3  502    0 -0.85502761073E+02 -0.26122721158E+03 -0.79582520694E+03  0.84196806841E+03  0.46999998093E+01 0. -1.
       -5    1    3    3    0  502  0.85502761073E+02  0.26122721158E+03  0.10322275024E+04  0.10682069486E+04  0.46999998093E+01 0.  1.
</event>
<event>
 5   0  0.2855141E-05  0.1899592E+04  0.7818609E-02  0.8655060E-01
        2   -1    0    0  501    0  0.00000000000E+00  0.00000000000E+00  0.12684525762E+04  0.12684525762E+04  0.25500000920E-02 0.  1.
       -2   -1    0    0    0  501  0.00000000000E+00  0.00000000000E+00 -0.71119126966E+03  0.71119126967E+03  0.25500000920E-02 0. -1.
    10030    2    1    2    0    0  0.00000000000E+00  0.00000000000E+00  0.55726130656E+03  0.19796438459E+04  0.18995919543E+04 0.  0.
        1    1    3    3  502    0 -0.34313072873E+03 -0.87455569540E+03  0.13300637212E+03  0.94882930836E+03  0.50400001928E-02 0. -1.
       -1    1    3    3    0  502  0.34313072873E+03  0.87455569540E+03  0.42425493443E+03  0.10308145375E+04  0.50400001928E-02 0.  1.
</event>
<event>
 5   0  0.1471485E-05  0.1904526E+04  0.7818609E-02  0.8652607E-01
       -1   -1    0    0    0  501  0.00000000000E+00  0.00000000000E+00  0.40652317536E+03  0.40652317539E+03  0.50400001928E-02 0.  1.
        1   -1    0    0  501    0  0.00000000000E+00  0.00000000000E+00 -0.22306354675E+04  0.22306354675E+04  0.50400001928E-02 0. -1.
    10030    2    1    2    0    0  0.00000000000E+00  0.00000000000E+00 -0.18241122922E+04  0.26371586429E+04  0.19045262018E+04 0.  0.
        4    1    3    3  502    0  0.85057335400E+03  0.39527593678E+03 -0.11399413664E+04  0.14762066347E+04  0.12699999809E+01 0. -1.
       -4    1    3    3    0  502 -0.85057335400E+03 -0.39527593678E+03 -0.68417092576E+03  0.11609520082E+04  0.12699999809E+01 0.  1.
</event>
<event>
 5   0  0.1327254E-05  0.1901252E+04  0.7818609E-02  0.8654233E-01
       -1   -1    0    0    0  501  0.00000000000E+00  0.00000000000E+00  0.64176846554E+03  0.64176846556E+03  0.50400001928E-02 0.  1.
        1   -1    0    0  501    0  0.00000000000E+00  0.00000000000E+00 -0.14081244796E+04  0.14081244796E+04  0.50400001928E-02 0. -1.
    10030    2    1    2    0    0  0.00000000000E+00  0.00000000000E+00 -0.76635601409E+03  0.20498929452E+04  0.19012520997E+04 0.  0.
        5    1    3    3  502    0 -0.54082458882E+03 -0.44772232804E+03 -0.10741573677E+04  0.12832702987E+04  0.46999998093E+01 0. -1.
       -5    1    3    3    0  502  0.54082458882E+03  0.44772232804E+03  0.30780135360E+03  0.76662264653E+03  0.46999998093E+01 0.  1.
</event>
<event>
 5   0  0.1429067E-05  0.1900250E+04  0.7818609E-02  0.8654732E-01
        1   -1    0    0  501    0  0.00000000000E+00  0.00000000000E+00  0.61673906778E+03  0.61673906780E+03  0.50400001928E-02 0. -1.
       -1   -1    0    0    0  501  0.00000000000E+00  0.00000000000E+00 -0.14637260607E+04  0.14637260607E+04  0.50400001928E-02 0.  1.
    10030    2    1    2    0    0  0.00000000000E+00  0.00000000000E+00 -0.84698699290E+03  0.20804651285E+04  0.19002495059E+04 0.  0.
        3    1    3    3  502    0 -0.70824734645E+03  0.63315933875E+03 -0.40681799875E+03  0.10334437316E+04  0.10100000352E+00 0. -1.
       -3    1    3    3    0  502  0.70824734645E+03 -0.63315933875E+03 -0.44016899415E+03  0.10470213969E+04  0.10100000352E+00 0.  1.
</event>
<event>
 5   0  0.2813537E-05  0.1900128E+04  0.7818609E-02  0.8654793E-01
        2   -1    0    0  501    0  0.00000000000E+00  0.00000000000E+00  0.20364079832E+04  0.20364079832E+04  0.25500000920E-02 0. -1.
       -2   -1    0    0    0  501  0.00000000000E+00  0.00000000000E+00 -0.44324181957E+03  0.44324181958E+03  0.25500000920E-02 0.  1.
    10030    2    1    2    0    0  0.00000000000E+00  0.00000000000E+00  0.15931661636E+04  0.24796498028E+04  0.19001275535E+04 0.  0.
        2    1    3    3  502    0  0.43753202829E+03  0.53308021221E+03 -0.56178906908E+02  0.69192836191E+03  0.25500000920E-02 0.  1.
       -2    1    3    3    0  502 -0.43753202829E+03 -0.53308021221E+03  0.16493450705E+04  0.17877214409E+04  0.25500000920E-02 0. -1.
</event>
<event>
 5   0  0.1429067E-05  0.1900256E+04  0.7818609E-02  0.8654729E-01
        1   -1    0    0  501    0  0.00000000000E+00  0.00000000000E+00  0.96969645742E+03  0.96969645743E+03  0.50400001928E-02 0. -1.
       -1   -1    0    0    0  501  0.00000000000E+00  0.00000000000E+00 -0.93095431850E+03  0.93095431851E+03  0.50400001928E-02 0.  1.
    10030    2    1    2    0    0  0.00000000000E+00  0.00000000000E+00  0.38742138922E+02  0.19006507759E+04  0.19002558824E+04 0.  0.
        3    1    3    3  502    0 -0.19404461259E+03  0.83249150564E+03  0.43424356791E+03  0.95878199040E+03  0.10100000352E+00 0. -1.
       -3    1    3    3    0  502  0.19404461259E+03 -0.83249150564E+03 -0.39550142899E+03  0.94186878554E+03  0.10100000352E+00 0.  1.
</event>
<event>
 5   0  0.1344119E-05  0.1892370E+04  0.7818609E-02  0.8658664E-01
        1   -1    0    0  501    0  0.00000000000E+00  0.00000000000E+00  0.21908223120E+04  0.21908223120E+04  0.50400001928E-02 0. -1.
       -1   -1    0    0    0  501  0.00000000000E+00  0.00000000000E+00 -0.40864383647E+03  0.40864383650E+03  0.50400001928E-02 0.  1.
    10030    2    1    2    0    0  0.00000000000E+00  0.00000000000E+00  0.17821784755E+04  0.25994661485E+04  0.18923699793E+04 0.  0.
        2    1    3    3  502    0  0.51058627457E+02 -0.51826894768E+03  0.19762398492E+04  0.20437058563E+04  0.25500000920E-02 0. -1.
       -2    1    3    3    0  502 -0.51058627457E+02  0.51826894768E+03 -0.19406137371E+03  0.55576029216E+03  0.25500000920E-02 0.  1.
</event>
<event>
 5   0  0.1471485E-05  0.1897534E+04  0.7818609E-02  0.8656085E-01
       -1   -1    0    0    0  501  0.00000000000E+00  0.00000000000E+00  0.58117218319E+03  0.58117218321E+03  0.50400001928E-02 0.  1.
        1   -1    0    0  501    0  0.00000000000E+00  0.00000000000E+00 -0.15488679413E+04  0.15488679413E+04  0.50400001928E-02 0. -1.
    10030    2    1    2    0    0  0.00000000000E+00  0.00000000000E+00 -0.96769575814E+03  0.21300401245E+04  0.18975341504E+04 0.  0.
        4    1    3    3  502    0 -0.53202125472E+03 -0.71890349729E+03 -0.12836086276E+03  0.90351921833E+03  0.12699999809E+01 0. -1.
       -4    1    3    3    0  502  0.53202125472E+03  0.71890349729E+03 -0.83933489538E+03  0.12265209062E+04  0.12699999809E+01 0.  1.
</event>
<event>
 5   0  0.2888776E-05  0.1899045E+04  0.7818609E-02  0.8655332E-01
       -2   -1    0    0    0  501  0.00000000000E+00  0.00000000000E+00  0.22968777806E+04  0.22968777806E+04  0.25500000920E-02 0. -1.
        2   -1    0    0  501    0  0.00000000000E+00  0.00000000000E+00 -0.39252972883E+03  0.39252972884E+03  0.25500000920E-02 0.  1.
    10030    2    1    2    0    0  0.00000000000E+00  0.00000000000E+00  0.19043480518E+04  0.26894075094E+04  0.18990448256E+04 0.  0.
        3    1    3    3  502    0 -0.38830287476E+02  0.58371147179E+03  0.20113531244E+04  0.20947000441E+04  0.10100000352E+00 0. -1.
       -3    1    3    3    0  502  0.38830287476E+02 -0.58371147179E+03 -0.10700507266E+03  0.59470746531E+03  0.10100000352E+00 0.  1.
</event>
<event>
 5   0  0.2888776E-05  0.1903108E+04  0.7818609E-02  0.8653311E-01
       -2   -1    0    0    0  501  0.00000000000E+00  0.00000000000E+00  0.41959993228E+03  0.41959993228E+03  0.25500000920E-02 0.  1.
        2   -1    0    0  501    0  0.00000000000E+00  0.00000000000E+00 -0.21579006411E+04  0.21579006411E+04  0.25500000920E-02 0. -1.
    10030    2    1    2    0    0  0.00000000000E+00  0.00000000000E+00 -0.17383007088E+04  0.25775005734E+04  0.19031079453E+04 0.  0.
        3    1    3    3  502    0 -0.44097925912E+03  0.46738627341E+03  0.81360592068E+02  0.64771304733E+03  0.10100000352E+00 0.  1.
       -3    1    3    3    0  502  0.44097925912E+03 -0.46738627341E+03 -0.18196613009E+04  0.19297875260E+04  0.10100000352E+00 0. -1.
</event>
<event>
 5   0  0.1344119E-05  0.1905817E+04  0.7818609E-02  0.8651966E-01
        1   -1    0    0  501    0  0.00000000000E+00  0.00000000000E+00  0.16173424882E+04  0.16173424882E+04  0.50400001928E-02 0.  1.
       -1   -1    0    0    0  501  0.00000000000E+00  0.00000000000E+00 -0.56143633728E+03  0.56143633730E+03  0.50400001928E-02 0. -1.
    10030    2    1    2    0    0  0.00000000000E+00  0.00000000000E+00  0.10559061509E+04  0.21787788255E+04  0.19058172449E+04 0.  0.
        2    1    3    3  502    0  0.73125423103E+03  0.54510961603E+03  0.21246095648E+03  0.93649180558E+03  0.25500000920E-02 0. -1.
       -2    1    3    3    0  502 -0.73125423103E+03 -0.54510961603E+03  0.84344519447E+03  0.12422870200E+04  0.25500000920E-02 0.  1.
</event>
<event>
 5   0  0.1327254E-05  0.1903175E+04  0.7818609E-02  0.8653277E-01
        1   -1    0    0  501    0  0.00000000000E+00  0.00000000000E+00  0.12871898765E+04  0.12871898765E+04  0.50400001928E-02 0. -1.
       -1   -1    0    0    0  501  0.00000000000E+00  0.00000000000E+00 -0.70348515982E+03  0.70348515984E+03  0.50400001928E-02 0.  1.
    10030    2    1    2    0    0  0.00000000000E+00  0.00000000000E+00  0.58370471669E+03  0.19906750364E+04  0.19031752163E+04 0.  0.
        5    1    3    3  502    0  0.54879155231E+03  0.40941344962E+03  0.98307165006E+03  0.11980164856E+04  0.46999998093E+01 0. -1.
       -5    1    3    3    0  502 -0.54879155231E+03 -0.40941344962E+03 -0.39936693337E+03  0.79265855076E+03  0.46999998093E+01 0.  1.
</event>
<event>
 5   0  0.2789718E-05  0.1902718E+04  0.7818609E-02  0.8653505E-01
       -2   -1    0    0    0  501  0.00000000000E+00  0.00000000000E+00  0.10317458452E+04  0.10317458452E+04  0.25500000920E-02 0.  1.
        2   -1    0    0  501    0  0.00000000000E+00  0.00000000000E+00 -0.87723512915E+03  0.87723512915E+03  0.25500000920E-02 0. -1.
    10030    2    1    2    0    0  0.00000000000E+00  0.00000000000E+00  0.15451071608E+03  0.19089809744E+04  0.19027177403E+04 0.  0.
        5    1    3    3  502    0 -0.69053200291E+03 -0.65357833472E+03  0.44551692448E+02  0.95184349026E+03  0.46999998093E+01 0. -1.
       -5    1    3    3    0  502  0.69053200291E+03  0.65357833472E+03  0.10995902363E+03  0.95713748413E+03  0.46999998093E+01 0.  1.
</event>
<event>
 5   0  0.2855141E-05  0.1904664E+04  0.7818609E-02  0.8652538E-01
       -2   -1    0    0    0  501  0.00000000000E+00  0.00000000000E+00  0.42283328986E+03  0.42283328987E+03  0.25500000920E-02 0. -1.
        2   -1    0    0  501    0  0.00000000000E+00  0.00000000000E+00 -0.21449017101E+04  0.21449017101E+04  0.25500000920E-02 0.  1.
    10030    2    1    2    0    0  0.00000000000E+00  0.00000000000E+00 -0.17220684202E+04  0.25677349999E+04  0.19046635887E+04 0.  0.
        1    1    3    3  502    0  0.30463768772E+03 -0.23915993910E+03 -0.20339342459E+04  0.20704806480E+04  0.50400001928E-02 0.  1.
       -1    1    3    3    0  502 -0.30463768772E+03  0.23915993910E+03  0.31186582567E+03  0.49725435192E+03  0.50400001928E-02 0. -1.
</event>
<event>
 5   0  0.1010725E-05  0.1897797E+04  0.7818609E-02  0.8655954E-01
       -3   -1    0    0    0  501  0.00000000000E+00  0.00000000000E+00  0.11940666448E+04  0.11940666491E+04  0.10100000352E+00 0. -1.
        3   -1    0    0  501    0  0.00000000000E+00  0.00000000000E+00 -0.75406863863E+03  0.75406864539E+03  0.10100000352E+00 0.  1.
    10030    2    1    2    0    0  0.00000000000E+00  0.00000000000E+00  0.43999800616E+03  0.19481352944E+04  0.18977968490E+04 0.  0.
        1    1    3    3  502    0  0.84520471176E+03  0.27878002092E+03  0.55784715233E+03  0.10503726721E+04  0.50400001928E-02 0. -1.
       -1    1    3    3    0  502 -0.84520471176E+03 -0.27878002092E+03 -0.11784914617E+03  0.89776262237E+03  0.50400001928E-02 0.  1.
</event>
<event>
 5   0  0.1471485E-05  0.1903101E+04  0.7818609E-02  0.8653314E-01
       -1   -1    0    0    0  501  0.00000000000E+00  0.00000000000E+00  0.53395818493E+03  0.53395818496E+03  0.50400001928E-02 0.  1.
        1   -1    0    0  501    0  0.00000000000E+00  0.00000000000E+00 -0.16957291772E+04  0.16957291772E+04  0.50400001928E-02 0. -1.
    10030    2    1    2    0    0  0.00000000000E+00  0.00000000000E+00 -0.11617709923E+04  0.22296873622E+04  0.19031011257E+04 0.  0.
        4    1    3    3  502    0  0.13554486174E+03  0.90203823541E+03 -0.26346534514E+03  0.94945299445E+03  0.12699999809E+01 0.  1.
       -4    1    3    3    0  502 -0.13554486174E+03 -0.90203823541E+03 -0.89830564713E+03  0.12802343677E+04  0.12699999809E+01 0. -1.
</event>
<event>
 5   0  0.2879462E-05  0.1899643E+04  0.7818609E-02  0.8655034E-01
       -2   -1    0    0    0  501  0.00000000000E+00  0.00000000000E+00  0.84373535522E+03  0.84373535522E+03  0.25500000920E-02 0. -1.
        2   -1    0    0  501    0  0.00000000000E+00  0.00000000000E+00 -0.10692468223E+04  0.10692468223E+04  0.25500000920E-02 0.  1.
    10030    2    1    2    0    0  0.00000000000E+00  0.00000000000E+00 -0.22551146707E+03  0.19129821775E+04  0.18996434902E+04 0.  0.
        4    1    3    3  502    0  0.12459490418E+02 -0.58504454001E+03  0.64064683545E+03  0.86767639899E+03  0.12699999809E+01 0. -1.
       -4    1    3    3    0  502 -0.12459490418E+02  0.58504454001E+03 -0.86615830252E+03  0.10453057785E+04  0.12699999809E+01 0.  1.
</event>
<event>
 5   0  0.2888776E-05  0.1900599E+04  0.7818609E-02  0.8654558E-01
       -2   -1    0    0    0  501  0.00000000000E+00  0.00000000000E+00  0.71819258842E+03  0.71819258842E+03  0.25500000920E-02 0.  1.
        2   -1    0    0  501    0  0.00000000000E+00  0.00000000000E+00 -0.12574193394E+04  0.12574193395E+04  0.25500000920E-02 0. -1.
    10030    2    1    2    0    0  0.00000000000E+00  0.00000000000E+00 -0.53922675103E+03  0.19756119279E+04  0.19005991162E+04 0.  0.
        3    1    3    3  502    0  0.90533858623E+03 -0.28530160974E+03 -0.31649644332E+03  0.10006023051E+04  0.10100000352E+00 0. -1.
       -3    1    3    3    0  502 -0.90533858623E+03  0.28530160974E+03 -0.22273030771E+03  0.97500962273E+03  0.10100000352E+00 0.  1.
</event>
<event>
 5   0  0.2789718E-05  0.1910705E+04  0.7818609E-02  0.8649546E-01
        2   -1    0    0  501    0  0.00000000000E+00  0.00000000000E+00  0.16704759109E+04  0.16704759109E+04  0.25500000920E-02 0. -1.
       -2   -1    0    0    0  501  0.00000000000E+00  0.00000000000E+00 -0.54637026529E+03  0.54637026529E+03  0.25500000920E-02 0.  1.
    10030    2    1    2    0    0  0.00000000000E+00  0.00000000000E+00  0.11241056456E+04  0.22168461762E+04  0.19107049658E+04 0.  0.
        5    1    3    3  502    0 -0.18314490044E+03  0.90484455477E+03  0.27693364324E+03  0.96384648965E+03  0.46999998093E+01 0.  1.
       -5    1    3    3    0  502  0.18314490044E+03 -0.90484455477E+03  0.84717200234E+03  0.12529996865E+04  0.46999998093E+01 0. -1.
</event>
<event>
 5   0  0.2789718E-05  0.1897476E+04  0.7818609E-02  0.8656114E-01
       -2   -1    0    0    0  501  0.00000000000E+00  0.00000000000E+00  0.56533342516E+03  0.56533342516E+03  0.25500000920E-02 0.  1.
        2   -1    0    0  501    0  0.00000000000E+00  0.00000000000E+00 -0.15921643917E+04  0.15921643917E+04  0.25500000920E-02 0. -1.
    10030    2    1    2    0    0  0.00000000000E+00  0.00000000000E+00 -0.10268309665E+04  0.21574978168E+04  0.18974759539E+04 0.  0.
        5    1    3    3  502    0 -0.66115992606E+03 -0.66134389823E+03 -0.69524685876E+03  0.11652890132E+04  0.46999998093E+01 0. -1.
       -5    1    3    3    0  502  0.66115992606E+03  0.66134389823E+03 -0.33158410773E+03  0.99220880366E+03  0.46999998093E+01 0.  1.
</event>
<event>
 5   0  0.2789718E-05  0.1907242E+04  0.7818609E-02  0.8651260E-01
        2   -1    0    0  501    0  0.00000000000E+00  0.00000000000E+00  0.98394378148E+03  0.98394378148E+03  0.25500000920E-02 0. -1.
       -2   -1    0    0    0  501  0.00000000000E+00  0.00000000000E+00 -0.92423311568E+03  0.92423311568E+03  0.25500000920E-02 0.  1.
    10030    2    1    2    0    0  0.00000000000E+00  0.00000000000E+00  0.59710665800E+02  0.19081768972E+04  0.19072424354E+04 0.  0.
        5    1    3    3  502    0  0.84294693966E+02 -0.66835957961E+03  0.70513877821E+03  0.97521941615E+03  0.46999998093E+01 0. -1.
       -5    1    3    3    0  502 -0.84294693966E+02  0.66835957961E+03 -0.64542811241E+03  0.93295748101E+03  0.46999998093E+01 0.  1.
</event>
<event>
 5   0  0.1327254E-05  0.1901040E+04  0.7818609E-02  0.8654339E-01
       -1   -1    0    0    0  501  0.00000000000E+00  0.00000000000E+00  0.74128583560E+03  0.74128583562E+03  0.50400001928E-02 0.  1.
        1   -1    0    0  501    0  0.00000000000E+00  0.00000000000E+00 -0.12188118567E+04  0.12188118567E+04  0.50400001928E-02 0. -1.
    10030    2    1    2    0    0  0.00000000000E+00  0.00000000000E+00 -0.47752602113E+03  0.19600976924E+04  0.19010396794E+04 0.  0.
        5    1    3    3  502    0 -0.55884661689E+03 -0.29651849753E+03 -0.97019026942E+03  0.11582417750E+04  0.46999998093E+01 0. -1.
       -5    1    3    3    0  502  0.55884661689E+03  0.29651849753E+03  0.49266424829E+03  0.80185591731E+03  0.46999998093E+01 0.  1.
</event>
<event>
 5   0  0.2855141E-05  0.1900403E+04  0.7818609E-02  0.8654656E-01
       -2   -1    0    0    0  501  0.00000000000E+00  0.00000000000E+00  0.79354270544E+03  0.79354270544E+03  0.25500000920E-02 0. -1.
        2   -1    0    0  501    0  0.00000000000E+00  0.00000000000E+00 -0.11377873835E+04  0.11377873835E+04  0.25500000920E-02 0.  1.
    10030    2    1    2    0    0  0.00000000000E+00  0.00000000000E+00 -0.34424467802E+03  0.19313300889E+04  0.19004029873E+04 0.  0.
        1    1    3    3  502    0  0.52071015400E+03  0.74972642918E+03  0.96093320613E+02  0.91785767381E+03  0.50400001928E-02 0. -1.
       -1    1    3    3    0  502 -0.52071015400E+03 -0.74972642918E+03 -0.44033799863E+03  0.10134724151E+04  0.50400001928E-02 0.  1.
</event>
<event>
 5   0  0.1344119E-05  0.1895431E+04  0.7818609E-02  0.8657134E-01
       -1   -1    0    0    0  501  0.00000000000E+00  0.00000000000E+00  0.15393591728E+04  0.15393591728E+04  0.50400001928E-02 0.  1.
        1   -1    0    0  501    0  0.00000000000E+00  0.00000000000E+00 -0.58346631648E+03  0.58346631650E+03  0.50400001928E-02 0. -1.
    10030    2    1    2    0    0  0.00000000000E+00  0.00000000000E+00  0.95589285632E+03  0.21228254893E+04  0.18954305330E+04 0.  0.
        2    1    3    3  502    0  0.79943533122E+03 -0.36568112331E+03  0.87446122433E+03  0.12399604694E+04  0.25500000920E-02 0.  1.
       -2    1    3    3    0  502 -0.79943533122E+03  0.36568112331E+03  0.81431631989E+02  0.88286501994E+03  0.25500000920E-02 0. -1.
</event>
<event>
 5   0  0.1471485E-05  0.1900291E+04  0.7818609E-02  0.8654711E-01
       -1   -1    0    0    0  501  0.00000000000E+00  0.00000000000E+00  0.12626287477E+04  0.12626287477E+04  0.50400001928E-02 0.  1.
        1   -1    0    0  501    0  0.00000000000E+00  0.00000000000E+00 -0.71499789287E+03  0.71499789288E+03  0.50400001928E-02 0. -1.
    10030    2    1    2    0    0  0.00000000000E+00  0.00000000000E+00  0.54763085485E+03  0.19776266406E+04  0.19002914451E+04 0.  0.
        4    1    3    3  502    0  0.38831458698E+03 -0.19767633105E+03 -0.60488692358E+03  0.74548907004E+03  0.12699999809E+01 0. -1.
       -4    1    3    3    0  502 -0.38831458698E+03  0.19767633105E+03  0.11525177784E+04  0.12321375706E+04  0.12699999809E+01 0.  1.
</event>
<event>
 5   0  0.1429067E-05  0.1896891E+04  0.7818609E-02  0.8656405E-01
       -1   -1    0    0    0  501  0.00000000000E+00  0.00000000000E+00  0.57551990978E+03  0.57551990980E+03  0.50400001928E-02 0. -1.
        1   -1    0    0  501    0  0.00000000000E+00  0.00000000000E+00 -0.15630199837E+04  0.15630199837E+04  0.50400001928E-02 0.  1.
    10030    2    1    2    0    0  0.00000000000E+00  0.00000000000E+00 -0.98750007390E+03  0.21385398935E+04  0.18968912673E+04 0.  0.
        3    1    3    3  502    0  0.21672645957E+03 -0.71689483624E+03  0.16231122720E+03  0.76632467609E+03  0.10100000352E+00 0. -1.
       -3    1    3    3    0  502 -0.21672645957E+03  0.71689483624E+03 -0.11498113011E+04  0.13722152174E+04  0.10100000352E+00 0.  1.
</event>
<event>
 5   0  0.2855141E-05  0.1896404E+04  0.7818609E-02  0.8656648E-01
        2   -1    0    0  501    0  0.00000000000E+00  0.00000000000E+00  0.24277192304E+04  0.24277192304E+04  0.25500000920E-02 0.  1.
       -2   -1    0    0    0  501  0.00000000000E+00  0.00000000000E+00 -0.37034241137E+03  0.37034241138E+03  0.25500000920E-02 0. -1.
    10030    2    1    2    0    0  0.00000000000E+00  0.00000000000E+00  0.20573768191E+04  0.27980616418E+04  0.18964043809E+04 0.  0.
        1    1    3    3  502    0  0.36210800592E+03  0.15920288513E+03 -0.24279160918E+03  0.46412878826E+03  0.50400001928E-02 0. -1.
       -1    1    3    3    0  502 -0.36210800592E+03 -0.15920288513E+03  0.23001684282E+04  0.23339328535E+04  0.50400001928E-02 0.  1.
</event>
<event>
 5   0  0.1471485E-05  0.1901557E+04  0.7818609E-02  0.8654082E-01
        1   -1    0    0  501    0  0.00000000000E+00  0.00000000000E+00  0.10611555378E+04  0.10611555378E+04  0.50400001928E-02 0.  1.
       -1   -1    0    0    0  501  0.00000000000E+00  0.00000000000E+00 -0.85188264084E+03  0.85188264085E+03  0.50400001928E-02 0. -1.
    10030    2    1    2    0    0  0.00000000000E+00  0.00000000000E+00  0.20927289693E+03  0.19130381786E+04  0.19015572375E+04 0.  0.
        4    1    3    3  502    0  0.44811888171E+03  0.56297943450E+03 -0.52058336912E+03  0.88812444675E+03  0.12699999809E+01 0. -1.
       -4    1    3    3    0  502 -0.44811888171E+03 -0.56297943450E+03  0.72985626606E+03  0.10249137319E+04  0.12699999809E+01 0.  1.
</event>
<event>
 5   0  0.1471485E-05  0.1884699E+04  0.7818609E-02  0.8662510E-01
        1   -1    0    0  501    0  0.00000000000E+00  0.00000000000E+00  0.23668648576E+04  0.23668648576E+04  0.50400001928E-02 0. -1.
       -1   -1    0    0    0  501  0.00000000000E+00  0.00000000000E+00 -0.37518936492E+03  0.37518936496E+03  0.50400001928E-02 0.  1.
    10030    2    1    2    0    0  0.00000000000E+00  0.00000000000E+00  0.19916754927E+04  0.27420542226E+04  0.18846989392E+04 0.  0.
        4    1    3    3  502    0 -0.67367998558E+02 -0.40803329255E+03 -0.23610633042E+03  0.47621153621E+03  0.12699999809E+01 0.  1.
       -4    1    3    3    0  502  0.67367998558E+02  0.40803329255E+03  0.22277818231E+04  0.22658426864E+04  0.12699999809E+01 0. -1.
</event>
<event>
 5   0  0.1327254E-05  0.1897954E+04  0.7818609E-02  0.8655876E-01
       -1   -1    0    0    0  501  0.00000000000E+00  0.00000000000E+00  0.78176243042E+03  0.78176243043E+03  0.50400001928E-02 0.  1.
        1   -1    0    0  501    0  0.00000000000E+00  0.00000000000E+00 -0.11519576462E+04  0.11519576462E+04  0.50400001928E-02 0. -1.
    10030    2    1    2    0    0  0.00000000000E+00  0.00000000000E+00 -0.37019521581E+03  0.19337200767E+04  0.18979538554E+04 0.  0.
        5    1    3    3  502    0 -0.68989641108E+03 -0.38468821043E+02  0.47762006393E+03  0.83998804972E+03  0.46999998093E+01 0.  1.
       -5    1    3    3    0  502  0.68989641108E+03  0.38468821043E+02 -0.84781527974E+03  0.10937320269E+04  0.46999998093E+01 0. -1.
</event>
<event>
 5   0  0.2813537E-05  0.1901220E+04  0.7818609E-02  0.8654249E-01
        2   -1    0    0  501    0  0.00000000000E+00  0.00000000000E+00  0.19373373404E+04  0.19373373404E+04  0.25500000920E-02 0. -1.
       -2   -1    0    0    0  501  0.00000000000E+00  0.00000000000E+00 -0.46644393710E+03  0.46644393711E+03  0.25500000920E-02 0.  1.
    10030    2    1    2    0    0  0.00000000000E+00  0.00000000000E+00  0.14708934033E+04  0.24037812775E+04  0.19012198784E+04 0.  0.
        2    1    3    3  502    0  0.34034016918E+03  0.85173487923E+03  0.41967755326E+03  0.10086689169E+04  0.25500000920E-02 0. -1.
       -2    1    3    3    0  502 -0.34034016918E+03 -0.85173487923E+03  0.10512158500E+04  0.13951123606E+04  0.25500000920E-02 0.  1.
</event>
<event>
 5   0  0.2879462E-05  0.1906786E+04  0.7818609E-02  0.8651486E-01
       -2   -1    0    0    0  501  0.00000000000E+00  0.00000000000E+00  0.68587942000E+03  0.68587942000E+03  0.25500000920E-02 0. -1.
        2   -1    0    0  501    0  0.00000000000E+00  0.00000000000E+00 -0.13252453270E+04  0.13252453270E+04  0.25500000920E-02 0.  1.
    10030    2    1    2    0    0  0.00000000000E+00  0.00000000000E+00 -0.63936590700E+03  0.20111247470E+04  0.19067862977E+04 0.  0.
        4    1    3    3  502    0  0.41770367202E+03 -0.17191559890E+02 -0.12234151071E+04  0.12928720140E+04  0.12699999809E+01 0.  1.
       -4    1    3    3    0  502 -0.41770367202E+03  0.17191559890E+02  0.58404920014E+03  0.71825273298E+03  0.12699999809E+01 0. -1.
</event>
<event>
 5   0  0.2789718E-05  0.1911156E+04  0.7818609E-02  0.8649323E-01
        2   -1    0    0  501    0  0.00000000000E+00  0.00000000000E+00  0.11918381453E+04  0.11918381453E+04  0.25500000920E-02 0. -1.
       -2   -1    0    0    0  501  0.00000000000E+00  0.00000000000E+00 -0.76615206535E+03  0.76615206535E+03  0.25500000920E-02 0.  1.
    10030    2    1    2    0    0  0.00000000000E+00  0.00000000000E+00  0.42568607991E+03  0.19579902106E+04  0.19111559398E+04 0.  0.
        5    1    3    3  502    0 -0.52751418938E+03 -0.77958529246E+03  0.44241895597E+02  0.94233957974E+03  0.46999998093E+01 0.  1.
       -5    1    3    3    0  502  0.52751418938E+03  0.77958529246E+03  0.38144418431E+03  0.10156506309E+04  0.46999998093E+01 0. -1.
</event>
<event>
 5   0  0.2888776E-05  0.1899988E+04  0.7818609E-02  0.8654863E-01
       -2   -1    0    0    0  501  0.00000000000E+00  0.00000000000E+00  0.53702618807E+03  0.53702618808E+03  0.25500000920E-02 0.  1.
        2   -1    0    0  501    0  0.00000000000E+00  0.00000000000E+00 -0.16805291811E+04  0.16805291811E+04  0.25500000920E-02 0. -1.
    10030    2    1    2    0    0  0.00000000000E+00  0.00000000000E+00 -0.11435029930E+04  0.22175553692E+04  0.18999875579E+04 0.  0.
        3    1    3    3  502    0  0.46159999501E+03 -0.29000614904E+03 -0.14798075479E+04  0.15770252093E+04  0.10100000352E+00 0. -1.
       -3    1    3    3    0  502 -0.46159999501E+03  0.29000614904E+03  0.33630455485E+03  0.64053015986E+03  0.10100000352E+00 0.  1.
</event>
<event>
 5   0  0.2789718E-05  0.1901195E+04  0.7818609E-02  0.8654262E-01
       -2   -1    0    0    0  501  0.00000000000E+00  0.00000000000E+00  0.89429804721E+03  0.89429804721E+03  0.25500000920E-02 0.  1.
        2   -1    0    0  501    0  0.00000000000E+00  0.00000000000E+00 -0.10104411347E+04  0.10104411347E+04  0.25500000920E-02 0. -1.
    10030    2    1    2    0    0  0.00000000000E+00  0.00000000000E+00 -0.11614308744E+03  0.19047391819E+04  0.19011949227E+04 0.  0.
        5    1    3    3  502    0 -0.91329637308E+03  0.24629408180E+03  0.36137813405E+02  0.94662509546E+03  0.46999998093E+01 0.  1.
       -5    1    3    3    0  502  0.91329637308E+03 -0.24629408180E+03 -0.15228090085E+03  0.95811408640E+03  0.46999998093E+01 0. -1.
</event>
<event>
 5   0  0.2813537E-05  0.1901965E+04  0.7818609E-02  0.8653879E-01
        2   -1    0    0  501    0  0.00000000000E+00  0.00000000000E+00  0.20813274113E+04  0.20813274113E+04  0.25500000920E-02 0. -1.
       -2   -1    0    0    0  501  0.00000000000E+00  0.00000000000E+00 -0.43451495976E+03  0.43451495977E+03  0.25500000920E-02 0.  1.
    10030    2    1    2    0    0  0.00000000000E+00  0.00000000000E+00  0.16468124515E+04  0.25158423711E+04  0.19019651904E+04 0.  0.
        2    1    3    3  502    0  0.22055970084E+03  0.66906051771E+03  0.16683993324E+04  0.18110342047E+04  0.25500000920E-02 0. -1.
       -2    1    3    3    0  502 -0.22055970084E+03 -0.66906051771E+03 -0.21586880904E+02  0.70480816640E+03  0.25500000920E-02 0.  1.
</event>
<event>
 5   0  0.1413011E-05  0.1895992E+04  0.7818609E-02  0.8656854E-01
        1   -1    0    0  501    0  0.00000000000E+00  0.00000000000E+00  0.18249913134E+04  0.18249913134E+04  0.50400001928E-02 0. -1.
       -1   -1    0    0    0  501  0.00000000000E+00  0.00000000000E+00 -0.49243882001E+03  0.49243882003E+03  0.50400001928E-02 0.  1.
    10030    2    1    2    0    0  0.00000000000E+00  0.00000000000E+00  0.13325524934E+04  0.23174301335E+04  0.18959921613E+04 0.  0.
        1    1    3    3  502    0  0.28197218037E+03 -0.90506438794E+03  0.65792243215E+03  0.11539115146E+04  0.50400001928E-02 0.  1.
       -1    1    3    3    0  502 -0.28197218037E+03  0.90506438794E+03  0.67463006127E+03  0.11635186188E+04  0.50400001928E-02 0. -1.
</event>
<event>
 5   0  0.1471485E-05  0.1893007E+04  0.7818609E-02  0.8658345E-01
       -1   -1    0    0    0  501  0.00000000000E+00  0.00000000000E+00  0.41881524997E+03  0.41881525000E+03  0.50400001928E-02 0. -1.
        1   -1    0    0  501    0  0.00000000000E+00  0.00000000000E+00 -0.21390539634E+04  0.21390539634E+04  0.50400001928E-02 0.  1.
    10030    2    1    2    0    0  0.00000000000E+00  0.00000000000E+00 -0.17202387135E+04  0.25578692134E+04  0.18930065192E+04 0.  0.
        4    1    3    3  502    0 -0.31089957568E+03 -0.35182960757E+03  0.25037033125E+03  0.53209917740E+03  0.12699999809E+01 0. -1.
       -4    1    3    3    0  502  0.31089957568E+03  0.35182960757E+03 -0.19706090447E+04  0.20257700360E+04  0.12699999809E+01 0.  1.
</event>
<event>
 5   0  0.2879462E-05  0.1898724E+04  0.7818609E-02  0.8655492E-01
        2   -1    0    0  501    0  0.00000000000E+00  0.00000000000E+00  0.16604821690E+04  0.16604821690E+04  0.25500000920E-02 0.  1.
       -2   -1    0    0    0  501  0.00000000000E+00  0.00000000000E+00 -0.54278718648E+03  0.54278718649E+03  0.25500000920E-02 0. -1.
    10030    2    1    2    0    0  0.00000000000E+00  0.00000000000E+00  0.11176949826E+04  0.22032693555E+04  0.18987242504E+04 0.  0.
        4    1    3    3  502    0 -0.86419660613E+03 -0.39273910160E+03  0.57554491530E+03  0.11101051024E+04  0.12699999809E+01 0.  1.
       -4    1    3    3    0  502  0.86419660613E+03  0.39273910160E+03  0.54215006726E+03  0.10931642531E+04  0.12699999809E+01 0. -1.
</event>
<event>
 5   0  0.2879462E-05  0.1891756E+04  0.7818609E-02  0.8658971E-01
       -2   -1    0    0    0  501  0.00000000000E+00  0.00000000000E+00  0.55535476819E+03  0.55535476820E+03  0.25500000920E-02 0.  1.
        2   -1    0    0  501    0  0.00000000000E+00  0.00000000000E+00 -0.16110156339E+04  0.16110156339E+04  0.25500000920E-02 0. -1.
    10030    2    1    2    0    0  0.00000000000E+00  0.00000000000E+00 -0.10556608658E+04  0.21663704021E+04  0.18917560244E+04 0.  0.
        4    1    3    3  502    0 -0.18901436456E+03  0.39223179857E+03  0.43377398971E+03  0.61460044002E+03  0.12699999809E+01 0.  1.
       -4    1    3    3    0  502  0.18901436456E+03 -0.39223179857E+03 -0.14894348555E+04  0.15517699621E+04  0.12699999809E+01 0. -1.
</event>
<event>
 5   0  0.1344119E-05  0.1900726E+04  0.7818609E-02  0.8654495E-01
        1   -1    0    0  501    0  0.00000000000E+00  0.00000000000E+00  0.56248433388E+03  0.56248433390E+03  0.50400001928E-02 0.  1.
       -1   -1    0    0    0  501  0.00000000000E+00  0.00000000000E+00 -0.16057152862E+04  0.16057152862E+04  0.50400001928E-02 0. -1.
    10030    2    1    2    0    0  0.00000000000E+00  0.00000000000E+00 -0.10432309523E+04  0.21681996201E+04  0.19007258542E+04 0.  0.
        2    1    3    3  502    0 -0.81106908503E+03 -0.12941000957E+03  0.23799541163E+02  0.82167294554E+03  0.25500000920E-02 0.  1.
       -2    1    3    3    0  502  0.81106908503E+03  0.12941000957E+03 -0.10670304935E+04  0.13465266746E+04  0.25500000920E-02 0. -1.
</event>
<event>
 5   0  0.1344119E-05  0.1898232E+04  0.7818609E-02  0.8655737E-01
       -1   -1    0    0    0  501  0.00000000000E+00  0.00000000000E+00  0.42775758276E+03  0.42775758279E+03  0.50400001928E-02 0. -1.
        1   -1    0    0  501    0  0.00000000000E+00  0.00000000000E+00 -0.21059145932E+04  0.21059145932E+04  0.50400001928E-02 0.  1.
    10030    2    1    2    0    0  0.00000000000E+00  0.00000000000E+00 -0.16781570105E+04  0.25336721760E+04  0.18982317413E+04 0.  0.
        2    1    3    3  502    0 -0.28649694137E+03  0.22251945946E+03  0.33157409864E+03  0.49146392558E+03  0.25500000920E-02 0. -1.
       -2    1    3    3    0  502  0.28649694137E+03 -0.22251945946E+03 -0.20097311091E+04  0.20422082504E+04  0.25500000920E-02 0.  1.
</event>
<event>
 5   0  0.2813537E-05  0.1899020E+04  0.7818609E-02  0.8655345E-01
       -2   -1    0    0    0  501  0.00000000000E+00  0.00000000000E+00  0.75957982089E+03  0.75957982089E+03  0.25500000920E-02 0. -1.
        2   -1    0    0  501    0  0.00000000000E+00  0.00000000000E+00 -0.11869309085E+04  0.11869309085E+04  0.25500000920E-02 0.  1.
    10030    2    1    2    0    0  0.00000000000E+00  0.00000000000E+00 -0.42735108759E+03  0.19465107294E+04  0.18990195016E+04 0.  0.
        2    1    3    3  502    0 -0.33751024758E+03  0.64384589015E+03  0.41243428008E+03  0.83579467148E+03  0.25500000920E-02 0. -1.
       -2    1    3    3    0  502  0.33751024758E+03 -0.64384589015E+03 -0.83978536766E+03  0.11107160579E+04  0.25500000920E-02 0.  1.
</event>
<event>
 5   0  0.2888776E-05  0.1901062E+04  0.7818609E-02  0.8654328E-01
       -2   -1    0    0    0  501  0.00000000000E+00  0.00000000000E+00  0.94349083278E+03  0.94349083278E+03  0.25500000920E-02 0.  1.
        2   -1    0    0  501    0  0.00000000000E+00  0.00000000000E+00 -0.95762411517E+03  0.95762411518E+03  0.25500000920E-02 0. -1.
    10030    2    1    2    0    0  0.00000000000E+00  0.00000000000E+00 -0.14133282398E+02  0.19011149480E+04  0.19010624124E+04 0.  0.
        3    1    3    3  502    0 -0.66465860473E+03 -0.12551191395E+03  0.66077309418E+03  0.94559261502E+03  0.10100000352E+00 0.  1.
       -3    1    3    3    0  502  0.66465860473E+03  0.12551191395E+03 -0.67490637658E+03  0.95552233294E+03  0.10100000352E+00 0. -1.
</event>
<event>
 5   0  0.2813537E-05  0.1899241E+04  0.7818609E-02  0.8655234E-01
        2   -1    0    0  501    0  0.00000000000E+00  0.00000000000E+00  0.14978939040E+04  0.14978939040E+04  0.25500000920E-02 0. -1.
       -2   -1    0    0    0  501  0.00000000000E+00  0.00000000000E+00 -0.60203150954E+03  0.60203150955E+03  0.25500000920E-02 0.  1.
    10030    2    1    2    0    0  0.00000000000E+00  0.00000000000E+00  0.89586239446E+03  0.20999254136E+04  0.18992412466E+04 0.  0.
        2    1    3    3  502    0  0.39193838314E+03  0.17013843817E+03 -0.48974646544E+03  0.64993413877E+03  0.25500000920E-02 0.  1.
       -2    1    3    3    0  502 -0.39193838314E+03 -0.17013843817E+03  0.13856088599E+04  0.14499912748E+04  0.25500000920E-02 0. -1.
</event>
<event>
 5   0  0.2855141E-05  0.1895590E+04  0.7818609E-02  0.8657054E-01
        2   -1    0    0  501    0  0.00000000000E+00  0.00000000000E+00  0.16704091462E+04  0.16704091462E+04  0.25500000920E-02 0.  1.
       -2   -1    0    0    0  501  0.00000000000E+00  0.00000000000E+00 -0.53778184578E+03  0.53778184579E+03  0.25500000920E-02 0. -1.
    10030    2    1    2    0    0  0.00000000000E+00  0.00000000000E+00  0.11326273004E+04  0.22081909920E+04  0.18955903712E+04 0.  0.
        1    1    3    3  502    0  0.42424896668E+03  0.71560784604E+03  0.10953337926E+04  0.13754409810E+04  0.50400001928E-02 0.  1.
       -1    1    3    3    0  502 -0.42424896668E+03 -0.71560784604E+03  0.37293507848E+02  0.83275001099E+03  0.50400001928E-02 0. -1.
</event>
<event>
 5   0  0.1327254E-05  0.1901369E+04  0.7818609E-02  0.8654175E-01
        1   -1    0    0  501    0  0.00000000000E+00  0.00000000000E+00  0.80131220065E+03  0.80131220066E+03  0.50400001928E-02 0.  1.
       -1   -1    0    0    0  501  0.00000000000E+00  0.00000000000E+00 -0.11279007374E+04  0.11279007374E+04  0.50400001928E-02 0. -1.
    10030    2    1    2    0    0  0.00000000000E+00  0.00000000000E+00 -0.32658853675E+03  0.19292129381E+04  0.19013685829E+04 0.  0.
        5    1    3    3  502    0  0.64257336556E+03  0.43262460241E+03  0.39587877407E+03  0.86994636070E+03  0.46999998093E+01 0.  1.
       -5    1    3    3    0  502 -0.64257336556E+03 -0.43262460241E+03 -0.72246731083E+03  0.10592665774E+04  0.46999998093E+01 0. -1.
</event>
<event>
 5   0  0.2789718E-05  0.1897089E+04  0.7818609E-02  0.8656306E-01
        2   -1    0    0  501    0  0.00000000000E+00  0.00000000000E+00  0.14045331901E+04  0.14045331901E+04  0.25500000920E-02 0.  1.
       -2   -1    0    0    0  501  0.00000000000E+00  0.00000000000E+00 -0.64059512432E+03  0.64059512433E+03  0.25500000920E-02 0. -1.
    10030    2    1    2    0    0  0.00000000000E+00  0.00000000000E+00  0.76393806581E+03  0.20451283145E+04  0.18970894692E+04 0.  0.
        5    1    3    3  502    0  0.27142547850E+03  0.90574114784E+03  0.30074924821E+03  0.99222528569E+03  0.46999998093E+01 0. -1.
       -5    1    3    3    0  502 -0.27142547850E+03 -0.90574114784E+03  0.46318881760E+03  0.10529030288E+04  0.46999998093E+01 0.  1.
</event>
<event>
 5   0  0.2879462E-05  0.1899894E+04  0.7818609E-02  0.8654909E-01
       -2   -1    0    0    0  501  0.00000000000E+00  0.00000000000E+00  0.85389508045E+03  0.85389508046E+03  0.25500000920E-02 0. -1.
        2   -1    0    0  501    0  0.00000000000E+00  0.00000000000E+00 -0.10568037162E+04  0.10568037162E+04  0.25500000920E-02 0.  1.
    10030    2    1    2    0    0  0.00000000000E+00  0.00000000000E+00 -0.20290863579E+03  0.19106987967E+04  0.18998942016E+04 0.  0.
        4    1    3    3  502    0 -0.72734541697E+03 -0.51255768113E+03  0.23308007808E+03  0.91982317201E+03  0.12699999809E+01 0.  1.
       -4    1    3    3    0  502  0.72734541697E+03  0.51255768113E+03 -0.43598871387E+03  0.99087562468E+03  0.12699999809E+01 0. -1.
</event>
<event>
 5   0  0.2813537E-05  0.1895147E+04  0.7818609E-02  0.8657276E-01
       -2   -1    0    0    0  501  0.00000000000E+00  0.00000000000E+00  0.87283097329E+03  0.87283097329E+03  0.25500000920E-02 0. -1.
        2   -1    0    0  501    0  0.00000000000E+00  0.00000000000E+00 -0.10287158714E+04  0.10287158714E+04  0.25500000920E-02 0.  1.
    10030    2    1    2    0    0  0.00000000000E+00  0.00000000000E+00 -0.15588489814E+03  0.19015468447E+04  0.18951465118E+04 0.  0.
        2    1    3    3  502    0 -0.28241638154E+03 -0.86925892496E+03 -0.32883688685E+03  0.97134123219E+03  0.25500000920E-02 0.  1.
       -2    1    3    3    0  502  0.28241638154E+03  0.86925892496E+03  0.17295198871E+03  0.93020561254E+03  0.25500000920E-02 0. -1.
</event>
<event>
 5   0  0.1327254E-05  0.1898350E+04  0.7818609E-02  0.8655678E-01
        1   -1    0    0  501    0  0.00000000000E+00  0.00000000000E+00  0.98681025131E+03  0.98681025132E+03  0.50400001928E-02 0.  1.
       -1   -1    0    0    0  501  0.00000000000E+00  0.00000000000E+00 -0.91297534305E+03  0.91297534306E+03  0.50400001928E-02 0. -1.
    10030    2    1    2    0    0  0.00000000000E+00  0.00000000000E+00  0.73834908263E+02  0.18997855944E+04  0.18983502603E+04 0.  0.
        5    1    3    3  502    0 -0.28585655359E+03  0.75273756182E+03  0.53987434141E+03  0.96944014809E+03  0.46999998093E+01 0.  1.
       -5    1    3    3    0  502  0.28585655359E+03 -0.75273756182E+03 -0.46603943315E+03  0.93034544630E+03  0.46999998093E+01 0. -1.
</event>
<event>
 5   0  0.1327254E-05  0.1898791E+04  0.7818609E-02  0.8655458E-01
       -1   -1    0    0    0  501  0.00000000000E+00  0.00000000000E+00  0.66976915708E+03  0.66976915710E+03  0.50400001928E-02 0.  1.
        1   -1    0    0  501    0  0.00000000000E+00  0.00000000000E+00 -0.13457655207E+04  0.13457655208E+04  0.50400001928E-02 0. -1.
    10030    2    1    2    0    0  0.00000000000E+00  0.00000000000E+00 -0.67599636366E+03  0.20155346779E+04  0.18987914456E+04 0.  0.
        5    1    3    3  502    0 -0.59221401165E+03  0.74058675175E+03 -0.38714811930E+03  0.10242518874E+04  0.46999998093E+01 0. -1.
       -5    1    3    3    0  502  0.59221401165E+03 -0.74058675175E+03 -0.28884824436E+03  0.99128279050E+03  0.46999998093E+01 0.  1.
</event>
<event>
 5   0  0.2855141E-05  0.1900510E+04  0.7818609E-02  0.8654602E-01
        2   -1    0    0  501    0  0.00000000000E+00  0.00000000000E+00  0.18415125683E+04  0.18415125683E+04  0.25500000920E-02 0. -1.
       -2   -1    0    0    0  501  0.00000000000E+00  0.00000000000E+00 -0.49034945567E+03  0.49034945568E+03  0.25500000920E-02 0.  1.
    10030    2    1    2    0    0  0.00000000000E+00  0.00000000000E+00  0.13511631126E+04  0.23318620240E+04  0.19005101268E+04 0.  0.
        1    1    3    3  502    0  0.36970037906E+03 -0.21317484115E+03  0.17173206671E+04  0.17695513999E+04  0.50400001928E-02 0. -1.
       -1    1    3    3    0  502 -0.36970037906E+03  0.21317484115E+03 -0.36615755451E+03  0.56231062405E+03  0.50400001928E-02 0.  1.
</event>
<event>
 5   0  0.2789718E-05  0.1899862E+04  0.7818609E-02  0.8654925E-01
        2   -1    0    0  501    0  0.00000000000E+00  0.00000000000E+00  0.22183265903E+04  0.22183265903E+04  0.25500000920E-02 0. -1.
       -2   -1    0    0    0  501  0.00000000000E+00  0.00000000000E+00 -0.40677899971E+03  0.40677899972E+03  0.25500000920E-02 0.  1.
    10030    2    1    2    0    0  0.00000000000E+00  0.00000000000E+00  0.18115475906E+04  0.26251055900E+04  0.18998617544E+04 0.  0.
        5    1    3    3  502    0  0.42090003206E+03  0.99993052856E+02  0.20742929546E+04  0.21189310510E+04  0.46999998093E+01 0. -1.
       -5    1    3    3    0  502 -0.42090003206E+03 -0.99993052856E+02 -0.26274536400E+03  0.50617453898E+03  0.46999998093E+01 0.  1.
</event>
<event>
 5   0  0.2789718E-05  0.1897766E+04  0.7818609E-02  0.8655969E-01
       -2   -1    0    0    0  501  0.00000000000E+00  0.00000000000E+00  0.18741249753E+04  0.18741249753E+04  0.25500000920E-02 0. -1.
        2   -1    0    0  501    0  0.00000000000E+00  0.00000000000E+00 -0.48042617101E+03  0.48042617101E+03  0.25500000920E-02 0.  1.
    10030    2    1    2    0    0  0.00000000000E+00  0.00000000000E+00  0.13936988043E+04  0.23545511464E+04  0.18977657241E+04 0.  0.
        5    1    3    3  502    0 -0.88765954079E+03  0.21250994366E+03  0.37508857003E+03  0.98681987306E+03  0.46999998093E+01 0.  1.
       -5    1    3    3    0  502  0.88765954079E+03 -0.21250994366E+03  0.10186102343E+04  0.13677312733E+04  0.46999998093E+01 0. -1.
</event>
<event>
 5   0  0.1471485E-05  0.1894947E+04  0.7818609E-02  0.8657376E-01
        1   -1    0    0  501    0  0.00000000000E+00  0.00000000000E+00  0.22288188559E+04  0.22288188559E+04  0.50400001928E-02 0.  1.
       -1   -1    0    0    0  501  0.00000000000E+00  0.00000000000E+00 -0.40277217862E+03  0.40277217865E+03  0.50400001928E-02 0. -1.
    10030    2    1    2    0    0  0.00000000000E+00  0.00000000000E+00  0.18260466773E+04  0.26315910346E+04  0.18949472039E+04 0.  0.
        4    1    3    3  502    0 -0.38802863220E+03 -0.70216752614E+03  0.16130634059E+04  0.18015495049E+04  0.12699999809E+01 0.  1.
       -4    1    3    3    0  502  0.38802863220E+03  0.70216752614E+03  0.21298327135E+03  0.83004152965E+03  0.12699999809E+01 0. -1.
</event>
<event>
 5   0  0.1471485E-05  0.1901040E+04  0.7818609E-02  0.8654339E-01
        1   -1    0    0  501    0  0.00000000000E+00  0.00000000000E+00  0.20140643858E+04  0.20140643858E+04  0.50400001928E-02 0.  1.
       -1   -1    0    0    0  501  0.00000000000E+00  0.00000000000E+00 -0.44858969987E+03  0.44858969990E+03  0.50400001928E-02 0. -1.
    10030    2    1    2    0    0  0.00000000000E+00  0.00000000000E+00  0.15654746860E+04  0.24626540857E+04  0.19010402820E+04 0.  0.
        4    1    3    3  502    0 -0.21320124631E+03  0.29744955287E+03 -0.35366516889E+03  0.50893189379E+03  0.12699999809E+01 0. -1.
       -4    1    3    3    0  502  0.21320124631E+03 -0.29744955287E+03  0.19191398548E+04  0.19537221919E+04  0.12699999809E+01 0.  1.
</event>
<event>
 5   0  0.1344119E-05  0.1899625E+04  0.7818609E-02  0.8655043E-01
        1   -1    0    0  501    0  0.00000000000E+00  0.00000000000E+00  0.16192805186E+04  0.16192805186E+04  0.50400001928E-02 0. -1.
       -1   -1    0    0    0  501  0.00000000000E+00  0.00000000000E+00 -0.55712624381E+03  0.55712624383E+03  0.50400001928E-02 0.  1.
    10030    2    1    2    0    0  0.00000000000E+00  0.00000000000E+00  0.10621542748E+04  0.21764067624E+04  0.18996248820E+04 0.  0.
        2    1    3    3  502    0  0.15283018569E+03  0.14872543977E+03  0.15914981502E+04  0.16057218577E+04  0.25500000920E-02 0. -1.
       -2    1    3    3    0  502 -0.15283018569E+03 -0.14872543977E+03 -0.52934387541E+03  0.57068490477E+03  0.25500000920E-02 0.  1.
</event>
<event>
 5   0  0.2855141E-05  0.1900303E+04  0.7818609E-02  0.8654706E-01
       -2   -1    0    0    0  501  0.00000000000E+00  0.00000000000E+00  0.87886714555E+03  0.87886714555E+03  0.25500000920E-02 0. -1.
        2   -1    0    0  501    0  0.00000000000E+00  0.00000000000E+00 -0.10272176565E+04  0.10272176565E+04  0.25500000920E-02 0.  1.
    10030    2    1    2    0    0  0.00000000000E+00  0.00000000000E+00 -0.14835051093E+03  0.19060848020E+04  0.19003029754E+04 0.  0.
        1    1    3    3  502    0  0.13127634572E+03  0.85985193020E+03 -0.45771154845E+03  0.98289301677E+03  0.50400001928E-02 0.  1.
       -1    1    3    3    0  502 -0.13127634572E+03 -0.85985193020E+03  0.30936103751E+03  0.92319178526E+03  0.50400001928E-02 0. -1.
</event>
<event>
 5   0  0.2789718E-05  0.1901240E+04  0.7818609E-02  0.8654239E-01
        2   -1    0    0  501    0  0.00000000000E+00  0.00000000000E+00  0.61085044899E+03  0.61085044900E+03  0.25500000920E-02 0.  1.
       -2   -1    0    0    0  501  0.00000000000E+00  0.00000000000E+00 -0.14793778228E+04  0.14793778228E+04  0.25500000920E-02 0. -1.
    10030    2    1    2    0    0  0.00000000000E+00  0.00000000000E+00 -0.86852737385E+03  0.20902282718E+04  0.19012402345E+04 0.  0.
        5    1    3    3  502    0  0.67372152326E+03  0.66587021812E+03 -0.52202795671E+03  0.10815817657E+04  0.46999998093E+01 0. -1.
       -5    1    3    3    0  502 -0.67372152326E+03 -0.66587021812E+03 -0.34649941714E+03  0.10086465061E+04  0.46999998093E+01 0.  1.
</event>
<event>
 5   0  0.2888776E-05  0.1904498E+04  0.7818609E-02  0.8652621E-01
       -2   -1    0    0    0  501  0.00000000000E+00  0.00000000000E+00  0.53399959116E+03  0.53399959117E+03  0.25500000920E-02 0.  1.
        2   -1    0    0  501    0  0.00000000000E+00  0.00000000000E+00 -0.16980878474E+04  0.16980878474E+04  0.25500000920E-02 0. -1.
    10030    2    1    2    0    0  0.00000000000E+00  0.00000000000E+00 -0.11640882562E+04  0.22320874386E+04  0.19044980612E+04 0.  0.
        3    1    3    3  502    0 -0.16281803231E+03 -0.44936827235E+03  0.38323587585E+03  0.61262656045E+03  0.10100000352E+00 0.  1.
       -3    1    3    3    0  502  0.16281803231E+03  0.44936827235E+03 -0.15473241321E+04  0.16194608781E+04  0.10100000352E+00 0. -1.
</event>
<event>
 5   0  0.1413011E-05  0.1892090E+04  0.7818609E-02  0.8658804E-01
        1   -1    0    0  501    0  0.00000000000E+00  0.00000000000E+00  0.84240755073E+03  0.84240755075E+03  0.50400001928E-02 0. -1.
       -1   -1    0    0    0  501  0.00000000000E+00  0.00000000000E+00 -0.10624325273E+04  0.10624325273E+04  0.50400001928E-02 0.  1.
    10030    2    1    2    0    0  0.00000000000E+00  0.00000000000E+00 -0.22002497654E+03  0.19048400780E+04  0.18920900435E+04 0.  0.
        1    1    3    3  502    0  0.52626436639E+03 -0.21528780222E+03  0.65118985703E+03  0.86449479526E+03  0.50400001928E-02 0. -1.
       -1    1    3    3    0  502 -0.52626436639E+03  0.21528780222E+03 -0.87121483357E+03  0.10403452828E+04  0.50400001928E-02 0.  1.
</event>
<event>
 5   0  0.2855141E-05  0.1899254E+04  0.7818609E-02  0.8655228E-01
        2   -1    0    0  501    0  0.00000000000E+00  0.00000000000E+00  0.25073462544E+04  0.25073462544E+04  0.25500000920E-02 0. -1.
       -2   -1    0    0    0  501  0.00000000000E+00  0.00000000000E+00 -0.35965973201E+03  0.35965973202E+03  0.25500000920E-02 0.  1.
    10030    2    1    2    0    0  0.00000000000E+00  0.00000000000E+00  0.21476865224E+04  0.28670059864E+04  0.18992540451E+04 0.  0.
        1    1    3    3  502    0  0.56877091647E+03  0.27006196631E+03  0.73147075042E+00  0.62963033293E+03  0.50400001928E-02 0.  1.
       -1    1    3    3    0  502 -0.56877091647E+03 -0.27006196631E+03  0.21469550516E+04  0.22373756535E+04  0.50400001928E-02 0. -1.
</event>
<event>
 5   0  0.1471485E-05  0.1892799E+04  0.7818609E-02  0.8658449E-01
       -1   -1    0    0    0  501  0.00000000000E+00  0.00000000000E+00  0.87870593982E+03  0.87870593983E+03  0.50400001928E-02 0.  1.
        1   -1    0    0  501    0  0.00000000000E+00  0.00000000000E+00 -0.10193081430E+04  0.10193081430E+04  0.50400001928E-02 0. -1.
    10030    2    1    2    0    0  0.00000000000E+00  0.00000000000E+00 -0.14060220314E+03  0.18980140828E+04  0.18927991122E+04 0.  0.
        4    1    3    3  502    0  0.45714314070E+03 -0.38092883392E+03  0.66765031581E+03  0.89434064243E+03  0.12699999809E+01 0. -1.
       -4    1    3    3    0  502 -0.45714314070E+03  0.38092883392E+03 -0.80825251895E+03  0.10036734404E+04  0.12699999809E+01 0.  1.
</event>
<event>
 5   0  0.2888776E-05  0.1900331E+04  0.7818609E-02  0.8654692E-01
       -2   -1    0    0    0  501  0.00000000000E+00  0.00000000000E+00  0.82497260884E+03  0.82497260884E+03  0.25500000920E-02 0. -1.
        2   -1    0    0  501    0  0.00000000000E+00  0.00000000000E+00 -0.10943568116E+04  0.10943568116E+04  0.25500000920E-02 0.  1.
    10030    2    1    2    0    0  0.00000000000E+00  0.00000000000E+00 -0.26938420276E+03  0.19193294204E+04  0.19003309121E+04 0.  0.
        3    1    3    3  502    0 -0.45792831024E+03  0.68083762053E+03  0.34923918560E+03  0.89174336095E+03  0.10100000352E+00 0. -1.
       -3    1    3    3    0  502  0.45792831024E+03 -0.68083762053E+03 -0.61862338836E+03  0.10275860595E+04  0.10100000352E+00 0.  1.
</event>
<event>
 5   0  0.2879462E-05  0.1898970E+04  0.7818609E-02  0.8655369E-01
        2   -1    0    0  501    0  0.00000000000E+00  0.00000000000E+00  0.89775689550E+03  0.89775689551E+03  0.25500000920E-02 0.  1.
       -2   -1    0    0    0  501  0.00000000000E+00  0.00000000000E+00 -0.10041938523E+04  0.10041938524E+04  0.25500000920E-02 0. -1.
    10030    2    1    2    0    0  0.00000000000E+00  0.00000000000E+00 -0.10643695685E+03  0.19019507479E+04  0.18989702003E+04 0.  0.
        4    1    3    3  502    0  0.11241850005E+03 -0.61521735944E+03  0.66231870217E+03  0.91093248633E+03  0.12699999809E+01 0.  1.
       -4    1    3    3    0  502 -0.11241850005E+03  0.61521735944E+03 -0.76875565901E+03  0.99101826153E+03  0.12699999809E+01 0. -1.
</event>
<event>
 5   0  0.1413011E-05  0.1901238E+04  0.7818609E-02  0.8654240E-01
       -1   -1    0    0    0  501  0.00000000000E+00  0.00000000000E+00  0.82511731492E+03  0.82511731494E+03  0.50400001928E-02 0. -1.
        1   -1    0    0  501    0  0.00000000000E+00  0.00000000000E+00 -0.10952095956E+04  0.10952095956E+04  0.50400001928E-02 0.  1.
    10030    2    1    2    0    0  0.00000000000E+00  0.00000000000E+00 -0.27009228069E+03  0.19203269106E+04  0.19012379134E+04 0.  0.
        1    1    3    3  502    0  0.73279516864E+03 -0.96168977130E+02 -0.73891102121E+03  0.10450965164E+04  0.50400001928E-02 0.  1.
       -1    1    3    3    0  502 -0.73279516864E+03  0.96168977130E+02  0.46881874052E+03  0.87523039414E+03  0.50400001928E-02 0. -1.
</event>
<event>
 5   0  0.2855141E-05  0.1897767E+04  0.7818609E-02  0.8655969E-01
       -2   -1    0    0    0  501  0.00000000000E+00  0.00000000000E+00  0.69661288116E+03  0.69661288116E+03  0.25500000920E-02 0.  1.
        2   -1    0    0  501    0  0.00000000000E+00  0.00000000000E+00 -0.12925106509E+04  0.12925106509E+04  0.25500000920E-02 0. -1.
    10030    2    1    2    0    0  0.00000000000E+00  0.00000000000E+00 -0.59589776973E+03  0.19891235321E+04  0.18977666542E+04 0.  0.
        1    1    3    3  502    0  0.10080232230E+03 -0.45963785670E+03  0.56570219485E+03  0.73583085066E+03  0.50400001928E-02 0.  1.
       -1    1    3    3    0  502 -0.10080232230E+03  0.45963785670E+03 -0.11615999646E+04  0.12532926814E+04  0.50400001928E-02 0. -1.
</event>
<event>
 5   0  0.1327254E-05  0.1901969E+04  0.7818609E-02  0.8653877E-01
        1   -1    0    0  501    0  0.00000000000E+00  0.00000000000E+00  0.11331509703E+04  0.11331509703E+04  0.50400001928E-02 0. -1.
       -1   -1    0    0    0  501  0.00000000000E+00  0.00000000000E+00 -0.79810296663E+03  0.79810296665E+03  0.50400001928E-02 0.  1.
    10030    2    1    2    0    0  0.00000000000E+00  0.00000000000E+00  0.33504800364E+03  0.19312539369E+04  0.19019686128E+04 0.  0.
        5    1    3    3  502    0  0.69074167159E+03 -0.63195424517E+03  0.33700363727E+03  0.99502953041E+03  0.46999998093E+01 0. -1.
       -5    1    3    3    0  502 -0.69074167159E+03  0.63195424517E+03 -0.19556336272E+01  0.93622440652E+03  0.46999998093E+01 0.  1.
</event>
<event>
 5   0  0.1327254E-05  0.1899554E+04  0.7818609E-02  0.8655078E-01
       -1   -1    0    0    0  501  0.00000000000E+00  0.00000000000E+00  0.46889382698E+03  0.46889382700E+03  0.50400001928E-02 0.  1.
        1   -1    0    0  501    0  0.00000000000E+00  0.00000000000E+00 -0.19238398486E+04  0.19238398486E+04  0.50400001928E-02 0. -1.
    10030    2    1    2    0    0  0.00000000000E+00  0.00000000000E+00 -0.14549460216E+04  0.23927336756E+04  0.18995542942E+04 0.  0.
        5    1    3    3  502    0  0.48889657289E+03  0.56135024750E+03 -0.14704625681E+04  0.16481553973E+04  0.46999998093E+01 0. -1.
       -5    1    3    3    0  502 -0.48889657289E+03 -0.56135024750E+03  0.15516546493E+02  0.74457827833E+03  0.46999998093E+01 0.  1.
</event>
<event>
 5   0  0.1413011E-05  0.1901414E+04  0.7818609E-02  0.8654153E-01
        1   -1    0    0  501    0  0.00000000000E+00  0.00000000000E+00  0.19757731386E+04  0.19757731386E+04  0.50400001928E-02 0. -1.
       -1   -1    0    0    0  501  0.00000000000E+00  0.00000000000E+00 -0.45746346286E+03  0.45746346289E+03  0.50400001928E-02 0.  1.
    10030    2    1    2    0    0  0.00000000000E+00  0.00000000000E+00  0.15183096758E+04  0.24332366015E+04  0.19014142335E+04 0.  0.
        1    1    3    3  502    0 -0.92995492769E+02  0.52798944411E+03 -0.24556972534E+03  0.58968254578E+03  0.50400001928E-02 0.  1.
       -1    1    3    3    0  502  0.92995492769E+02 -0.52798944411E+03  0.17638794011E+04  0.18435540557E+04  0.50400001928E-02 0. -1.
</event>
<event>
 5   0  0.1429067E-05  0.1926575E+04  0.7818609E-02  0.8641740E-01
       -1   -1    0    0    0  501  0.00000000000E+00  0.00000000000E+00  0.44226148841E+03  0.44226148844E+03  0.50400001928E-02 0. -1.
        1   -1    0    0  501    0  0.00000000000E+00  0.00000000000E+00 -0.20981323999E+04  0.20981323999E+04  0.50400001928E-02 0.  1.
    10030    2    1    2    0    0  0.00000000000E+00  0.00000000000E+00 -0.16558709115E+04  0.25403938884E+04  0.19265753638E+04 0.  0.
        3    1    3    3  502    0  0.11927465751E+03  0.90004628402E+03 -0.40348891377E+03  0.99353564155E+03  0.10100000352E+00 0. -1.
       -3    1    3    3    0  502 -0.11927465751E+03 -0.90004628402E+03 -0.12523819977E+04  0.15468582468E+04  0.10100000352E+00 0.  1.
</event>
<event>
 5   0  0.1429067E-05  0.1949704E+04  0.7818609E-02  0.8630504E-01
       -1   -1    0    0    0  501  0.00000000000E+00  0.00000000000E+00  0.12384123152E+04  0.12384123152E+04  0.50400001928E-02 0. -1.
        1   -1    0    0  501    0  0.00000000000E+00  0.00000000000E+00 -0.76738257971E+03  0.76738257973E+03  0.50400001928E-02 0.  1.
    10030    2    1    2    0    0  0.00000000000E+00  0.00000000000E+00  0.47102973547E+03  0.20057948949E+04  0.19497036054E+04 0.  0.
        3    1    3    3  502    0 -0.76304889711E+03  0.59634135341E+03  0.12063586220E+03  0.97591989969E+03  0.10100000352E+00 0.  1.
       -3    1    3    3    0  502  0.76304889711E+03 -0.59634135341E+03  0.35039387326E+03  0.10298749952E+04  0.10100000352E+00 0. -1.
</event>
<event>
 5   0  0.1471485E-05  0.1899391E+04  0.7818609E-02  0.8655159E-01
       -1   -1    0    0    0  501  0.00000000000E+00  0.00000000000E+00  0.68617815299E+03  0.68617815301E+03  0.50400001928E-02 0. -1.
        1   -1    0    0  501    0  0.00000000000E+00  0.00000000000E+00 -0.13144134328E+04  0.13144134328E+04  0.50400001928E-02 0.  1.
    10030    2    1    2    0    0  0.00000000000E+00  0.00000000000E+00 -0.62823527985E+03  0.20005915859E+04  0.18993912516E+04 0.  0.
        4    1    3    3  502    0  0.62685861084E+03 -0.47224846501E+03  0.24911644906E+03  0.82342634690E+03  0.12699999809E+01 0.  1.
       -4    1    3    3    0  502 -0.62685861084E+03  0.47224846501E+03 -0.87735172891E+03  0.11771652390E+04  0.12699999809E+01 0. -1.
</event>
<event>
 5   0  0.1429067E-05  0.1893184E+04  0.7818609E-02  0.8658256E-01
        1   -1    0    0  501    0  0.00000000000E+00  0.00000000000E+00  0.11042110995E+04  0.11042110995E+04  0.50400001928E-02 0. -1.
       -1   -1    0    0    0  501  0.00000000000E+00  0.00000000000E+00 -0.81147234907E+03  0.81147234909E+03  0.50400001928E-02 0.  1.
    10030    2    1    2    0    0  0.00000000000E+00  0.00000000000E+00  0.29273875045E+03  0.19156834486E+04  0.18931843807E+04 0.  0.
        3    1    3    3  502    0  0.62030434440E+02 -0.45158640053E+03 -0.69310354876E+03  0.82956048088E+03  0.10100000352E+00 0.  1.
       -3    1    3    3    0  502 -0.62030434440E+02  0.45158640053E+03  0.98584229921E+03  0.10861229677E+04  0.10100000352E+00 0. -1.
</event>
<event>
 5   0  0.1413011E-05  0.1893882E+04  0.7818609E-02  0.8657908E-01
       -1   -1    0    0    0  501  0.00000000000E+00  0.00000000000E+00  0.92222832740E+03  0.92222832742E+03  0.50400001928E-02 0.  1.
        1   -1    0    0  501    0  0.00000000000E+00  0.00000000000E+00 -0.97231595865E+03  0.97231595867E+03  0.50400001928E-02 0. -1.
    10030    2    1    2    0    0  0.00000000000E+00  0.00000000000E+00 -0.50087631250E+02  0.18945442861E+04  0.18938820663E+04 0.  0.
        1    1    3    3  502    0 -0.30223390984E+03  0.64950168841E+03 -0.64453374981E+03  0.96365010983E+03  0.50400001928E-02 0. -1.
       -1    1    3    3    0  502  0.30223390984E+03 -0.64950168841E+03  0.59444611855E+03  0.93089417626E+03  0.50400001928E-02 0.  1.
</event>
<event>
 5   0  0.1327254E-05  0.1907323E+04  0.7818609E-02  0.8651220E-01
       -1   -1    0    0    0  501  0.00000000000E+00  0.00000000000E+00  0.31801906230E+03  0.31801906234E+03  0.50400001928E-02 0. -1.
        1   -1    0    0  501    0  0.00000000000E+00  0.00000000000E+00 -0.28597992998E+04  0.28597992998E+04  0.50400001928E-02 0.  1.
    10030    2    1    2    0    0  0.00000000000E+00  0.00000000000E+00 -0.25417802375E+04  0.31778183621E+04  0.19073234563E+04 0.  0.
        5    1    3    3  502    0  0.23590409488E+03 -0.13818984574E+02  0.26844677270E+03  0.35766949281E+03  0.46999998093E+01 0. -1.
       -5    1    3    3    0  502 -0.23590409488E+03  0.13818984574E+02 -0.28102270102E+04  0.28201488693E+04  0.46999998093E+01 0.  1.
</event>
<event>
 5   0  0.2888776E-05  0.1903288E+04  0.7818609E-02  0.8653222E-01
       -2   -1    0    0    0  501  0.00000000000E+00  0.00000000000E+00  0.39634207027E+03  0.39634207028E+03  0.25500000920E-02 0.  1.
        2   -1    0    0  501    0  0.00000000000E+00  0.00000000000E+00 -0.22849609900E+04  0.22849609900E+04  0.25500000920E-02 0. -1.
    10030    2    1    2    0    0  0.00000000000E+00  0.00000000000E+00 -0.18886189198E+04  0.26813030603E+04  0.19032878598E+04 0.  0.
        3    1    3    3  502    0  0.71811402626E+03  0.33480848490E+03 -0.20173479691E+03  0.81760712738E+03  0.10100000352E+00 0.  1.
       -3    1    3    3    0  502 -0.71811402626E+03 -0.33480848490E+03 -0.16868841228E+04  0.18636959329E+04  0.10100000352E+00 0. -1.
</event>
<event>
 5   0  0.2813537E-05  0.1899558E+04  0.7818609E-02  0.8655077E-01
       -2   -1    0    0    0  501  0.00000000000E+00  0.00000000000E+00  0.12131737922E+04  0.12131737922E+04  0.25500000920E-02 0. -1.
        2   -1    0    0  501    0  0.00000000000E+00  0.00000000000E+00 -0.74357023798E+03  0.74357023799E+03  0.25500000920E-02 0.  1.
    10030    2    1    2    0    0  0.00000000000E+00  0.00000000000E+00  0.46960355425E+03  0.19567440302E+04  0.18995577648E+04 0.  0.
        2    1    3    3  502    0 -0.56370779932E+03  0.73856325609E+03  0.31795907639E+02  0.92965216399E+03  0.25500000920E-02 0.  1.
       -2    1    3    3    0  502  0.56370779932E+03 -0.73856325609E+03  0.43780764662E+03  0.10270918662E+04  0.25500000920E-02 0. -1.
</event>
<event>
 5   0  0.1327254E-05  0.1902032E+04  0.7818609E-02  0.8653845E-01
       -1   -1    0    0    0  501  0.00000000000E+00  0.00000000000E+00  0.77815647279E+03  0.77815647281E+03  0.50400001928E-02 0. -1.
        1   -1    0    0  501    0  0.00000000000E+00  0.00000000000E+00 -0.11622750396E+04  0.11622750396E+04  0.50400001928E-02 0.  1.
    10030    2    1    2    0    0  0.00000000000E+00  0.00000000000E+00 -0.38411856684E+03  0.19404315125E+04  0.19020324343E+04 0.  0.
        5    1    3    3  502    0  0.56141870018E+03  0.62188839525E+02 -0.97258768633E+03  0.11247254359E+04  0.46999998093E+01 0.  1.
       -5    1    3    3    0  502 -0.56141870018E+03 -0.62188839525E+02  0.58846911949E+03  0.81570607651E+03  0.46999998093E+01 0. -1.
</event>
<event>
 5   0  0.2888776E-05  0.1904401E+04  0.7818609E-02  0.8652669E-01
       -2   -1    0    0    0  501  0.00000000000E+00  0.00000000000E+00  0.10875623095E+04  0.10875623095E+04  0.25500000920E-02 0. -1.
        2   -1    0    0  501    0  0.00000000000E+00  0.00000000000E+00 -0.83368624021E+03  0.83368624021E+03  0.25500000920E-02 0.  1.
    10030    2    1    2    0    0  0.00000000000E+00  0.00000000000E+00  0.25387606930E+03  0.19212485497E+04  0.19044009376E+04 0.  0.
        3    1    3    3  502    0  0.72078252387E+03  0.41235382414E+03 -0.34314835914E+03  0.89850649947E+03  0.10100000352E+00 0.  1.
       -3    1    3    3    0  502 -0.72078252387E+03 -0.41235382414E+03  0.59702442844E+03  0.10227420503E+04  0.10100000352E+00 0. -1.
</event>
<event>
 5   0  0.2855141E-05  0.1901638E+04  0.7818609E-02  0.8654041E-01
       -2   -1    0    0    0  501  0.00000000000E+00  0.00000000000E+00  0.36602326086E+03  0.36602326087E+03  0.25500000920E-02 0.  1.
        2   -1    0    0  501    0  0.00000000000E+00  0.00000000000E+00 -0.24699446708E+04  0.24699446708E+04  0.25500000920E-02 0. -1.
    10030    2    1    2    0    0  0.00000000000E+00  0.00000000000E+00 -0.21039214100E+04  0.28359679317E+04  0.19016384541E+04 0.  0.
        1    1    3    3  502    0  0.41907343308E+02  0.68528391916E+03 -0.20329409277E+04  0.21457444141E+04  0.50400001928E-02 0. -1.
       -1    1    3    3    0  502 -0.41907343308E+02 -0.68528391916E+03 -0.70980482258E+02  0.69022351754E+03  0.50400001928E-02 0.  1.
</event>
<event>
 5   0  0.2879462E-05  0.1893177E+04  0.7818609E-02  0.8658260E-01
       -2   -1    0    0    0  501  0.00000000000E+00  0.00000000000E+00  0.59170671162E+03  0.59170671163E+03  0.25500000920E-02 0. -1.
        2   -1    0    0  501    0  0.00000000000E+00  0.00000000000E+00 -0.15143137144E+04  0.15143137144E+04  0.25500000920E-02 0.  1.
    10030    2    1    2    0    0  0.00000000000E+00  0.00000000000E+00 -0.92260700275E+03  0.21060204260E+04  0.18931767887E+04 0.  0.
        4    1    3    3  502    0  0.69037553230E+03  0.11333088591E+02 -0.11816211945E+04  0.13685675265E+04  0.12699999809E+01 0.  1.
       -4    1    3    3    0  502 -0.69037553230E+03 -0.11333088591E+02  0.25901419175E+03  0.73745289946E+03  0.12699999809E+01 0. -1.
</event>
<event>
 5   0  0.2813537E-05  0.1899434E+04  0.7818609E-02  0.8655138E-01
        2   -1    0    0  501    0  0.00000000000E+00  0.00000000000E+00  0.19350856825E+04  0.19350856825E+04  0.25500000920E-02 0. -1.
       -2   -1    0    0    0  501  0.00000000000E+00  0.00000000000E+00 -0.46610957565E+03  0.46610957566E+03  0.25500000920E-02 0.  1.
    10030    2    1    2    0    0  0.00000000000E+00  0.00000000000E+00  0.14689761068E+04  0.24011952581E+04  0.18994335643E+04 0.  0.
        2    1    3    3  502    0  0.85395491211E+03 -0.49579571907E+02  0.12561220126E+04  0.15197169593E+04  0.25500000920E-02 0.  1.
       -2    1    3    3    0  502 -0.85395491211E+03  0.49579571907E+02  0.21285409423E+03  0.88147829883E+03  0.25500000920E-02 0. -1.
</event>
<event>
 5   0  0.1327254E-05  0.1897857E+04  0.7818609E-02  0.8655924E-01
       -1   -1    0    0    0  501  0.00000000000E+00  0.00000000000E+00  0.47154887959E+03  0.47154887962E+03  0.50400001928E-02 0.  1.
        1   -1    0    0  501    0  0.00000000000E+00  0.00000000000E+00 -0.19095914856E+04  0.19095914856E+04  0.50400001928E-02 0. -1.
    10030    2    1    2    0    0  0.00000000000E+00  0.00000000000E+00 -0.14380426060E+04  0.23811403653E+04  0.18978574505E+04 0.  0.
        5    1    3    3  502    0  0.77757114841E+03  0.40385611091E+03 -0.11761105715E+04  0.14666202015E+04  0.46999998093E+01 0. -1.
       -5    1    3    3    0  502 -0.77757114841E+03 -0.40385611091E+03 -0.26193203455E+03  0.91452016373E+03  0.46999998093E+01 0.  1.
</event>
<event>
 5   0  0.2813537E-05  0.1900245E+04  0.7818609E-02  0.8654735E-01
        2   -1    0    0  501    0  0.00000000000E+00  0.00000000000E+00  0.99840389458E+03  0.99840389458E+03  0.25500000920E-02 0.  1.
       -2   -1    0    0    0  501  0.00000000000E+00  0.00000000000E+00 -0.90417574900E+03  0.90417574900E+03  0.25500000920E-02 0. -1.
    10030    2    1    2    0    0  0.00000000000E+00  0.00000000000E+00  0.94228145584E+02  0.19025796436E+04  0.19002448150E+04 0.  0.
        2    1    3    3  502    0  0.18597427173E+03  0.25800947345E+03  0.94352261544E+03  0.99568581591E+03  0.25500000920E-02 0.  1.
       -2    1    3    3    0  502 -0.18597427173E+03 -0.25800947345E+03 -0.84929446986E+03  0.90689382768E+03  0.25500000920E-02 0. -1.
</event>
<event>
 5   0  0.1327254E-05  0.1900765E+04  0.7818609E-02  0.8654476E-01
       -1   -1    0    0    0  501  0.00000000000E+00  0.00000000000E+00  0.53534637383E+03  0.53534637385E+03  0.50400001928E-02 0. -1.
        1   -1    0    0  501    0  0.00000000000E+00  0.00000000000E+00 -0.16871820431E+04  0.16871820431E+04  0.50400001928E-02 0.  1.
    10030    2    1    2    0    0  0.00000000000E+00  0.00000000000E+00 -0.11518356693E+04  0.22225284170E+04  0.19007648869E+04 0.  0.
        5    1    3    3  502    0  0.39743872487E+03  0.45002596013E+03  0.28548907893E+03  0.66483607679E+03  0.46999998093E+01 0. -1.
       -5    1    3    3    0  502 -0.39743872487E+03 -0.45002596013E+03 -0.14373247482E+04  0.15576923402E+04  0.46999998093E+01 0.  1.
</event>
<event>
 5   0  0.1471485E-05  0.1879285E+04  0.7818609E-02  0.8665237E-01
       -1   -1    0    0    0  501  0.00000000000E+00  0.00000000000E+00  0.10084674203E+04  0.10084674203E+04  0.50400001928E-02 0.  1.
        1   -1    0    0  501    0  0.00000000000E+00  0.00000000000E+00 -0.87551495077E+03  0.87551495078E+03  0.50400001928E-02 0. -1.
    10030    2    1    2    0    0  0.00000000000E+00  0.00000000000E+00  0.13295246948E+03  0.18839823710E+04  0.18792852937E+04 0.  0.
        4    1    3    3  502    0 -0.79490287580E+03  0.24278050469E+03  0.50587954842E+03  0.97299983855E+03  0.12699999809E+01 0.  1.
       -4    1    3    3    0  502  0.79490287580E+03 -0.24278050469E+03 -0.37292707893E+03  0.91098253250E+03  0.12699999809E+01 0. -1.
</event>
<event>
 5   0  0.1344119E-05  0.1873221E+04  0.7818609E-02  0.8668302E-01
       -1   -1    0    0    0  501  0.00000000000E+00  0.00000000000E+00  0.81220690417E+03  0.81220690419E+03  0.50400001928E-02 0.  1.
        1   -1    0    0  501    0  0.00000000000E+00  0.00000000000E+00 -0.10800690687E+04  0.10800690688E+04  0.50400001928E-02 0. -1.
    10030    2    1    2    0    0  0.00000000000E+00  0.00000000000E+00 -0.26786216458E+03  0.18922759730E+04  0.18732213480E+04 0.  0.
        2    1    3    3  502    0 -0.52691409244E+02 -0.72364381018E+03  0.46437980511E+03  0.86144376022E+03  0.25500000920E-02 0.  1.
       -2    1    3    3    0  502  0.52691409244E+02  0.72364381018E+03 -0.73224196969E+03  0.10308322127E+04  0.25500000920E-02 0. -1.
</event>
<event>
 5   0  0.1471485E-05  0.1905093E+04  0.7818609E-02  0.8652325E-01
        1   -1    0    0  501    0  0.00000000000E+00  0.00000000000E+00  0.11615647029E+04  0.11615647029E+04  0.50400001928E-02 0. -1.
       -1   -1    0    0    0  501  0.00000000000E+00  0.00000000000E+00 -0.78114008000E+03  0.78114008001E+03  0.50400001928E-02 0.  1.
    10030    2    1    2    0    0  0.00000000000E+00  0.00000000000E+00  0.38042462290E+03  0.19427047829E+04  0.19050929058E+04 0.  0.
        4    1    3    3  502    0 -0.47911851820E+03 -0.27048123807E+03  0.98314249271E+03  0.11266256825E+04  0.12699999809E+01 0. -1.
       -4    1    3    3    0  502  0.47911851820E+03  0.27048123807E+03 -0.60271786981E+03  0.81607910041E+03  0.12699999809E+01 0.  1.
</event>
<event>
 5   0  0.2855141E-05  0.1886773E+04  0.7818609E-02  0.8661468E-01
        2   -1    0    0  501    0  0.00000000000E+00  0.00000000000E+00  0.12485831993E+04  0.12485831993E+04  0.25500000920E-02 0.  1.
       -2   -1    0    0    0  501  0.00000000000E+00  0.00000000000E+00 -0.71279048965E+03  0.71279048965E+03  0.25500000920E-02 0. -1.
    10030    2    1    2    0    0  0.00000000000E+00  0.00000000000E+00  0.53579270969E+03  0.19613736890E+04  0.18867731501E+04 0.  0.
        1    1    3    3  502    0  0.25488006189E+03 -0.80385123255E+02  0.12084075256E+04  0.12376083233E+04  0.50400001928E-02 0.  1.
       -1    1    3    3    0  502 -0.25488006189E+03  0.80385123255E+02 -0.67261481589E+03  0.72376536569E+03  0.50400001928E-02 0. -1.
</event>
<event>
 5   0  0.2879462E-05  0.1892282E+04  0.7818609E-02  0.8658707E-01
        2   -1    0    0  501    0  0.00000000000E+00  0.00000000000E+00  0.12435082846E+04  0.12435082846E+04  0.25500000920E-02 0.  1.
       -2   -1    0    0    0  501  0.00000000000E+00  0.00000000000E+00 -0.71988513314E+03  0.71988513314E+03  0.25500000920E-02 0. -1.
    10030    2    1    2    0    0  0.00000000000E+00  0.00000000000E+00  0.52362315149E+03  0.19633934178E+04  0.18922823542E+04 0.  0.
        4    1    3    3  502    0 -0.10623181563E+03  0.57973842038E+03  0.10297603969E+04  0.11865032333E+04  0.12699999809E+01 0.  1.
       -4    1    3    3    0  502  0.10623181563E+03 -0.57973842038E+03 -0.50613724537E+03  0.77689018450E+03  0.12699999809E+01 0. -1.
</event>
<event>
 5   0  0.1429067E-05  0.1898242E+04  0.7818609E-02  0.8655732E-01
       -1   -1    0    0    0  501  0.00000000000E+00  0.00000000000E+00  0.59197022679E+03  0.59197022681E+03  0.50400001928E-02 0.  1.
        1   -1    0    0  501    0  0.00000000000E+00  0.00000000000E+00 -0.15217492262E+04  0.15217492262E+04  0.50400001928E-02 0. -1.
    10030    2    1    2    0    0  0.00000000000E+00  0.00000000000E+00 -0.92977899944E+03  0.21137194530E+04  0.18982415385E+04 0.  0.
        3    1    3    3  502    0  0.59362798232E+03 -0.71029501385E+03 -0.23153703950E+03  0.95421307838E+03  0.10100000352E+00 0.  1.
       -3    1    3    3    0  502 -0.59362798232E+03  0.71029501385E+03 -0.69824195994E+03  0.11595063747E+04  0.10100000352E+00 0. -1.
</event>
<event>
 5   0  0.2888776E-05  0.1902614E+04  0.7818609E-02  0.8653556E-01
       -2   -1    0    0    0  501  0.00000000000E+00  0.00000000000E+00  0.59413916258E+03  0.59413916258E+03  0.25500000920E-02 0.  1.
        2   -1    0    0  501    0  0.00000000000E+00  0.00000000000E+00 -0.15231870070E+04  0.15231870070E+04  0.25500000920E-02 0. -1.
    10030    2    1    2    0    0  0.00000000000E+00  0.00000000000E+00 -0.92904784441E+03  0.21173261696E+04  0.19026140468E+04 0.  0.
        3    1    3    3  502    0  0.14010322275E+03 -0.15766087863E+03 -0.14968390607E+04  0.15116259622E+04  0.10100000352E+00 0. -1.
       -3    1    3    3    0  502 -0.14010322275E+03  0.15766087863E+03  0.56779121632E+03  0.60570020737E+03  0.10100000352E+00 0.  1.
</event>
<event>
 5   0  0.1429067E-05  0.1901870E+04  0.7818609E-02  0.8653926E-01
        1   -1    0    0  501    0  0.00000000000E+00  0.00000000000E+00  0.22254384923E+04  0.22254384923E+04  0.50400001928E-02 0.  1.
       -1   -1    0    0    0  501  0.00000000000E+00  0.00000000000E+00 -0.40633656881E+03  0.40633656884E+03  0.50400001928E-02 0. -1.
    10030    2    1    2    0    0  0.00000000000E+00  0.00000000000E+00  0.18191019235E+04  0.26317750611E+04  0.19018696497E+04 0.  0.
        3    1    3    3  502    0 -0.67788755807E+03 -0.40194998394E+03  0.16459286335E+04  0.18248770939E+04  0.10100000352E+00 0.  1.
       -3    1    3    3    0  502  0.67788755807E+03  0.40194998394E+03  0.17317328996E+03  0.80689796724E+03  0.10100000352E+00 0. -1.
</event>
<event>
 5   0  0.1344119E-05  0.1879085E+04  0.7818609E-02  0.8665338E-01
        1   -1    0    0  501    0  0.00000000000E+00  0.00000000000E+00  0.69619240382E+03  0.69619240384E+03  0.50400001928E-02 0.  1.
       -1   -1    0    0    0  501  0.00000000000E+00  0.00000000000E+00 -0.12679536275E+04  0.12679536275E+04  0.50400001928E-02 0. -1.
    10030    2    1    2    0    0  0.00000000000E+00  0.00000000000E+00 -0.57176122364E+03  0.19641460313E+04  0.18790845472E+04 0.  0.
        2    1    3    3  502    0 -0.25677783374E+03  0.52679066929E+03 -0.10534916670E+04  0.12055239349E+04  0.25500000920E-02 0. -1.
       -2    1    3    3    0  502  0.25677783374E+03 -0.52679066929E+03  0.48173044334E+03  0.75862209643E+03  0.25500000920E-02 0.  1.
</event>
<event>
 5   0  0.2813537E-05  0.1899178E+04  0.7818609E-02  0.8655266E-01
        2   -1    0    0  501    0  0.00000000000E+00  0.00000000000E+00  0.12760867815E+04  0.12760867815E+04  0.25500000920E-02 0. -1.
       -2   -1    0    0    0  501  0.00000000000E+00  0.00000000000E+00 -0.70662849157E+03  0.70662849157E+03  0.25500000920E-02 0.  1.
    10030    2    1    2    0    0  0.00000000000E+00  0.00000000000E+00  0.56945828994E+03  0.19827152731E+04  0.18991780091E+04 0.  0.
        2    1    3    3  502    0 -0.34083638963E+03 -0.81371050485E+03  0.65150127746E+03  0.10966987484E+04  0.25500000920E-02 0. -1.
       -2    1    3    3    0  502  0.34083638963E+03  0.81371050485E+03 -0.82042987514E+02  0.88601652468E+03  0.25500000920E-02 0.  1.
</event>
<event>
 5   0  0.1010725E-05  0.1904898E+04  0.7818609E-02  0.8652422E-01
       -3   -1    0    0    0  501  0.00000000000E+00  0.00000000000E+00  0.62810673724E+03  0.62810674536E+03  0.10100000352E+00 0.  1.
        3   -1    0    0  501    0  0.00000000000E+00  0.00000000000E+00 -0.14442749740E+04  0.14442749775E+04  0.10100000352E+00 0. -1.
    10030    2    1    2    0    0  0.00000000000E+00  0.00000000000E+00 -0.81616823676E+03  0.20723817229E+04  0.19048977439E+04 0.  0.
        4    1    3    3  502    0  0.56256261855E+03  0.38336194812E+03  0.31660164407E+03  0.75078711829E+03  0.12699999809E+01 0.  1.
       -4    1    3    3    0  502 -0.56256261855E+03 -0.38336194812E+03 -0.11327698808E+04  0.13215946046E+04  0.12699999809E+01 0. -1.
</event>
<event>
 5   0  0.1413011E-05  0.1904873E+04  0.7818609E-02  0.8652435E-01
       -1   -1    0    0    0  501  0.00000000000E+00  0.00000000000E+00  0.95117475844E+03  0.95117475846E+03  0.50400001928E-02 0.  1.
        1   -1    0    0  501    0  0.00000000000E+00  0.00000000000E+00 -0.95369994788E+03  0.95369994790E+03  0.50400001928E-02 0. -1.
    10030    2    1    2    0    0  0.00000000000E+00  0.00000000000E+00 -0.25251894383E+01  0.19048747064E+04  0.19048730326E+04 0.  0.
        1    1    3    3  502    0  0.13007290007E+03 -0.93951951895E+03  0.85452138484E+02  0.95232240014E+03  0.50400001928E-02 0. -1.
       -1    1    3    3    0  502 -0.13007290007E+03  0.93951951895E+03 -0.87977327922E+02  0.95255230621E+03  0.50400001928E-02 0.  1.
</event>
<event>
 5   0  0.2879462E-05  0.1895034E+04  0.7818609E-02  0.8657332E-01
        2   -1    0    0  501    0  0.00000000000E+00  0.00000000000E+00  0.96110759069E+03  0.96110759069E+03  0.25500000920E-02 0. -1.
       -2   -1    0    0    0  501  0.00000000000E+00  0.00000000000E+00 -0.93411907955E+03  0.93411907955E+03  0.25500000920E-02 0.  1.
    10030    2    1    2    0    0  0.00000000000E+00  0.00000000000E+00  0.26988511138E+02  0.18952266702E+04  0.18950344989E+04 0.  0.
        4    1    3    3  502    0  0.45471692422E+03 -0.46852930599E+03  0.70022256124E+03  0.95739252134E+03  0.12699999809E+01 0. -1.
       -4    1    3    3    0  502 -0.45471692422E+03  0.46852930599E+03 -0.67323405010E+03  0.93783414891E+03  0.12699999809E+01 0.  1.
</event>
<event>
 5   0  0.1413011E-05  0.1899509E+04  0.7818609E-02  0.8655101E-01
       -1   -1    0    0    0  501  0.00000000000E+00  0.00000000000E+00  0.59284324533E+03  0.59284324535E+03  0.50400001928E-02 0. -1.
        1   -1    0    0  501    0  0.00000000000E+00  0.00000000000E+00 -0.15215385488E+04  0.15215385488E+04  0.50400001928E-02 0.  1.
    10030    2    1    2    0    0  0.00000000000E+00  0.00000000000E+00 -0.92869530350E+03  0.21143817942E+04  0.18995092537E+04 0.  0.
        1    1    3    3  502    0 -0.47814029884E+03 -0.96897068564E+02 -0.13714050218E+04  0.14555957273E+04  0.50400001928E-02 0.  1.
       -1    1    3    3    0  502  0.47814029884E+03  0.96897068564E+02  0.44270971833E+03  0.65878606694E+03  0.50400001928E-02 0. -1.
</event>
<event>
 5   0  0.2879462E-05  0.1898735E+04  0.7818609E-02  0.8655486E-01
       -2   -1    0    0    0  501  0.00000000000E+00  0.00000000000E+00  0.87207248576E+03  0.87207248576E+03  0.25500000920E-02 0.  1.
        2   -1    0    0  501    0  0.00000000000E+00  0.00000000000E+00 -0.10335137733E+04  0.10335137733E+04  0.25500000920E-02 0. -1.
    10030    2    1    2    0    0  0.00000000000E+00  0.00000000000E+00 -0.16144128758E+03  0.19055862591E+04  0.18987352900E+04 0.  0.
        4    1    3    3  502    0 -0.84058377755E+03 -0.88012465933E+02  0.35323984585E+03  0.91602799238E+03  0.12699999809E+01 0.  1.
       -4    1    3    3    0  502  0.84058377755E+03  0.88012465933E+02 -0.51468113343E+03  0.98955826672E+03  0.12699999809E+01 0. -1.
</event>
<event>
 5   0  0.2789718E-05  0.1900276E+04  0.7818609E-02  0.8654719E-01
        2   -1    0    0  501    0  0.00000000000E+00  0.00000000000E+00  0.13853865091E+04  0.13853865091E+04  0.25500000920E-02 0.  1.
       -2   -1    0    0    0  501  0.00000000000E+00  0.00000000000E+00 -0.65163181463E+03  0.65163181463E+03  0.25500000920E-02 0. -1.
    10030    2    1    2    0    0  0.00000000000E+00  0.00000000000E+00  0.73375469444E+03  0.20370183237E+04  0.19002756904E+04 0.  0.
        5    1    3    3  502    0  0.50289546057E+03  0.68211762553E+03  0.82738532110E+03  0.11843888124E+04  0.46999998093E+01 0.  1.
       -5    1    3    3    0  502 -0.50289546057E+03 -0.68211762553E+03 -0.93630626661E+02  0.85262951132E+03  0.46999998093E+01 0. -1.
</event>
<event>
 5   0  0.1471485E-05  0.1883476E+04  0.7818609E-02  0.8663126E-01
       -1   -1    0    0    0  501  0.00000000000E+00  0.00000000000E+00  0.51232733612E+03  0.51232733614E+03  0.50400001928E-02 0. -1.
        1   -1    0    0  501    0  0.00000000000E+00  0.00000000000E+00 -0.17310615192E+04  0.17310615192E+04  0.50400001928E-02 0.  1.
    10030    2    1    2    0    0  0.00000000000E+00  0.00000000000E+00 -0.12187341830E+04  0.22433888553E+04  0.18834756561E+04 0.  0.
        4    1    3    3  502    0  0.22260517560E+03  0.56070458886E+03 -0.14706872097E+04  0.15896116450E+04  0.12699999809E+01 0.  1.
       -4    1    3    3    0  502 -0.22260517560E+03 -0.56070458886E+03  0.25195302668E+03  0.65377721031E+03  0.12699999809E+01 0. -1.
</event>
<event>
 5   0  0.2789718E-05  0.1853632E+04  0.7818609E-02  0.8678287E-01
        2   -1    0    0  501    0  0.00000000000E+00  0.00000000000E+00  0.81030539895E+03  0.81030539896E+03  0.25500000920E-02 0. -1.
       -2   -1    0    0    0  501  0.00000000000E+00  0.00000000000E+00 -0.10600787249E+04  0.10600787249E+04  0.25500000920E-02 0.  1.
    10030    2    1    2    0    0  0.00000000000E+00  0.00000000000E+00 -0.24977332591E+03  0.18703841238E+04  0.18536315859E+04 0.  0.
        5    1    3    3  502    0  0.30541862902E+03  0.19319473585E+03  0.73626695858E+03  0.82019258056E+03  0.46999998093E+01 0. -1.
       -5    1    3    3    0  502 -0.30541862902E+03 -0.19319473585E+03 -0.98604028448E+03  0.10501915433E+04  0.46999998093E+01 0.  1.
</event>
<event>
 5   0  0.1344119E-05  0.1901560E+04  0.7818609E-02  0.8654080E-01
        1   -1    0    0  501    0  0.00000000000E+00  0.00000000000E+00  0.16413949748E+04  0.16413949748E+04  0.50400001928E-02 0. -1.
       -1   -1    0    0    0  501  0.00000000000E+00  0.00000000000E+00 -0.55074067315E+03  0.55074067318E+03  0.50400001928E-02 0.  1.
    10030    2    1    2    0    0  0.00000000000E+00  0.00000000000E+00  0.10906543016E+04  0.21921356480E+04  0.19015603839E+04 0.  0.
        2    1    3    3  502    0  0.44869336322E+03  0.74064420654E+03  0.99787386067E+03  0.13212236059E+04  0.25500000920E-02 0. -1.
       -2    1    3    3    0  502 -0.44869336322E+03 -0.74064420654E+03  0.92780440975E+02  0.87091204212E+03  0.25500000920E-02 0.  1.
</event>
<event>
 5   0  0.2813537E-05  0.1902984E+04  0.7818609E-02  0.8653373E-01
       -2   -1    0    0    0  501  0.00000000000E+00  0.00000000000E+00  0.67607965787E+03  0.67607965788E+03  0.25500000920E-02 0. -1.
        2   -1    0    0  501    0  0.00000000000E+00  0.00000000000E+00 -0.13390975918E+04  0.13390975918E+04  0.25500000920E-02 0.  1.
    10030    2    1    2    0    0  0.00000000000E+00  0.00000000000E+00 -0.66301793393E+03  0.20151772497E+04  0.19029835961E+04 0.  0.
        2    1    3    3  502    0  0.42615062635E+03  0.34741280903E+03 -0.11538463847E+04  0.12781476815E+04  0.25500000920E-02 0.  1.
       -2    1    3    3    0  502 -0.42615062635E+03 -0.34741280903E+03  0.49082845081E+03  0.73702956816E+03  0.25500000920E-02 0. -1.
</event>
<event>
 5   0  0.1327254E-05  0.1899250E+04  0.7818609E-02  0.8655230E-01
       -1   -1    0    0    0  501  0.00000000000E+00  0.00000000000E+00  0.72480921832E+03  0.72480921833E+03  0.50400001928E-02 0.  1.
        1   -1    0    0  501    0  0.00000000000E+00  0.00000000000E+00 -0.12441724324E+04  0.12441724324E+04  0.50400001928E-02 0. -1.
    10030    2    1    2    0    0  0.00000000000E+00  0.00000000000E+00 -0.51936321405E+03  0.19689816507E+04  0.18992500080E+04 0.  0.
        5    1    3    3  502    0  0.24407155824E+03  0.90748438390E+03 -0.40132411366E+03  0.10218522236E+04  0.46999998093E+01 0.  1.
       -5    1    3    3    0  502 -0.24407155824E+03 -0.90748438390E+03 -0.11803910039E+03  0.94712942716E+03  0.46999998093E+01 0. -1.
</event>
</LesHouchesEvents>
