<LesHouchesEvents version="3.0">
<header>
<!--
#*********************************************************************
#                                                                    *
#                        MadGraph5_aMC@NLO                           *
#                                                                    *
#                           Going Beyond                             *
#                                                                    *
#                   http://madgraph.hep.uiuc.edu                     *
#                   http://madgraph.phys.ucl.ac.be                   *
#                   http://amcatnlo.cern.ch                          *
#                                                                    *
#                     The MadGraph5_aMC@NLO team                     *
#                                                                    *
#....................................................................*
#                                                                    *
# This file contains all the information necessary to reproduce      *
# the events generated:                                              *
#                                                                    *
# 1. software version                                                *
# 2. proc_card          : code generation info including model       *
# 3. param_card         : model primary parameters in the LH format  *
# 4. run_card           : running parameters (collider and cuts)     *
# 5. pythia_card        : present only if pythia has been run        *
# 6. pgs_card           : present only if pgs has been run           *
# 7. delphes_cards      : present only if delphes has been run       *
#                                                                    *
#                                                                    *
#*********************************************************************
-->
<MGVersion>
#5.2.2.3
</MGVersion>
<MG5ProcCard>
#************************************************************
#*                     MadGraph5_aMC@NLO                    *
#*                                                          *
#*                *                       *                 *
#*                  *        * *        *                   *
#*                    * * * * 5 * * * *                     *
#*                  *        * *        *                   *
#*                *                       *                 *
#*                                                          *
#*                                                          *
#*         VERSION 2.2.3                 2015-02-10         *
#*                                                          *
#*    The MadGraph5_aMC@NLO Development Team - Find us at   *
#*    https://server06.fynu.ucl.ac.be/projects/madgraph     *
#*                                                          *
#************************************************************
#*                                                          *
#*               Command File for MadGraph5_aMC@NLO         *
#*                                                          *
#*     run as ./bin/mg5_aMC  filename                       *
#*                                                          *
#************************************************************
set group_subprocesses Auto
set ignore_six_quark_processes False
set loop_optimized_output True
set gauge unitary
set complex_mass_scheme False
import model sm
define p = g u c d s u~ c~ d~ s~
define j = g u c d s u~ c~ d~ s~
define l+ = e+ mu+
define l- = e- mu-
define vl = ve vm vt
define vl~ = ve~ vm~ vt~
import model Zprime_UFO
generate p p > zph, zph > j j
add process p p > zph, zph > b b~
output Dijet_signal
</MG5ProcCard>
<MGProcCard>
#*********************************************************************
#                        MadGraph/MadEvent                           *
#                   http://madgraph.hep.uiuc.edu                     *
#                                                                    *
#                          proc_card.dat                             *
#*********************************************************************
#                                                                    *
#            This Files is generated by MADGRAPH 5                   *
#                                                                    *
# WARNING: This Files is generated for MADEVENT (compatibility issue)*
#          This files is NOT a valid MG4 proc_card.dat               *
#          Running this in MG4 will NEVER reproduce the result of MG5*
#                                                                    *
#*********************************************************************
#*********************************************************************
# Process(es) requested : mg2 input                                  *
#*********************************************************************
# Begin PROCESS # This is TAG. Do not modify this line
p p > zph , zph > j j           #Process
# Be carefull the coupling are here in MG5 convention
          
end_coup           # End the couplings input

done               # this tells MG there are no more procs
# End PROCESS  # This is TAG. Do not modify this line
#*********************************************************************
# Model information                                                  *
#*********************************************************************
# Begin MODEL  # This is TAG. Do not modify this line
Zprime_UFO
# End   MODEL  # This is TAG. Do not modify this line
#*********************************************************************
# Start multiparticle definitions                                    *
#*********************************************************************
# Begin MULTIPARTICLES # This is TAG. Do not modify this line

# End  MULTIPARTICLES # This is TAG. Do not modify this line
</MGProcCard>
<MGRunCard>
#*********************************************************************
#                       MadGraph5_aMC@NLO                            *
#                                                                    *
#                     run_card.dat MadEvent                          *
#                                                                    *
#  This file is used to set the parameters of the run.               *
#                                                                    *
#  Some notation/conventions:                                        *
#                                                                    *
#   Lines starting with a '# ' are info or comments                  *
#                                                                    *
#   mind the format:   value    = variable     ! comment             *
#*********************************************************************
#
#*******************                                                 
# Running parameters
#*******************                                                 
#                                                                    
#*********************************************************************
# Tag name for the run (one word)                                    *
#*********************************************************************
  tag_1     = run_tag ! name of the run 
#*********************************************************************
# Run to generate the grid pack                                      *
#*********************************************************************
  .false.     = gridpack  !True = setting up the grid pack
#*********************************************************************
# Number of events and rnd seed                                      *
# Warning: Do not generate more than 1M events in a single run       *
# If you want to run Pythia, avoid more than 50k events in a run.    *
#*********************************************************************
  2000 = nevents ! Number of unweighted events requested 
 1056 = iseed   ! rnd seed (0=assigned automatically=default))
#*********************************************************************
# Collider type and energy                                           *
# lpp: 0=No PDF, 1=proton, -1=antiproton, 2=photon from proton,      *
#                                         3=photon from electron     *
#*********************************************************************
        1     = lpp1    ! beam 1 type 
        1     = lpp2    ! beam 2 type
     4000     = ebeam1  ! beam 1 total energy in GeV
     4000     = ebeam2  ! beam 2 total energy in GeV
#*********************************************************************
# Beam polarization from -100 (left-handed) to 100 (right-handed)    *
#*********************************************************************
        0     = polbeam1 ! beam polarization for beam 1
        0     = polbeam2 ! beam polarization for beam 2
#*********************************************************************
# PDF CHOICE: this automatically fixes also alpha_s and its evol.    *
#*********************************************************************
 'nn23lo1'    = pdlabel     ! PDF set                                     
 230000    = lhaid     ! if pdlabel=lhapdf, this is the lhapdf number
#*********************************************************************
# Renormalization and factorization scales                           *
#*********************************************************************
 F        = fixed_ren_scale  ! if .true. use fixed ren scale
 F        = fixed_fac_scale  ! if .true. use fixed fac scale
 91.1880  = scale            ! fixed ren scale
 91.1880  = dsqrt_q2fact1    ! fixed fact scale for pdf1
 91.1880  = dsqrt_q2fact2    ! fixed fact scale for pdf2
 1        = scalefact        ! scale factor for event-by-event scales
#*********************************************************************
# Matching - Warning! ickkw > 1 is still beta
#*********************************************************************
 0        = ickkw            ! 0 no matching, 1 MLM, 2 CKKW matching
 1        = highestmult      ! for ickkw=2, highest mult group
 1        = ktscheme         ! for ickkw=1, 1 Durham kT, 2 Pythia pTE
 1        = alpsfact         ! scale factor for QCD emission vx
 F        = chcluster        ! cluster only according to channel diag
 T        = pdfwgt           ! for ickkw=1, perform pdf reweighting
 5        = asrwgtflavor     ! highest quark flavor for a_s reweight
 T        = clusinfo         ! include clustering tag in output
 3.0      = lhe_version       ! Change the way clustering information pass to shower.        
#*********************************************************************
#**********************************************************
#
#**********************************************************
# Automatic ptj and mjj cuts if xqcut > 0
# (turn off for VBF and single top processes)
#**********************************************************
   T  = auto_ptj_mjj  ! Automatic setting of ptj and mjj
#**********************************************************
#                                                                    
#**********************************
# BW cutoff (M+/-bwcutoff*Gamma)
#**********************************
  15  = bwcutoff      ! (M+/-bwcutoff*Gamma)
#**********************************************************
# Apply pt/E/eta/dr/mij cuts on decay products or not
# (note that etmiss/ptll/ptheavy/ht/sorted cuts always apply)
#**********************************************************
   T  = cut_decays    ! Cut decay products 
#*************************************************************
# Number of helicities to sum per event (0 = all helicities)
# 0 gives more stable result, but longer run time (needed for
# long decay chains e.g.).
# Use >=2 if most helicities contribute, e.g. pure QCD.
#*************************************************************
   0  = nhel          ! Number of helicities used per event
#*******************                                                 
# Standard Cuts
#*******************                                                 
#                                                                    
#*********************************************************************
# Minimum and maximum pt's (for max, -1 means no cut)                *
#*********************************************************************
 20  = ptj       ! minimum pt for the jets 
  0  = ptb       ! minimum pt for the b 
 10  = pta       ! minimum pt for the photons 
 10  = ptl       ! minimum pt for the charged leptons 
  0  = misset    ! minimum missing Et (sum of neutrino's momenta)
  0  = ptheavy   ! minimum pt for one heavy final state
 1.0 = ptonium   ! minimum pt for the quarkonium states
 -1  = ptjmax    ! maximum pt for the jets
 -1  = ptbmax    ! maximum pt for the b
 -1  = ptamax    ! maximum pt for the photons
 -1  = ptlmax    ! maximum pt for the charged leptons
 -1  = missetmax ! maximum missing Et (sum of neutrino's momenta)
#*********************************************************************
# Minimum and maximum E's (in the center of mass frame)              *
#*********************************************************************
  0  = ej     ! minimum E for the jets 
  0  = eb     ! minimum E for the b 
  0  = ea     ! minimum E for the photons 
  0  = el     ! minimum E for the charged leptons 
 -1   = ejmax ! maximum E for the jets
 -1   = ebmax ! maximum E for the b
 -1   = eamax ! maximum E for the photons
 -1   = elmax ! maximum E for the charged leptons
#*********************************************************************
# Maximum and minimum absolute rapidity (for max, -1 means no cut)   *
#*********************************************************************
   5  = etaj    ! max rap for the jets 
  -1  = etab    ! max rap for the b
 2.5  = etaa    ! max rap for the photons 
 2.5  = etal    ! max rap for the charged leptons 
 0.6  = etaonium ! max rap for the quarkonium states
   0  = etajmin ! min rap for the jets
   0  = etabmin ! min rap for the b
   0  = etaamin ! min rap for the photons
   0  = etalmin ! main rap for the charged leptons
#*********************************************************************
# Minimum and maximum DeltaR distance                                *
#*********************************************************************
 0.4 = drjj    ! min distance between jets 
 0   = drbb    ! min distance between b's 
 0.4 = drll    ! min distance between leptons 
 0.4 = draa    ! min distance between gammas 
 0   = drbj    ! min distance between b and jet 
 0.4 = draj    ! min distance between gamma and jet 
 0.4 = drjl    ! min distance between jet and lepton 
 0   = drab    ! min distance between gamma and b 
 0   = drbl    ! min distance between b and lepton 
 0.4 = dral    ! min distance between gamma and lepton 
 -1  = drjjmax ! max distance between jets
 -1  = drbbmax ! max distance between b's
 -1  = drllmax ! max distance between leptons
 -1  = draamax ! max distance between gammas
 -1  = drbjmax ! max distance between b and jet
 -1  = drajmax ! max distance between gamma and jet
 -1  = drjlmax ! max distance between jet and lepton
 -1  = drabmax ! max distance between gamma and b
 -1  = drblmax ! max distance between b and lepton
 -1  = dralmax ! maxdistance between gamma and lepton
#*********************************************************************
# Minimum and maximum invariant mass for pairs                       *
# WARNING: for four lepton final state mmll cut require to have      *
#          different lepton masses for each flavor!                  *           
#*********************************************************************
 0   = mmjj    ! min invariant mass of a jet pair 
 0   = mmbb    ! min invariant mass of a b pair 
 0   = mmaa    ! min invariant mass of gamma gamma pair
 0   = mmll    ! min invariant mass of l+l- (same flavour) lepton pair
 -1  = mmjjmax ! max invariant mass of a jet pair
 -1  = mmbbmax ! max invariant mass of a b pair
 -1  = mmaamax ! max invariant mass of gamma gamma pair
 -1  = mmllmax ! max invariant mass of l+l- (same flavour) lepton pair
#*********************************************************************
# Minimum and maximum invariant mass for all letpons                 *
#*********************************************************************
 0   = mmnl    ! min invariant mass for all letpons (l+- and vl) 
 -1  = mmnlmax ! max invariant mass for all letpons (l+- and vl) 
#*********************************************************************
# Minimum and maximum pt for 4-momenta sum of leptons                *
#*********************************************************************
 0   = ptllmin  ! Minimum pt for 4-momenta sum of leptons(l and vl)
 -1  = ptllmax  ! Maximum pt for 4-momenta sum of leptons(l and vl)
#*********************************************************************
# Inclusive cuts                                                     *
#*********************************************************************
 0  = xptj ! minimum pt for at least one jet  
 0  = xptb ! minimum pt for at least one b 
 0  = xpta ! minimum pt for at least one photon 
 0  = xptl ! minimum pt for at least one charged lepton 
#*********************************************************************
# Control the pt's of the jets sorted by pt                          *
#*********************************************************************
 0   = ptj1min ! minimum pt for the leading jet in pt
 0   = ptj2min ! minimum pt for the second jet in pt
 0   = ptj3min ! minimum pt for the third jet in pt
 0   = ptj4min ! minimum pt for the fourth jet in pt
 -1  = ptj1max ! maximum pt for the leading jet in pt 
 -1  = ptj2max ! maximum pt for the second jet in pt
 -1  = ptj3max ! maximum pt for the third jet in pt
 -1  = ptj4max ! maximum pt for the fourth jet in pt
 0   = cutuse  ! reject event if fails any (0) / all (1) jet pt cuts
#*********************************************************************
# Control the pt's of leptons sorted by pt                           *
#*********************************************************************
 0   = ptl1min ! minimum pt for the leading lepton in pt
 0   = ptl2min ! minimum pt for the second lepton in pt
 0   = ptl3min ! minimum pt for the third lepton in pt
 0   = ptl4min ! minimum pt for the fourth lepton in pt
 -1  = ptl1max ! maximum pt for the leading lepton in pt 
 -1  = ptl2max ! maximum pt for the second lepton in pt
 -1  = ptl3max ! maximum pt for the third lepton in pt
 -1  = ptl4max ! maximum pt for the fourth lepton in pt
#*********************************************************************
# Control the Ht(k)=Sum of k leading jets                            *
#*********************************************************************
 0   = htjmin ! minimum jet HT=Sum(jet pt)
 -1  = htjmax ! maximum jet HT=Sum(jet pt)
 0   = ihtmin  !inclusive Ht for all partons (including b)
 -1  = ihtmax  !inclusive Ht for all partons (including b)
 0   = ht2min ! minimum Ht for the two leading jets
 0   = ht3min ! minimum Ht for the three leading jets
 0   = ht4min ! minimum Ht for the four leading jets
 -1  = ht2max ! maximum Ht for the two leading jets
 -1  = ht3max ! maximum Ht for the three leading jets
 -1  = ht4max ! maximum Ht for the four leading jets
#***********************************************************************
# Photon-isolation cuts, according to hep-ph/9801442                   *
# When ptgmin=0, all the other parameters are ignored                  *
# When ptgmin>0, pta and draj are not going to be used                 *
#***********************************************************************
   0 = ptgmin ! Min photon transverse momentum
 0.4 = R0gamma ! Radius of isolation code
 1.0 = xn ! n parameter of eq.(3.4) in hep-ph/9801442
 1.0 = epsgamma ! epsilon_gamma parameter of eq.(3.4) in hep-ph/9801442
 .true. = isoEM ! isolate photons from EM energy (photons and leptons)
#*********************************************************************
# WBF cuts                                                           *
#*********************************************************************
 0   = xetamin ! minimum rapidity for two jets in the WBF case  
 0   = deltaeta ! minimum rapidity for two jets in the WBF case 
#*********************************************************************
# KT DURHAM CUT                                                      *
#*********************************************************************
 -1    =  ktdurham        
 0.4  =  dparameter 
#*********************************************************************
# maximal pdg code for quark to be considered as a light jet         *
# (otherwise b cuts are applied)                                     *
#*********************************************************************
 4 = maxjetflavor    ! Maximum jet pdg code
#*********************************************************************
# Jet measure cuts                                                   *
#*********************************************************************
 0   = xqcut   ! minimum kt jet measure between partons
#*********************************************************************
#
#*********************************************************************
# Store info for systematics studies                                 *
# WARNING: If use_syst is T, matched Pythia output is                *
#          meaningful ONLY if plotted taking matchscale              *
#          reweighting into account!                                 *
#*********************************************************************
   F  = use_syst      ! Enable systematics studies
#
#**************************************
# Parameter of the systematics study
#  will be used by SysCalc (if installed)
#**************************************                                  
#
0.5 1 2 = sys_scalefact  # factorization/renormalization scale factor
0.5 1 2 = sys_alpsfact  # \alpha_s emission scale factors
30 50 = sys_matchscale # variation of merging scale
# PDF sets and number of members (0 or none for all members).
CT10nlo.LHgrid = sys_pdf # matching scales
# MSTW2008nlo68cl.LHgrid 1  = sys_pdf
</MGRunCard>
<slha>
######################################################################
## PARAM_CARD AUTOMATICALY GENERATED BY MG5 FOLLOWING UFO MODEL   ####
######################################################################
##                                                                  ##
##  Width set on Auto will be computed following the information    ##
##        present in the decay.py files of the model.               ##
##        See  arXiv:1402.1178 for more details.                    ##
##                                                                  ##
######################################################################

###################################
## INFORMATION FOR CKMBLOCK
###################################
Block ckmblock 
    1 2.277360e-01 # cabi 

###################################
## INFORMATION FOR FRBLOCK
###################################
Block frblock 
    1 4.000000e-01 # gz 

###################################
## INFORMATION FOR MASS
###################################
Block mass 
    1 5.040000e-03 # MD 
    2 2.550000e-03 # MU 
    3 1.010000e-01 # MS 
    4 1.270000e+00 # MC 
    5 4.700000e+00 # MB 
    6 1.720000e+02 # MT 
   11 5.110000e-04 # Me 
   13 1.056600e-01 # MM 
   15 1.777000e+00 # MTA 
   23 9.118760e+01 # MZ 
   25 1.200000e+02 # MH 
  10030 3.100000e+03 # MZph 
  10031 3.000000e+02 # MZpl 
## Dependent parameters, given by model restrictions.
## Those values should be edited following the 
## analytical expression. MG5 ignores those values 
## but they are important for interfacing the output of MG5
## to external program such as Pythia.
  12 0.000000 # ve : 0.0 
  14 0.000000 # vm : 0.0 
  16 0.000000 # vt : 0.0 
  21 0.000000 # g : 0.0 
  22 0.000000 # a : 0.0 
  24 79.824360 # w+ : cmath.sqrt(MZ__exp__2/2. + cmath.sqrt(MZ__exp__4/4. - (aEW*cmath.pi*MZ__exp__2)/(Gf*sqrt__2))) 

###################################
## INFORMATION FOR SMINPUTS
###################################
Block sminputs 
    1 1.279000e+02 # aEWM1 
    2 1.166370e-05 # Gf 
    3 1.184000e-01 # aS 

###################################
## INFORMATION FOR YUKAWA
###################################
Block yukawa 
    1 5.040000e-03 # ymdo 
    2 2.550000e-03 # ymup 
    3 1.010000e-01 # yms 
    4 1.270000e+00 # ymc 
    5 4.700000e+00 # ymb 
    6 1.720000e+02 # ymt 
   11 5.110000e-04 # yme 
   13 1.056600e-01 # ymm 
   15 1.777000e+00 # ymtau 

###################################
## INFORMATION FOR DECAY
###################################
DECAY   6 1.508336e+00 # WT 
DECAY  23 2.495200e+00 # WZ 
DECAY  24 2.085000e+00 # WW 
DECAY  25 5.753088e-03 # WH 
## Dependent parameters, given by model restrictions.
## Those values should be edited following the 
## analytical expression. MG5 ignores those values 
## but they are important for interfacing the output of MG5
## to external program such as Pythia.
DECAY  1 0.000000 # d : 0.0 
DECAY  2 0.000000 # u : 0.0 
DECAY  3 0.000000 # s : 0.0 
DECAY  4 0.000000 # c : 0.0 
DECAY  5 0.000000 # b : 0.0 
DECAY  11 0.000000 # e- : 0.0 
DECAY  12 0.000000 # ve : 0.0 
DECAY  13 0.000000 # mu- : 0.0 
DECAY  14 0.000000 # vm : 0.0 
DECAY  15 0.000000 # ta- : 0.0 
DECAY  16 0.000000 # vt : 0.0 
DECAY  21 0.000000 # g : 0.0 
DECAY  22 0.000000 # a : 0.0 
DECAY  10030 0.308725 # zph : (gz__exp__2*MZph*(5 + cmath.sqrt(1 - (4*MT__exp__2)/MZph__exp__2)))/(144.*cmath.pi) 
DECAY  10031 0.132629 # zpl : (5*gz__exp__2*MZpl)/(144.*cmath.pi) 
#===========================================================
# QUANTUM NUMBERS OF NEW STATE(S) (NON SM PDG CODE)
#===========================================================

Block QNUMBERS 10030  # zph 
        1 0  # 3 times electric charge
        2 3  # number of spin states (2S+1)
        3 1  # colour rep (1: singlet, 3: triplet, 8: octet)
        4 0  # Particle/Antiparticle distinction (0=own anti)
Block QNUMBERS 10031  # zpl 
        1 0  # 3 times electric charge
        2 3  # number of spin states (2S+1)
        3 1  # colour rep (1: singlet, 3: triplet, 8: octet)
        4 0  # Particle/Antiparticle distinction (0=own anti)
</slha>
## END BANNER##
<MGGenerationInfo>
#  Number of Events        :         3957
#  Integrated weight (pb)  :  0.13816E-03
#  Max wgt                 :  0.53767E-07
#  Average wgt             :  0.34915E-07
</MGGenerationInfo>
</header>
<init>
     2212     2212  0.40000000000E+04  0.40000000000E+04 0 0  247000  247000 2   1
  0.13821011337E-03  0.28983509081E-06  0.53766780000E-07   0
</init>
<event>
 5   0  0.5154105E-07  0.3103853E+04  0.7818609E-02  0.8214681E-01
       -2   -1    0    0    0  501  0.00000000000E+00  0.00000000000E+00  0.20031968801E+04  0.20031968801E+04  0.25500000920E-02 0. -1.
        2   -1    0    0  501    0  0.00000000000E+00  0.00000000000E+00 -0.12023160860E+04  0.12023160860E+04  0.25500000920E-02 0.  1.
    10030    2    1    2    0    0  0.00000000000E+00  0.00000000000E+00  0.80088079412E+03  0.32055129661E+04  0.31038529813E+04 0.  0.
        1    1    3    3  502    0  0.88463374356E+02  0.81122986526E+03 -0.96285443647E+03  0.12621443375E+04  0.50400001928E-02 0.  1.
       -1    1    3    3    0  502 -0.88463374356E+02 -0.81122986526E+03  0.17637352306E+04  0.19433686286E+04  0.50400001928E-02 0. -1.
</event>
<event>
 5   0  0.5154105E-07  0.3101197E+04  0.7818609E-02  0.8215409E-01
        2   -1    0    0  501    0  0.00000000000E+00  0.00000000000E+00  0.22527561332E+04  0.22527561332E+04  0.25500000920E-02 0. -1.
       -2   -1    0    0    0  501  0.00000000000E+00  0.00000000000E+00 -0.10672952787E+04  0.10672952787E+04  0.25500000920E-02 0.  1.
    10030    2    1    2    0    0  0.00000000000E+00  0.00000000000E+00  0.11854608545E+04  0.33200514119E+04  0.31011971785E+04 0.  0.
        1    1    3    3  502    0 -0.66897798201E+03 -0.11268065490E+04 -0.29470209537E+03  0.13431581680E+04  0.50400001928E-02 0.  1.
       -1    1    3    3    0  502  0.66897798201E+03  0.11268065490E+04  0.14801629499E+04  0.19768932438E+04  0.50400001928E-02 0. -1.
</event>
<event>
 5   0  0.5342534E-07  0.3098911E+04  0.7818609E-02  0.8216037E-01
        2   -1    0    0  501    0  0.00000000000E+00  0.00000000000E+00  0.17376921130E+04  0.17376921130E+04  0.25500000920E-02 0. -1.
       -2   -1    0    0    0  501  0.00000000000E+00  0.00000000000E+00 -0.13816100259E+04  0.13816100259E+04  0.25500000920E-02 0.  1.
    10030    2    1    2    0    0  0.00000000000E+00  0.00000000000E+00  0.35608208708E+03  0.31193021388E+04  0.30989113218E+04 0.  0.
        3    1    3    3  502    0  0.15402996894E+04  0.37371267138E+02  0.12970854310E+02  0.15408075798E+04  0.10100000352E+00 0.  1.
       -3    1    3    3    0  502 -0.15402996894E+04 -0.37371267138E+02  0.34311123277E+03  0.15784945590E+04  0.10100000352E+00 0. -1.
</event>
<event>
 5   0  0.5154105E-07  0.3101075E+04  0.7818609E-02  0.8215443E-01
        2   -1    0    0  501    0  0.00000000000E+00  0.00000000000E+00  0.13694498782E+04  0.13694498782E+04  0.25500000920E-02 0. -1.
       -2   -1    0    0    0  501  0.00000000000E+00  0.00000000000E+00 -0.17555705087E+04  0.17555705087E+04  0.25500000920E-02 0.  1.
    10030    2    1    2    0    0  0.00000000000E+00  0.00000000000E+00 -0.38612063051E+03  0.31250203869E+04  0.31010745359E+04 0.  0.
        1    1    3    3  502    0 -0.71055471655E+03 -0.74661696303E+03  0.97426301825E+03  0.14182782955E+04  0.50400001928E-02 0. -1.
       -1    1    3    3    0  502  0.71055471655E+03  0.74661696303E+03 -0.13603836488E+04  0.17067420914E+04  0.50400001928E-02 0.  1.
</event>
<event>
 5   0  0.5342534E-07  0.3101633E+04  0.7818609E-02  0.8215290E-01
       -2   -1    0    0    0  501  0.00000000000E+00  0.00000000000E+00  0.24858143911E+04  0.24858143911E+04  0.25500000920E-02 0. -1.
        2   -1    0    0  501    0  0.00000000000E+00  0.00000000000E+00 -0.96750229703E+03  0.96750229703E+03  0.25500000920E-02 0.  1.
    10030    2    1    2    0    0  0.00000000000E+00  0.00000000000E+00  0.15183120941E+04  0.34533166881E+04  0.31016325594E+04 0.  0.
        3    1    3    3  502    0  0.29667874243E+03  0.12649197981E+04  0.17019197144E+04  0.21411611561E+04  0.10100000352E+00 0. -1.
       -3    1    3    3    0  502 -0.29667874243E+03 -0.12649197981E+04 -0.18360762036E+03  0.13121555320E+04  0.10100000352E+00 0.  1.
</event>
<event>
 5   0  0.1840359E-07  0.3094575E+04  0.7818609E-02  0.8217228E-01
       -1   -1    0    0    0  501  0.00000000000E+00  0.00000000000E+00  0.17380613721E+04  0.17380613721E+04  0.50400001928E-02 0.  1.
        1   -1    0    0  501    0  0.00000000000E+00  0.00000000000E+00 -0.13774536375E+04  0.13774536375E+04  0.50400001928E-02 0. -1.
    10030    2    1    2    0    0  0.00000000000E+00  0.00000000000E+00  0.36060773457E+03  0.31155150097E+04  0.30945752273E+04 0.  0.
        1    1    3    3  502    0 -0.19936642205E+03 -0.15161910071E+04 -0.56910555118E+02  0.15303009350E+04  0.50400001928E-02 0. -1.
       -1    1    3    3    0  502  0.19936642205E+03  0.15161910071E+04  0.41751828969E+03  0.15852140747E+04  0.50400001928E-02 0.  1.
</event>
<event>
 5   0  0.1830902E-07  0.3029399E+04  0.7818609E-02  0.8235385E-01
       -1   -1    0    0    0  501  0.00000000000E+00  0.00000000000E+00  0.10948685049E+04  0.10948685049E+04  0.50400001928E-02 0. -1.
        1   -1    0    0  501    0  0.00000000000E+00  0.00000000000E+00 -0.20955167628E+04  0.20955167628E+04  0.50400001928E-02 0.  1.
    10030    2    1    2    0    0  0.00000000000E+00  0.00000000000E+00 -0.10006482579E+04  0.31903852677E+04  0.30293994818E+04 0.  0.
        3    1    3    3  502    0  0.61720137745E+03  0.11582624858E+04  0.29603846131E+03  0.13454175215E+04  0.10100000352E+00 0. -1.
       -3    1    3    3    0  502 -0.61720137745E+03 -0.11582624858E+04 -0.12966867192E+04  0.18449677462E+04  0.10100000352E+00 0.  1.
</event>
<event>
 5   0  0.5154105E-07  0.3095667E+04  0.7818609E-02  0.8216928E-01
        2   -1    0    0  501    0  0.00000000000E+00  0.00000000000E+00  0.15594641200E+04  0.15594641200E+04  0.25500000920E-02 0. -1.
       -2   -1    0    0    0  501  0.00000000000E+00  0.00000000000E+00 -0.15362894239E+04  0.15362894239E+04  0.25500000920E-02 0.  1.
    10030    2    1    2    0    0  0.00000000000E+00  0.00000000000E+00  0.23174696086E+02  0.30957535440E+04  0.30956668003E+04 0.  0.
        1    1    3    3  502    0 -0.18712596573E+03  0.13621264491E+04  0.72251066832E+03  0.15531987176E+04  0.50400001928E-02 0. -1.
       -1    1    3    3    0  502  0.18712596573E+03 -0.13621264491E+04 -0.69933597223E+03  0.15425548264E+04  0.50400001928E-02 0.  1.
</event>
<event>
 5   0  0.1845123E-07  0.3096371E+04  0.7818609E-02  0.8216735E-01
        1   -1    0    0  501    0  0.00000000000E+00  0.00000000000E+00  0.13247968945E+04  0.13247968945E+04  0.50400001928E-02 0. -1.
       -1   -1    0    0    0  501  0.00000000000E+00  0.00000000000E+00 -0.18092418336E+04  0.18092418336E+04  0.50400001928E-02 0.  1.
    10030    2    1    2    0    0  0.00000000000E+00  0.00000000000E+00 -0.48444493905E+03  0.31340387282E+04  0.30963707547E+04 0.  0.
        2    1    3    3  502    0 -0.91245361437E+03 -0.70908638173E+03  0.80060386004E+03  0.14058241838E+04  0.25500000920E-02 0. -1.
       -2    1    3    3    0  502  0.91245361437E+03  0.70908638173E+03 -0.12850487991E+04  0.17282145443E+04  0.25500000920E-02 0.  1.
</event>
<event>
 5   0  0.5154105E-07  0.3100142E+04  0.7818609E-02  0.8215699E-01
       -2   -1    0    0    0  501  0.00000000000E+00  0.00000000000E+00  0.11172689394E+04  0.11172689394E+04  0.25500000920E-02 0.  1.
        2   -1    0    0  501    0  0.00000000000E+00  0.00000000000E+00 -0.21505299328E+04  0.21505299328E+04  0.25500000920E-02 0. -1.
    10030    2    1    2    0    0  0.00000000000E+00  0.00000000000E+00 -0.10332609934E+04  0.32677988722E+04  0.31001421239E+04 0.  0.
        1    1    3    3  502    0  0.11776889273E+04 -0.96375483116E+03 -0.82744251334E+03  0.17321765779E+04  0.50400001928E-02 0.  1.
       -1    1    3    3    0  502 -0.11776889273E+04  0.96375483116E+03 -0.20581848011E+03  0.15356222943E+04  0.50400001928E-02 0. -1.
</event>
<event>
 5   0  0.5376678E-07  0.3105917E+04  0.7818609E-02  0.8214116E-01
        2   -1    0    0  501    0  0.00000000000E+00  0.00000000000E+00  0.23291673705E+04  0.23291673705E+04  0.25500000920E-02 0.  1.
       -2   -1    0    0    0  501  0.00000000000E+00  0.00000000000E+00 -0.10354260794E+04  0.10354260794E+04  0.25500000920E-02 0. -1.
    10030    2    1    2    0    0  0.00000000000E+00  0.00000000000E+00  0.12937412910E+04  0.33645934499E+04  0.31059173452E+04 0.  0.
        5    1    3    3  502    0 -0.35700164860E+03 -0.94984459106E+03  0.19203657859E+04  0.21719764654E+04  0.46999998093E+01 0.  1.
       -5    1    3    3    0  502  0.35700164860E+03  0.94984459106E+03 -0.62662449488E+03  0.11926169846E+04  0.46999998093E+01 0. -1.
</event>
<event>
 5   0  0.5376678E-07  0.3099621E+04  0.7818609E-02  0.8215842E-01
       -2   -1    0    0    0  501  0.00000000000E+00  0.00000000000E+00  0.13881047016E+04  0.13881047016E+04  0.25500000920E-02 0.  1.
        2   -1    0    0  501    0  0.00000000000E+00  0.00000000000E+00 -0.17303534987E+04  0.17303534987E+04  0.25500000920E-02 0. -1.
    10030    2    1    2    0    0  0.00000000000E+00  0.00000000000E+00 -0.34224879705E+03  0.31184582003E+04  0.30996205104E+04 0.  0.
        5    1    3    3  502    0 -0.10913250902E+04 -0.57741712776E+03 -0.11135610740E+04  0.16626609238E+04  0.46999998093E+01 0. -1.
       -5    1    3    3    0  502  0.10913250902E+04  0.57741712776E+03  0.77131227699E+03  0.14557972766E+04  0.46999998093E+01 0.  1.
</event>
<event>
 5   0  0.1814075E-07  0.3059225E+04  0.7818609E-02  0.8227018E-01
        1   -1    0    0  501    0  0.00000000000E+00  0.00000000000E+00  0.22526133225E+04  0.22526133225E+04  0.50400001928E-02 0. -1.
       -1   -1    0    0    0  501  0.00000000000E+00  0.00000000000E+00 -0.10386664115E+04  0.10386664115E+04  0.50400001928E-02 0.  1.
    10030    2    1    2    0    0  0.00000000000E+00  0.00000000000E+00  0.12139469110E+04  0.32912797340E+04  0.30592246051E+04 0.  0.
        5    1    3    3  502    0 -0.50106447936E+03 -0.84602021361E+03 -0.65360265189E+03  0.11806923100E+04  0.46999998093E+01 0.  1.
       -5    1    3    3    0  502  0.50106447936E+03  0.84602021361E+03  0.18675495629E+04  0.21105874240E+04  0.46999998093E+01 0. -1.
</event>
<event>
 5   0  0.1840359E-07  0.3092805E+04  0.7818609E-02  0.8217715E-01
       -1   -1    0    0    0  501  0.00000000000E+00  0.00000000000E+00  0.18666024769E+04  0.18666024769E+04  0.50400001928E-02 0. -1.
        1   -1    0    0  501    0  0.00000000000E+00  0.00000000000E+00 -0.12811300888E+04  0.12811300888E+04  0.50400001928E-02 0.  1.
    10030    2    1    2    0    0  0.00000000000E+00  0.00000000000E+00  0.58547238811E+03  0.31477325657E+04  0.30928049386E+04 0.  0.
        1    1    3    3  502    0 -0.32433758044E+03  0.14931963944E+04  0.50752677675E+02  0.15288578000E+04  0.50400001928E-02 0. -1.
       -1    1    3    3    0  502  0.32433758044E+03 -0.14931963944E+04  0.53471971044E+03  0.16188747657E+04  0.50400001928E-02 0.  1.
</event>
<event>
 5   0  0.1830902E-07  0.3104382E+04  0.7818609E-02  0.8214536E-01
        1   -1    0    0  501    0  0.00000000000E+00  0.00000000000E+00  0.17425319440E+04  0.17425319440E+04  0.50400001928E-02 0. -1.
       -1   -1    0    0    0  501  0.00000000000E+00  0.00000000000E+00 -0.13826410631E+04  0.13826410631E+04  0.50400001928E-02 0.  1.
    10030    2    1    2    0    0  0.00000000000E+00  0.00000000000E+00  0.35989088083E+03  0.31251730071E+04  0.31043815613E+04 0.  0.
        3    1    3    3  502    0  0.12198608399E+00  0.72706122618E+03 -0.12006174991E+04  0.14036026613E+04  0.10100000352E+00 0.  1.
       -3    1    3    3    0  502 -0.12198608399E+00 -0.72706122618E+03  0.15605083799E+04  0.17215703458E+04  0.10100000352E+00 0. -1.
</event>
<event>
 5   0  0.1830902E-07  0.3100705E+04  0.7818609E-02  0.8215545E-01
       -1   -1    0    0    0  501  0.00000000000E+00  0.00000000000E+00  0.99711389851E+03  0.99711389852E+03  0.50400001928E-02 0. -1.
        1   -1    0    0  501    0  0.00000000000E+00  0.00000000000E+00 -0.24105493632E+04  0.24105493632E+04  0.50400001928E-02 0.  1.
    10030    2    1    2    0    0  0.00000000000E+00  0.00000000000E+00 -0.14134354647E+04  0.34076632618E+04  0.31007046123E+04 0.  0.
        3    1    3    3  502    0  0.11130025665E+04 -0.63880386763E+03 -0.16627480817E+04  0.21003752731E+04  0.10100000352E+00 0.  1.
       -3    1    3    3    0  502 -0.11130025665E+04  0.63880386763E+03  0.24931261699E+03  0.13072879887E+04  0.10100000352E+00 0. -1.
</event>
<event>
 5   0  0.5154105E-07  0.3101442E+04  0.7818609E-02  0.8215342E-01
       -2   -1    0    0    0  501  0.00000000000E+00  0.00000000000E+00  0.23884087840E+04  0.23884087840E+04  0.25500000920E-02 0.  1.
        2   -1    0    0  501    0  0.00000000000E+00  0.00000000000E+00 -0.10068358667E+04  0.10068358667E+04  0.25500000920E-02 0. -1.
    10030    2    1    2    0    0  0.00000000000E+00  0.00000000000E+00  0.13815729173E+04  0.33952446506E+04  0.31014420052E+04 0.  0.
        1    1    3    3  502    0 -0.14429038834E+04 -0.49870798942E+03  0.98869482725E+03  0.18188454407E+04  0.50400001928E-02 0.  1.
       -1    1    3    3    0  502  0.14429038834E+04  0.49870798942E+03  0.39287809006E+03  0.15763992100E+04  0.50400001928E-02 0. -1.
</event>
<event>
 5   0  0.1875284E-07  0.3110841E+04  0.7818609E-02  0.8212769E-01
       -1   -1    0    0    0  501  0.00000000000E+00  0.00000000000E+00  0.14942904249E+04  0.14942904249E+04  0.50400001928E-02 0.  1.
        1   -1    0    0  501    0  0.00000000000E+00  0.00000000000E+00 -0.16190516134E+04  0.16190516134E+04  0.50400001928E-02 0. -1.
    10030    2    1    2    0    0  0.00000000000E+00  0.00000000000E+00 -0.12476118853E+03  0.31133420384E+04  0.31108412518E+04 0.  0.
        4    1    3    3  502    0  0.76199174289E+03 -0.10054122650E+04  0.84821152536E+03  0.15201807930E+04  0.12699999809E+01 0.  1.
       -4    1    3    3    0  502 -0.76199174289E+03  0.10054122650E+04 -0.97297271389E+03  0.15931612453E+04  0.12699999809E+01 0. -1.
</event>
<event>
 5   0  0.1840359E-07  0.3100954E+04  0.7818609E-02  0.8215476E-01
        1   -1    0    0  501    0  0.00000000000E+00  0.00000000000E+00  0.10561249613E+04  0.10561249613E+04  0.50400001928E-02 0.  1.
       -1   -1    0    0    0  501  0.00000000000E+00  0.00000000000E+00 -0.22762264095E+04  0.22762264095E+04  0.50400001928E-02 0. -1.
    10030    2    1    2    0    0  0.00000000000E+00  0.00000000000E+00 -0.12201014482E+04  0.33323513708E+04  0.31009543877E+04 0.  0.
        1    1    3    3  502    0  0.22046203655E+03 -0.32965647841E+03 -0.22208009702E+04  0.22559330337E+04  0.50400001928E-02 0. -1.
       -1    1    3    3    0  502 -0.22046203655E+03  0.32965647841E+03  0.10006995219E+04  0.10764183371E+04  0.50400001928E-02 0.  1.
</event>
<event>
 5   0  0.5055900E-07  0.3100311E+04  0.7818609E-02  0.8215653E-01
       -2   -1    0    0    0  501  0.00000000000E+00  0.00000000000E+00  0.82346611763E+03  0.82346611763E+03  0.25500000920E-02 0. -1.
        2   -1    0    0  501    0  0.00000000000E+00  0.00000000000E+00 -0.29181308165E+04  0.29181308165E+04  0.25500000920E-02 0.  1.
    10030    2    1    2    0    0  0.00000000000E+00  0.00000000000E+00 -0.20946646988E+04  0.37415969341E+04  0.31003108581E+04 0.  0.
        2    1    3    3  502    0 -0.61556018003E+03 -0.72500365390E+03 -0.25246403025E+04  0.26978423398E+04  0.25500000920E-02 0.  1.
       -2    1    3    3    0  502  0.61556018003E+03  0.72500365390E+03  0.42997560364E+03  0.10437545943E+04  0.25500000920E-02 0. -1.
</event>
<event>
 5   0  0.1830902E-07  0.3104100E+04  0.7818609E-02  0.8214614E-01
        1   -1    0    0  501    0  0.00000000000E+00  0.00000000000E+00  0.19905444856E+04  0.19905444856E+04  0.50400001928E-02 0.  1.
       -1   -1    0    0    0  501  0.00000000000E+00  0.00000000000E+00 -0.12101510575E+04  0.12101510575E+04  0.50400001928E-02 0. -1.
    10030    2    1    2    0    0  0.00000000000E+00  0.00000000000E+00  0.78039342804E+03  0.32006955431E+04  0.31041002009E+04 0.  0.
        3    1    3    3  502    0  0.54762244878E+03  0.99226833910E+03  0.14835582198E+04  0.18669311195E+04  0.10100000352E+00 0.  1.
       -3    1    3    3    0  502 -0.54762244878E+03 -0.99226833910E+03 -0.70316479175E+03  0.13337644236E+04  0.10100000352E+00 0. -1.
</event>
<event>
 5   0  0.5342534E-07  0.3101356E+04  0.7818609E-02  0.8215366E-01
        2   -1    0    0  501    0  0.00000000000E+00  0.00000000000E+00  0.19961732530E+04  0.19961732530E+04  0.25500000920E-02 0. -1.
       -2   -1    0    0    0  501  0.00000000000E+00  0.00000000000E+00 -0.12046059786E+04  0.12046059786E+04  0.25500000920E-02 0.  1.
    10030    2    1    2    0    0  0.00000000000E+00  0.00000000000E+00  0.79156727441E+03  0.32007792315E+04  0.31013559839E+04 0.  0.
        3    1    3    3  502    0  0.43619170870E+03  0.93830054412E+03 -0.79620139418E+03  0.13056062914E+04  0.10100000352E+00 0.  1.
       -3    1    3    3    0  502 -0.43619170870E+03 -0.93830054412E+03  0.15877686686E+04  0.18951729401E+04  0.10100000352E+00 0. -1.
</event>
<event>
 5   0  0.1840359E-07  0.3103503E+04  0.7818609E-02  0.8214777E-01
        1   -1    0    0  501    0  0.00000000000E+00  0.00000000000E+00  0.11671739277E+04  0.11671739277E+04  0.50400001928E-02 0.  1.
       -1   -1    0    0    0  501  0.00000000000E+00  0.00000000000E+00 -0.20630454180E+04  0.20630454180E+04  0.50400001928E-02 0. -1.
    10030    2    1    2    0    0  0.00000000000E+00  0.00000000000E+00 -0.89587149038E+03  0.32302193457E+04  0.31035030682E+04 0.  0.
        1    1    3    3  502    0 -0.65874438476E+03 -0.39292011214E+03  0.95606743179E+03  0.12257223638E+04  0.50400001928E-02 0.  1.
       -1    1    3    3    0  502  0.65874438476E+03  0.39292011214E+03 -0.18519389222E+04  0.20044969819E+04  0.50400001928E-02 0. -1.
</event>
<event>
 5   0  0.5055900E-07  0.3092081E+04  0.7818609E-02  0.8217914E-01
       -2   -1    0    0    0  501  0.00000000000E+00  0.00000000000E+00  0.11334737112E+04  0.11334737112E+04  0.25500000920E-02 0.  1.
        2   -1    0    0  501    0  0.00000000000E+00  0.00000000000E+00 -0.21087756700E+04  0.21087756700E+04  0.25500000920E-02 0. -1.
    10030    2    1    2    0    0  0.00000000000E+00  0.00000000000E+00 -0.97530195882E+03  0.32422493812E+04  0.30920813603E+04 0.  0.
        2    1    3    3  502    0  0.14531714271E+04  0.52735281667E+03 -0.50948519386E+03  0.16276926468E+04  0.25500000920E-02 0. -1.
       -2    1    3    3    0  502 -0.14531714271E+04 -0.52735281667E+03 -0.46581676496E+03  0.16145567343E+04  0.25500000920E-02 0.  1.
</event>
<event>
 5   0  0.1845123E-07  0.3100277E+04  0.7818609E-02  0.8215662E-01
        1   -1    0    0  501    0  0.00000000000E+00  0.00000000000E+00  0.17997551938E+04  0.17997551938E+04  0.50400001928E-02 0. -1.
       -1   -1    0    0    0  501  0.00000000000E+00  0.00000000000E+00 -0.13351425463E+04  0.13351425463E+04  0.50400001928E-02 0.  1.
    10030    2    1    2    0    0  0.00000000000E+00  0.00000000000E+00  0.46461264749E+03  0.31348977401E+04  0.31002772341E+04 0.  0.
        2    1    3    3  502    0 -0.23662372552E+03  0.12842147819E+04  0.10769372176E+04  0.16926287733E+04  0.25500000920E-02 0. -1.
       -2    1    3    3    0  502  0.23662372552E+03 -0.12842147819E+04 -0.61232457007E+03  0.14422689668E+04  0.25500000920E-02 0.  1.
</event>
<event>
 5   0  0.5342534E-07  0.3096073E+04  0.7818609E-02  0.8216817E-01
       -2   -1    0    0    0  501  0.00000000000E+00  0.00000000000E+00  0.11932862888E+04  0.11932862888E+04  0.25500000920E-02 0.  1.
        2   -1    0    0  501    0  0.00000000000E+00  0.00000000000E+00 -0.20082494507E+04  0.20082494507E+04  0.25500000920E-02 0. -1.
    10030    2    1    2    0    0  0.00000000000E+00  0.00000000000E+00 -0.81496316193E+03  0.32015357395E+04  0.30960726956E+04 0.  0.
        3    1    3    3  502    0 -0.38046976068E+03  0.11267280660E+04 -0.14322709254E+04  0.18616319152E+04  0.10100000352E+00 0. -1.
       -3    1    3    3    0  502  0.38046976068E+03 -0.11267280660E+04  0.61730776351E+03  0.13399038244E+04  0.10100000352E+00 0.  1.
</event>
<event>
 5   0  0.5376678E-07  0.3102083E+04  0.7818609E-02  0.8215167E-01
        2   -1    0    0  501    0  0.00000000000E+00  0.00000000000E+00  0.18565464748E+04  0.18565464748E+04  0.25500000920E-02 0. -1.
       -2   -1    0    0    0  501  0.00000000000E+00  0.00000000000E+00 -0.12958089965E+04  0.12958089965E+04  0.25500000920E-02 0.  1.
    10030    2    1    2    0    0  0.00000000000E+00  0.00000000000E+00  0.56073747825E+03  0.31523554713E+04  0.31020829290E+04 0.  0.
        5    1    3    3  502    0  0.11558012585E+04 -0.83341234478E+03 -0.34213926071E+03  0.14654467064E+04  0.46999998093E+01 0.  1.
       -5    1    3    3    0  502 -0.11558012585E+04  0.83341234478E+03  0.90287673896E+03  0.16869087650E+04  0.46999998093E+01 0. -1.
</event>
<event>
 5   0  0.1845123E-07  0.3084040E+04  0.7818609E-02  0.8220132E-01
        1   -1    0    0  501    0  0.00000000000E+00  0.00000000000E+00  0.18878940970E+04  0.18878940971E+04  0.50400001928E-02 0.  1.
       -1   -1    0    0    0  501  0.00000000000E+00  0.00000000000E+00 -0.12595123807E+04  0.12595123807E+04  0.50400001928E-02 0. -1.
    10030    2    1    2    0    0  0.00000000000E+00  0.00000000000E+00  0.62838171638E+03  0.31474064777E+04  0.30840401999E+04 0.  0.
        2    1    3    3  502    0  0.14789651026E+04 -0.27047996335E+03 -0.35379922622E+02  0.15039112089E+04  0.25500000920E-02 0. -1.
       -2    1    3    3    0  502 -0.14789651026E+04  0.27047996335E+03  0.66376163900E+03  0.16434952688E+04  0.25500000920E-02 0.  1.
</event>
<event>
 5   0  0.5342534E-07  0.3096236E+04  0.7818609E-02  0.8216772E-01
       -2   -1    0    0    0  501  0.00000000000E+00  0.00000000000E+00  0.96701788891E+03  0.96701788891E+03  0.25500000920E-02 0. -1.
        2   -1    0    0  501    0  0.00000000000E+00  0.00000000000E+00 -0.24784130837E+04  0.24784130837E+04  0.25500000920E-02 0.  1.
    10030    2    1    2    0    0  0.00000000000E+00  0.00000000000E+00 -0.15113951948E+04  0.34454309726E+04  0.30962362882E+04 0.  0.
        3    1    3    3  502    0 -0.82918876784E+03  0.39838712681E+03  0.62988309177E+03  0.11149076352E+04  0.10100000352E+00 0. -1.
       -3    1    3    3    0  502  0.82918876784E+03 -0.39838712681E+03 -0.21412782866E+04  0.23305233374E+04  0.10100000352E+00 0.  1.
</event>
<event>
 5   0  0.5154105E-07  0.3077221E+04  0.7818609E-02  0.8222017E-01
        2   -1    0    0  501    0  0.00000000000E+00  0.00000000000E+00  0.15916725731E+04  0.15916725731E+04  0.25500000920E-02 0.  1.
       -2   -1    0    0    0  501  0.00000000000E+00  0.00000000000E+00 -0.14873175497E+04  0.14873175497E+04  0.25500000920E-02 0. -1.
    10030    2    1    2    0    0  0.00000000000E+00  0.00000000000E+00  0.10435502340E+03  0.30789901228E+04  0.30772211824E+04 0.  0.
        1    1    3    3  502    0 -0.31300883145E+03 -0.78292256144E+03  0.13399217305E+04  0.15831400790E+04  0.50400001928E-02 0.  1.
       -1    1    3    3    0  502  0.31300883145E+03  0.78292256144E+03 -0.12355667071E+04  0.14958500438E+04  0.50400001928E-02 0. -1.
</event>
<event>
 5   0  0.1814075E-07  0.3098569E+04  0.7818609E-02  0.8216131E-01
       -1   -1    0    0    0  501  0.00000000000E+00  0.00000000000E+00  0.19588477294E+04  0.19588477294E+04  0.50400001928E-02 0. -1.
        1   -1    0    0  501    0  0.00000000000E+00  0.00000000000E+00 -0.12253545133E+04  0.12253545133E+04  0.50400001928E-02 0.  1.
    10030    2    1    2    0    0  0.00000000000E+00  0.00000000000E+00  0.73349321609E+03  0.31842022427E+04  0.30985692867E+04 0.  0.
        5    1    3    3  502    0 -0.10904000709E+04 -0.90480631955E+02 -0.76042648356E+03  0.13324524706E+04  0.46999998093E+01 0.  1.
       -5    1    3    3    0  502  0.10904000709E+04  0.90480631955E+02  0.14939196997E+04  0.18517497721E+04  0.46999998093E+01 0. -1.
</event>
<event>
 5   0  0.5342534E-07  0.3098733E+04  0.7818609E-02  0.8216086E-01
       -2   -1    0    0    0  501  0.00000000000E+00  0.00000000000E+00  0.20227970141E+04  0.20227970141E+04  0.25500000920E-02 0.  1.
        2   -1    0    0  501    0  0.00000000000E+00  0.00000000000E+00 -0.11867412830E+04  0.11867412830E+04  0.25500000920E-02 0. -1.
    10030    2    1    2    0    0  0.00000000000E+00  0.00000000000E+00  0.83605573112E+03  0.32095382971E+04  0.30987331113E+04 0.  0.
        3    1    3    3  502    0  0.11793283048E+04  0.33387052038E+03  0.13996796741E+04  0.18604805763E+04  0.10100000352E+00 0.  1.
       -3    1    3    3    0  502 -0.11793283048E+04 -0.33387052038E+03 -0.56362394293E+03  0.13490577208E+04  0.10100000352E+00 0. -1.
</event>
<event>
 5   0  0.1875284E-07  0.3122246E+04  0.7818609E-02  0.8209659E-01
        1   -1    0    0  501    0  0.00000000000E+00  0.00000000000E+00  0.19395433208E+04  0.19395433208E+04  0.50400001928E-02 0. -1.
       -1   -1    0    0    0  501  0.00000000000E+00  0.00000000000E+00 -0.12565352644E+04  0.12565352645E+04  0.50400001928E-02 0.  1.
    10030    2    1    2    0    0  0.00000000000E+00  0.00000000000E+00  0.68300805632E+03  0.31960785852E+04  0.31222457171E+04 0.  0.
        4    1    3    3  502    0 -0.27489548477E+03 -0.76589509185E+03 -0.10222694085E+04  0.13065983223E+04  0.12699999809E+01 0.  1.
       -4    1    3    3    0  502  0.27489548477E+03  0.76589509185E+03  0.17052774648E+04  0.18894802630E+04  0.12699999809E+01 0. -1.
</event>
<event>
 5   0  0.1840359E-07  0.3084800E+04  0.7818609E-02  0.8219922E-01
        1   -1    0    0  501    0  0.00000000000E+00  0.00000000000E+00  0.17305353618E+04  0.17305353619E+04  0.50400001928E-02 0.  1.
       -1   -1    0    0    0  501  0.00000000000E+00  0.00000000000E+00 -0.13747176256E+04  0.13747176256E+04  0.50400001928E-02 0. -1.
    10030    2    1    2    0    0  0.00000000000E+00  0.00000000000E+00  0.35581773622E+03  0.31052529875E+04  0.30847998079E+04 0.  0.
        1    1    3    3  502    0 -0.55860798988E+03  0.73327340932E+03 -0.10669248200E+04  0.14099862945E+04  0.50400001928E-02 0. -1.
       -1    1    3    3    0  502  0.55860798988E+03 -0.73327340932E+03  0.14227425562E+04  0.16952666930E+04  0.50400001928E-02 0.  1.
</event>
<event>
 5   0  0.1830902E-07  0.3103169E+04  0.7818609E-02  0.8214869E-01
       -1   -1    0    0    0  501  0.00000000000E+00  0.00000000000E+00  0.10693712596E+04  0.10693712596E+04  0.50400001928E-02 0.  1.
        1   -1    0    0  501    0  0.00000000000E+00  0.00000000000E+00 -0.22512426618E+04  0.22512426618E+04  0.50400001928E-02 0. -1.
    10030    2    1    2    0    0  0.00000000000E+00  0.00000000000E+00 -0.11818714022E+04  0.33206139213E+04  0.31031688325E+04 0.  0.
        3    1    3    3  502    0  0.15665789551E+03  0.10481516776E+04 -0.18035923734E+04  0.20919151740E+04  0.10100000352E+00 0. -1.
       -3    1    3    3    0  502 -0.15665789551E+03 -0.10481516776E+04  0.62172097117E+03  0.12286987474E+04  0.10100000352E+00 0.  1.
</event>
<event>
 5   0  0.5248309E-07  0.3103245E+04  0.7818609E-02  0.8214848E-01
        2   -1    0    0  501    0  0.00000000000E+00  0.00000000000E+00  0.15042927654E+04  0.15042927654E+04  0.25500000920E-02 0. -1.
       -2   -1    0    0    0  501  0.00000000000E+00  0.00000000000E+00 -0.16004410479E+04  0.16004410479E+04  0.25500000920E-02 0.  1.
    10030    2    1    2    0    0  0.00000000000E+00  0.00000000000E+00 -0.96148282569E+02  0.31047338133E+04  0.31032446825E+04 0.  0.
        4    1    3    3  502    0 -0.81162098130E+03 -0.11482452972E+04 -0.70438770886E+03  0.15726918125E+04  0.12699999809E+01 0.  1.
       -4    1    3    3    0  502  0.81162098130E+03  0.11482452972E+04  0.60823942629E+03  0.15320420008E+04  0.12699999809E+01 0. -1.
</event>
<event>
 5   0  0.5248309E-07  0.3098349E+04  0.7818609E-02  0.8216191E-01
        2   -1    0    0  501    0  0.00000000000E+00  0.00000000000E+00  0.22348699615E+04  0.22348699615E+04  0.25500000920E-02 0.  1.
       -2   -1    0    0    0  501  0.00000000000E+00  0.00000000000E+00 -0.10738620076E+04  0.10738620076E+04  0.25500000920E-02 0. -1.
    10030    2    1    2    0    0  0.00000000000E+00  0.00000000000E+00  0.11610079539E+04  0.33087319692E+04  0.30983492015E+04 0.  0.
        4    1    3    3  502    0 -0.96448523853E+03 -0.40203034656E+02 -0.71341743656E+03  0.12003391650E+04  0.12699999809E+01 0. -1.
       -4    1    3    3    0  502  0.96448523853E+03  0.40203034656E+02  0.18744253905E+04  0.21083928042E+04  0.12699999809E+01 0.  1.
</event>
<event>
 5   0  0.1845123E-07  0.3102054E+04  0.7818609E-02  0.8215174E-01
        1   -1    0    0  501    0  0.00000000000E+00  0.00000000000E+00  0.19751533224E+04  0.19751533224E+04  0.50400001928E-02 0.  1.
       -1   -1    0    0    0  501  0.00000000000E+00  0.00000000000E+00 -0.12179738893E+04  0.12179738893E+04  0.50400001928E-02 0. -1.
    10030    2    1    2    0    0  0.00000000000E+00  0.00000000000E+00  0.75717943313E+03  0.31931272117E+04  0.31020542703E+04 0.  0.
        2    1    3    3  502    0 -0.13373701964E+03  0.69895665399E+03 -0.10400069872E+04  0.12601748005E+04  0.25500000920E-02 0. -1.
       -2    1    3    3    0  502  0.13373701964E+03 -0.69895665399E+03  0.17971864203E+04  0.19329524112E+04  0.25500000920E-02 0.  1.
</event>
<event>
 5   0  0.1830902E-07  0.3106014E+04  0.7818609E-02  0.8214089E-01
        1   -1    0    0  501    0  0.00000000000E+00  0.00000000000E+00  0.14277750867E+04  0.14277750867E+04  0.50400001928E-02 0. -1.
       -1   -1    0    0    0  501  0.00000000000E+00  0.00000000000E+00 -0.16892229054E+04  0.16892229054E+04  0.50400001928E-02 0.  1.
    10030    2    1    2    0    0  0.00000000000E+00  0.00000000000E+00 -0.26144781873E+03  0.31169979921E+04  0.31060137670E+04 0.  0.
        3    1    3    3  502    0  0.40080730927E+03  0.14883931424E+04 -0.32078672844E+03  0.15744411011E+04  0.10100000352E+00 0.  1.
       -3    1    3    3    0  502 -0.40080730927E+03 -0.14883931424E+04  0.59338909705E+02  0.15425568910E+04  0.10100000352E+00 0. -1.
</event>
<event>
 5   0  0.1814075E-07  0.3101950E+04  0.7818609E-02  0.8215203E-01
        1   -1    0    0  501    0  0.00000000000E+00  0.00000000000E+00  0.17468634285E+04  0.17468634285E+04  0.50400001928E-02 0. -1.
       -1   -1    0    0    0  501  0.00000000000E+00  0.00000000000E+00 -0.13770528149E+04  0.13770528149E+04  0.50400001928E-02 0.  1.
    10030    2    1    2    0    0  0.00000000000E+00  0.00000000000E+00  0.36981061364E+03  0.31239162434E+04  0.31019498394E+04 0.  0.
        5    1    3    3  502    0 -0.38427090666E+03  0.10650826958E+04 -0.88252307630E+03  0.14355954684E+04  0.46999998093E+01 0.  1.
       -5    1    3    3    0  502  0.38427090666E+03 -0.10650826958E+04  0.12523336899E+04  0.16883207751E+04  0.46999998093E+01 0. -1.
</event>
<event>
 5   0  0.5055900E-07  0.3099728E+04  0.7818609E-02  0.8215812E-01
       -2   -1    0    0    0  501  0.00000000000E+00  0.00000000000E+00  0.17645475560E+04  0.17645475560E+04  0.25500000920E-02 0. -1.
        2   -1    0    0  501    0  0.00000000000E+00  0.00000000000E+00 -0.13613002381E+04  0.13613002381E+04  0.25500000920E-02 0.  1.
    10030    2    1    2    0    0  0.00000000000E+00  0.00000000000E+00  0.40324731797E+03  0.31258477941E+04  0.30997283804E+04 0.  0.
        2    1    3    3  502    0  0.66785947158E+03  0.11085891681E+04  0.10614943255E+04  0.16738507761E+04  0.25500000920E-02 0. -1.
       -2    1    3    3    0  502 -0.66785947158E+03 -0.11085891681E+04 -0.65824700754E+03  0.14519970180E+04  0.25500000920E-02 0.  1.
</event>
<event>
 5   0  0.5342534E-07  0.3097197E+04  0.7818609E-02  0.8216508E-01
       -2   -1    0    0    0  501  0.00000000000E+00  0.00000000000E+00  0.12577690496E+04  0.12577690496E+04  0.25500000920E-02 0.  1.
        2   -1    0    0  501    0  0.00000000000E+00  0.00000000000E+00 -0.19066748085E+04  0.19066748085E+04  0.25500000920E-02 0. -1.
    10030    2    1    2    0    0  0.00000000000E+00  0.00000000000E+00 -0.64890575897E+03  0.31644438581E+04  0.30971965141E+04 0.  0.
        3    1    3    3  502    0  0.66659274154E+03 -0.85622409437E+03  0.80438480435E+03  0.13507407251E+04  0.10100000352E+00 0.  1.
       -3    1    3    3    0  502 -0.66659274154E+03  0.85622409437E+03 -0.14532905633E+04  0.18137031330E+04  0.10100000352E+00 0. -1.
</event>
<event>
 5   0  0.5154105E-07  0.3091878E+04  0.7818609E-02  0.8217970E-01
       -2   -1    0    0    0  501  0.00000000000E+00  0.00000000000E+00  0.12464936300E+04  0.12464936300E+04  0.25500000920E-02 0. -1.
        2   -1    0    0  501    0  0.00000000000E+00  0.00000000000E+00 -0.19173202247E+04  0.19173202247E+04  0.25500000920E-02 0.  1.
    10030    2    1    2    0    0  0.00000000000E+00  0.00000000000E+00 -0.67082659474E+03  0.31638138547E+04  0.30918780356E+04 0.  0.
        1    1    3    3  502    0 -0.51170456339E+03  0.12765128773E+03  0.11515972207E+04  0.12666146099E+04  0.50400001928E-02 0. -1.
       -1    1    3    3    0  502  0.51170456339E+03 -0.12765128773E+03 -0.18224238154E+04  0.18971992448E+04  0.50400001928E-02 0.  1.
</event>
<event>
 5   0  0.5055900E-07  0.3085677E+04  0.7818609E-02  0.8219680E-01
        2   -1    0    0  501    0  0.00000000000E+00  0.00000000000E+00  0.15983772719E+04  0.15983772719E+04  0.25500000920E-02 0.  1.
       -2   -1    0    0    0  501  0.00000000000E+00  0.00000000000E+00 -0.14892295091E+04  0.14892295091E+04  0.25500000920E-02 0. -1.
    10030    2    1    2    0    0  0.00000000000E+00  0.00000000000E+00  0.10914776277E+03  0.30876067810E+04  0.30856769760E+04 0.  0.
        2    1    3    3  502    0  0.15375294439E+04  0.83025976782E+02 -0.42752031319E+02  0.15403628923E+04  0.25500000920E-02 0. -1.
       -2    1    3    3    0  502 -0.15375294439E+04 -0.83025976782E+02  0.15189979409E+03  0.15472438887E+04  0.25500000920E-02 0.  1.
</event>
<event>
 5   0  0.5342534E-07  0.3098039E+04  0.7818609E-02  0.8216276E-01
       -2   -1    0    0    0  501  0.00000000000E+00  0.00000000000E+00  0.15927440758E+04  0.15927440758E+04  0.25500000920E-02 0. -1.
        2   -1    0    0  501    0  0.00000000000E+00  0.00000000000E+00 -0.15064949801E+04  0.15064949801E+04  0.25500000920E-02 0.  1.
    10030    2    1    2    0    0  0.00000000000E+00  0.00000000000E+00  0.86249095720E+02  0.30992390559E+04  0.30980387052E+04 0.  0.
        3    1    3    3  502    0 -0.10717605259E+04 -0.47419466213E+03  0.10563988934E+04  0.15778180614E+04  0.10100000352E+00 0. -1.
       -3    1    3    3    0  502  0.10717605259E+04  0.47419466213E+03 -0.97014979767E+03  0.15214209946E+04  0.10100000352E+00 0.  1.
</event>
<event>
 5   0  0.1830902E-07  0.3098580E+04  0.7818609E-02  0.8216128E-01
       -1   -1    0    0    0  501  0.00000000000E+00  0.00000000000E+00  0.11569170835E+04  0.11569170835E+04  0.50400001928E-02 0. -1.
        1   -1    0    0  501    0  0.00000000000E+00  0.00000000000E+00 -0.20747372574E+04  0.20747372574E+04  0.50400001928E-02 0.  1.
    10030    2    1    2    0    0  0.00000000000E+00  0.00000000000E+00 -0.91782017392E+03  0.32316543409E+04  0.30985796597E+04 0.  0.
        3    1    3    3  502    0  0.57819541020E+03 -0.10893771791E+04  0.51904190360E+03  0.13380796234E+04  0.10100000352E+00 0. -1.
       -3    1    3    3    0  502 -0.57819541020E+03  0.10893771791E+04 -0.14368620775E+04  0.18935747175E+04  0.10100000352E+00 0.  1.
</event>
<event>
 5   0  0.5376678E-07  0.3105124E+04  0.7818609E-02  0.8214333E-01
       -2   -1    0    0    0  501  0.00000000000E+00  0.00000000000E+00  0.16053832235E+04  0.16053832235E+04  0.25500000920E-02 0.  1.
        2   -1    0    0  501    0  0.00000000000E+00  0.00000000000E+00 -0.15014783582E+04  0.15014783582E+04  0.25500000920E-02 0. -1.
    10030    2    1    2    0    0  0.00000000000E+00  0.00000000000E+00  0.10390486534E+03  0.31068615817E+04  0.31051236154E+04 0.  0.
        5    1    3    3  502    0 -0.12389480635E+04 -0.29839888780E+03  0.93923616644E+03  0.15831048186E+04  0.46999998093E+01 0.  1.
       -5    1    3    3    0  502  0.12389480635E+04  0.29839888780E+03 -0.83533130110E+03  0.15237567631E+04  0.46999998093E+01 0. -1.
</event>
<event>
 5   0  0.1814075E-07  0.3098719E+04  0.7818609E-02  0.8216090E-01
       -1   -1    0    0    0  501  0.00000000000E+00  0.00000000000E+00  0.30628181498E+04  0.30628181498E+04  0.50400001928E-02 0. -1.
        1   -1    0    0  501    0  0.00000000000E+00  0.00000000000E+00 -0.78376019124E+03  0.78376019125E+03  0.50400001928E-02 0.  1.
    10030    2    1    2    0    0  0.00000000000E+00  0.00000000000E+00  0.22790579585E+04  0.38465783410E+04  0.30987190507E+04 0.  0.
        5    1    3    3  502    0 -0.11777919839E+03  0.30751965326E+03 -0.73980803338E+03  0.80980139106E+03  0.46999998093E+01 0.  1.
       -5    1    3    3    0  502  0.11777919839E+03 -0.30751965326E+03  0.30188659919E+04  0.30367769500E+04  0.46999998093E+01 0. -1.
</event>
<event>
 5   0  0.1830902E-07  0.3099948E+04  0.7818609E-02  0.8215752E-01
       -1   -1    0    0    0  501  0.00000000000E+00  0.00000000000E+00  0.26082678631E+04  0.26082678631E+04  0.50400001928E-02 0. -1.
        1   -1    0    0  501    0  0.00000000000E+00  0.00000000000E+00 -0.92107828141E+03  0.92107828142E+03  0.50400001928E-02 0.  1.
    10030    2    1    2    0    0  0.00000000000E+00  0.00000000000E+00  0.16871895817E+04  0.35293461445E+04  0.30999476646E+04 0.  0.
        3    1    3    3  502    0 -0.36567461347E+02 -0.34785025721E+03 -0.87556052735E+03  0.94283785877E+03  0.10100000352E+00 0.  1.
       -3    1    3    3    0  502  0.36567461347E+02  0.34785025721E+03  0.25627501090E+04  0.25865082857E+04  0.10100000352E+00 0. -1.
</event>
<event>
 5   0  0.5342534E-07  0.3103153E+04  0.7818609E-02  0.8214873E-01
        2   -1    0    0  501    0  0.00000000000E+00  0.00000000000E+00  0.27059187853E+04  0.27059187853E+04  0.25500000920E-02 0. -1.
       -2   -1    0    0    0  501  0.00000000000E+00  0.00000000000E+00 -0.88967557950E+03  0.88967557950E+03  0.25500000920E-02 0.  1.
    10030    2    1    2    0    0  0.00000000000E+00  0.00000000000E+00  0.18162432058E+04  0.35955943648E+04  0.31031531470E+04 0.  0.
        3    1    3    3  502    0 -0.71840046069E+03 -0.72150459822E+03 -0.44844816115E+03  0.11125528619E+04  0.10100000352E+00 0.  1.
       -3    1    3    3    0  502  0.71840046069E+03  0.72150459822E+03  0.22646913669E+04  0.24830415029E+04  0.10100000352E+00 0. -1.
</event>
<event>
 5   0  0.1840359E-07  0.3098662E+04  0.7818609E-02  0.8216105E-01
        1   -1    0    0  501    0  0.00000000000E+00  0.00000000000E+00  0.11262121561E+04  0.11262121561E+04  0.50400001928E-02 0. -1.
       -1   -1    0    0    0  501  0.00000000000E+00  0.00000000000E+00 -0.21314163329E+04  0.21314163329E+04  0.50400001928E-02 0.  1.
    10030    2    1    2    0    0  0.00000000000E+00  0.00000000000E+00 -0.10052041768E+04  0.32576284890E+04  0.30986622816E+04 0.  0.
        1    1    3    3  502    0 -0.29857378162E+03  0.14554281200E+04 -0.40735186904E+02  0.14862962932E+04  0.50400001928E-02 0. -1.
       -1    1    3    3    0  502  0.29857378162E+03 -0.14554281200E+04 -0.96446898992E+03  0.17713321959E+04  0.50400001928E-02 0.  1.
</event>
<event>
 5   0  0.1830902E-07  0.3098978E+04  0.7818609E-02  0.8216019E-01
       -1   -1    0    0    0  501  0.00000000000E+00  0.00000000000E+00  0.21820928279E+04  0.21820928279E+04  0.50400001928E-02 0. -1.
        1   -1    0    0  501    0  0.00000000000E+00  0.00000000000E+00 -0.11002811624E+04  0.11002811624E+04  0.50400001928E-02 0.  1.
    10030    2    1    2    0    0  0.00000000000E+00  0.00000000000E+00  0.10818116655E+04  0.32823739903E+04  0.30989776592E+04 0.  0.
        3    1    3    3  502    0  0.93420752808E+03  0.72277674330E+03  0.16031345218E+04  0.19912785419E+04  0.10100000352E+00 0. -1.
       -3    1    3    3    0  502 -0.93420752808E+03 -0.72277674330E+03 -0.52132285631E+03  0.12910954484E+04  0.10100000352E+00 0.  1.
</event>
<event>
 5   0  0.1845123E-07  0.3091618E+04  0.7818609E-02  0.8218042E-01
        1   -1    0    0  501    0  0.00000000000E+00  0.00000000000E+00  0.21834385529E+04  0.21834385529E+04  0.50400001928E-02 0. -1.
       -1   -1    0    0    0  501  0.00000000000E+00  0.00000000000E+00 -0.10943862075E+04  0.10943862075E+04  0.50400001928E-02 0.  1.
    10030    2    1    2    0    0  0.00000000000E+00  0.00000000000E+00  0.10890523454E+04  0.32778247604E+04  0.30916177236E+04 0.  0.
        2    1    3    3  502    0 -0.40591599685E+03  0.39076960244E+03 -0.98163614088E+03  0.11318472475E+04  0.25500000920E-02 0.  1.
       -2    1    3    3    0  502  0.40591599685E+03 -0.39076960244E+03  0.20706884863E+04  0.21459775129E+04  0.25500000920E-02 0. -1.
</event>
<event>
 5   0  0.1814075E-07  0.3089202E+04  0.7818609E-02  0.8218708E-01
       -1   -1    0    0    0  501  0.00000000000E+00  0.00000000000E+00  0.13503697594E+04  0.13503697594E+04  0.50400001928E-02 0. -1.
        1   -1    0    0  501    0  0.00000000000E+00  0.00000000000E+00 -0.17667693538E+04  0.17667693538E+04  0.50400001928E-02 0.  1.
    10030    2    1    2    0    0  0.00000000000E+00  0.00000000000E+00 -0.41639959434E+03  0.31171391132E+04  0.30892017786E+04 0.  0.
        5    1    3    3  502    0  0.76027499388E+03 -0.36271499944E+03  0.10981860798E+04  0.13840574384E+04  0.46999998093E+01 0. -1.
       -5    1    3    3    0  502 -0.76027499388E+03  0.36271499944E+03 -0.15145856741E+04  0.17330816747E+04  0.46999998093E+01 0.  1.
</event>
<event>
 5   0  0.5248309E-07  0.3102138E+04  0.7818609E-02  0.8215151E-01
        2   -1    0    0  501    0  0.00000000000E+00  0.00000000000E+00  0.23272450005E+04  0.23272450005E+04  0.25500000920E-02 0. -1.
       -2   -1    0    0    0  501  0.00000000000E+00  0.00000000000E+00 -0.10337610838E+04  0.10337610838E+04  0.25500000920E-02 0.  1.
    10030    2    1    2    0    0  0.00000000000E+00  0.00000000000E+00  0.12934839167E+04  0.33610060843E+04  0.31021381748E+04 0.  0.
        4    1    3    3  502    0 -0.43926901964E+03  0.14817815144E+04  0.78875211323E+03  0.17351556809E+04  0.12699999809E+01 0.  1.
       -4    1    3    3    0  502  0.43926901964E+03 -0.14817815144E+04  0.50473180343E+03  0.16258504034E+04  0.12699999809E+01 0. -1.
</event>
<event>
 5   0  0.5154105E-07  0.3102171E+04  0.7818609E-02  0.8215142E-01
       -2   -1    0    0    0  501  0.00000000000E+00  0.00000000000E+00  0.12119885112E+04  0.12119885112E+04  0.25500000920E-02 0.  1.
        2   -1    0    0  501    0  0.00000000000E+00  0.00000000000E+00 -0.19850566117E+04  0.19850566117E+04  0.25500000920E-02 0. -1.
    10030    2    1    2    0    0  0.00000000000E+00  0.00000000000E+00 -0.77306810051E+03  0.31970451229E+04  0.31021707287E+04 0.  0.
        1    1    3    3  502    0 -0.56714373445E+03  0.82667883075E+03 -0.16062918447E+04  0.18934686148E+04  0.50400001928E-02 0. -1.
       -1    1    3    3    0  502  0.56714373445E+03 -0.82667883075E+03  0.83322374420E+03  0.13035765082E+04  0.50400001928E-02 0.  1.
</event>
<event>
 5   0  0.1875284E-07  0.3098313E+04  0.7818609E-02  0.8216201E-01
       -1   -1    0    0    0  501  0.00000000000E+00  0.00000000000E+00  0.11839570366E+04  0.11839570366E+04  0.50400001928E-02 0. -1.
        1   -1    0    0  501    0  0.00000000000E+00  0.00000000000E+00 -0.20270043342E+04  0.20270043342E+04  0.50400001928E-02 0.  1.
    10030    2    1    2    0    0  0.00000000000E+00  0.00000000000E+00 -0.84304729764E+03  0.32109613708E+04  0.30983131183E+04 0.  0.
        4    1    3    3  502    0  0.98663098525E+03 -0.10163065172E+04 -0.10716801297E+04  0.17761811707E+04  0.12699999809E+01 0.  1.
       -4    1    3    3    0  502 -0.98663098525E+03  0.10163065172E+04  0.22863283205E+03  0.14347802001E+04  0.12699999809E+01 0. -1.
</event>
<event>
 5   0  0.5055900E-07  0.3099868E+04  0.7818609E-02  0.8215774E-01
       -2   -1    0    0    0  501  0.00000000000E+00  0.00000000000E+00  0.13482819859E+04  0.13482819859E+04  0.25500000920E-02 0. -1.
        2   -1    0    0  501    0  0.00000000000E+00  0.00000000000E+00 -0.17817457886E+04  0.17817457886E+04  0.25500000920E-02 0.  1.
    10030    2    1    2    0    0  0.00000000000E+00  0.00000000000E+00 -0.43346380262E+03  0.31300277745E+04  0.30998682232E+04 0.  0.
        2    1    3    3  502    0  0.11797166988E+04 -0.68810513667E+03 -0.95671646942E+03  0.16674911008E+04  0.25500000920E-02 0.  1.
       -2    1    3    3    0  502 -0.11797166988E+04  0.68810513667E+03  0.52325266680E+03  0.14625366737E+04  0.25500000920E-02 0. -1.
</event>
<event>
 5   0  0.1814075E-07  0.3102169E+04  0.7818609E-02  0.8215143E-01
        1   -1    0    0  501    0  0.00000000000E+00  0.00000000000E+00  0.16914086580E+04  0.16914086580E+04  0.50400001928E-02 0.  1.
       -1   -1    0    0    0  501  0.00000000000E+00  0.00000000000E+00 -0.14224020052E+04  0.14224020052E+04  0.50400001928E-02 0. -1.
    10030    2    1    2    0    0  0.00000000000E+00  0.00000000000E+00  0.26900665279E+03  0.31138106632E+04  0.31021689617E+04 0.  0.
        5    1    3    3  502    0 -0.81916107881E+03 -0.55279345921E+03  0.13344961532E+04  0.16605744652E+04  0.46999998093E+01 0.  1.
       -5    1    3    3    0  502  0.81916107881E+03  0.55279345921E+03 -0.10654895005E+04  0.14532361980E+04  0.46999998093E+01 0. -1.
</event>
<event>
 5   0  0.5055900E-07  0.3099430E+04  0.7818609E-02  0.8215894E-01
       -2   -1    0    0    0  501  0.00000000000E+00  0.00000000000E+00  0.14073823128E+04  0.14073823128E+04  0.25500000920E-02 0. -1.
        2   -1    0    0  501    0  0.00000000000E+00  0.00000000000E+00 -0.17064426822E+04  0.17064426822E+04  0.25500000920E-02 0.  1.
    10030    2    1    2    0    0  0.00000000000E+00  0.00000000000E+00 -0.29906036942E+03  0.31138249950E+04  0.30994304307E+04 0.  0.
        2    1    3    3  502    0 -0.59858535268E+03 -0.48562538820E+03  0.12011395078E+04  0.14271904425E+04  0.25500000920E-02 0. -1.
       -2    1    3    3    0  502  0.59858535268E+03  0.48562538820E+03 -0.15001998772E+04  0.16866345525E+04  0.25500000920E-02 0.  1.
</event>
<event>
 5   0  0.1875284E-07  0.3098229E+04  0.7818609E-02  0.8216224E-01
        1   -1    0    0  501    0  0.00000000000E+00  0.00000000000E+00  0.20730350138E+04  0.20730350138E+04  0.50400001928E-02 0. -1.
       -1   -1    0    0    0  501  0.00000000000E+00  0.00000000000E+00 -0.11576048137E+04  0.11576048137E+04  0.50400001928E-02 0.  1.
    10030    2    1    2    0    0  0.00000000000E+00  0.00000000000E+00  0.91543020016E+03  0.32306398275E+04  0.30982287269E+04 0.  0.
        4    1    3    3  502    0 -0.81313789039E+02  0.93834442365E+03  0.17401771094E+04  0.19787168000E+04  0.12699999809E+01 0. -1.
       -4    1    3    3    0  502  0.81313789039E+02 -0.93834442365E+03 -0.82474690923E+03  0.12519230275E+04  0.12699999809E+01 0.  1.
</event>
<event>
 5   0  0.1875284E-07  0.3114215E+04  0.7818609E-02  0.8211847E-01
       -1   -1    0    0    0  501  0.00000000000E+00  0.00000000000E+00  0.19183267856E+04  0.19183267857E+04  0.50400001928E-02 0. -1.
        1   -1    0    0  501    0  0.00000000000E+00  0.00000000000E+00 -0.12639056544E+04  0.12639056544E+04  0.50400001928E-02 0.  1.
    10030    2    1    2    0    0  0.00000000000E+00  0.00000000000E+00  0.65442113121E+03  0.31822324401E+04  0.31142151958E+04 0.  0.
        4    1    3    3  502    0 -0.62571787350E+03 -0.93718009518E+03  0.14252750424E+04  0.18169314647E+04  0.12699999809E+01 0. -1.
       -4    1    3    3    0  502  0.62571787350E+03  0.93718009518E+03 -0.77085391123E+03  0.13653009754E+04  0.12699999809E+01 0.  1.
</event>
<event>
 5   0  0.1845123E-07  0.3099710E+04  0.7818609E-02  0.8215818E-01
       -1   -1    0    0    0  501  0.00000000000E+00  0.00000000000E+00  0.84941991488E+03  0.84941991489E+03  0.50400001928E-02 0. -1.
        1   -1    0    0  501    0  0.00000000000E+00  0.00000000000E+00 -0.28278709096E+04  0.28278709096E+04  0.50400001928E-02 0.  1.
    10030    2    1    2    0    0  0.00000000000E+00  0.00000000000E+00 -0.19784509947E+04  0.36772908245E+04  0.30997095783E+04 0.  0.
        2    1    3    3  502    0 -0.12720717566E+04 -0.80523252840E+03 -0.14258929267E+04  0.20735806271E+04  0.25500000920E-02 0.  1.
       -2    1    3    3    0  502  0.12720717566E+04  0.80523252840E+03 -0.55255806809E+03  0.16037101974E+04  0.25500000920E-02 0. -1.
</event>
<event>
 5   0  0.5055900E-07  0.3097701E+04  0.7818609E-02  0.8216369E-01
       -2   -1    0    0    0  501  0.00000000000E+00  0.00000000000E+00  0.11235117300E+04  0.11235117300E+04  0.25500000920E-02 0.  1.
        2   -1    0    0  501    0  0.00000000000E+00  0.00000000000E+00 -0.21352134892E+04  0.21352134892E+04  0.25500000920E-02 0. -1.
    10030    2    1    2    0    0  0.00000000000E+00  0.00000000000E+00 -0.10117017592E+04  0.32587252191E+04  0.30977006963E+04 0.  0.
        2    1    3    3  502    0 -0.15227330660E+04 -0.12246130097E+03 -0.77451776149E+03  0.17127727589E+04  0.25500000920E-02 0. -1.
       -2    1    3    3    0  502  0.15227330660E+04  0.12246130097E+03 -0.23718399770E+03  0.15459524603E+04  0.25500000920E-02 0.  1.
</event>
<event>
 5   0  0.1814075E-07  0.3118573E+04  0.7818609E-02  0.8210659E-01
       -1   -1    0    0    0  501  0.00000000000E+00  0.00000000000E+00  0.18208835844E+04  0.18208835844E+04  0.50400001928E-02 0. -1.
        1   -1    0    0  501    0  0.00000000000E+00  0.00000000000E+00 -0.13352713314E+04  0.13352713315E+04  0.50400001928E-02 0.  1.
    10030    2    1    2    0    0  0.00000000000E+00  0.00000000000E+00  0.48561225299E+03  0.31561549159E+04  0.31185725249E+04 0.  0.
        5    1    3    3  502    0  0.94507844481E+03  0.45413214721E+03 -0.92520012348E+03  0.13983657005E+04  0.46999998093E+01 0.  1.
       -5    1    3    3    0  502 -0.94507844481E+03 -0.45413214721E+03  0.14108123765E+04  0.17577892153E+04  0.46999998093E+01 0. -1.
</event>
<event>
 5   0  0.5376678E-07  0.3096713E+04  0.7818609E-02  0.8216641E-01
        2   -1    0    0  501    0  0.00000000000E+00  0.00000000000E+00  0.19974797461E+04  0.19974797461E+04  0.25500000920E-02 0. -1.
       -2   -1    0    0    0  501  0.00000000000E+00  0.00000000000E+00 -0.12002160878E+04  0.12002160878E+04  0.25500000920E-02 0.  1.
    10030    2    1    2    0    0  0.00000000000E+00  0.00000000000E+00  0.79726365831E+03  0.31976958339E+04  0.30967126611E+04 0.  0.
        5    1    3    3  502    0  0.75959343745E+03  0.10723677853E+04 -0.44686714302E+03  0.13880443763E+04  0.46999998093E+01 0.  1.
       -5    1    3    3    0  502 -0.75959343745E+03 -0.10723677853E+04  0.12441308013E+04  0.18096514576E+04  0.46999998093E+01 0. -1.
</event>
<event>
 5   0  0.5376678E-07  0.3102460E+04  0.7818609E-02  0.8215063E-01
        2   -1    0    0  501    0  0.00000000000E+00  0.00000000000E+00  0.15112884918E+04  0.15112884918E+04  0.25500000920E-02 0. -1.
       -2   -1    0    0    0  501  0.00000000000E+00  0.00000000000E+00 -0.15922268390E+04  0.15922268390E+04  0.25500000920E-02 0.  1.
    10030    2    1    2    0    0  0.00000000000E+00  0.00000000000E+00 -0.80938347135E+02  0.31035153308E+04  0.31024597326E+04 0.  0.
        5    1    3    3  502    0  0.14811067883E+04 -0.31483943966E+03 -0.37746777826E+03  0.15605464443E+04  0.46999998093E+01 0.  1.
       -5    1    3    3    0  502 -0.14811067883E+04  0.31483943966E+03  0.29652943113E+03  0.15429688865E+04  0.46999998093E+01 0. -1.
</event>
<event>
 5   0  0.5248309E-07  0.3061830E+04  0.7818609E-02  0.8226292E-01
       -2   -1    0    0    0  501  0.00000000000E+00  0.00000000000E+00  0.27951806537E+04  0.27951806537E+04  0.25500000920E-02 0. -1.
        2   -1    0    0  501    0  0.00000000000E+00  0.00000000000E+00 -0.83847908148E+03  0.83847908148E+03  0.25500000920E-02 0.  1.
    10030    2    1    2    0    0  0.00000000000E+00  0.00000000000E+00  0.19567015722E+04  0.36336597352E+04  0.30618298497E+04 0.  0.
        4    1    3    3  502    0 -0.14688610201E+04 -0.42327225158E+03  0.87915292126E+03  0.17634124779E+04  0.12699999809E+01 0. -1.
       -4    1    3    3    0  502  0.14688610201E+04  0.42327225158E+03  0.10775486510E+04  0.18702472573E+04  0.12699999809E+01 0.  1.
</event>
<event>
 5   0  0.1875284E-07  0.3098648E+04  0.7818609E-02  0.8216109E-01
        1   -1    0    0  501    0  0.00000000000E+00  0.00000000000E+00  0.20462070829E+04  0.20462070829E+04  0.50400001928E-02 0. -1.
       -1   -1    0    0    0  501  0.00000000000E+00  0.00000000000E+00 -0.11730998792E+04  0.11730998792E+04  0.50400001928E-02 0.  1.
    10030    2    1    2    0    0  0.00000000000E+00  0.00000000000E+00  0.87310720364E+03  0.32193069621E+04  0.30986482742E+04 0.  0.
        4    1    3    3  502    0 -0.64795482256E+03  0.13625040857E+04  0.70497682401E+02  0.15103755731E+04  0.12699999809E+01 0.  1.
       -4    1    3    3    0  502  0.64795482256E+03 -0.13625040857E+04  0.80260952124E+03  0.17089313890E+04  0.12699999809E+01 0. -1.
</event>
<event>
 5   0  0.1845123E-07  0.3100307E+04  0.7818609E-02  0.8215654E-01
        1   -1    0    0  501    0  0.00000000000E+00  0.00000000000E+00  0.81123022152E+03  0.81123022153E+03  0.50400001928E-02 0.  1.
       -1   -1    0    0    0  501  0.00000000000E+00  0.00000000000E+00 -0.29621373044E+04  0.29621373044E+04  0.50400001928E-02 0. -1.
    10030    2    1    2    0    0  0.00000000000E+00  0.00000000000E+00 -0.21509070829E+04  0.37733675259E+04  0.31003066311E+04 0.  0.
        2    1    3    3  502    0 -0.92427155454E+03 -0.64682788420E+03 -0.23694212885E+04  0.26242754163E+04  0.25500000920E-02 0. -1.
       -2    1    3    3    0  502  0.92427155454E+03  0.64682788420E+03  0.21851420562E+03  0.11490921096E+04  0.25500000920E-02 0.  1.
</event>
<event>
 5   0  0.5055900E-07  0.3165967E+04  0.7818609E-02  0.8197863E-01
        2   -1    0    0  501    0  0.00000000000E+00  0.00000000000E+00  0.11728002786E+04  0.11728002786E+04  0.25500000920E-02 0.  1.
       -2   -1    0    0    0  501  0.00000000000E+00  0.00000000000E+00 -0.21366268372E+04  0.21366268372E+04  0.25500000920E-02 0. -1.
    10030    2    1    2    0    0  0.00000000000E+00  0.00000000000E+00 -0.96382655856E+03  0.33094271158E+04  0.31659668665E+04 0.  0.
        2    1    3    3  502    0 -0.29358144140E+03 -0.71174855655E+03  0.96389532687E+03  0.12336410627E+04  0.25500000920E-02 0.  1.
       -2    1    3    3    0  502  0.29358144140E+03  0.71174855655E+03 -0.19277218854E+04  0.20757860531E+04  0.25500000920E-02 0. -1.
</event>
<event>
 5   0  0.1845123E-07  0.3096693E+04  0.7818609E-02  0.8216646E-01
        1   -1    0    0  501    0  0.00000000000E+00  0.00000000000E+00  0.23741528329E+04  0.23741528329E+04  0.50400001928E-02 0. -1.
       -1   -1    0    0    0  501  0.00000000000E+00  0.00000000000E+00 -0.10097817991E+04  0.10097817991E+04  0.50400001928E-02 0.  1.
    10030    2    1    2    0    0  0.00000000000E+00  0.00000000000E+00  0.13643710338E+04  0.33839346321E+04  0.30966926351E+04 0.  0.
        2    1    3    3  502    0  0.14071932138E+03  0.14145019222E+02 -0.10027087270E+04  0.10126335962E+04  0.25500000920E-02 0.  1.
       -2    1    3    3    0  502 -0.14071932138E+03 -0.14145019222E+02  0.23670797608E+04  0.23713010359E+04  0.25500000920E-02 0. -1.
</event>
<event>
 5   0  0.5342534E-07  0.3096973E+04  0.7818609E-02  0.8216569E-01
        2   -1    0    0  501    0  0.00000000000E+00  0.00000000000E+00  0.22965908980E+04  0.22965908980E+04  0.25500000920E-02 0. -1.
       -2   -1    0    0    0  501  0.00000000000E+00  0.00000000000E+00 -0.10440740855E+04  0.10440740855E+04  0.25500000920E-02 0.  1.
    10030    2    1    2    0    0  0.00000000000E+00  0.00000000000E+00  0.12525168125E+04  0.33406649835E+04  0.30969733881E+04 0.  0.
        3    1    3    3  502    0  0.74435186082E+03  0.12412276275E+04  0.12201295557E+04  0.18929928312E+04  0.10100000352E+00 0. -1.
       -3    1    3    3    0  502 -0.74435186082E+03 -0.12412276275E+04  0.32387256764E+02  0.14476721523E+04  0.10100000352E+00 0.  1.
</event>
<event>
 5   0  0.5376678E-07  0.3107108E+04  0.7818609E-02  0.8213790E-01
       -2   -1    0    0    0  501  0.00000000000E+00  0.00000000000E+00  0.10220695680E+04  0.10220695680E+04  0.25500000920E-02 0.  1.
        2   -1    0    0  501    0  0.00000000000E+00  0.00000000000E+00 -0.23614153757E+04  0.23614153757E+04  0.25500000920E-02 0. -1.
    10030    2    1    2    0    0  0.00000000000E+00  0.00000000000E+00 -0.13393458077E+04  0.33834849437E+04  0.31071084905E+04 0.  0.
        5    1    3    3  502    0 -0.58548017730E+03 -0.14385551961E+04 -0.70864167787E+03  0.17071681838E+04  0.46999998093E+01 0.  1.
       -5    1    3    3    0  502  0.58548017730E+03  0.14385551961E+04 -0.63070412978E+03  0.16763167599E+04  0.46999998093E+01 0. -1.
</event>
<event>
 5   0  0.1814075E-07  0.3101350E+04  0.7818609E-02  0.8215368E-01
       -1   -1    0    0    0  501  0.00000000000E+00  0.00000000000E+00  0.15891337931E+04  0.15891337931E+04  0.50400001928E-02 0.  1.
        1   -1    0    0  501    0  0.00000000000E+00  0.00000000000E+00 -0.15131467286E+04  0.15131467286E+04  0.50400001928E-02 0. -1.
    10030    2    1    2    0    0  0.00000000000E+00  0.00000000000E+00  0.75987064488E+02  0.31022805216E+04  0.31013497708E+04 0.  0.
        5    1    3    3  502    0 -0.14124404604E+03 -0.76394909281E+03  0.13804105981E+04  0.15840213402E+04  0.46999998093E+01 0.  1.
       -5    1    3    3    0  502  0.14124404604E+03  0.76394909281E+03 -0.13044235336E+04  0.15182591814E+04  0.46999998093E+01 0. -1.
</event>
<event>
 5   0  0.1830902E-07  0.3103306E+04  0.7818609E-02  0.8214831E-01
       -1   -1    0    0    0  501  0.00000000000E+00  0.00000000000E+00  0.18880847705E+04  0.18880847705E+04  0.50400001928E-02 0.  1.
        1   -1    0    0  501    0  0.00000000000E+00  0.00000000000E+00 -0.12751687389E+04  0.12751687389E+04  0.50400001928E-02 0. -1.
    10030    2    1    2    0    0  0.00000000000E+00  0.00000000000E+00  0.61291603165E+03  0.31632535094E+04  0.31033057701E+04 0.  0.
        3    1    3    3  502    0 -0.66503302754E+02 -0.12198000215E+04  0.12816480071E+04  0.17705808103E+04  0.10100000352E+00 0.  1.
       -3    1    3    3    0  502  0.66503302754E+02  0.12198000215E+04 -0.66873197541E+03  0.13926726991E+04  0.10100000352E+00 0. -1.
</event>
<event>
 5   0  0.5342534E-07  0.3093981E+04  0.7818609E-02  0.8217392E-01
        2   -1    0    0  501    0  0.00000000000E+00  0.00000000000E+00  0.24330764881E+04  0.24330764881E+04  0.25500000920E-02 0.  1.
       -2   -1    0    0    0  501  0.00000000000E+00  0.00000000000E+00 -0.98360260547E+03  0.98360260547E+03  0.25500000920E-02 0. -1.
    10030    2    1    2    0    0  0.00000000000E+00  0.00000000000E+00  0.14494738826E+04  0.34166790935E+04  0.30939814951E+04 0.  0.
        3    1    3    3  502    0 -0.44300721639E+03 -0.14525770514E+04  0.39911888377E+03  0.15702010628E+04  0.10100000352E+00 0. -1.
       -3    1    3    3    0  502  0.44300721639E+03  0.14525770514E+04  0.10503549988E+04  0.18464780307E+04  0.10100000352E+00 0.  1.
</event>
<event>
 5   0  0.5154105E-07  0.3099114E+04  0.7818609E-02  0.8215981E-01
        2   -1    0    0  501    0  0.00000000000E+00  0.00000000000E+00  0.21875071298E+04  0.21875071298E+04  0.25500000920E-02 0.  1.
       -2   -1    0    0    0  501  0.00000000000E+00  0.00000000000E+00 -0.10976544787E+04  0.10976544787E+04  0.25500000920E-02 0. -1.
    10030    2    1    2    0    0  0.00000000000E+00  0.00000000000E+00  0.10898526511E+04  0.32851616085E+04  0.30991140658E+04 0.  0.
        1    1    3    3  502    0  0.13092403982E+04 -0.82879044371E+03  0.55668162527E+03  0.16464806260E+04  0.50400001928E-02 0.  1.
       -1    1    3    3    0  502 -0.13092403982E+04  0.82879044371E+03  0.53317102585E+03  0.16386809826E+04  0.50400001928E-02 0. -1.
</event>
<event>
 5   0  0.5154105E-07  0.3099350E+04  0.7818609E-02  0.8215916E-01
        2   -1    0    0  501    0  0.00000000000E+00  0.00000000000E+00  0.16005633485E+04  0.16005633485E+04  0.25500000920E-02 0. -1.
       -2   -1    0    0    0  501  0.00000000000E+00  0.00000000000E+00 -0.15004043223E+04  0.15004043223E+04  0.25500000920E-02 0.  1.
    10030    2    1    2    0    0  0.00000000000E+00  0.00000000000E+00  0.10015902627E+03  0.31009676708E+04  0.30993497165E+04 0.  0.
        1    1    3    3  502    0 -0.10342549354E+04 -0.78446051648E+03 -0.79678457570E+03  0.15231307342E+04  0.50400001928E-02 0. -1.
       -1    1    3    3    0  502  0.10342549354E+04  0.78446051648E+03  0.89694360197E+03  0.15778369366E+04  0.50400001928E-02 0.  1.
</event>
<event>
 5   0  0.5055900E-07  0.3113636E+04  0.7818609E-02  0.8212006E-01
       -2   -1    0    0    0  501  0.00000000000E+00  0.00000000000E+00  0.12456786430E+04  0.12456786430E+04  0.25500000920E-02 0. -1.
        2   -1    0    0  501    0  0.00000000000E+00  0.00000000000E+00 -0.19456720354E+04  0.19456720354E+04  0.25500000920E-02 0.  1.
    10030    2    1    2    0    0  0.00000000000E+00  0.00000000000E+00 -0.69999339243E+03  0.31913506784E+04  0.31136358816E+04 0.  0.
        2    1    3    3  502    0  0.51487584722E+03 -0.12183948460E+04  0.49153123367E+03  0.14110939347E+04  0.25500000920E-02 0. -1.
       -2    1    3    3    0  502 -0.51487584722E+03  0.12183948460E+04 -0.11915246261E+04  0.17802567437E+04  0.25500000920E-02 0.  1.
</event>
<event>
 5   0  0.1840359E-07  0.3103125E+04  0.7818609E-02  0.8214881E-01
        1   -1    0    0  501    0  0.00000000000E+00  0.00000000000E+00  0.15416312469E+04  0.15416312469E+04  0.50400001928E-02 0. -1.
       -1   -1    0    0    0  501  0.00000000000E+00  0.00000000000E+00 -0.15615577449E+04  0.15615577449E+04  0.50400001928E-02 0.  1.
    10030    2    1    2    0    0  0.00000000000E+00  0.00000000000E+00 -0.19926498036E+02  0.31031889918E+04  0.31031250142E+04 0.  0.
        1    1    3    3  502    0 -0.54985583735E+03  0.38231609573E+03 -0.14095774626E+04  0.15605818344E+04  0.50400001928E-02 0.  1.
       -1    1    3    3    0  502  0.54985583735E+03 -0.38231609573E+03  0.13896509645E+04  0.15426071574E+04  0.50400001928E-02 0. -1.
</event>
<event>
 5   0  0.5154105E-07  0.3099373E+04  0.7818609E-02  0.8215910E-01
        2   -1    0    0  501    0  0.00000000000E+00  0.00000000000E+00  0.21580322573E+04  0.21580322573E+04  0.25500000920E-02 0. -1.
       -2   -1    0    0    0  501  0.00000000000E+00  0.00000000000E+00 -0.11128322282E+04  0.11128322282E+04  0.25500000920E-02 0.  1.
    10030    2    1    2    0    0  0.00000000000E+00  0.00000000000E+00  0.10452000291E+04  0.32708644855E+04  0.30993727400E+04 0.  0.
        1    1    3    3  502    0  0.13480425497E+04 -0.39657598773E+03 -0.16703816944E+03  0.14150593556E+04  0.50400001928E-02 0.  1.
       -1    1    3    3    0  502 -0.13480425497E+04  0.39657598773E+03  0.12122381986E+04  0.18558051299E+04  0.50400001928E-02 0. -1.
</event>
<event>
 5   0  0.5248309E-07  0.3104034E+04  0.7818609E-02  0.8214632E-01
       -2   -1    0    0    0  501  0.00000000000E+00  0.00000000000E+00  0.10463180855E+04  0.10463180855E+04  0.25500000920E-02 0. -1.
        2   -1    0    0  501    0  0.00000000000E+00  0.00000000000E+00 -0.23021267007E+04  0.23021267007E+04  0.25500000920E-02 0.  1.
    10030    2    1    2    0    0  0.00000000000E+00  0.00000000000E+00 -0.12558086152E+04  0.33484447862E+04  0.31040340217E+04 0.  0.
        4    1    3    3  502    0  0.14040507165E+04 -0.32700323325E+03 -0.12480301613E+04  0.19067958531E+04  0.12699999809E+01 0.  1.
       -4    1    3    3    0  502 -0.14040507165E+04  0.32700323325E+03 -0.77784538953E+01  0.14416489331E+04  0.12699999809E+01 0. -1.
</event>
<event>
 5   0  0.5342534E-07  0.3095152E+04  0.7818609E-02  0.8217070E-01
       -2   -1    0    0    0  501  0.00000000000E+00  0.00000000000E+00  0.91861423995E+03  0.91861423995E+03  0.25500000920E-02 0.  1.
        2   -1    0    0  501    0  0.00000000000E+00  0.00000000000E+00 -0.26071793443E+04  0.26071793443E+04  0.25500000920E-02 0. -1.
    10030    2    1    2    0    0  0.00000000000E+00  0.00000000000E+00 -0.16885651043E+04  0.35257935842E+04  0.30951523851E+04 0.  0.
        3    1    3    3  502    0  0.34793448321E+03 -0.13764025437E+04 -0.15459833192E+04  0.20989537395E+04  0.10100000352E+00 0. -1.
       -3    1    3    3    0  502 -0.34793448321E+03  0.13764025437E+04 -0.14258178509E+03  0.14268398447E+04  0.10100000352E+00 0.  1.
</event>
<event>
 5   0  0.1814075E-07  0.3106440E+04  0.7818609E-02  0.8213973E-01
       -1   -1    0    0    0  501  0.00000000000E+00  0.00000000000E+00  0.93813164827E+03  0.93813164828E+03  0.50400001928E-02 0. -1.
        1   -1    0    0  501    0  0.00000000000E+00  0.00000000000E+00 -0.25715929394E+04  0.25715929394E+04  0.50400001928E-02 0.  1.
    10030    2    1    2    0    0  0.00000000000E+00  0.00000000000E+00 -0.16334612912E+04  0.35097245877E+04  0.31064402283E+04 0.  0.
        5    1    3    3  502    0 -0.89770093804E+03  0.60622944642E+03 -0.20743852291E+04  0.23401874464E+04  0.46999998093E+01 0.  1.
       -5    1    3    3    0  502  0.89770093804E+03 -0.60622944642E+03  0.44092393789E+03  0.11695371413E+04  0.46999998093E+01 0. -1.
</event>
<event>
 5   0  0.1845123E-07  0.3099021E+04  0.7818609E-02  0.8216007E-01
        1   -1    0    0  501    0  0.00000000000E+00  0.00000000000E+00  0.16910847105E+04  0.16910847105E+04  0.50400001928E-02 0.  1.
       -1   -1    0    0    0  501  0.00000000000E+00  0.00000000000E+00 -0.14197882991E+04  0.14197882991E+04  0.50400001928E-02 0. -1.
    10030    2    1    2    0    0  0.00000000000E+00  0.00000000000E+00  0.27129641145E+03  0.31108730096E+04  0.30990206742E+04 0.  0.
        2    1    3    3  502    0  0.12495339124E+04 -0.75150974378E+03 -0.39064733425E+03  0.15095387485E+04  0.25500000920E-02 0.  1.
       -2    1    3    3    0  502 -0.12495339124E+04  0.75150974378E+03  0.66194374570E+03  0.16013342611E+04  0.25500000920E-02 0. -1.
</event>
<event>
 5   0  0.5154105E-07  0.3092360E+04  0.7818609E-02  0.8217838E-01
       -2   -1    0    0    0  501  0.00000000000E+00  0.00000000000E+00  0.21701909378E+04  0.21701909378E+04  0.25500000920E-02 0.  1.
        2   -1    0    0  501    0  0.00000000000E+00  0.00000000000E+00 -0.11015951786E+04  0.11015951786E+04  0.25500000920E-02 0. -1.
    10030    2    1    2    0    0  0.00000000000E+00  0.00000000000E+00  0.10685957591E+04  0.32717861164E+04  0.30923595352E+04 0.  0.
        1    1    3    3  502    0  0.42942489797E+03  0.86830512400E+03 -0.74074543233E+03  0.12194520601E+04  0.50400001928E-02 0. -1.
       -1    1    3    3    0  502 -0.42942489797E+03 -0.86830512400E+03  0.18093411915E+04  0.20523340563E+04  0.50400001928E-02 0.  1.
</event>
<event>
 5   0  0.5248309E-07  0.3097721E+04  0.7818609E-02  0.8216364E-01
       -2   -1    0    0    0  501  0.00000000000E+00  0.00000000000E+00  0.17776566531E+04  0.17776566531E+04  0.25500000920E-02 0. -1.
        2   -1    0    0  501    0  0.00000000000E+00  0.00000000000E+00 -0.13495116675E+04  0.13495116675E+04  0.25500000920E-02 0.  1.
    10030    2    1    2    0    0  0.00000000000E+00  0.00000000000E+00  0.42814498554E+03  0.31271683206E+04  0.30977207067E+04 0.  0.
        4    1    3    3  502    0  0.67879595110E+03  0.34756179182E+03  0.15749990710E+04  0.17499105203E+04  0.12699999809E+01 0. -1.
       -4    1    3    3    0  502 -0.67879595110E+03 -0.34756179182E+03 -0.11468540855E+04  0.13772578003E+04  0.12699999809E+01 0.  1.
</event>
<event>
 5   0  0.5342534E-07  0.3101790E+04  0.7818609E-02  0.8215247E-01
       -2   -1    0    0    0  501  0.00000000000E+00  0.00000000000E+00  0.11310445624E+04  0.11310445624E+04  0.25500000920E-02 0. -1.
        2   -1    0    0  501    0  0.00000000000E+00  0.00000000000E+00 -0.21265967508E+04  0.21265967508E+04  0.25500000920E-02 0.  1.
    10030    2    1    2    0    0  0.00000000000E+00  0.00000000000E+00 -0.99555218839E+03  0.32576413132E+04  0.31017902517E+04 0.  0.
        3    1    3    3  502    0  0.18422408433E+02 -0.88485598618E+03 -0.18353313569E+04  0.20375845262E+04  0.10100000352E+00 0.  1.
       -3    1    3    3    0  502 -0.18422408433E+02  0.88485598618E+03  0.83977916856E+03  0.12200567870E+04  0.10100000352E+00 0. -1.
</event>
<event>
 5   0  0.1840359E-07  0.3101808E+04  0.7818609E-02  0.8215242E-01
       -1   -1    0    0    0  501  0.00000000000E+00  0.00000000000E+00  0.14307490260E+04  0.14307490260E+04  0.50400001928E-02 0. -1.
        1   -1    0    0  501    0  0.00000000000E+00  0.00000000000E+00 -0.16811495032E+04  0.16811495032E+04  0.50400001928E-02 0.  1.
    10030    2    1    2    0    0  0.00000000000E+00  0.00000000000E+00 -0.25040047718E+03  0.31118985292E+04  0.31018078691E+04 0.  0.
        1    1    3    3  502    0  0.89683915786E+03  0.29884311610E+03  0.11083015878E+04  0.14566949210E+04  0.50400001928E-02 0. -1.
       -1    1    3    3    0  502 -0.89683915786E+03 -0.29884311610E+03 -0.13587020650E+04  0.16552036082E+04  0.50400001928E-02 0.  1.
</event>
<event>
 5   0  0.5055900E-07  0.3087206E+04  0.7818609E-02  0.8219258E-01
       -2   -1    0    0    0  501  0.00000000000E+00  0.00000000000E+00  0.13841138003E+04  0.13841138003E+04  0.25500000920E-02 0. -1.
        2   -1    0    0  501    0  0.00000000000E+00  0.00000000000E+00 -0.17214704040E+04  0.17214704040E+04  0.25500000920E-02 0.  1.
    10030    2    1    2    0    0  0.00000000000E+00  0.00000000000E+00 -0.33735660370E+03  0.31055842043E+04  0.30872064673E+04 0.  0.
        2    1    3    3  502    0  0.42255121441E+03  0.12414916841E+04  0.65033032918E+03  0.14638239879E+04  0.25500000920E-02 0. -1.
       -2    1    3    3    0  502 -0.42255121441E+03 -0.12414916841E+04 -0.98768693288E+03  0.16417602164E+04  0.25500000920E-02 0.  1.
</event>
<event>
 5   0  0.1840359E-07  0.3098754E+04  0.7818609E-02  0.8216080E-01
        1   -1    0    0  501    0  0.00000000000E+00  0.00000000000E+00  0.10357010637E+04  0.10357010637E+04  0.50400001928E-02 0. -1.
       -1   -1    0    0    0  501  0.00000000000E+00  0.00000000000E+00 -0.23178197817E+04  0.23178197817E+04  0.50400001928E-02 0.  1.
    10030    2    1    2    0    0  0.00000000000E+00  0.00000000000E+00 -0.12821187180E+04  0.33535208454E+04  0.30987535645E+04 0.  0.
        1    1    3    3  502    0  0.14346522328E+04 -0.26994990098E+03 -0.12028414900E+04  0.18915410723E+04  0.50400001928E-02 0. -1.
       -1    1    3    3    0  502 -0.14346522328E+04  0.26994990098E+03 -0.79277228009E+02  0.14619797731E+04  0.50400001928E-02 0.  1.
</event>
<event>
 5   0  0.1845123E-07  0.3075267E+04  0.7818609E-02  0.8222559E-01
        1   -1    0    0  501    0  0.00000000000E+00  0.00000000000E+00  0.19207855113E+04  0.19207855113E+04  0.50400001928E-02 0.  1.
       -1   -1    0    0    0  501  0.00000000000E+00  0.00000000000E+00 -0.12309116388E+04  0.12309116388E+04  0.50400001928E-02 0. -1.
    10030    2    1    2    0    0  0.00000000000E+00  0.00000000000E+00  0.68987387249E+03  0.31516971501E+04  0.30752672999E+04 0.  0.
        2    1    3    3  502    0 -0.60033656043E+02  0.23008292905E+03 -0.12119545557E+04  0.12350611480E+04  0.25500000920E-02 0. -1.
       -2    1    3    3    0  502  0.60033656043E+02 -0.23008292905E+03  0.19018284282E+04  0.19166360021E+04  0.25500000920E-02 0.  1.
</event>
<event>
 5   0  0.5376678E-07  0.3097322E+04  0.7818609E-02  0.8216473E-01
        2   -1    0    0  501    0  0.00000000000E+00  0.00000000000E+00  0.15367558371E+04  0.15367558371E+04  0.25500000920E-02 0.  1.
       -2   -1    0    0    0  501  0.00000000000E+00  0.00000000000E+00 -0.15606581748E+04  0.15606581748E+04  0.25500000920E-02 0. -1.
    10030    2    1    2    0    0  0.00000000000E+00  0.00000000000E+00 -0.23902337755E+02  0.30974140119E+04  0.30973217850E+04 0.  0.
        5    1    3    3  502    0 -0.50553422890E+03  0.10731684476E+04  0.98360501660E+03  0.15410244294E+04  0.46999998093E+01 0.  1.
       -5    1    3    3    0  502  0.50553422890E+03 -0.10731684476E+04 -0.10075073544E+04  0.15563895825E+04  0.46999998093E+01 0. -1.
</event>
<event>
 5   0  0.1840359E-07  0.3115134E+04  0.7818609E-02  0.8211597E-01
       -1   -1    0    0    0  501  0.00000000000E+00  0.00000000000E+00  0.22418755316E+04  0.22418755316E+04  0.50400001928E-02 0. -1.
        1   -1    0    0  501    0  0.00000000000E+00  0.00000000000E+00 -0.10821366683E+04  0.10821366683E+04  0.50400001928E-02 0.  1.
    10030    2    1    2    0    0  0.00000000000E+00  0.00000000000E+00  0.11597388634E+04  0.33240121999E+04  0.31151344873E+04 0.  0.
        1    1    3    3  502    0 -0.15017735593E+04  0.32469409702E+03  0.85247084503E+03  0.17571159955E+04  0.50400001928E-02 0. -1.
       -1    1    3    3    0  502  0.15017735593E+04 -0.32469409702E+03  0.30726801834E+03  0.15668962044E+04  0.50400001928E-02 0.  1.
</event>
<event>
 5   0  0.5248309E-07  0.3095324E+04  0.7818609E-02  0.8217022E-01
        2   -1    0    0  501    0  0.00000000000E+00  0.00000000000E+00  0.23434241326E+04  0.23434241326E+04  0.25500000920E-02 0.  1.
       -2   -1    0    0    0  501  0.00000000000E+00  0.00000000000E+00 -0.10221185515E+04  0.10221185515E+04  0.25500000920E-02 0. -1.
    10030    2    1    2    0    0  0.00000000000E+00  0.00000000000E+00  0.13213055812E+04  0.33655426841E+04  0.30953237504E+04 0.  0.
        4    1    3    3  502    0 -0.67398811292E+03  0.12070604177E+04  0.14170885999E+04  0.19797465851E+04  0.12699999809E+01 0.  1.
       -4    1    3    3    0  502  0.67398811292E+03 -0.12070604177E+04 -0.95783018733E+02  0.13857960990E+04  0.12699999809E+01 0. -1.
</event>
<event>
 5   0  0.1814075E-07  0.3097603E+04  0.7818609E-02  0.8216396E-01
        1   -1    0    0  501    0  0.00000000000E+00  0.00000000000E+00  0.14932029768E+04  0.14932029768E+04  0.50400001928E-02 0.  1.
       -1   -1    0    0    0  501  0.00000000000E+00  0.00000000000E+00 -0.16064702991E+04  0.16064702991E+04  0.50400001928E-02 0. -1.
    10030    2    1    2    0    0  0.00000000000E+00  0.00000000000E+00 -0.11326732232E+03  0.30996732759E+04  0.30976030945E+04 0.  0.
        5    1    3    3  502    0  0.29053442335E+03  0.14960393573E+04 -0.33289810986E+03  0.15599318098E+04  0.46999998093E+01 0. -1.
       -5    1    3    3    0  502 -0.29053442335E+03 -0.14960393573E+04  0.21963078754E+03  0.15397414661E+04  0.46999998093E+01 0.  1.
</event>
<event>
 5   0  0.5342534E-07  0.3100695E+04  0.7818609E-02  0.8215547E-01
       -2   -1    0    0    0  501  0.00000000000E+00  0.00000000000E+00  0.21687991730E+04  0.21687991730E+04  0.25500000920E-02 0. -1.
        2   -1    0    0  501    0  0.00000000000E+00  0.00000000000E+00 -0.11082529634E+04  0.11082529635E+04  0.25500000920E-02 0.  1.
    10030    2    1    2    0    0  0.00000000000E+00  0.00000000000E+00  0.10605462095E+04  0.32770521364E+04  0.31006954772E+04 0.  0.
        3    1    3    3  502    0 -0.14115786294E+04  0.36516547515E+03 -0.26649710416E+02  0.14582901867E+04  0.10100000352E+00 0.  1.
       -3    1    3    3    0  502  0.14115786294E+04 -0.36516547515E+03  0.10871959199E+04  0.18187619497E+04  0.10100000352E+00 0. -1.
</event>
<event>
 5   0  0.5342534E-07  0.3101710E+04  0.7818609E-02  0.8215269E-01
       -2   -1    0    0    0  501  0.00000000000E+00  0.00000000000E+00  0.14103649232E+04  0.14103649232E+04  0.25500000920E-02 0. -1.
        2   -1    0    0  501    0  0.00000000000E+00  0.00000000000E+00 -0.17053394006E+04  0.17053394006E+04  0.25500000920E-02 0.  1.
    10030    2    1    2    0    0  0.00000000000E+00  0.00000000000E+00 -0.29497447738E+03  0.31157043238E+04  0.31017097690E+04 0.  0.
        3    1    3    3  502    0  0.11783003059E+04  0.74177809683E+03  0.53862048809E+03  0.14928959764E+04  0.10100000352E+00 0.  1.
       -3    1    3    3    0  502 -0.11783003059E+04 -0.74177809683E+03 -0.83359496547E+03  0.16228083475E+04  0.10100000352E+00 0. -1.
</event>
<event>
 5   0  0.1830902E-07  0.3095213E+04  0.7818609E-02  0.8217053E-01
        1   -1    0    0  501    0  0.00000000000E+00  0.00000000000E+00  0.13792720584E+04  0.13792720584E+04  0.50400001928E-02 0. -1.
       -1   -1    0    0    0  501  0.00000000000E+00  0.00000000000E+00 -0.17364854991E+04  0.17364854991E+04  0.50400001928E-02 0.  1.
    10030    2    1    2    0    0  0.00000000000E+00  0.00000000000E+00 -0.35721344073E+03  0.31157575575E+04  0.30952130322E+04 0.  0.
        3    1    3    3  502    0  0.25794727849E+03  0.26639014851E+03  0.13338926640E+04  0.13844746870E+04  0.10100000352E+00 0. -1.
       -3    1    3    3    0  502 -0.25794727849E+03 -0.26639014851E+03 -0.16911061048E+04  0.17312828704E+04  0.10100000352E+00 0.  1.
</event>
<event>
 5   0  0.5055900E-07  0.3094303E+04  0.7818609E-02  0.8217303E-01
        2   -1    0    0  501    0  0.00000000000E+00  0.00000000000E+00  0.23046520709E+04  0.23046520709E+04  0.25500000920E-02 0. -1.
       -2   -1    0    0    0  501  0.00000000000E+00  0.00000000000E+00 -0.10386285040E+04  0.10386285040E+04  0.25500000920E-02 0.  1.
    10030    2    1    2    0    0  0.00000000000E+00  0.00000000000E+00  0.12660235669E+04  0.33432805749E+04  0.30943027212E+04 0.  0.
        2    1    3    3  502    0  0.59351158119E+03 -0.36011965067E+03  0.21269199144E+04  0.22373489853E+04  0.25500000920E-02 0. -1.
       -2    1    3    3    0  502 -0.59351158119E+03  0.36011965067E+03 -0.86089634745E+03  0.11059315896E+04  0.25500000920E-02 0.  1.
</event>
<event>
 5   0  0.5248309E-07  0.3102241E+04  0.7818609E-02  0.8215123E-01
       -2   -1    0    0    0  501  0.00000000000E+00  0.00000000000E+00  0.11185260155E+04  0.11185260155E+04  0.25500000920E-02 0. -1.
        2   -1    0    0  501    0  0.00000000000E+00  0.00000000000E+00 -0.21510224300E+04  0.21510224300E+04  0.25500000920E-02 0.  1.
    10030    2    1    2    0    0  0.00000000000E+00  0.00000000000E+00 -0.10324964145E+04  0.32695484455E+04  0.31022408339E+04 0.  0.
        4    1    3    3  502    0 -0.14799194683E+04  0.42874407810E+03 -0.70475115674E+03  0.16943018984E+04  0.12699999809E+01 0.  1.
       -4    1    3    3    0  502  0.14799194683E+04 -0.42874407810E+03 -0.32774525773E+03  0.15752465471E+04  0.12699999809E+01 0. -1.
</event>
<event>
 5   0  0.5248309E-07  0.3101090E+04  0.7818609E-02  0.8215439E-01
        2   -1    0    0  501    0  0.00000000000E+00  0.00000000000E+00  0.11517472411E+04  0.11517472411E+04  0.25500000920E-02 0. -1.
       -2   -1    0    0    0  501  0.00000000000E+00  0.00000000000E+00 -0.20874283133E+04  0.20874283133E+04  0.25500000920E-02 0.  1.
    10030    2    1    2    0    0  0.00000000000E+00  0.00000000000E+00 -0.93568107227E+03  0.32391755544E+04  0.31010900024E+04 0.  0.
        4    1    3    3  502    0 -0.24258443860E+03 -0.28730278076E+03 -0.20390823104E+04  0.20734628956E+04  0.12699999809E+01 0.  1.
       -4    1    3    3    0  502  0.24258443860E+03  0.28730278076E+03  0.11034012382E+04  0.11657126588E+04  0.12699999809E+01 0. -1.
</event>
<event>
 5   0  0.1875284E-07  0.3101304E+04  0.7818609E-02  0.8215380E-01
       -1   -1    0    0    0  501  0.00000000000E+00  0.00000000000E+00  0.18459224917E+04  0.18459224918E+04  0.50400001928E-02 0. -1.
        1   -1    0    0  501    0  0.00000000000E+00  0.00000000000E+00 -0.13026127352E+04  0.13026127352E+04  0.50400001928E-02 0.  1.
    10030    2    1    2    0    0  0.00000000000E+00  0.00000000000E+00  0.54330975657E+03  0.31485352269E+04  0.31013043359E+04 0.  0.
        4    1    3    3  502    0  0.10238994456E+04  0.11249710435E+04  0.57722139361E+03  0.16269960275E+04  0.12699999809E+01 0.  1.
       -4    1    3    3    0  502 -0.10238994456E+04 -0.11249710435E+04 -0.33911637042E+02  0.15215391994E+04  0.12699999809E+01 0. -1.
</event>
<event>
 5   0  0.1830902E-07  0.3076050E+04  0.7818609E-02  0.8222342E-01
        1   -1    0    0  501    0  0.00000000000E+00  0.00000000000E+00  0.21468551768E+04  0.21468551768E+04  0.50400001928E-02 0. -1.
       -1   -1    0    0    0  501  0.00000000000E+00  0.00000000000E+00 -0.11018540502E+04  0.11018540502E+04  0.50400001928E-02 0.  1.
    10030    2    1    2    0    0  0.00000000000E+00  0.00000000000E+00  0.10450011266E+04  0.32487092270E+04  0.30760501113E+04 0.  0.
        3    1    3    3  502    0  0.77750211864E+03 -0.10716431373E+04 -0.30411442295E+03  0.13584602131E+04  0.10100000352E+00 0.  1.
       -3    1    3    3    0  502 -0.77750211864E+03  0.10716431373E+04  0.13491155496E+04  0.18902490139E+04  0.10100000352E+00 0. -1.
</event>
<event>
 5   0  0.1840359E-07  0.3101219E+04  0.7818609E-02  0.8215403E-01
        1   -1    0    0  501    0  0.00000000000E+00  0.00000000000E+00  0.25882557273E+04  0.25882557273E+04  0.50400001928E-02 0. -1.
       -1   -1    0    0    0  501  0.00000000000E+00  0.00000000000E+00 -0.92896157230E+03  0.92896157232E+03  0.50400001928E-02 0.  1.
    10030    2    1    2    0    0  0.00000000000E+00  0.00000000000E+00  0.16592941550E+04  0.35172172997E+04  0.31012191861E+04 0.  0.
        1    1    3    3  502    0  0.24559741487E+03  0.15249949537E+04  0.67554412935E+03  0.16859085294E+04  0.50400001928E-02 0.  1.
       -1    1    3    3    0  502 -0.24559741487E+03 -0.15249949537E+04  0.98375002568E+03  0.18313087702E+04  0.50400001928E-02 0. -1.
</event>
<event>
 5   0  0.1875284E-07  0.3105619E+04  0.7818609E-02  0.8214198E-01
        1   -1    0    0  501    0  0.00000000000E+00  0.00000000000E+00  0.21205982548E+04  0.21205982548E+04  0.50400001928E-02 0. -1.
       -1   -1    0    0    0  501  0.00000000000E+00  0.00000000000E+00 -0.11370455402E+04  0.11370455402E+04  0.50400001928E-02 0.  1.
    10030    2    1    2    0    0  0.00000000000E+00  0.00000000000E+00  0.98355271457E+03  0.32576437950E+04  0.31056186425E+04 0.  0.
        4    1    3    3  502    0 -0.96366737777E+03  0.10462400468E+04  0.11451158935E+04  0.18260791530E+04  0.12699999809E+01 0. -1.
       -4    1    3    3    0  502  0.96366737777E+03 -0.10462400468E+04 -0.16156317890E+03  0.14315646420E+04  0.12699999809E+01 0.  1.
</event>
<event>
 5   0  0.1840359E-07  0.3098863E+04  0.7818609E-02  0.8216050E-01
       -1   -1    0    0    0  501  0.00000000000E+00  0.00000000000E+00  0.13689607101E+04  0.13689607101E+04  0.50400001928E-02 0. -1.
        1   -1    0    0  501    0  0.00000000000E+00  0.00000000000E+00 -0.17536937423E+04  0.17536937424E+04  0.50400001928E-02 0.  1.
    10030    2    1    2    0    0  0.00000000000E+00  0.00000000000E+00 -0.38473303224E+03  0.31226544525E+04  0.30988629081E+04 0.  0.
        1    1    3    3  502    0  0.82555058861E+03 -0.51990706888E+03 -0.14053108649E+04  0.17107705170E+04  0.50400001928E-02 0.  1.
       -1    1    3    3    0  502 -0.82555058861E+03  0.51990706888E+03  0.10205778327E+04  0.14118839355E+04  0.50400001928E-02 0. -1.
</event>
<event>
 5   0  0.5055900E-07  0.3085003E+04  0.7818609E-02  0.8219866E-01
        2   -1    0    0  501    0  0.00000000000E+00  0.00000000000E+00  0.74121999629E+03  0.74121999630E+03  0.25500000920E-02 0. -1.
       -2   -1    0    0    0  501  0.00000000000E+00  0.00000000000E+00 -0.32099929614E+04  0.32099929614E+04  0.25500000920E-02 0.  1.
    10030    2    1    2    0    0  0.00000000000E+00  0.00000000000E+00 -0.24687729651E+04  0.39512129577E+04  0.30850030606E+04 0.  0.
        2    1    3    3  502    0  0.13665134699E+04  0.58482753076E+03 -0.17623551660E+04  0.23054886760E+04  0.25500000920E-02 0. -1.
       -2    1    3    3    0  502 -0.13665134699E+04 -0.58482753076E+03 -0.70641779908E+03  0.16457242816E+04  0.25500000920E-02 0.  1.
</event>
<event>
 5   0  0.1875284E-07  0.3108393E+04  0.7818609E-02  0.8213438E-01
       -1   -1    0    0    0  501  0.00000000000E+00  0.00000000000E+00  0.16515140186E+04  0.16515140186E+04  0.50400001928E-02 0. -1.
        1   -1    0    0  501    0  0.00000000000E+00  0.00000000000E+00 -0.14626135844E+04  0.14626135844E+04  0.50400001928E-02 0.  1.
    10030    2    1    2    0    0  0.00000000000E+00  0.00000000000E+00  0.18890043426E+03  0.31141276030E+04  0.31083930500E+04 0.  0.
        4    1    3    3  502    0 -0.10599775454E+04 -0.95197001004E+03  0.71666437870E+03  0.15948068038E+04  0.12699999809E+01 0. -1.
       -4    1    3    3    0  502  0.10599775454E+04  0.95197001004E+03 -0.52776394445E+03  0.15193207992E+04  0.12699999809E+01 0.  1.
</event>
<event>
 5   0  0.5055900E-07  0.3098508E+04  0.7818609E-02  0.8216148E-01
        2   -1    0    0  501    0  0.00000000000E+00  0.00000000000E+00  0.17880396734E+04  0.17880396734E+04  0.25500000920E-02 0.  1.
       -2   -1    0    0    0  501  0.00000000000E+00  0.00000000000E+00 -0.13423568098E+04  0.13423568098E+04  0.25500000920E-02 0. -1.
    10030    2    1    2    0    0  0.00000000000E+00  0.00000000000E+00  0.44568286356E+03  0.31303964832E+04  0.30985075322E+04 0.  0.
        2    1    3    3  502    0  0.74799684918E+03 -0.99675583095E+03  0.11527301693E+04  0.16975889715E+04  0.25500000920E-02 0.  1.
       -2    1    3    3    0  502 -0.74799684918E+03  0.99675583095E+03 -0.70704730574E+03  0.14328075117E+04  0.25500000920E-02 0. -1.
</event>
<event>
 5   0  0.1840359E-07  0.3088291E+04  0.7818609E-02  0.8218959E-01
       -1   -1    0    0    0  501  0.00000000000E+00  0.00000000000E+00  0.97793956857E+03  0.97793956858E+03  0.50400001928E-02 0.  1.
        1   -1    0    0  501    0  0.00000000000E+00  0.00000000000E+00 -0.24381725192E+04  0.24381725192E+04  0.50400001928E-02 0. -1.
    10030    2    1    2    0    0  0.00000000000E+00  0.00000000000E+00 -0.14602329506E+04  0.34161120878E+04  0.30882910365E+04 0.  0.
        1    1    3    3  502    0 -0.12342469315E+04 -0.66570833032E+03 -0.14451481756E+04  0.20136996594E+04  0.50400001928E-02 0. -1.
       -1    1    3    3    0  502  0.12342469315E+04  0.66570833032E+03 -0.15084775078E+02  0.14024124284E+04  0.50400001928E-02 0.  1.
</event>
<event>
 5   0  0.1830902E-07  0.3112038E+04  0.7818609E-02  0.8212442E-01
       -1   -1    0    0    0  501  0.00000000000E+00  0.00000000000E+00  0.14888650431E+04  0.14888650431E+04  0.50400001928E-02 0. -1.
        1   -1    0    0  501    0  0.00000000000E+00  0.00000000000E+00 -0.16262020456E+04  0.16262020456E+04  0.50400001928E-02 0.  1.
    10030    2    1    2    0    0  0.00000000000E+00  0.00000000000E+00 -0.13733700244E+03  0.31150670887E+04  0.31120381609E+04 0.  0.
        3    1    3    3  502    0 -0.88320553350E+03 -0.11610817439E+04  0.47318316610E+03  0.15336444012E+04  0.10100000352E+00 0. -1.
       -3    1    3    3    0  502  0.88320553350E+03  0.11610817439E+04 -0.61052016854E+03  0.15814226876E+04  0.10100000352E+00 0.  1.
</event>
<event>
 5   0  0.5055900E-07  0.3098065E+04  0.7818609E-02  0.8216269E-01
       -2   -1    0    0    0  501  0.00000000000E+00  0.00000000000E+00  0.12196188959E+04  0.12196188959E+04  0.25500000920E-02 0.  1.
        2   -1    0    0  501    0  0.00000000000E+00  0.00000000000E+00 -0.19674188712E+04  0.19674188712E+04  0.25500000920E-02 0. -1.
    10030    2    1    2    0    0  0.00000000000E+00  0.00000000000E+00 -0.74779997530E+03  0.31870377671E+04  0.30980647066E+04 0.  0.
        2    1    3    3  502    0  0.13307827391E+04  0.22505293158E+03  0.40810890457E+03  0.14100299283E+04  0.25500000920E-02 0.  1.
       -2    1    3    3    0  502 -0.13307827391E+04 -0.22505293158E+03 -0.11559088799E+04  0.17770078388E+04  0.25500000920E-02 0. -1.
</event>
<event>
 5   0  0.5154105E-07  0.3096525E+04  0.7818609E-02  0.8216692E-01
        2   -1    0    0  501    0  0.00000000000E+00  0.00000000000E+00  0.25595989466E+04  0.25595989466E+04  0.25500000920E-02 0.  1.
       -2   -1    0    0    0  501  0.00000000000E+00  0.00000000000E+00 -0.93652049158E+03  0.93652049158E+03  0.25500000920E-02 0. -1.
    10030    2    1    2    0    0  0.00000000000E+00  0.00000000000E+00  0.16230784550E+04  0.34961194382E+04  0.30965250613E+04 0.  0.
        1    1    3    3  502    0 -0.14785725686E+03 -0.15404720191E+04  0.75856959284E+03  0.17234684904E+04  0.50400001928E-02 0. -1.
       -1    1    3    3    0  502  0.14785725686E+03  0.15404720191E+04  0.86450886219E+03  0.17726509478E+04  0.50400001928E-02 0.  1.
</event>
<event>
 5   0  0.5376678E-07  0.3096933E+04  0.7818609E-02  0.8216580E-01
        2   -1    0    0  501    0  0.00000000000E+00  0.00000000000E+00  0.26183494480E+04  0.26183494480E+04  0.25500000920E-02 0.  1.
       -2   -1    0    0    0  501  0.00000000000E+00  0.00000000000E+00 -0.91574780883E+03  0.91574780884E+03  0.25500000920E-02 0. -1.
    10030    2    1    2    0    0  0.00000000000E+00  0.00000000000E+00  0.17026016392E+04  0.35340972569E+04  0.30969325274E+04 0.  0.
        5    1    3    3  502    0  0.16221245970E+03  0.14877572774E+04  0.13048903680E+04  0.19855718474E+04  0.46999998093E+01 0.  1.
       -5    1    3    3    0  502 -0.16221245970E+03 -0.14877572774E+04  0.39771127125E+03  0.15485254095E+04  0.46999998093E+01 0. -1.
</event>
<event>
 5   0  0.1875284E-07  0.3093660E+04  0.7818609E-02  0.8217480E-01
       -1   -1    0    0    0  501  0.00000000000E+00  0.00000000000E+00  0.22273321672E+04  0.22273321672E+04  0.50400001928E-02 0.  1.
        1   -1    0    0  501    0  0.00000000000E+00  0.00000000000E+00 -0.10742374288E+04  0.10742374288E+04  0.50400001928E-02 0. -1.
    10030    2    1    2    0    0  0.00000000000E+00  0.00000000000E+00  0.11530947383E+04  0.33015695960E+04  0.30936603436E+04 0.  0.
        4    1    3    3  502    0  0.58113044586E+03 -0.44822724194E+03 -0.87660086636E+03  0.11432632887E+04  0.12699999809E+01 0. -1.
       -4    1    3    3    0  502 -0.58113044586E+03  0.44822724194E+03  0.20296956047E+04  0.21583063073E+04  0.12699999809E+01 0.  1.
</event>
<event>
 5   0  0.1840359E-07  0.3120393E+04  0.7818609E-02  0.8210163E-01
       -1   -1    0    0    0  501  0.00000000000E+00  0.00000000000E+00  0.12367510114E+04  0.12367510115E+04  0.50400001928E-02 0.  1.
        1   -1    0    0  501    0  0.00000000000E+00  0.00000000000E+00 -0.19682320306E+04  0.19682320306E+04  0.50400001928E-02 0. -1.
    10030    2    1    2    0    0  0.00000000000E+00  0.00000000000E+00 -0.73148101912E+03  0.32049830420E+04  0.31203928949E+04 0.  0.
        1    1    3    3  502    0 -0.89278828049E+03  0.33498613509E+03 -0.16340956904E+04  0.18919712868E+04  0.50400001928E-02 0. -1.
       -1    1    3    3    0  502  0.89278828049E+03 -0.33498613509E+03  0.90261467132E+03  0.13130117552E+04  0.50400001928E-02 0.  1.
</event>
<event>
 5   0  0.1830902E-07  0.3099126E+04  0.7818609E-02  0.8215978E-01
       -1   -1    0    0    0  501  0.00000000000E+00  0.00000000000E+00  0.16592140335E+04  0.16592140335E+04  0.50400001928E-02 0.  1.
        1   -1    0    0  501    0  0.00000000000E+00  0.00000000000E+00 -0.14471585160E+04  0.14471585160E+04  0.50400001928E-02 0. -1.
    10030    2    1    2    0    0  0.00000000000E+00  0.00000000000E+00  0.21205551748E+03  0.31063725495E+04  0.30991261468E+04 0.  0.
        3    1    3    3  502    0 -0.39483611189E+03 -0.33902899636E+03  0.15689984879E+04  0.16530554985E+04  0.10100000352E+00 0.  1.
       -3    1    3    3    0  502  0.39483611189E+03  0.33902899636E+03 -0.13569429705E+04  0.14533170511E+04  0.10100000352E+00 0. -1.
</event>
<event>
 5   0  0.5342534E-07  0.3102636E+04  0.7818609E-02  0.8215015E-01
       -2   -1    0    0    0  501  0.00000000000E+00  0.00000000000E+00  0.11926068568E+04  0.11926068568E+04  0.25500000920E-02 0. -1.
        2   -1    0    0  501    0  0.00000000000E+00  0.00000000000E+00 -0.20179213810E+04  0.20179213810E+04  0.25500000920E-02 0.  1.
    10030    2    1    2    0    0  0.00000000000E+00  0.00000000000E+00 -0.82531452418E+03  0.32105282378E+04  0.31026355735E+04 0.  0.
        3    1    3    3  502    0  0.11390811814E+04 -0.90868488246E+02 -0.14983442696E+04  0.18843562775E+04  0.10100000352E+00 0.  1.
       -3    1    3    3    0  502 -0.11390811814E+04  0.90868488246E+02  0.67302974542E+03  0.13261719603E+04  0.10100000352E+00 0. -1.
</event>
<event>
 5   0  0.5055900E-07  0.3098854E+04  0.7818609E-02  0.8216052E-01
        2   -1    0    0  501    0  0.00000000000E+00  0.00000000000E+00  0.19701760969E+04  0.19701760969E+04  0.25500000920E-02 0. -1.
       -2   -1    0    0    0  501  0.00000000000E+00  0.00000000000E+00 -0.12185330204E+04  0.12185330204E+04  0.25500000920E-02 0.  1.
    10030    2    1    2    0    0  0.00000000000E+00  0.00000000000E+00  0.75164307651E+03  0.31887091172E+04  0.30988543883E+04 0.  0.
        2    1    3    3  502    0  0.29972855728E+03 -0.10325869506E+04 -0.77216722378E+03  0.13237504448E+04  0.25500000920E-02 0.  1.
       -2    1    3    3    0  502 -0.29972855728E+03  0.10325869506E+04  0.15238103003E+04  0.18649586724E+04  0.25500000920E-02 0. -1.
</event>
<event>
 5   0  0.1845123E-07  0.3100432E+04  0.7818609E-02  0.8215619E-01
       -1   -1    0    0    0  501  0.00000000000E+00  0.00000000000E+00  0.99222397046E+03  0.99222397048E+03  0.50400001928E-02 0. -1.
        1   -1    0    0  501    0  0.00000000000E+00  0.00000000000E+00 -0.24220039027E+04  0.24220039027E+04  0.50400001928E-02 0.  1.
    10030    2    1    2    0    0  0.00000000000E+00  0.00000000000E+00 -0.14297799322E+04  0.34142278731E+04  0.31004324400E+04 0.  0.
        2    1    3    3  502    0  0.10161158538E+04  0.55038477873E+03  0.42301538295E+03  0.12305920718E+04  0.25500000920E-02 0. -1.
       -2    1    3    3    0  502 -0.10161158538E+04 -0.55038477873E+03 -0.18527953152E+04  0.21836358013E+04  0.25500000920E-02 0.  1.
</event>
<event>
 5   0  0.1845123E-07  0.3096911E+04  0.7818609E-02  0.8216586E-01
        1   -1    0    0  501    0  0.00000000000E+00  0.00000000000E+00  0.20365709109E+04  0.20365709109E+04  0.50400001928E-02 0.  1.
       -1   -1    0    0    0  501  0.00000000000E+00  0.00000000000E+00 -0.11773294855E+04  0.11773294855E+04  0.50400001928E-02 0. -1.
    10030    2    1    2    0    0  0.00000000000E+00  0.00000000000E+00  0.85924142547E+03  0.32139003964E+04  0.30969113534E+04 0.  0.
        2    1    3    3  502    0 -0.17209829776E+03 -0.13532517852E+04  0.11899690997E+04  0.18102305589E+04  0.25500000920E-02 0.  1.
       -2    1    3    3    0  502  0.17209829776E+03  0.13532517852E+04 -0.33072767418E+03  0.14036698375E+04  0.25500000920E-02 0. -1.
</event>
<event>
 5   0  0.5248309E-07  0.3099195E+04  0.7818609E-02  0.8215959E-01
       -2   -1    0    0    0  501  0.00000000000E+00  0.00000000000E+00  0.84287332151E+03  0.84287332151E+03  0.25500000920E-02 0.  1.
        2   -1    0    0  501    0  0.00000000000E+00  0.00000000000E+00 -0.28488888649E+04  0.28488888649E+04  0.25500000920E-02 0. -1.
    10030    2    1    2    0    0  0.00000000000E+00  0.00000000000E+00 -0.20060155434E+04  0.36917621864E+04  0.30991950053E+04 0.  0.
        4    1    3    3  502    0 -0.32077454961E+03  0.14792608516E+04 -0.60767669559E+03  0.16310676130E+04  0.12699999809E+01 0.  1.
       -4    1    3    3    0  502  0.32077454961E+03 -0.14792608516E+04 -0.13983388478E+04  0.20606945735E+04  0.12699999809E+01 0. -1.
</event>
<event>
 5   0  0.1830902E-07  0.3104659E+04  0.7818609E-02  0.8214461E-01
        1   -1    0    0  501    0  0.00000000000E+00  0.00000000000E+00  0.23320467820E+04  0.23320467820E+04  0.50400001928E-02 0. -1.
       -1   -1    0    0    0  501  0.00000000000E+00  0.00000000000E+00 -0.10333096170E+04  0.10333096170E+04  0.50400001928E-02 0.  1.
    10030    2    1    2    0    0  0.00000000000E+00  0.00000000000E+00  0.12987371650E+04  0.33653563991E+04  0.31046586719E+04 0.  0.
        3    1    3    3  502    0 -0.12838940903E+04 -0.67226778130E+03  0.12523115048E+04  0.19153621381E+04  0.10100000352E+00 0. -1.
       -3    1    3    3    0  502  0.12838940903E+04  0.67226778130E+03  0.46425660196E+02  0.14499942610E+04  0.10100000352E+00 0.  1.
</event>
<event>
 5   0  0.5154105E-07  0.3095986E+04  0.7818609E-02  0.8216840E-01
       -2   -1    0    0    0  501  0.00000000000E+00  0.00000000000E+00  0.21445340225E+04  0.21445340225E+04  0.25500000920E-02 0.  1.
        2   -1    0    0  501    0  0.00000000000E+00  0.00000000000E+00 -0.11173904225E+04  0.11173904225E+04  0.25500000920E-02 0. -1.
    10030    2    1    2    0    0  0.00000000000E+00  0.00000000000E+00  0.10271436000E+04  0.32619244450E+04  0.30959856443E+04 0.  0.
        1    1    3    3  502    0 -0.12566337464E+04 -0.37138967043E+03  0.13818945677E+04  0.19043873703E+04  0.50400001928E-02 0.  1.
       -1    1    3    3    0  502  0.12566337464E+04  0.37138967043E+03 -0.35475096772E+03  0.13575370747E+04  0.50400001928E-02 0. -1.
</event>
<event>
 5   0  0.1845123E-07  0.3100483E+04  0.7818609E-02  0.8215605E-01
        1   -1    0    0  501    0  0.00000000000E+00  0.00000000000E+00  0.11966687022E+04  0.11966687022E+04  0.50400001928E-02 0.  1.
       -1   -1    0    0    0  501  0.00000000000E+00  0.00000000000E+00 -0.20082826624E+04  0.20082826624E+04  0.50400001928E-02 0. -1.
    10030    2    1    2    0    0  0.00000000000E+00  0.00000000000E+00 -0.81161396019E+03  0.32049513646E+04  0.31004831928E+04 0.  0.
        2    1    3    3  502    0  0.13555480684E+04  0.28724780905E+02  0.37112495441E+03  0.14057273600E+04  0.25500000920E-02 0.  1.
       -2    1    3    3    0  502 -0.13555480684E+04 -0.28724780905E+02 -0.11827389146E+04  0.17992240046E+04  0.25500000920E-02 0. -1.
</event>
<event>
 5   0  0.1875284E-07  0.3094027E+04  0.7818609E-02  0.8217379E-01
        1   -1    0    0  501    0  0.00000000000E+00  0.00000000000E+00  0.15770683692E+04  0.15770683692E+04  0.50400001928E-02 0.  1.
       -1   -1    0    0    0  501  0.00000000000E+00  0.00000000000E+00 -0.15175317770E+04  0.15175317770E+04  0.50400001928E-02 0. -1.
    10030    2    1    2    0    0  0.00000000000E+00  0.00000000000E+00  0.59536592253E+02  0.30946001462E+04  0.30940273850E+04 0.  0.
        4    1    3    3  502    0  0.69598822783E+03 -0.81146002473E+03  0.11481804506E+04  0.15688170528E+04  0.12699999809E+01 0.  1.
       -4    1    3    3    0  502 -0.69598822783E+03  0.81146002473E+03 -0.10886438583E+04  0.15257830934E+04  0.12699999809E+01 0. -1.
</event>
<event>
 5   0  0.5248309E-07  0.3089476E+04  0.7818609E-02  0.8218632E-01
        2   -1    0    0  501    0  0.00000000000E+00  0.00000000000E+00  0.23340911493E+04  0.23340911493E+04  0.25500000920E-02 0. -1.
       -2   -1    0    0    0  501  0.00000000000E+00  0.00000000000E+00 -0.10223320557E+04  0.10223320557E+04  0.25500000920E-02 0.  1.
    10030    2    1    2    0    0  0.00000000000E+00  0.00000000000E+00  0.13117590936E+04  0.33564232051E+04  0.30894764624E+04 0.  0.
        4    1    3    3  502    0 -0.61121417413E+02 -0.32715348669E+03 -0.98291840080E+03  0.10377357212E+04  0.12699999809E+01 0.  1.
       -4    1    3    3    0  502  0.61121417413E+02  0.32715348669E+03  0.22946774944E+04  0.23186874839E+04  0.12699999809E+01 0. -1.
</event>
<event>
 5   0  0.5055900E-07  0.3107148E+04  0.7818609E-02  0.8213779E-01
        2   -1    0    0  501    0  0.00000000000E+00  0.00000000000E+00  0.19481010306E+04  0.19481010306E+04  0.25500000920E-02 0. -1.
       -2   -1    0    0    0  501  0.00000000000E+00  0.00000000000E+00 -0.12389460307E+04  0.12389460307E+04  0.25500000920E-02 0.  1.
    10030    2    1    2    0    0  0.00000000000E+00  0.00000000000E+00  0.70915499987E+03  0.31870470613E+04  0.31071479136E+04 0.  0.
        2    1    3    3  502    0  0.11783385247E+04  0.84444521921E+03 -0.21837629007E+03  0.14660346555E+04  0.25500000920E-02 0.  1.
       -2    1    3    3    0  502 -0.11783385247E+04 -0.84444521921E+03  0.92753128994E+03  0.17210124058E+04  0.25500000920E-02 0. -1.
</event>
<event>
 5   0  0.1814075E-07  0.3099741E+04  0.7818609E-02  0.8215809E-01
        1   -1    0    0  501    0  0.00000000000E+00  0.00000000000E+00  0.76238450726E+03  0.76238450727E+03  0.50400001928E-02 0. -1.
       -1   -1    0    0    0  501  0.00000000000E+00  0.00000000000E+00 -0.31507697422E+04  0.31507697422E+04  0.50400001928E-02 0.  1.
    10030    2    1    2    0    0  0.00000000000E+00  0.00000000000E+00 -0.23883852349E+04  0.39131542495E+04  0.30997406585E+04 0.  0.
        5    1    3    3  502    0 -0.13578562362E+04 -0.70742908376E+03 -0.89056583439E+03  0.17712591742E+04  0.46999998093E+01 0.  1.
       -5    1    3    3    0  502  0.13578562362E+04  0.70742908376E+03 -0.14978194006E+04  0.21418950753E+04  0.46999998093E+01 0. -1.
</event>
<event>
 5   0  0.5376678E-07  0.3111928E+04  0.7818609E-02  0.8212472E-01
        2   -1    0    0  501    0  0.00000000000E+00  0.00000000000E+00  0.14068164729E+04  0.14068164729E+04  0.25500000920E-02 0. -1.
       -2   -1    0    0    0  501  0.00000000000E+00  0.00000000000E+00 -0.17209241918E+04  0.17209241918E+04  0.25500000920E-02 0.  1.
    10030    2    1    2    0    0  0.00000000000E+00  0.00000000000E+00 -0.31410771889E+03  0.31277406646E+04  0.31119283421E+04 0.  0.
        5    1    3    3  502    0  0.13445832722E+04  0.59714512819E+03  0.35199365360E+03  0.15127485258E+04  0.46999998093E+01 0. -1.
       -5    1    3    3    0  502 -0.13445832722E+04 -0.59714512819E+03 -0.66610137249E+03  0.16149921388E+04  0.46999998093E+01 0.  1.
</event>
<event>
 5   0  0.5055900E-07  0.3100640E+04  0.7818609E-02  0.8215562E-01
        2   -1    0    0  501    0  0.00000000000E+00  0.00000000000E+00  0.17498050139E+04  0.17498050139E+04  0.25500000920E-02 0. -1.
       -2   -1    0    0    0  501  0.00000000000E+00  0.00000000000E+00 -0.13735767014E+04  0.13735767014E+04  0.25500000920E-02 0.  1.
    10030    2    1    2    0    0  0.00000000000E+00  0.00000000000E+00  0.37622831250E+03  0.31233817152E+04  0.31006395463E+04 0.  0.
        2    1    3    3  502    0 -0.11021457954E+04 -0.80421815672E+03  0.92971993430E+03  0.16510213064E+04  0.25500000920E-02 0.  1.
       -2    1    3    3    0  502  0.11021457954E+04  0.80421815672E+03 -0.55349162180E+03  0.14723604088E+04  0.25500000920E-02 0. -1.
</event>
<event>
 5   0  0.5376678E-07  0.3086648E+04  0.7818609E-02  0.8219412E-01
        2   -1    0    0  501    0  0.00000000000E+00  0.00000000000E+00  0.30776177244E+04  0.30776177244E+04  0.25500000920E-02 0. -1.
       -2   -1    0    0    0  501  0.00000000000E+00  0.00000000000E+00 -0.77392637982E+03  0.77392637982E+03  0.25500000920E-02 0.  1.
    10030    2    1    2    0    0  0.00000000000E+00  0.00000000000E+00  0.23036913446E+04  0.38515441042E+04  0.30866483725E+04 0.  0.
        5    1    3    3  502    0  0.10330276713E+04  0.79359477487E+03  0.21845064728E+04  0.25434286812E+04  0.46999998093E+01 0. -1.
       -5    1    3    3    0  502 -0.10330276713E+04 -0.79359477487E+03  0.11918487181E+03  0.13081154231E+04  0.46999998093E+01 0.  1.
</event>
<event>
 5   0  0.1830902E-07  0.3103349E+04  0.7818609E-02  0.8214819E-01
        1   -1    0    0  501    0  0.00000000000E+00  0.00000000000E+00  0.13282725803E+04  0.13282725803E+04  0.50400001928E-02 0.  1.
       -1   -1    0    0    0  501  0.00000000000E+00  0.00000000000E+00 -0.18126508448E+04  0.18126508448E+04  0.50400001928E-02 0. -1.
    10030    2    1    2    0    0  0.00000000000E+00  0.00000000000E+00 -0.48437826450E+03  0.31409234251E+04  0.31033494259E+04 0.  0.
        3    1    3    3  502    0 -0.77538317531E+03 -0.11218489206E+04 -0.99137459695E+03  0.16859975299E+04  0.10100000352E+00 0. -1.
       -3    1    3    3    0  502  0.77538317531E+03  0.11218489206E+04  0.50699633244E+03  0.14549258952E+04  0.10100000352E+00 0.  1.
</event>
<event>
 5   0  0.5154105E-07  0.3076578E+04  0.7818609E-02  0.8222196E-01
        2   -1    0    0  501    0  0.00000000000E+00  0.00000000000E+00  0.21963674189E+04  0.21963674189E+04  0.25500000920E-02 0. -1.
       -2   -1    0    0    0  501  0.00000000000E+00  0.00000000000E+00 -0.10773846229E+04  0.10773846229E+04  0.25500000920E-02 0.  1.
    10030    2    1    2    0    0  0.00000000000E+00  0.00000000000E+00  0.11189827960E+04  0.32737520419E+04  0.30765776333E+04 0.  0.
        1    1    3    3  502    0  0.56128726549E+03  0.13347507399E+03 -0.95789840688E+03  0.11182255353E+04  0.50400001928E-02 0.  1.
       -1    1    3    3    0  502 -0.56128726549E+03 -0.13347507399E+03  0.20768812029E+04  0.21555265066E+04  0.50400001928E-02 0. -1.
</event>
<event>
 5   0  0.1830902E-07  0.3100304E+04  0.7818609E-02  0.8215655E-01
        1   -1    0    0  501    0  0.00000000000E+00  0.00000000000E+00  0.18837012868E+04  0.18837012868E+04  0.50400001928E-02 0.  1.
       -1   -1    0    0    0  501  0.00000000000E+00  0.00000000000E+00 -0.12756643008E+04  0.12756643008E+04  0.50400001928E-02 0. -1.
    10030    2    1    2    0    0  0.00000000000E+00  0.00000000000E+00  0.60803698600E+03  0.31593655876E+04  0.31003035238E+04 0.  0.
        3    1    3    3  502    0  0.13000441284E+04 -0.59080149683E+03 -0.31063815872E+03  0.14613887985E+04  0.10100000352E+00 0. -1.
       -3    1    3    3    0  502 -0.13000441284E+04  0.59080149683E+03  0.91867514471E+03  0.16979767891E+04  0.10100000352E+00 0.  1.
</event>
<event>
 5   0  0.5055900E-07  0.3106669E+04  0.7818609E-02  0.8213910E-01
        2   -1    0    0  501    0  0.00000000000E+00  0.00000000000E+00  0.12216460966E+04  0.12216460966E+04  0.25500000920E-02 0.  1.
       -2   -1    0    0    0  501  0.00000000000E+00  0.00000000000E+00 -0.19750789229E+04  0.19750789229E+04  0.25500000920E-02 0. -1.
    10030    2    1    2    0    0  0.00000000000E+00  0.00000000000E+00 -0.75343282632E+03  0.31967250195E+04  0.31066686059E+04 0.  0.
        2    1    3    3  502    0 -0.13196444348E+04 -0.73040080140E+03 -0.75883096214E+03  0.16884226941E+04  0.25500000920E-02 0. -1.
       -2    1    3    3    0  502  0.13196444348E+04  0.73040080140E+03  0.53981358201E+01  0.15083023254E+04  0.25500000920E-02 0.  1.
</event>
<event>
 5   0  0.5342534E-07  0.3101581E+04  0.7818609E-02  0.8215304E-01
       -2   -1    0    0    0  501  0.00000000000E+00  0.00000000000E+00  0.86813752505E+03  0.86813752505E+03  0.25500000920E-02 0.  1.
        2   -1    0    0  501    0  0.00000000000E+00  0.00000000000E+00 -0.27702413332E+04  0.27702413333E+04  0.25500000920E-02 0. -1.
    10030    2    1    2    0    0  0.00000000000E+00  0.00000000000E+00 -0.19021038082E+04  0.36383788583E+04  0.31015805357E+04 0.  0.
        3    1    3    3  502    0 -0.99779366866E+03 -0.15263870402E+03 -0.23321223119E+04  0.25411976049E+04  0.10100000352E+00 0. -1.
       -3    1    3    3    0  502  0.99779366866E+03  0.15263870402E+03  0.43001850368E+03  0.10971812534E+04  0.10100000352E+00 0.  1.
</event>
<event>
 5   0  0.5154105E-07  0.3099844E+04  0.7818609E-02  0.8215781E-01
       -2   -1    0    0    0  501  0.00000000000E+00  0.00000000000E+00  0.27566255616E+04  0.27566255616E+04  0.25500000920E-02 0. -1.
        2   -1    0    0  501    0  0.00000000000E+00  0.00000000000E+00 -0.87144878584E+03  0.87144878585E+03  0.25500000920E-02 0.  1.
    10030    2    1    2    0    0  0.00000000000E+00  0.00000000000E+00  0.18851767757E+04  0.36280743474E+04  0.30998438662E+04 0.  0.
        1    1    3    3  502    0  0.18268439349E+02 -0.15493216785E+04  0.98831814227E+03  0.18377987240E+04  0.50400001928E-02 0.  1.
       -1    1    3    3    0  502 -0.18268439349E+02  0.15493216785E+04  0.89685863348E+03  0.17902756235E+04  0.50400001928E-02 0. -1.
</event>
<event>
 5   0  0.5376678E-07  0.3098717E+04  0.7818609E-02  0.8216090E-01
        2   -1    0    0  501    0  0.00000000000E+00  0.00000000000E+00  0.20329881412E+04  0.20329881412E+04  0.25500000920E-02 0. -1.
       -2   -1    0    0    0  501  0.00000000000E+00  0.00000000000E+00 -0.11807802210E+04  0.11807802210E+04  0.25500000920E-02 0.  1.
    10030    2    1    2    0    0  0.00000000000E+00  0.00000000000E+00  0.85220792022E+03  0.32137683622E+04  0.30987172743E+04 0.  0.
        5    1    3    3  502    0  0.87441471340E+03 -0.67962749884E+03  0.15498439292E+04  0.19048708416E+04  0.46999998093E+01 0. -1.
       -5    1    3    3    0  502 -0.87441471340E+03  0.67962749884E+03 -0.69763600903E+03  0.13088975205E+04  0.46999998093E+01 0.  1.
</event>
<event>
 5   0  0.1875284E-07  0.3097792E+04  0.7818609E-02  0.8216344E-01
       -1   -1    0    0    0  501  0.00000000000E+00  0.00000000000E+00  0.15991205971E+04  0.15991205971E+04  0.50400001928E-02 0.  1.
        1   -1    0    0  501    0  0.00000000000E+00  0.00000000000E+00 -0.15002491384E+04  0.15002491384E+04  0.50400001928E-02 0. -1.
    10030    2    1    2    0    0  0.00000000000E+00  0.00000000000E+00  0.98871458748E+02  0.30993697355E+04  0.30977923094E+04 0.  0.
        4    1    3    3  502    0  0.13247952981E+04 -0.67033639548E+03  0.49084540329E+03  0.15637660591E+04  0.12699999809E+01 0.  1.
       -4    1    3    3    0  502 -0.13247952981E+04  0.67033639548E+03 -0.39197394454E+03  0.15356036764E+04  0.12699999809E+01 0. -1.
</event>
<event>
 5   0  0.1814075E-07  0.3101672E+04  0.7818609E-02  0.8215279E-01
       -1   -1    0    0    0  501  0.00000000000E+00  0.00000000000E+00  0.14882096795E+04  0.14882096795E+04  0.50400001928E-02 0. -1.
        1   -1    0    0  501    0  0.00000000000E+00  0.00000000000E+00 -0.16160978103E+04  0.16160978103E+04  0.50400001928E-02 0.  1.
    10030    2    1    2    0    0  0.00000000000E+00  0.00000000000E+00 -0.12788813080E+03  0.31043074897E+04  0.31016720679E+04 0.  0.
        5    1    3    3  502    0 -0.13482096181E+04  0.41019791954E+03  0.58401532779E+03  0.15254597669E+04  0.46999998093E+01 0. -1.
       -5    1    3    3    0  502  0.13482096181E+04 -0.41019791954E+03 -0.71190345859E+03  0.15788477228E+04  0.46999998093E+01 0.  1.
</event>
<event>
 5   0  0.5248309E-07  0.3091082E+04  0.7818609E-02  0.8218190E-01
        2   -1    0    0  501    0  0.00000000000E+00  0.00000000000E+00  0.22537777564E+04  0.22537777564E+04  0.25500000920E-02 0.  1.
       -2   -1    0    0    0  501  0.00000000000E+00  0.00000000000E+00 -0.10598635888E+04  0.10598635888E+04  0.25500000920E-02 0. -1.
    10030    2    1    2    0    0  0.00000000000E+00  0.00000000000E+00  0.11939141677E+04  0.33136413452E+04  0.30910819990E+04 0.  0.
        4    1    3    3  502    0  0.11303358964E+04 -0.73869818564E+03 -0.20908542064E+03  0.13664013225E+04  0.12699999809E+01 0. -1.
       -4    1    3    3    0  502 -0.11303358964E+04  0.73869818564E+03  0.14029995883E+04  0.19472400227E+04  0.12699999809E+01 0.  1.
</event>
<event>
 5   0  0.1875284E-07  0.3101973E+04  0.7818609E-02  0.8215197E-01
       -1   -1    0    0    0  501  0.00000000000E+00  0.00000000000E+00  0.13101575804E+04  0.13101575804E+04  0.50400001928E-02 0. -1.
        1   -1    0    0  501    0  0.00000000000E+00  0.00000000000E+00 -0.18360834831E+04  0.18360834831E+04  0.50400001928E-02 0.  1.
    10030    2    1    2    0    0  0.00000000000E+00  0.00000000000E+00 -0.52592590275E+03  0.31462410635E+04  0.31019727231E+04 0.  0.
        4    1    3    3  502    0 -0.10732280534E+04  0.59681009590E+03 -0.12238777434E+04  0.17337471237E+04  0.12699999809E+01 0.  1.
       -4    1    3    3    0  502  0.10732280534E+04 -0.59681009590E+03  0.69795184068E+03  0.14124939398E+04  0.12699999809E+01 0. -1.
</event>
<event>
 5   0  0.1840359E-07  0.3109585E+04  0.7818609E-02  0.8213112E-01
        1   -1    0    0  501    0  0.00000000000E+00  0.00000000000E+00  0.15618976898E+04  0.15618976898E+04  0.50400001928E-02 0.  1.
       -1   -1    0    0    0  501  0.00000000000E+00  0.00000000000E+00 -0.15477191836E+04  0.15477191836E+04  0.50400001928E-02 0. -1.
    10030    2    1    2    0    0  0.00000000000E+00  0.00000000000E+00  0.14178506238E+02  0.31096168734E+04  0.31095845493E+04 0.  0.
        1    1    3    3  502    0 -0.13704873466E+04  0.13795130365E+03  0.72828527438E+03  0.15580967782E+04  0.50400001928E-02 0.  1.
       -1    1    3    3    0  502  0.13704873466E+04 -0.13795130365E+03 -0.71410676814E+03  0.15515200952E+04  0.50400001928E-02 0. -1.
</event>
<event>
 5   0  0.5154105E-07  0.3100165E+04  0.7818609E-02  0.8215693E-01
        2   -1    0    0  501    0  0.00000000000E+00  0.00000000000E+00  0.18155213126E+04  0.18155213126E+04  0.25500000920E-02 0.  1.
       -2   -1    0    0    0  501  0.00000000000E+00  0.00000000000E+00 -0.13234525016E+04  0.13234525016E+04  0.25500000920E-02 0. -1.
    10030    2    1    2    0    0  0.00000000000E+00  0.00000000000E+00  0.49206881106E+03  0.31389738142E+04  0.31001653006E+04 0.  0.
        1    1    3    3  502    0 -0.92683362287E+03 -0.12345528119E+04  0.38784123336E+03  0.15917166934E+04  0.50400001928E-02 0. -1.
       -1    1    3    3    0  502  0.92683362287E+03  0.12345528119E+04  0.10422757770E+03  0.15472571208E+04  0.50400001928E-02 0.  1.
</event>
<event>
 5   0  0.1814075E-07  0.3113907E+04  0.7818609E-02  0.8211931E-01
       -1   -1    0    0    0  501  0.00000000000E+00  0.00000000000E+00  0.16057582353E+04  0.16057582353E+04  0.50400001928E-02 0.  1.
        1   -1    0    0  501    0  0.00000000000E+00  0.00000000000E+00 -0.15096324910E+04  0.15096324910E+04  0.50400001928E-02 0. -1.
    10030    2    1    2    0    0  0.00000000000E+00  0.00000000000E+00  0.96125744244E+02  0.31153907263E+04  0.31139073877E+04 0.  0.
        5    1    3    3  502    0 -0.14202277239E+04  0.62865354983E+03 -0.60757693132E+02  0.15543376919E+04  0.46999998093E+01 0.  1.
       -5    1    3    3    0  502  0.14202277239E+04 -0.62865354983E+03  0.15688343738E+03  0.15610530344E+04  0.46999998093E+01 0. -1.
</event>
<event>
 5   0  0.5248309E-07  0.3105965E+04  0.7818609E-02  0.8214103E-01
        2   -1    0    0  501    0  0.00000000000E+00  0.00000000000E+00  0.20366611176E+04  0.20366611176E+04  0.25500000920E-02 0. -1.
       -2   -1    0    0    0  501  0.00000000000E+00  0.00000000000E+00 -0.11841708696E+04  0.11841708696E+04  0.25500000920E-02 0.  1.
    10030    2    1    2    0    0  0.00000000000E+00  0.00000000000E+00  0.85249024800E+03  0.32208319872E+04  0.31059650781E+04 0.  0.
        4    1    3    3  502    0  0.56765538550E+03 -0.12996508458E+04  0.10824415000E+04  0.17840981395E+04  0.12699999809E+01 0. -1.
       -4    1    3    3    0  502 -0.56765538550E+03  0.12996508458E+04 -0.22995125204E+03  0.14367338476E+04  0.12699999809E+01 0.  1.
</event>
<event>
 5   0  0.5154105E-07  0.3105560E+04  0.7818609E-02  0.8214214E-01
       -2   -1    0    0    0  501  0.00000000000E+00  0.00000000000E+00  0.93272450770E+03  0.93272450770E+03  0.25500000920E-02 0. -1.
        2   -1    0    0  501    0  0.00000000000E+00  0.00000000000E+00 -0.25850353184E+04  0.25850353184E+04  0.25500000920E-02 0.  1.
    10030    2    1    2    0    0  0.00000000000E+00  0.00000000000E+00 -0.16523108107E+04  0.35177598261E+04  0.31055600427E+04 0.  0.
        1    1    3    3  502    0  0.43238817139E+03  0.11597256045E+04 -0.18882685468E+04  0.22577601984E+04  0.50400001928E-02 0.  1.
       -1    1    3    3    0  502 -0.43238817139E+03 -0.11597256045E+04  0.23595773610E+03  0.12599996277E+04  0.50400001928E-02 0. -1.
</event>
<event>
 5   0  0.5342534E-07  0.3096121E+04  0.7818609E-02  0.8216803E-01
        2   -1    0    0  501    0  0.00000000000E+00  0.00000000000E+00  0.24681856787E+04  0.24681856787E+04  0.25500000920E-02 0.  1.
       -2   -1    0    0    0  501  0.00000000000E+00  0.00000000000E+00 -0.97095253140E+03  0.97095253140E+03  0.25500000920E-02 0. -1.
    10030    2    1    2    0    0  0.00000000000E+00  0.00000000000E+00  0.14972331473E+04  0.34391382101E+04  0.30961208844E+04 0.  0.
        3    1    3    3  502    0  0.13134233589E+04 -0.44136535518E+02 -0.16023871892E+03  0.13238978098E+04  0.10100000352E+00 0. -1.
       -3    1    3    3    0  502 -0.13134233589E+04  0.44136535518E+02  0.16574718663E+04  0.21152404003E+04  0.10100000352E+00 0.  1.
</event>
<event>
 5   0  0.5055900E-07  0.3096274E+04  0.7818609E-02  0.8216761E-01
        2   -1    0    0  501    0  0.00000000000E+00  0.00000000000E+00  0.17637027961E+04  0.17637027961E+04  0.25500000920E-02 0.  1.
       -2   -1    0    0    0  501  0.00000000000E+00  0.00000000000E+00 -0.13589183335E+04  0.13589183335E+04  0.25500000920E-02 0. -1.
    10030    2    1    2    0    0  0.00000000000E+00  0.00000000000E+00  0.40478446257E+03  0.31226211296E+04  0.30962739313E+04 0.  0.
        2    1    3    3  502    0 -0.60416409737E+03  0.11171736865E+04 -0.69037310320E+03  0.14455816559E+04  0.25500000920E-02 0. -1.
       -2    1    3    3    0  502  0.60416409737E+03 -0.11171736865E+04  0.10951575658E+04  0.16770394736E+04  0.25500000920E-02 0.  1.
</event>
<event>
 5   0  0.5154105E-07  0.3101039E+04  0.7818609E-02  0.8215453E-01
       -2   -1    0    0    0  501  0.00000000000E+00  0.00000000000E+00  0.10960974682E+04  0.10960974682E+04  0.25500000920E-02 0.  1.
        2   -1    0    0  501    0  0.00000000000E+00  0.00000000000E+00 -0.21933368832E+04  0.21933368832E+04  0.25500000920E-02 0. -1.
    10030    2    1    2    0    0  0.00000000000E+00  0.00000000000E+00 -0.10972394150E+04  0.32894343513E+04  0.31010391835E+04 0.  0.
        1    1    3    3  502    0 -0.56074115030E+03  0.49112255024E+03  0.89356614514E+03  0.11636547825E+04  0.50400001928E-02 0.  1.
       -1    1    3    3    0  502  0.56074115030E+03 -0.49112255024E+03 -0.19908055602E+04  0.21257795689E+04  0.50400001928E-02 0. -1.
</event>
<event>
 5   0  0.5342534E-07  0.3108242E+04  0.7818609E-02  0.8213479E-01
        2   -1    0    0  501    0  0.00000000000E+00  0.00000000000E+00  0.29154347912E+04  0.29154347912E+04  0.25500000920E-02 0. -1.
       -2   -1    0    0    0  501  0.00000000000E+00  0.00000000000E+00 -0.82845025609E+03  0.82845025610E+03  0.25500000920E-02 0.  1.
    10030    2    1    2    0    0  0.00000000000E+00  0.00000000000E+00  0.20869845351E+04  0.37438850473E+04  0.31082423969E+04 0.  0.
        3    1    3    3  502    0  0.72207063112E+03  0.98971068801E+03 -0.10829123441E+03  0.12298944036E+04  0.10100000352E+00 0.  1.
       -3    1    3    3    0  502 -0.72207063112E+03 -0.98971068801E+03  0.21952757695E+04  0.25139906437E+04  0.10100000352E+00 0. -1.
</event>
<event>
 5   0  0.5055900E-07  0.3099668E+04  0.7818609E-02  0.8215829E-01
        2   -1    0    0  501    0  0.00000000000E+00  0.00000000000E+00  0.24821592652E+04  0.24821592652E+04  0.25500000920E-02 0.  1.
       -2   -1    0    0    0  501  0.00000000000E+00  0.00000000000E+00 -0.96770020365E+03  0.96770020366E+03  0.25500000920E-02 0. -1.
    10030    2    1    2    0    0  0.00000000000E+00  0.00000000000E+00  0.15144590616E+04  0.34498594689E+04  0.30996683864E+04 0.  0.
        2    1    3    3  502    0 -0.78285946042E+03 -0.96894255769E+03  0.17835049745E+04  0.21754559542E+04  0.25500000920E-02 0.  1.
       -2    1    3    3    0  502  0.78285946042E+03  0.96894255769E+03 -0.26904591291E+03  0.12744035146E+04  0.25500000920E-02 0. -1.
</event>
<event>
 5   0  0.1830902E-07  0.3186161E+04  0.7818609E-02  0.8192482E-01
        1   -1    0    0  501    0  0.00000000000E+00  0.00000000000E+00  0.27638823990E+04  0.27638823990E+04  0.50400001928E-02 0.  1.
       -1   -1    0    0    0  501  0.00000000000E+00  0.00000000000E+00 -0.91823911512E+03  0.91823911513E+03  0.50400001928E-02 0. -1.
    10030    2    1    2    0    0  0.00000000000E+00  0.00000000000E+00  0.18456432839E+04  0.36821215142E+04  0.31861606541E+04 0.  0.
        3    1    3    3  502    0  0.33977576475E+02  0.13879322128E+04  0.19929666515E+02  0.13884910893E+04  0.10100000352E+00 0. -1.
       -3    1    3    3    0  502 -0.33977576475E+02 -0.13879322128E+04  0.18257136174E+04  0.22936304249E+04  0.10100000352E+00 0.  1.
</event>
<event>
 5   0  0.1840359E-07  0.3096224E+04  0.7818609E-02  0.8216775E-01
        1   -1    0    0  501    0  0.00000000000E+00  0.00000000000E+00  0.20597017042E+04  0.20597017042E+04  0.50400001928E-02 0. -1.
       -1   -1    0    0    0  501  0.00000000000E+00  0.00000000000E+00 -0.11635914261E+04  0.11635914262E+04  0.50400001928E-02 0.  1.
    10030    2    1    2    0    0  0.00000000000E+00  0.00000000000E+00  0.89611027806E+03  0.32232931304E+04  0.30962243094E+04 0.  0.
        1    1    3    3  502    0  0.13977512679E+04  0.55819489452E+03  0.82536727000E+03  0.17165434098E+04  0.50400001928E-02 0. -1.
       -1    1    3    3    0  502 -0.13977512679E+04 -0.55819489452E+03  0.70743008056E+02  0.15067497206E+04  0.50400001928E-02 0.  1.
</event>
<event>
 5   0  0.5055900E-07  0.3111314E+04  0.7818609E-02  0.8212640E-01
       -2   -1    0    0    0  501  0.00000000000E+00  0.00000000000E+00  0.11076267391E+04  0.11076267391E+04  0.25500000920E-02 0. -1.
        2   -1    0    0  501    0  0.00000000000E+00  0.00000000000E+00 -0.21849142447E+04  0.21849142447E+04  0.25500000920E-02 0.  1.
    10030    2    1    2    0    0  0.00000000000E+00  0.00000000000E+00 -0.10772875056E+04  0.32925409838E+04  0.31113144747E+04 0.  0.
        2    1    3    3  502    0  0.73335126857E+03 -0.30226261312E+03  0.87755194920E+03  0.11829049809E+04  0.25500000920E-02 0. -1.
       -2    1    3    3    0  502 -0.73335126857E+03  0.30226261312E+03 -0.19548394548E+04  0.21096360029E+04  0.25500000920E-02 0.  1.
</event>
<event>
 5   0  0.5376678E-07  0.3100300E+04  0.7818609E-02  0.8215655E-01
        2   -1    0    0  501    0  0.00000000000E+00  0.00000000000E+00  0.24008304745E+04  0.24008304745E+04  0.25500000920E-02 0.  1.
       -2   -1    0    0    0  501  0.00000000000E+00  0.00000000000E+00 -0.10008893684E+04  0.10008893684E+04  0.25500000920E-02 0. -1.
    10030    2    1    2    0    0  0.00000000000E+00  0.00000000000E+00  0.13999411061E+04  0.34017198429E+04  0.31003004353E+04 0.  0.
        5    1    3    3  502    0  0.13081640334E+02  0.10043408921E+04  0.19954703254E+04  0.22340088778E+04  0.46999998093E+01 0. -1.
       -5    1    3    3    0  502 -0.13081640334E+02 -0.10043408921E+04 -0.59552921932E+03  0.11677109650E+04  0.46999998093E+01 0.  1.
</event>
<event>
 5   0  0.5376678E-07  0.3111194E+04  0.7818609E-02  0.8212673E-01
        2   -1    0    0  501    0  0.00000000000E+00  0.00000000000E+00  0.21513142746E+04  0.21513142746E+04  0.25500000920E-02 0.  1.
       -2   -1    0    0    0  501  0.00000000000E+00  0.00000000000E+00 -0.11248389115E+04  0.11248389115E+04  0.25500000920E-02 0. -1.
    10030    2    1    2    0    0  0.00000000000E+00  0.00000000000E+00  0.10264753630E+04  0.32761531861E+04  0.31111939875E+04 0.  0.
        5    1    3    3  502    0  0.60542832080E+03 -0.12065198784E+04  0.13272892949E+04  0.18931330199E+04  0.46999998093E+01 0.  1.
       -5    1    3    3    0  502 -0.60542832080E+03  0.12065198784E+04 -0.30081393186E+03  0.13830201662E+04  0.46999998093E+01 0. -1.
</event>
<event>
 5   0  0.1875284E-07  0.3062771E+04  0.7818609E-02  0.8226030E-01
        1   -1    0    0  501    0  0.00000000000E+00  0.00000000000E+00  0.24365328344E+04  0.24365328344E+04  0.50400001928E-02 0.  1.
       -1   -1    0    0    0  501  0.00000000000E+00  0.00000000000E+00 -0.96249144163E+03  0.96249144164E+03  0.50400001928E-02 0. -1.
    10030    2    1    2    0    0  0.00000000000E+00  0.00000000000E+00  0.14740413928E+04  0.33990242761E+04  0.30627712944E+04 0.  0.
        4    1    3    3  502    0 -0.41433278634E+03  0.79466647372E+03  0.21151127016E+04  0.22971438387E+04  0.12699999809E+01 0.  1.
       -4    1    3    3    0  502  0.41433278634E+03 -0.79466647372E+03 -0.64107130884E+03  0.11018804373E+04  0.12699999809E+01 0. -1.
</event>
<event>
 5   0  0.1814075E-07  0.3105166E+04  0.7818609E-02  0.8214322E-01
        1   -1    0    0  501    0  0.00000000000E+00  0.00000000000E+00  0.15880299307E+04  0.15880299307E+04  0.50400001928E-02 0.  1.
       -1   -1    0    0    0  501  0.00000000000E+00  0.00000000000E+00 -0.15179268471E+04  0.15179268471E+04  0.50400001928E-02 0. -1.
    10030    2    1    2    0    0  0.00000000000E+00  0.00000000000E+00  0.70103083659E+02  0.31059567778E+04  0.31051655452E+04 0.  0.
        5    1    3    3  502    0  0.39188405270E+03  0.50214022895E+03 -0.13812094035E+04  0.15210126319E+04  0.46999998093E+01 0. -1.
       -5    1    3    3    0  502 -0.39188405270E+03 -0.50214022895E+03  0.14513124871E+04  0.15849441459E+04  0.46999998093E+01 0.  1.
</event>
<event>
 5   0  0.5154105E-07  0.3103947E+04  0.7818609E-02  0.8214656E-01
       -2   -1    0    0    0  501  0.00000000000E+00  0.00000000000E+00  0.12823383696E+04  0.12823383696E+04  0.25500000920E-02 0.  1.
        2   -1    0    0  501    0  0.00000000000E+00  0.00000000000E+00 -0.18783042345E+04  0.18783042345E+04  0.25500000920E-02 0. -1.
    10030    2    1    2    0    0  0.00000000000E+00  0.00000000000E+00 -0.59596586481E+03  0.31606426041E+04  0.31039469001E+04 0.  0.
        1    1    3    3  502    0 -0.15176179638E+02 -0.13414384122E+04  0.49661295181E+03  0.14304935352E+04  0.50400001928E-02 0.  1.
       -1    1    3    3    0  502  0.15176179638E+02  0.13414384122E+04 -0.10925788166E+04  0.17301490689E+04  0.50400001928E-02 0. -1.
</event>
<event>
 5   0  0.5248309E-07  0.3082730E+04  0.7818609E-02  0.8220494E-01
        2   -1    0    0  501    0  0.00000000000E+00  0.00000000000E+00  0.30125854359E+04  0.30125854359E+04  0.25500000920E-02 0. -1.
       -2   -1    0    0    0  501  0.00000000000E+00  0.00000000000E+00 -0.78862683690E+03  0.78862683691E+03  0.25500000920E-02 0.  1.
    10030    2    1    2    0    0  0.00000000000E+00  0.00000000000E+00  0.22239585990E+04  0.38012122728E+04  0.30827297794E+04 0.  0.
        4    1    3    3  502    0 -0.84320139320E+03 -0.27904947725E+03  0.26653240857E+04  0.28094147602E+04  0.12699999809E+01 0. -1.
       -4    1    3    3    0  502  0.84320139320E+03  0.27904947725E+03 -0.44136548669E+03  0.99179751260E+03  0.12699999809E+01 0.  1.
</event>
<event>
 5   0  0.5055900E-07  0.3132206E+04  0.7818609E-02  0.8206954E-01
        2   -1    0    0  501    0  0.00000000000E+00  0.00000000000E+00  0.77247920095E+03  0.77247920095E+03  0.25500000920E-02 0. -1.
       -2   -1    0    0    0  501  0.00000000000E+00  0.00000000000E+00 -0.31750744025E+04  0.31750744025E+04  0.25500000920E-02 0.  1.
    10030    2    1    2    0    0  0.00000000000E+00  0.00000000000E+00 -0.24025952015E+04  0.39475536034E+04  0.31322062112E+04 0.  0.
        2    1    3    3  502    0 -0.47340382329E+02 -0.14355198771E+04 -0.41451577488E+03  0.14949186456E+04  0.25500000920E-02 0. -1.
       -2    1    3    3    0  502  0.47340382329E+02  0.14355198771E+04 -0.19880794266E+04  0.24526349578E+04  0.25500000920E-02 0.  1.
</event>
<event>
 5   0  0.5055900E-07  0.3099952E+04  0.7818609E-02  0.8215751E-01
        2   -1    0    0  501    0  0.00000000000E+00  0.00000000000E+00  0.25391156528E+04  0.25391156528E+04  0.25500000920E-02 0.  1.
       -2   -1    0    0    0  501  0.00000000000E+00  0.00000000000E+00 -0.94616609111E+03  0.94616609112E+03  0.25500000920E-02 0. -1.
    10030    2    1    2    0    0  0.00000000000E+00  0.00000000000E+00  0.15929495617E+04  0.34852817440E+04  0.30999516978E+04 0.  0.
        2    1    3    3  502    0 -0.44207897863E+03 -0.31850234333E+03 -0.83494413314E+03  0.99700013617E+03  0.25500000920E-02 0. -1.
       -2    1    3    3    0  502  0.44207897863E+03  0.31850234333E+03  0.24278936949E+04  0.24882816078E+04  0.25500000920E-02 0.  1.
</event>
<event>
 5   0  0.1845123E-07  0.3109496E+04  0.7818609E-02  0.8213137E-01
        1   -1    0    0  501    0  0.00000000000E+00  0.00000000000E+00  0.19231078960E+04  0.19231078960E+04  0.50400001928E-02 0.  1.
       -1   -1    0    0    0  501  0.00000000000E+00  0.00000000000E+00 -0.12569448646E+04  0.12569448646E+04  0.50400001928E-02 0. -1.
    10030    2    1    2    0    0  0.00000000000E+00  0.00000000000E+00  0.66616303139E+03  0.31800527606E+04  0.31094955179E+04 0.  0.
        2    1    3    3  502    0 -0.10838316321E+04 -0.23629997437E+03 -0.78100018473E+03  0.13566465911E+04  0.25500000920E-02 0.  1.
       -2    1    3    3    0  502  0.10838316321E+04  0.23629997437E+03  0.14471632161E+04  0.18234061694E+04  0.25500000920E-02 0. -1.
</event>
<event>
 5   0  0.1830902E-07  0.3098210E+04  0.7818609E-02  0.8216229E-01
        1   -1    0    0  501    0  0.00000000000E+00  0.00000000000E+00  0.26151153596E+04  0.26151153596E+04  0.50400001928E-02 0.  1.
       -1   -1    0    0    0  501  0.00000000000E+00  0.00000000000E+00 -0.91763693571E+03  0.91763693572E+03  0.50400001928E-02 0. -1.
    10030    2    1    2    0    0  0.00000000000E+00  0.00000000000E+00  0.16974784239E+04  0.35327522954E+04  0.30982100930E+04 0.  0.
        3    1    3    3  502    0 -0.10813994040E+04  0.87821621160E+03  0.16212893343E+04  0.21375845015E+04  0.10100000352E+00 0.  1.
       -3    1    3    3    0  502  0.10813994040E+04 -0.87821621160E+03  0.76189089575E+02  0.13951677938E+04  0.10100000352E+00 0. -1.
</event>
<event>
 5   0  0.5376678E-07  0.3108892E+04  0.7818609E-02  0.8213302E-01
        2   -1    0    0  501    0  0.00000000000E+00  0.00000000000E+00  0.18591289676E+04  0.18591289676E+04  0.25500000920E-02 0.  1.
       -2   -1    0    0    0  501  0.00000000000E+00  0.00000000000E+00 -0.12996960510E+04  0.12996960510E+04  0.25500000920E-02 0. -1.
    10030    2    1    2    0    0  0.00000000000E+00  0.00000000000E+00  0.55943291654E+03  0.31588250186E+04  0.31088921355E+04 0.  0.
        5    1    3    3  502    0 -0.42405050920E+03  0.14939019574E+04  0.20992114420E+03  0.15670516486E+04  0.46999998093E+01 0. -1.
       -5    1    3    3    0  502  0.42405050920E+03 -0.14939019574E+04  0.34951177234E+03  0.15917733700E+04  0.46999998093E+01 0.  1.
</event>
<event>
 5   0  0.5154105E-07  0.3100890E+04  0.7818609E-02  0.8215494E-01
       -2   -1    0    0    0  501  0.00000000000E+00  0.00000000000E+00  0.30253561035E+04  0.30253561035E+04  0.25500000920E-02 0.  1.
        2   -1    0    0  501    0  0.00000000000E+00  0.00000000000E+00 -0.79457743088E+03  0.79457743088E+03  0.25500000920E-02 0. -1.
    10030    2    1    2    0    0  0.00000000000E+00  0.00000000000E+00  0.22307786726E+04  0.38199335344E+04  0.31008899885E+04 0.  0.
        1    1    3    3  502    0  0.72683666431E+03 -0.69495669776E+03 -0.33834912628E+03  0.10610072948E+04  0.50400001928E-02 0. -1.
       -1    1    3    3    0  502 -0.72683666431E+03  0.69495669776E+03  0.25691277989E+04  0.27589262396E+04  0.50400001928E-02 0.  1.
</event>
<event>
 5   0  0.1875284E-07  0.3103508E+04  0.7818609E-02  0.8214776E-01
       -1   -1    0    0    0  501  0.00000000000E+00  0.00000000000E+00  0.27337672661E+04  0.27337672661E+04  0.50400001928E-02 0.  1.
        1   -1    0    0  501    0  0.00000000000E+00  0.00000000000E+00 -0.88081406473E+03  0.88081406475E+03  0.50400001928E-02 0. -1.
    10030    2    1    2    0    0  0.00000000000E+00  0.00000000000E+00  0.18529532014E+04  0.36145813309E+04  0.31035081168E+04 0.  0.
        4    1    3    3  502    0 -0.10005880486E+04  0.11438544327E+04  0.12917462417E+04  0.19945398898E+04  0.12699999809E+01 0.  1.
       -4    1    3    3    0  502  0.10005880486E+04 -0.11438544327E+04  0.56120695972E+03  0.16200414411E+04  0.12699999809E+01 0. -1.
</event>
<event>
 5   0  0.1830902E-07  0.3104661E+04  0.7818609E-02  0.8214460E-01
       -1   -1    0    0    0  501  0.00000000000E+00  0.00000000000E+00  0.99056805050E+03  0.99056805051E+03  0.50400001928E-02 0.  1.
        1   -1    0    0  501    0  0.00000000000E+00  0.00000000000E+00 -0.24326741121E+04  0.24326741121E+04  0.50400001928E-02 0. -1.
    10030    2    1    2    0    0  0.00000000000E+00  0.00000000000E+00 -0.14421060616E+04  0.34232421626E+04  0.31046605307E+04 0.  0.
        3    1    3    3  502    0 -0.58743229219E+03 -0.47454264812E+03  0.77438661793E+03  0.10816386028E+04  0.10100000352E+00 0.  1.
       -3    1    3    3    0  502  0.58743229219E+03  0.47454264812E+03 -0.22164926795E+04  0.23416035598E+04  0.10100000352E+00 0. -1.
</event>
<event>
 5   0  0.5376678E-07  0.3100327E+04  0.7818609E-02  0.8215648E-01
       -2   -1    0    0    0  501  0.00000000000E+00  0.00000000000E+00  0.19597177466E+04  0.19597177466E+04  0.25500000920E-02 0. -1.
        2   -1    0    0  501    0  0.00000000000E+00  0.00000000000E+00 -0.12262003750E+04  0.12262003750E+04  0.25500000920E-02 0.  1.
    10030    2    1    2    0    0  0.00000000000E+00  0.00000000000E+00  0.73351737165E+03  0.31859181216E+04  0.31003268446E+04 0.  0.
        5    1    3    3  502    0  0.70027519688E+03 -0.13304826880E+04 -0.21038822357E+02  0.15036735870E+04  0.46999998093E+01 0.  1.
       -5    1    3    3    0  502 -0.70027519688E+03  0.13304826880E+04  0.75455619400E+03  0.16822445346E+04  0.46999998093E+01 0. -1.
</event>
<event>
 5   0  0.5376678E-07  0.3102469E+04  0.7818609E-02  0.8215061E-01
        2   -1    0    0  501    0  0.00000000000E+00  0.00000000000E+00  0.18952184734E+04  0.18952184734E+04  0.25500000920E-02 0. -1.
       -2   -1    0    0    0  501  0.00000000000E+00  0.00000000000E+00 -0.12696843395E+04  0.12696843395E+04  0.25500000920E-02 0.  1.
    10030    2    1    2    0    0  0.00000000000E+00  0.00000000000E+00  0.62553413388E+03  0.31649028129E+04  0.31024694781E+04 0.  0.
        5    1    3    3  502    0 -0.41816454067E+03 -0.13628652813E+04 -0.31113162073E+03  0.14591395867E+04  0.46999998093E+01 0.  1.
       -5    1    3    3    0  502  0.41816454067E+03  0.13628652813E+04  0.93666575461E+03  0.17057632262E+04  0.46999998093E+01 0. -1.
</event>
<event>
 5   0  0.5055900E-07  0.3097461E+04  0.7818609E-02  0.8216435E-01
       -2   -1    0    0    0  501  0.00000000000E+00  0.00000000000E+00  0.96264924523E+03  0.96264924523E+03  0.25500000920E-02 0.  1.
        2   -1    0    0  501    0  0.00000000000E+00  0.00000000000E+00 -0.24916297809E+04  0.24916297809E+04  0.25500000920E-02 0. -1.
    10030    2    1    2    0    0  0.00000000000E+00  0.00000000000E+00 -0.15289805357E+04  0.34542790262E+04  0.30974605909E+04 0.  0.
        2    1    3    3  502    0  0.53200893377E+03 -0.30556230325E+03  0.82135124135E+03  0.10251925129E+04  0.25500000920E-02 0.  1.
       -2    1    3    3    0  502 -0.53200893377E+03  0.30556230325E+03 -0.23503317771E+04  0.24290865133E+04  0.25500000920E-02 0. -1.
</event>
<event>
 5   0  0.5248309E-07  0.3099282E+04  0.7818609E-02  0.8215935E-01
        2   -1    0    0  501    0  0.00000000000E+00  0.00000000000E+00  0.12596742891E+04  0.12596742891E+04  0.25500000920E-02 0.  1.
       -2   -1    0    0    0  501  0.00000000000E+00  0.00000000000E+00 -0.19063557938E+04  0.19063557939E+04  0.25500000920E-02 0. -1.
    10030    2    1    2    0    0  0.00000000000E+00  0.00000000000E+00 -0.64668150473E+03  0.31660300830E+04  0.30992820971E+04 0.  0.
        4    1    3    3  502    0 -0.19309259715E+03 -0.12246359735E+04  0.62639591681E+03  0.13890253692E+04  0.12699999809E+01 0.  1.
       -4    1    3    3    0  502  0.19309259715E+03  0.12246359735E+04 -0.12730774215E+04  0.17770047138E+04  0.12699999809E+01 0. -1.
</event>
<event>
 5   0  0.1840359E-07  0.3089016E+04  0.7818609E-02  0.8218759E-01
       -1   -1    0    0    0  501  0.00000000000E+00  0.00000000000E+00  0.29805758002E+04  0.29805758002E+04  0.50400001928E-02 0.  1.
        1   -1    0    0  501    0  0.00000000000E+00  0.00000000000E+00 -0.80035044908E+03  0.80035044910E+03  0.50400001928E-02 0. -1.
    10030    2    1    2    0    0  0.00000000000E+00  0.00000000000E+00  0.21802253511E+04  0.37809262493E+04  0.30890161413E+04 0.  0.
        1    1    3    3  502    0  0.91954466523E+03  0.49128292254E+03  0.24849161868E+04  0.26947596844E+04  0.50400001928E-02 0.  1.
       -1    1    3    3    0  502 -0.91954466523E+03 -0.49128292254E+03 -0.30469083567E+03  0.10861665649E+04  0.50400001928E-02 0. -1.
</event>
<event>
 5   0  0.1840359E-07  0.3100660E+04  0.7818609E-02  0.8215557E-01
       -1   -1    0    0    0  501  0.00000000000E+00  0.00000000000E+00  0.88350943280E+03  0.88350943282E+03  0.50400001928E-02 0.  1.
        1   -1    0    0  501    0  0.00000000000E+00  0.00000000000E+00 -0.27204274834E+04  0.27204274834E+04  0.50400001928E-02 0. -1.
    10030    2    1    2    0    0  0.00000000000E+00  0.00000000000E+00 -0.18369180506E+04  0.36039369163E+04  0.31006601509E+04 0.  0.
        1    1    3    3  502    0  0.41426510392E+03 -0.18279543764E+03  0.80493909490E+03  0.92355654665E+03  0.50400001928E-02 0.  1.
       -1    1    3    3    0  502 -0.41426510392E+03  0.18279543764E+03 -0.26418571455E+04  0.26803803696E+04  0.50400001928E-02 0. -1.
</event>
<event>
 5   0  0.1830902E-07  0.3100748E+04  0.7818609E-02  0.8215533E-01
        1   -1    0    0  501    0  0.00000000000E+00  0.00000000000E+00  0.21932812502E+04  0.21932812502E+04  0.50400001928E-02 0. -1.
       -1   -1    0    0    0  501  0.00000000000E+00  0.00000000000E+00 -0.10959193464E+04  0.10959193464E+04  0.50400001928E-02 0.  1.
    10030    2    1    2    0    0  0.00000000000E+00  0.00000000000E+00  0.10973619038E+04  0.32892005966E+04  0.31007478802E+04 0.  0.
        3    1    3    3  502    0 -0.21098106484E+03  0.15343253763E+04  0.47373294980E+03  0.16195957174E+04  0.10100000352E+00 0. -1.
       -3    1    3    3    0  502  0.21098106484E+03 -0.15343253763E+04  0.62362895398E+03  0.16696048791E+04  0.10100000352E+00 0.  1.
</event>
<event>
 5   0  0.5154105E-07  0.3098135E+04  0.7818609E-02  0.8216250E-01
       -2   -1    0    0    0  501  0.00000000000E+00  0.00000000000E+00  0.13926401180E+04  0.13926401180E+04  0.25500000920E-02 0. -1.
        2   -1    0    0  501    0  0.00000000000E+00  0.00000000000E+00 -0.17230656438E+04  0.17230656438E+04  0.25500000920E-02 0.  1.
    10030    2    1    2    0    0  0.00000000000E+00  0.00000000000E+00 -0.33042552585E+03  0.31157057618E+04  0.30981351432E+04 0.  0.
        1    1    3    3  502    0 -0.13980929187E+04 -0.21737582324E+03 -0.79941935747E+03  0.16251114937E+04  0.50400001928E-02 0. -1.
       -1    1    3    3    0  502  0.13980929187E+04  0.21737582324E+03  0.46899383162E+03  0.14905942681E+04  0.50400001928E-02 0.  1.
</event>
<event>
 5   0  0.1727000E-07  0.3101366E+04  0.7818609E-02  0.8215363E-01
       -3   -1    0    0    0  501  0.00000000000E+00  0.00000000000E+00  0.11235709444E+04  0.11235709490E+04  0.10100000352E+00 0. -1.
        3   -1    0    0  501    0  0.00000000000E+00  0.00000000000E+00 -0.21401564332E+04  0.21401564356E+04  0.10100000352E+00 0.  1.
    10030    2    1    2    0    0  0.00000000000E+00  0.00000000000E+00 -0.10165854888E+04  0.32637273846E+04  0.31013658902E+04 0.  0.
        5    1    3    3  502    0 -0.75000135068E+03  0.33803465507E+03 -0.18915752308E+04  0.20627283868E+04  0.46999998093E+01 0.  1.
       -5    1    3    3    0  502  0.75000135068E+03 -0.33803465507E+03  0.87498974201E+03  0.12009989978E+04  0.46999998093E+01 0. -1.
</event>
<event>
 5   0  0.5055900E-07  0.3100628E+04  0.7818609E-02  0.8215565E-01
        2   -1    0    0  501    0  0.00000000000E+00  0.00000000000E+00  0.22386610263E+04  0.22386610263E+04  0.25500000920E-02 0.  1.
       -2   -1    0    0    0  501  0.00000000000E+00  0.00000000000E+00 -0.10736213089E+04  0.10736213089E+04  0.25500000920E-02 0. -1.
    10030    2    1    2    0    0  0.00000000000E+00  0.00000000000E+00  0.11650397174E+04  0.33122823353E+04  0.31006284404E+04 0.  0.
        2    1    3    3  502    0 -0.11993596612E+04 -0.23123991671E+03 -0.43739794881E+03  0.12974021973E+04  0.25500000920E-02 0. -1.
       -2    1    3    3    0  502  0.11993596612E+04  0.23123991671E+03  0.16024376662E+04  0.20148801379E+04  0.25500000920E-02 0.  1.
</event>
<event>
 5   0  0.1875284E-07  0.3014160E+04  0.7818609E-02  0.8239699E-01
        1   -1    0    0  501    0  0.00000000000E+00  0.00000000000E+00  0.80711864407E+03  0.80711864408E+03  0.50400001928E-02 0. -1.
       -1   -1    0    0    0  501  0.00000000000E+00  0.00000000000E+00 -0.28140715747E+04  0.28140715747E+04  0.50400001928E-02 0.  1.
    10030    2    1    2    0    0  0.00000000000E+00  0.00000000000E+00 -0.20069529306E+04  0.36211902188E+04  0.30141596731E+04 0.  0.
        4    1    3    3  502    0 -0.52935855340E+03  0.23374927502E+03  0.66832942983E+03  0.88403904965E+03  0.12699999809E+01 0. -1.
       -4    1    3    3    0  502  0.52935855340E+03 -0.23374927502E+03 -0.26752823605E+04  0.27371511691E+04  0.12699999809E+01 0.  1.
</event>
<event>
 5   0  0.1814075E-07  0.3118768E+04  0.7818609E-02  0.8210606E-01
       -1   -1    0    0    0  501  0.00000000000E+00  0.00000000000E+00  0.14585826052E+04  0.14585826052E+04  0.50400001928E-02 0. -1.
        1   -1    0    0  501    0  0.00000000000E+00  0.00000000000E+00 -0.16671516333E+04  0.16671516333E+04  0.50400001928E-02 0.  1.
    10030    2    1    2    0    0  0.00000000000E+00  0.00000000000E+00 -0.20856902813E+03  0.31257342385E+04  0.31187679443E+04 0.  0.
        5    1    3    3  502    0  0.74821778676E+03  0.25668745113E+03 -0.14511381524E+04  0.16527378290E+04  0.46999998093E+01 0.  1.
       -5    1    3    3    0  502 -0.74821778676E+03 -0.25668745113E+03  0.12425691243E+04  0.14729964096E+04  0.46999998093E+01 0. -1.
</event>
<event>
 5   0  0.5154105E-07  0.3097462E+04  0.7818609E-02  0.8216435E-01
        2   -1    0    0  501    0  0.00000000000E+00  0.00000000000E+00  0.17059993939E+04  0.17059993939E+04  0.25500000920E-02 0. -1.
       -2   -1    0    0    0  501  0.00000000000E+00  0.00000000000E+00 -0.14059601636E+04  0.14059601636E+04  0.25500000920E-02 0.  1.
    10030    2    1    2    0    0  0.00000000000E+00  0.00000000000E+00  0.30003923029E+03  0.31119595576E+04  0.30974616621E+04 0.  0.
        1    1    3    3  502    0 -0.89179569896E+03  0.11829294872E+04  0.60373657281E+03  0.15997248482E+04  0.50400001928E-02 0. -1.
       -1    1    3    3    0  502  0.89179569896E+03 -0.11829294872E+04 -0.30369734252E+03  0.15122347094E+04  0.50400001928E-02 0.  1.
</event>
<event>
 5   0  0.1830902E-07  0.3101718E+04  0.7818609E-02  0.8215267E-01
        1   -1    0    0  501    0  0.00000000000E+00  0.00000000000E+00  0.14913992796E+04  0.14913992796E+04  0.50400001928E-02 0. -1.
       -1   -1    0    0    0  501  0.00000000000E+00  0.00000000000E+00 -0.16126892627E+04  0.16126892627E+04  0.50400001928E-02 0.  1.
    10030    2    1    2    0    0  0.00000000000E+00  0.00000000000E+00 -0.12128998315E+03  0.31040885423E+04  0.31017179786E+04 0.  0.
        3    1    3    3  502    0  0.12397160038E+04 -0.83213191860E+03  0.35898955549E+03  0.15356473590E+04  0.10100000352E+00 0. -1.
       -3    1    3    3    0  502 -0.12397160038E+04  0.83213191860E+03 -0.48027953864E+03  0.15684411833E+04  0.10100000352E+00 0.  1.
</event>
<event>
 5   0  0.5055900E-07  0.3089607E+04  0.7818609E-02  0.8218596E-01
        2   -1    0    0  501    0  0.00000000000E+00  0.00000000000E+00  0.22603009815E+04  0.22603009815E+04  0.25500000920E-02 0. -1.
       -2   -1    0    0    0  501  0.00000000000E+00  0.00000000000E+00 -0.10557968178E+04  0.10557968178E+04  0.25500000920E-02 0.  1.
    10030    2    1    2    0    0  0.00000000000E+00  0.00000000000E+00  0.12045041636E+04  0.33160977993E+04  0.30896074725E+04 0.  0.
        2    1    3    3  502    0  0.13038101238E+04 -0.30137972044E+03  0.14306255142E+04  0.19589384719E+04  0.25500000920E-02 0. -1.
       -2    1    3    3    0  502 -0.13038101238E+04  0.30137972044E+03 -0.22612135059E+03  0.13571593274E+04  0.25500000920E-02 0.  1.
</event>
<event>
 5   0  0.5055900E-07  0.3100720E+04  0.7818609E-02  0.8215540E-01
        2   -1    0    0  501    0  0.00000000000E+00  0.00000000000E+00  0.19512597488E+04  0.19512597488E+04  0.25500000920E-02 0. -1.
       -2   -1    0    0    0  501  0.00000000000E+00  0.00000000000E+00 -0.12318276394E+04  0.12318276394E+04  0.25500000920E-02 0.  1.
    10030    2    1    2    0    0  0.00000000000E+00  0.00000000000E+00  0.71943210941E+03  0.31830873882E+04  0.31007197166E+04 0.  0.
        2    1    3    3  502    0 -0.36612117199E+03 -0.14994765381E+04  0.50897821761E+03  0.16252794920E+04  0.25500000920E-02 0.  1.
       -2    1    3    3    0  502  0.36612117199E+03  0.14994765381E+04  0.21045389180E+03  0.15578078962E+04  0.25500000920E-02 0. -1.
</event>
<event>
 5   0  0.5055900E-07  0.3078846E+04  0.7818609E-02  0.8221567E-01
       -2   -1    0    0    0  501  0.00000000000E+00  0.00000000000E+00  0.12436478876E+04  0.12436478876E+04  0.25500000920E-02 0. -1.
        2   -1    0    0  501    0  0.00000000000E+00  0.00000000000E+00 -0.19055420805E+04  0.19055420805E+04  0.25500000920E-02 0.  1.
    10030    2    1    2    0    0  0.00000000000E+00  0.00000000000E+00 -0.66189419281E+03  0.31491899681E+04  0.30788461366E+04 0.  0.
        2    1    3    3  502    0  0.12138951980E+03 -0.78356900213E+03 -0.16806049227E+04  0.18582649711E+04  0.25500000920E-02 0.  1.
       -2    1    3    3    0  502 -0.12138951980E+03  0.78356900213E+03  0.10187107299E+04  0.12909249970E+04  0.25500000920E-02 0. -1.
</event>
<event>
 5   0  0.5342534E-07  0.3103237E+04  0.7818609E-02  0.8214850E-01
       -2   -1    0    0    0  501  0.00000000000E+00  0.00000000000E+00  0.18393173034E+04  0.18393173034E+04  0.25500000920E-02 0.  1.
        2   -1    0    0  501    0  0.00000000000E+00  0.00000000000E+00 -0.13089205096E+04  0.13089205096E+04  0.25500000920E-02 0. -1.
    10030    2    1    2    0    0  0.00000000000E+00  0.00000000000E+00  0.53039679384E+03  0.31482378130E+04  0.31032371111E+04 0.  0.
        3    1    3    3  502    0 -0.69511114861E+03 -0.75632092879E+03 -0.91455758951E+03  0.13753604804E+04  0.10100000352E+00 0. -1.
       -3    1    3    3    0  502  0.69511114861E+03  0.75632092879E+03  0.14449543833E+04  0.17728773326E+04  0.10100000352E+00 0.  1.
</event>
<event>
 5   0  0.5154105E-07  0.3127437E+04  0.7818609E-02  0.8208248E-01
        2   -1    0    0  501    0  0.00000000000E+00  0.00000000000E+00  0.20172921709E+04  0.20172921709E+04  0.25500000920E-02 0.  1.
       -2   -1    0    0    0  501  0.00000000000E+00  0.00000000000E+00 -0.12121272333E+04  0.12121272333E+04  0.25500000920E-02 0. -1.
    10030    2    1    2    0    0  0.00000000000E+00  0.00000000000E+00  0.80516493754E+03  0.32294194042E+04  0.31274365080E+04 0.  0.
        1    1    3    3  502    0 -0.33726582037E+03  0.71711639106E+02 -0.11723830427E+04  0.12220363299E+04  0.50400001928E-02 0. -1.
       -1    1    3    3    0  502  0.33726582037E+03 -0.71711639106E+02  0.19775479802E+04  0.20073830743E+04  0.50400001928E-02 0.  1.
</event>
<event>
 5   0  0.5376678E-07  0.3098523E+04  0.7818609E-02  0.8216143E-01
        2   -1    0    0  501    0  0.00000000000E+00  0.00000000000E+00  0.13335997315E+04  0.13335997315E+04  0.25500000920E-02 0.  1.
       -2   -1    0    0    0  501  0.00000000000E+00  0.00000000000E+00 -0.17997985562E+04  0.17997985562E+04  0.25500000920E-02 0. -1.
    10030    2    1    2    0    0  0.00000000000E+00  0.00000000000E+00 -0.46619882470E+03  0.31333982876E+04  0.30985227907E+04 0.  0.
        5    1    3    3  502    0 -0.13557187696E+03  0.23048878244E+03 -0.17762779819E+04  0.17962990763E+04  0.46999998093E+01 0. -1.
       -5    1    3    3    0  502  0.13557187696E+03 -0.23048878244E+03  0.13100791572E+04  0.13370992113E+04  0.46999998093E+01 0.  1.
</event>
<event>
 5   0  0.1875284E-07  0.3061482E+04  0.7818609E-02  0.8226389E-01
       -1   -1    0    0    0  501  0.00000000000E+00  0.00000000000E+00  0.11685368106E+04  0.11685368106E+04  0.50400001928E-02 0.  1.
        1   -1    0    0  501    0  0.00000000000E+00  0.00000000000E+00 -0.20052157796E+04  0.20052157796E+04  0.50400001928E-02 0. -1.
    10030    2    1    2    0    0  0.00000000000E+00  0.00000000000E+00 -0.83667896893E+03  0.31737525902E+04  0.30614822891E+04 0.  0.
        4    1    3    3  502    0 -0.31834217871E+03  0.55549802859E+03 -0.18597410635E+04  0.19668650789E+04  0.12699999809E+01 0. -1.
       -4    1    3    3    0  502  0.31834217871E+03 -0.55549802859E+03  0.10230620946E+04  0.12068875112E+04  0.12699999809E+01 0.  1.
</event>
<event>
 5   0  0.1814075E-07  0.3046223E+04  0.7818609E-02  0.8230654E-01
       -1   -1    0    0    0  501  0.00000000000E+00  0.00000000000E+00  0.10476902843E+04  0.10476902843E+04  0.50400001928E-02 0. -1.
        1   -1    0    0  501    0  0.00000000000E+00  0.00000000000E+00 -0.22142691004E+04  0.22142691004E+04  0.50400001928E-02 0.  1.
    10030    2    1    2    0    0  0.00000000000E+00  0.00000000000E+00 -0.11665788161E+04  0.32619593847E+04  0.30462227255E+04 0.  0.
        5    1    3    3  502    0  0.60692103261E+03  0.11644903381E+04 -0.14095964585E+04  0.19264929673E+04  0.46999998093E+01 0.  1.
       -5    1    3    3    0  502 -0.60692103261E+03 -0.11644903381E+04  0.24301764245E+03  0.13354664174E+04  0.46999998093E+01 0. -1.
</event>
<event>
 5   0  0.5248309E-07  0.3104477E+04  0.7818609E-02  0.8214510E-01
        2   -1    0    0  501    0  0.00000000000E+00  0.00000000000E+00  0.19649901895E+04  0.19649901895E+04  0.25500000920E-02 0. -1.
       -2   -1    0    0    0  501  0.00000000000E+00  0.00000000000E+00 -0.12261862095E+04  0.12261862095E+04  0.25500000920E-02 0.  1.
    10030    2    1    2    0    0  0.00000000000E+00  0.00000000000E+00  0.73880398000E+03  0.31911763990E+04  0.31044766852E+04 0.  0.
        4    1    3    3  502    0 -0.98546305729E+03  0.31209771410E+03  0.15597133491E+04  0.18711626772E+04  0.12699999809E+01 0. -1.
       -4    1    3    3    0  502  0.98546305729E+03 -0.31209771410E+03 -0.82090936910E+03  0.13200137218E+04  0.12699999809E+01 0.  1.
</event>
<event>
 5   0  0.5055900E-07  0.3103910E+04  0.7818609E-02  0.8214666E-01
       -2   -1    0    0    0  501  0.00000000000E+00  0.00000000000E+00  0.13453776710E+04  0.13453776710E+04  0.25500000920E-02 0. -1.
        2   -1    0    0  501    0  0.00000000000E+00  0.00000000000E+00 -0.17902519875E+04  0.17902519875E+04  0.25500000920E-02 0.  1.
    10030    2    1    2    0    0  0.00000000000E+00  0.00000000000E+00 -0.44487431658E+03  0.31356296585E+04  0.31039104687E+04 0.  0.
        2    1    3    3  502    0  0.11967828904E+04  0.97926748130E+03 -0.89521487416E+02  0.15489571277E+04  0.25500000920E-02 0. -1.
       -2    1    3    3    0  502 -0.11967828904E+04 -0.97926748130E+03 -0.35535282917E+03  0.15866725308E+04  0.25500000920E-02 0.  1.
</event>
<event>
 5   0  0.1814075E-07  0.3060239E+04  0.7818609E-02  0.8226736E-01
       -1   -1    0    0    0  501  0.00000000000E+00  0.00000000000E+00  0.15715688221E+04  0.15715688221E+04  0.50400001928E-02 0. -1.
        1   -1    0    0  501    0  0.00000000000E+00  0.00000000000E+00 -0.14897629533E+04  0.14897629533E+04  0.50400001928E-02 0.  1.
    10030    2    1    2    0    0  0.00000000000E+00  0.00000000000E+00  0.81805868849E+02  0.30613317754E+04  0.30602385592E+04 0.  0.
        5    1    3    3  502    0  0.10044340792E+04 -0.24437353771E+02 -0.11135274792E+04  0.14998168358E+04  0.46999998093E+01 0.  1.
       -5    1    3    3    0  502 -0.10044340792E+04  0.24437353771E+02  0.11953333481E+04  0.15615149397E+04  0.46999998093E+01 0. -1.
</event>
<event>
 5   0  0.1845123E-07  0.3106881E+04  0.7818609E-02  0.8213852E-01
       -1   -1    0    0    0  501  0.00000000000E+00  0.00000000000E+00  0.11224598826E+04  0.11224598826E+04  0.50400001928E-02 0.  1.
        1   -1    0    0  501    0  0.00000000000E+00  0.00000000000E+00 -0.21499011305E+04  0.21499011305E+04  0.50400001928E-02 0. -1.
    10030    2    1    2    0    0  0.00000000000E+00  0.00000000000E+00 -0.10274412480E+04  0.32723610131E+04  0.31068812469E+04 0.  0.
        2    1    3    3  502    0 -0.13862187999E+04  0.55435714048E+03 -0.96584306223E+03  0.17781358838E+04  0.25500000920E-02 0.  1.
       -2    1    3    3    0  502  0.13862187999E+04 -0.55435714048E+03 -0.61598185730E+02  0.14942251293E+04  0.25500000920E-02 0. -1.
</event>
<event>
 5   0  0.5376678E-07  0.3119266E+04  0.7818609E-02  0.8210470E-01
       -2   -1    0    0    0  501  0.00000000000E+00  0.00000000000E+00  0.16972576842E+04  0.16972576842E+04  0.25500000920E-02 0.  1.
        2   -1    0    0  501    0  0.00000000000E+00  0.00000000000E+00 -0.14331681263E+04  0.14331681263E+04  0.25500000920E-02 0. -1.
    10030    2    1    2    0    0  0.00000000000E+00  0.00000000000E+00  0.26408955790E+03  0.31304258105E+04  0.31192663337E+04 0.  0.
        5    1    3    3  502    0  0.43817371119E+03  0.59730900854E+03  0.15094195746E+04  0.16814112511E+04  0.46999998093E+01 0.  1.
       -5    1    3    3    0  502 -0.43817371119E+03 -0.59730900854E+03 -0.12453300167E+04  0.14490145594E+04  0.46999998093E+01 0. -1.
</event>
<event>
 5   0  0.1845123E-07  0.3094726E+04  0.7818609E-02  0.8217187E-01
        1   -1    0    0  501    0  0.00000000000E+00  0.00000000000E+00  0.25524021944E+04  0.25524021944E+04  0.50400001928E-02 0.  1.
       -1   -1    0    0    0  501  0.00000000000E+00  0.00000000000E+00 -0.93807011604E+03  0.93807011606E+03  0.50400001928E-02 0. -1.
    10030    2    1    2    0    0  0.00000000000E+00  0.00000000000E+00  0.16143320784E+04  0.34904723105E+04  0.30947259799E+04 0.  0.
        2    1    3    3  502    0 -0.54455022973E+03  0.83496736405E+03  0.21419875841E+04  0.23625867735E+04  0.25500000920E-02 0.  1.
       -2    1    3    3    0  502  0.54455022973E+03 -0.83496736405E+03 -0.52765550577E+03  0.11278855370E+04  0.25500000920E-02 0. -1.
</event>
<event>
 5   0  0.1830902E-07  0.3094119E+04  0.7818609E-02  0.8217354E-01
        1   -1    0    0  501    0  0.00000000000E+00  0.00000000000E+00  0.17291346000E+04  0.17291346000E+04  0.50400001928E-02 0. -1.
       -1   -1    0    0    0  501  0.00000000000E+00  0.00000000000E+00 -0.13841566026E+04  0.13841566026E+04  0.50400001928E-02 0.  1.
    10030    2    1    2    0    0  0.00000000000E+00  0.00000000000E+00  0.34497799739E+03  0.31132912025E+04  0.30941189850E+04 0.  0.
        3    1    3    3  502    0 -0.88275610910E+03  0.52305187168E+03 -0.99250711864E+03  0.14275545522E+04  0.10100000352E+00 0.  1.
       -3    1    3    3    0  502  0.88275610910E+03 -0.52305187168E+03  0.13374851160E+04  0.16857366504E+04  0.10100000352E+00 0. -1.
</event>
<event>
 5   0  0.1840359E-07  0.3110446E+04  0.7818609E-02  0.8212877E-01
        1   -1    0    0  501    0  0.00000000000E+00  0.00000000000E+00  0.23168556106E+04  0.23168556106E+04  0.50400001928E-02 0.  1.
       -1   -1    0    0    0  501  0.00000000000E+00  0.00000000000E+00 -0.10439658633E+04  0.10439658633E+04  0.50400001928E-02 0. -1.
    10030    2    1    2    0    0  0.00000000000E+00  0.00000000000E+00  0.12728897473E+04  0.33608214739E+04  0.31104457351E+04 0.  0.
        1    1    3    3  502    0  0.11660114010E+04 -0.20236082042E+03 -0.45383076073E+03  0.12674757782E+04  0.50400001928E-02 0. -1.
       -1    1    3    3    0  502 -0.11660114010E+04  0.20236082042E+03  0.17267205080E+04  0.20933456957E+04  0.50400001928E-02 0.  1.
</event>
<event>
 5   0  0.5154105E-07  0.3103435E+04  0.7818609E-02  0.8214796E-01
        2   -1    0    0  501    0  0.00000000000E+00  0.00000000000E+00  0.18288899476E+04  0.18288899476E+04  0.25500000920E-02 0. -1.
       -2   -1    0    0    0  501  0.00000000000E+00  0.00000000000E+00 -0.13165513507E+04  0.13165513507E+04  0.25500000920E-02 0.  1.
    10030    2    1    2    0    0  0.00000000000E+00  0.00000000000E+00  0.51233859688E+03  0.31454412983E+04  0.31034352133E+04 0.  0.
        1    1    3    3  502    0  0.12942620666E+03 -0.66840580881E+03 -0.11570893862E+04  0.13425249777E+04  0.50400001928E-02 0.  1.
       -1    1    3    3    0  502 -0.12942620666E+03  0.66840580881E+03  0.16694279831E+04  0.18029163205E+04  0.50400001928E-02 0. -1.
</event>
<event>
 5   0  0.5342534E-07  0.3093575E+04  0.7818609E-02  0.8217503E-01
        2   -1    0    0  501    0  0.00000000000E+00  0.00000000000E+00  0.27508843262E+04  0.27508843262E+04  0.25500000920E-02 0.  1.
       -2   -1    0    0    0  501  0.00000000000E+00  0.00000000000E+00 -0.86973895213E+03  0.86973895214E+03  0.25500000920E-02 0. -1.
    10030    2    1    2    0    0  0.00000000000E+00  0.00000000000E+00  0.18811453741E+04  0.36206232783E+04  0.30935747939E+04 0.  0.
        3    1    3    3  502    0  0.17250977426E+03  0.12846771707E+04 -0.47260270596E+02  0.12970692343E+04  0.10100000352E+00 0. -1.
       -3    1    3    3    0  502 -0.17250977426E+03 -0.12846771707E+04  0.19284056447E+04  0.23235540441E+04  0.10100000352E+00 0.  1.
</event>
<event>
 5   0  0.5376678E-07  0.3101193E+04  0.7818609E-02  0.8215411E-01
        2   -1    0    0  501    0  0.00000000000E+00  0.00000000000E+00  0.18609174326E+04  0.18609174326E+04  0.25500000920E-02 0.  1.
       -2   -1    0    0    0  501  0.00000000000E+00  0.00000000000E+00 -0.12920236974E+04  0.12920236974E+04  0.25500000920E-02 0. -1.
    10030    2    1    2    0    0  0.00000000000E+00  0.00000000000E+00  0.56889373516E+03  0.31529411300E+04  0.31011929458E+04 0.  0.
        5    1    3    3  502    0 -0.31206390672E+03  0.11477100794E+04  0.12958864877E+04  0.17589673639E+04  0.46999998093E+01 0.  1.
       -5    1    3    3    0  502  0.31206390672E+03 -0.11477100794E+04 -0.72699275257E+03  0.13939737661E+04  0.46999998093E+01 0. -1.
</event>
<event>
 5   0  0.5248309E-07  0.3165658E+04  0.7818609E-02  0.8197946E-01
       -2   -1    0    0    0  501  0.00000000000E+00  0.00000000000E+00  0.14541690830E+04  0.14541690830E+04  0.25500000920E-02 0. -1.
        2   -1    0    0  501    0  0.00000000000E+00  0.00000000000E+00 -0.17228728160E+04  0.17228728160E+04  0.25500000920E-02 0.  1.
    10030    2    1    2    0    0  0.00000000000E+00  0.00000000000E+00 -0.26870373302E+03  0.31770418989E+04  0.31656584673E+04 0.  0.
        4    1    3    3  502    0 -0.87770497306E+02  0.50881509442E+03  0.13672739056E+04  0.14615183907E+04  0.12699999809E+01 0. -1.
       -4    1    3    3    0  502  0.87770497306E+02 -0.50881509442E+03 -0.16359776386E+04  0.17155235083E+04  0.12699999809E+01 0.  1.
</event>
<event>
 5   0  0.5154105E-07  0.3143086E+04  0.7818609E-02  0.8204012E-01
       -2   -1    0    0    0  501  0.00000000000E+00  0.00000000000E+00  0.16851775740E+04  0.16851775740E+04  0.25500000920E-02 0. -1.
        2   -1    0    0  501    0  0.00000000000E+00  0.00000000000E+00 -0.14655712918E+04  0.14655712918E+04  0.25500000920E-02 0.  1.
    10030    2    1    2    0    0  0.00000000000E+00  0.00000000000E+00  0.21960628211E+03  0.31507488658E+04  0.31430863011E+04 0.  0.
        1    1    3    3  502    0  0.20499218019E+03  0.18631775458E+03 -0.14409044060E+04  0.14672905666E+04  0.50400001928E-02 0.  1.
       -1    1    3    3    0  502 -0.20499218019E+03 -0.18631775458E+03  0.16605106881E+04  0.16834582992E+04  0.50400001928E-02 0. -1.
</event>
<event>
 5   0  0.1845123E-07  0.3110360E+04  0.7818609E-02  0.8212900E-01
       -1   -1    0    0    0  501  0.00000000000E+00  0.00000000000E+00  0.14597157190E+04  0.14597157190E+04  0.50400001928E-02 0. -1.
        1   -1    0    0  501    0  0.00000000000E+00  0.00000000000E+00 -0.16568878894E+04  0.16568878894E+04  0.50400001928E-02 0.  1.
    10030    2    1    2    0    0  0.00000000000E+00  0.00000000000E+00 -0.19717217043E+03  0.31166036084E+04  0.31103602986E+04 0.  0.
        2    1    3    3  502    0 -0.11792151535E+04 -0.10051455225E+04  0.34795336116E+02  0.15498634182E+04  0.25500000920E-02 0. -1.
       -2    1    3    3    0  502  0.11792151535E+04  0.10051455225E+04 -0.23196750655E+03  0.15667401902E+04  0.25500000920E-02 0.  1.
</event>
<event>
 5   0  0.1830902E-07  0.3036400E+04  0.7818609E-02  0.8233412E-01
       -1   -1    0    0    0  501  0.00000000000E+00  0.00000000000E+00  0.18064389746E+04  0.18064389746E+04  0.50400001928E-02 0.  1.
        1   -1    0    0  501    0  0.00000000000E+00  0.00000000000E+00 -0.12759533695E+04  0.12759533695E+04  0.50400001928E-02 0. -1.
    10030    2    1    2    0    0  0.00000000000E+00  0.00000000000E+00  0.53048560507E+03  0.30823923441E+04  0.30364004324E+04 0.  0.
        3    1    3    3  502    0  0.44082229281E+03 -0.13716289675E+04 -0.22080116564E+03  0.14575470775E+04  0.10100000352E+00 0. -1.
       -3    1    3    3    0  502 -0.44082229281E+03  0.13716289675E+04  0.75128677071E+03  0.16248452666E+04  0.10100000352E+00 0.  1.
</event>
<event>
 5   0  0.5342534E-07  0.3076959E+04  0.7818609E-02  0.8222090E-01
        2   -1    0    0  501    0  0.00000000000E+00  0.00000000000E+00  0.33515478758E+04  0.33515478758E+04  0.25500000920E-02 0.  1.
       -2   -1    0    0    0  501  0.00000000000E+00  0.00000000000E+00 -0.70621687692E+03  0.70621687692E+03  0.25500000920E-02 0. -1.
    10030    2    1    2    0    0  0.00000000000E+00  0.00000000000E+00  0.26453309988E+04  0.40577647527E+04  0.30769593261E+04 0.  0.
        3    1    3    3  502    0  0.11390907504E+04 -0.68148758811E+03  0.23483901825E+04  0.26975710426E+04  0.10100000352E+00 0.  1.
       -3    1    3    3    0  502 -0.11390907504E+04  0.68148758811E+03  0.29694081630E+03  0.13601937101E+04  0.10100000352E+00 0. -1.
</event>
<event>
 5   0  0.5342534E-07  0.3103876E+04  0.7818609E-02  0.8214675E-01
        2   -1    0    0  501    0  0.00000000000E+00  0.00000000000E+00  0.18546413343E+04  0.18546413343E+04  0.25500000920E-02 0. -1.
       -2   -1    0    0    0  501  0.00000000000E+00  0.00000000000E+00 -0.12986400008E+04  0.12986400008E+04  0.25500000920E-02 0.  1.
    10030    2    1    2    0    0  0.00000000000E+00  0.00000000000E+00  0.55600133355E+03  0.31532813351E+04  0.31038759150E+04 0.  0.
        3    1    3    3  502    0 -0.50945733591E+03 -0.10835622505E+04  0.12810653385E+04  0.17535057284E+04  0.10100000352E+00 0. -1.
       -3    1    3    3    0  502  0.50945733591E+03  0.10835622505E+04 -0.72506400493E+03  0.13997756067E+04  0.10100000352E+00 0.  1.
</event>
<event>
 5   0  0.1845123E-07  0.3100483E+04  0.7818609E-02  0.8215605E-01
       -1   -1    0    0    0  501  0.00000000000E+00  0.00000000000E+00  0.23468166564E+04  0.23468166564E+04  0.50400001928E-02 0.  1.
        1   -1    0    0  501    0  0.00000000000E+00  0.00000000000E+00 -0.10240460452E+04  0.10240460453E+04  0.50400001928E-02 0. -1.
    10030    2    1    2    0    0  0.00000000000E+00  0.00000000000E+00  0.13227706111E+04  0.33708627016E+04  0.31004827469E+04 0.  0.
        2    1    3    3  502    0  0.60830447125E+03  0.12798651701E+04 -0.22050544660E+02  0.14172421846E+04  0.25500000920E-02 0.  1.
       -2    1    3    3    0  502 -0.60830447125E+03 -0.12798651701E+04  0.13448211558E+04  0.19536205170E+04  0.25500000920E-02 0. -1.
</event>
<event>
 5   0  0.1840359E-07  0.3094488E+04  0.7818609E-02  0.8217252E-01
       -1   -1    0    0    0  501  0.00000000000E+00  0.00000000000E+00  0.72190350108E+03  0.72190350110E+03  0.50400001928E-02 0. -1.
        1   -1    0    0  501    0  0.00000000000E+00  0.00000000000E+00 -0.33161835096E+04  0.33161835096E+04  0.50400001928E-02 0.  1.
    10030    2    1    2    0    0  0.00000000000E+00  0.00000000000E+00 -0.25942800085E+04  0.40380870107E+04  0.30944883169E+04 0.  0.
        1    1    3    3  502    0  0.91730603228E+03  0.83522570480E+03 -0.90583763820E+02  0.12438881594E+04  0.50400001928E-02 0. -1.
       -1    1    3    3    0  502 -0.91730603228E+03 -0.83522570480E+03 -0.25036962447E+04  0.27941988513E+04  0.50400001928E-02 0.  1.
</event>
<event>
 5   0  0.5376678E-07  0.3099807E+04  0.7818609E-02  0.8215791E-01
       -2   -1    0    0    0  501  0.00000000000E+00  0.00000000000E+00  0.13181128322E+04  0.13181128322E+04  0.25500000920E-02 0. -1.
        2   -1    0    0  501    0  0.00000000000E+00  0.00000000000E+00 -0.18224551584E+04  0.18224551584E+04  0.25500000920E-02 0.  1.
    10030    2    1    2    0    0  0.00000000000E+00  0.00000000000E+00 -0.50434232616E+03  0.31405679906E+04  0.30998074330E+04 0.  0.
        5    1    3    3  502    0 -0.11289332747E+04  0.26661554051E+03 -0.12936006447E+04  0.17375266625E+04  0.46999998093E+01 0.  1.
       -5    1    3    3    0  502  0.11289332747E+04 -0.26661554051E+03  0.78925831850E+03  0.14030413281E+04  0.46999998093E+01 0. -1.
</event>
<event>
 5   0  0.1875284E-07  0.3108018E+04  0.7818609E-02  0.8213541E-01
        1   -1    0    0  501    0  0.00000000000E+00  0.00000000000E+00  0.12103521055E+04  0.12103521055E+04  0.50400001928E-02 0.  1.
       -1   -1    0    0    0  501  0.00000000000E+00  0.00000000000E+00 -0.19952413649E+04  0.19952413649E+04  0.50400001928E-02 0. -1.
    10030    2    1    2    0    0  0.00000000000E+00  0.00000000000E+00 -0.78488925939E+03  0.32055934705E+04  0.31080183958E+04 0.  0.
        4    1    3    3  502    0  0.33583429642E+03  0.21126726578E+03  0.11572320396E+04  0.12233585487E+04  0.12699999809E+01 0.  1.
       -4    1    3    3    0  502 -0.33583429642E+03 -0.21126726578E+03 -0.19421212990E+04  0.19822349218E+04  0.12699999809E+01 0. -1.
</event>
<event>
 5   0  0.1840359E-07  0.3084027E+04  0.7818609E-02  0.8220135E-01
        1   -1    0    0  501    0  0.00000000000E+00  0.00000000000E+00  0.24931773381E+04  0.24931773381E+04  0.50400001928E-02 0. -1.
       -1   -1    0    0    0  501  0.00000000000E+00  0.00000000000E+00 -0.95372519544E+03  0.95372519545E+03  0.50400001928E-02 0.  1.
    10030    2    1    2    0    0  0.00000000000E+00  0.00000000000E+00  0.15394521426E+04  0.34469025335E+04  0.30840272658E+04 0.  0.
        1    1    3    3  502    0 -0.93969469793E+03  0.41069523376E+03 -0.51733887350E+03  0.11486236156E+04  0.50400001928E-02 0.  1.
       -1    1    3    3    0  502  0.93969469793E+03 -0.41069523376E+03  0.20567910161E+04  0.22982789179E+04  0.50400001928E-02 0. -1.
</event>
<event>
 5   0  0.5248309E-07  0.3101336E+04  0.7818609E-02  0.8215371E-01
       -2   -1    0    0    0  501  0.00000000000E+00  0.00000000000E+00  0.13801752197E+04  0.13801752197E+04  0.25500000920E-02 0.  1.
        2   -1    0    0  501    0  0.00000000000E+00  0.00000000000E+00 -0.17422216674E+04  0.17422216674E+04  0.25500000920E-02 0. -1.
    10030    2    1    2    0    0  0.00000000000E+00  0.00000000000E+00 -0.36204644766E+03  0.31223968871E+04  0.31013359525E+04 0.  0.
        4    1    3    3  502    0  0.11630132070E+03 -0.13563189385E+04 -0.92865785216E+03  0.16478877630E+04  0.12699999809E+01 0. -1.
       -4    1    3    3    0  502 -0.11630132070E+03  0.13563189385E+04  0.56661140450E+03  0.14745091240E+04  0.12699999809E+01 0.  1.
</event>
<event>
 5   0  0.1830902E-07  0.3039924E+04  0.7818609E-02  0.8232421E-01
        1   -1    0    0  501    0  0.00000000000E+00  0.00000000000E+00  0.18498737211E+04  0.18498737211E+04  0.50400001928E-02 0.  1.
       -1   -1    0    0    0  501  0.00000000000E+00  0.00000000000E+00 -0.12488873809E+04  0.12488873809E+04  0.50400001928E-02 0. -1.
    10030    2    1    2    0    0  0.00000000000E+00  0.00000000000E+00  0.60098634021E+03  0.30987611021E+04  0.30399236482E+04 0.  0.
        3    1    3    3  502    0 -0.10960957131E+04 -0.39761147566E+03 -0.69345012993E+03  0.13566111420E+04  0.10100000352E+00 0. -1.
       -3    1    3    3    0  502  0.10960957131E+04  0.39761147566E+03  0.12944364701E+04  0.17421499600E+04  0.10100000352E+00 0.  1.
</event>
<event>
 5   0  0.1840359E-07  0.3100397E+04  0.7818609E-02  0.8215629E-01
        1   -1    0    0  501    0  0.00000000000E+00  0.00000000000E+00  0.19288692351E+04  0.19288692351E+04  0.50400001928E-02 0.  1.
       -1   -1    0    0    0  501  0.00000000000E+00  0.00000000000E+00 -0.12458674736E+04  0.12458674736E+04  0.50400001928E-02 0. -1.
    10030    2    1    2    0    0  0.00000000000E+00  0.00000000000E+00  0.68300176148E+03  0.31747367086E+04  0.31003970331E+04 0.  0.
        1    1    3    3  502    0  0.66626283478E+03 -0.36449473190E+03  0.17253308962E+04  0.18850807081E+04  0.50400001928E-02 0.  1.
       -1    1    3    3    0  502 -0.66626283478E+03  0.36449473190E+03 -0.10423291347E+04  0.12896560005E+04  0.50400001928E-02 0. -1.
</event>
<event>
 5   0  0.1840359E-07  0.3098969E+04  0.7818609E-02  0.8216021E-01
        1   -1    0    0  501    0  0.00000000000E+00  0.00000000000E+00  0.16774505364E+04  0.16774505364E+04  0.50400001928E-02 0. -1.
       -1   -1    0    0    0  501  0.00000000000E+00  0.00000000000E+00 -0.14312808645E+04  0.14312808645E+04  0.50400001928E-02 0.  1.
    10030    2    1    2    0    0  0.00000000000E+00  0.00000000000E+00  0.24616967186E+03  0.31087314009E+04  0.30989694118E+04 0.  0.
        1    1    3    3  502    0 -0.19626323505E+02  0.63223541130E+02  0.16760312834E+04  0.16773381506E+04  0.50400001928E-02 0. -1.
       -1    1    3    3    0  502  0.19626323505E+02 -0.63223541130E+02 -0.14298616115E+04  0.14313932502E+04  0.50400001928E-02 0.  1.
</event>
<event>
 5   0  0.1814075E-07  0.3099159E+04  0.7818609E-02  0.8215969E-01
       -1   -1    0    0    0  501  0.00000000000E+00  0.00000000000E+00  0.12981642929E+04  0.12981642929E+04  0.50400001928E-02 0.  1.
        1   -1    0    0  501    0  0.00000000000E+00  0.00000000000E+00 -0.18496859756E+04  0.18496859756E+04  0.50400001928E-02 0. -1.
    10030    2    1    2    0    0  0.00000000000E+00  0.00000000000E+00 -0.55152168268E+03  0.31478502685E+04  0.30991587805E+04 0.  0.
        5    1    3    3  502    0 -0.12047478702E+04  0.29904603403E+03  0.66635070712E+03  0.14088617093E+04  0.46999998093E+01 0.  1.
       -5    1    3    3    0  502  0.12047478702E+04 -0.29904603403E+03 -0.12178723898E+04  0.17389885592E+04  0.46999998093E+01 0. -1.
</event>
<event>
 5   0  0.1814075E-07  0.3093351E+04  0.7818609E-02  0.8217565E-01
       -1   -1    0    0    0  501  0.00000000000E+00  0.00000000000E+00  0.13416580740E+04  0.13416580741E+04  0.50400001928E-02 0. -1.
        1   -1    0    0  501    0  0.00000000000E+00  0.00000000000E+00 -0.17830216547E+04  0.17830216547E+04  0.50400001928E-02 0.  1.
    10030    2    1    2    0    0  0.00000000000E+00  0.00000000000E+00 -0.44136358062E+03  0.31246797287E+04  0.30933511920E+04 0.  0.
        5    1    3    3  502    0 -0.10912539004E+04 -0.36438493630E+03  0.82350488310E+03  0.14148476383E+04  0.46999998093E+01 0.  1.
       -5    1    3    3    0  502  0.10912539004E+04  0.36438493630E+03 -0.12648684637E+04  0.17098320905E+04  0.46999998093E+01 0. -1.
</event>
<event>
 5   0  0.1845123E-07  0.3107613E+04  0.7818609E-02  0.8213652E-01
       -1   -1    0    0    0  501  0.00000000000E+00  0.00000000000E+00  0.14050447555E+04  0.14050447555E+04  0.50400001928E-02 0.  1.
        1   -1    0    0  501    0  0.00000000000E+00  0.00000000000E+00 -0.17183191052E+04  0.17183191052E+04  0.50400001928E-02 0. -1.
    10030    2    1    2    0    0  0.00000000000E+00  0.00000000000E+00 -0.31327434966E+03  0.31233638607E+04  0.31076133910E+04 0.  0.
        2    1    3    3  502    0 -0.10960531146E+04  0.93447210478E+03  0.42919327798E+03  0.15029229569E+04  0.25500000920E-02 0.  1.
       -2    1    3    3    0  502  0.10960531146E+04 -0.93447210478E+03 -0.74246762764E+03  0.16204409038E+04  0.25500000920E-02 0. -1.
</event>
<event>
 5   0  0.1845123E-07  0.3097982E+04  0.7818609E-02  0.8216292E-01
        1   -1    0    0  501    0  0.00000000000E+00  0.00000000000E+00  0.15508396131E+04  0.15508396131E+04  0.50400001928E-02 0.  1.
       -1   -1    0    0    0  501  0.00000000000E+00  0.00000000000E+00 -0.15471450749E+04  0.15471450749E+04  0.50400001928E-02 0. -1.
    10030    2    1    2    0    0  0.00000000000E+00  0.00000000000E+00  0.36945382082E+01  0.30979846880E+04  0.30979824850E+04 0.  0.
        2    1    3    3  502    0 -0.66205390175E+03  0.10168801641E+04 -0.96096867948E+03  0.15478441265E+04  0.25500000920E-02 0. -1.
       -2    1    3    3    0  502  0.66205390175E+03 -0.10168801641E+04  0.96466321769E+03  0.15501405615E+04  0.25500000920E-02 0.  1.
</event>
<event>
 5   0  0.1845123E-07  0.3103022E+04  0.7818609E-02  0.8214909E-01
       -1   -1    0    0    0  501  0.00000000000E+00  0.00000000000E+00  0.85775656384E+03  0.85775656386E+03  0.50400001928E-02 0. -1.
        1   -1    0    0  501    0  0.00000000000E+00  0.00000000000E+00 -0.28063752516E+04  0.28063752516E+04  0.50400001928E-02 0.  1.
    10030    2    1    2    0    0  0.00000000000E+00  0.00000000000E+00 -0.19486186878E+04  0.36641318155E+04  0.31030222640E+04 0.  0.
        2    1    3    3  502    0 -0.12523043112E+04 -0.19356220733E+03 -0.20314325330E+04  0.23942536524E+04  0.25500000920E-02 0.  1.
       -2    1    3    3    0  502  0.12523043112E+04  0.19356220733E+03  0.82813845268E+02  0.12698781630E+04  0.25500000920E-02 0. -1.
</event>
<event>
 5   0  0.5342534E-07  0.3087258E+04  0.7818609E-02  0.8219244E-01
       -2   -1    0    0    0  501  0.00000000000E+00  0.00000000000E+00  0.89408797311E+03  0.89408797311E+03  0.25500000920E-02 0. -1.
        2   -1    0    0  501    0  0.00000000000E+00  0.00000000000E+00 -0.26650511670E+04  0.26650511670E+04  0.25500000920E-02 0.  1.
    10030    2    1    2    0    0  0.00000000000E+00  0.00000000000E+00 -0.17709631939E+04  0.35591391401E+04  0.30872578099E+04 0.  0.
        3    1    3    3  502    0  0.54036233859E+03  0.90384211636E+03 -0.21866523998E+04  0.24270086024E+04  0.10100000352E+00 0.  1.
       -3    1    3    3    0  502 -0.54036233859E+03 -0.90384211636E+03  0.41568920593E+03  0.11321305377E+04  0.10100000352E+00 0. -1.
</event>
<event>
 5   0  0.1840359E-07  0.3101264E+04  0.7818609E-02  0.8215391E-01
       -1   -1    0    0    0  501  0.00000000000E+00  0.00000000000E+00  0.15314100942E+04  0.15314100942E+04  0.50400001928E-02 0. -1.
        1   -1    0    0  501    0  0.00000000000E+00  0.00000000000E+00 -0.15700951789E+04  0.15700951789E+04  0.50400001928E-02 0.  1.
    10030    2    1    2    0    0  0.00000000000E+00  0.00000000000E+00 -0.38685084741E+02  0.31015052731E+04  0.31012640041E+04 0.  0.
        1    1    3    3  502    0 -0.10910077505E+04 -0.81818766857E+03 -0.75745865323E+03  0.15599591610E+04  0.50400001928E-02 0.  1.
       -1    1    3    3    0  502  0.10910077505E+04  0.81818766857E+03  0.71877356849E+03  0.15415461120E+04  0.50400001928E-02 0. -1.
</event>
<event>
 5   0  0.1727000E-07  0.3101833E+04  0.7818609E-02  0.8215235E-01
       -3   -1    0    0    0  501  0.00000000000E+00  0.00000000000E+00  0.24944357846E+04  0.24944357867E+04  0.10100000352E+00 0. -1.
        3   -1    0    0  501    0  0.00000000000E+00  0.00000000000E+00 -0.96428319541E+03  0.96428320070E+03  0.10100000352E+00 0.  1.
    10030    2    1    2    0    0  0.00000000000E+00  0.00000000000E+00  0.15301525892E+04  0.34587189873E+04  0.31018333429E+04 0.  0.
        2    1    3    3  502    0 -0.14955836633E+04 -0.37381508764E+03  0.57573227783E+03  0.16455928626E+04  0.25500000920E-02 0.  1.
       -2    1    3    3    0  502  0.14955836633E+04  0.37381508764E+03  0.95442031137E+03  0.18131261248E+04  0.25500000920E-02 0. -1.
</event>
<event>
 5   0  0.5342534E-07  0.3099535E+04  0.7818609E-02  0.8215866E-01
        2   -1    0    0  501    0  0.00000000000E+00  0.00000000000E+00  0.16652212124E+04  0.16652212124E+04  0.25500000920E-02 0. -1.
       -2   -1    0    0    0  501  0.00000000000E+00  0.00000000000E+00 -0.14423184052E+04  0.14423184052E+04  0.25500000920E-02 0.  1.
    10030    2    1    2    0    0  0.00000000000E+00  0.00000000000E+00  0.22290280718E+03  0.31075396176E+04  0.30995349351E+04 0.  0.
        3    1    3    3  502    0  0.58597434545E+03  0.82899225595E+02 -0.13245677630E+04  0.14507646205E+04  0.10100000352E+00 0.  1.
       -3    1    3    3    0  502 -0.58597434545E+03 -0.82899225595E+02  0.15474705702E+04  0.16567749971E+04  0.10100000352E+00 0. -1.
</event>
<event>
 5   0  0.1875284E-07  0.3099516E+04  0.7818609E-02  0.8215871E-01
       -1   -1    0    0    0  501  0.00000000000E+00  0.00000000000E+00  0.12029912186E+04  0.12029912187E+04  0.50400001928E-02 0.  1.
        1   -1    0    0  501    0  0.00000000000E+00  0.00000000000E+00 -0.19964813075E+04  0.19964813075E+04  0.50400001928E-02 0. -1.
    10030    2    1    2    0    0  0.00000000000E+00  0.00000000000E+00 -0.79349008886E+03  0.31994725262E+04  0.30995157565E+04 0.  0.
        4    1    3    3  502    0  0.34795188028E+03 -0.14210453559E+04 -0.92441265357E+03  0.17306012774E+04  0.12699999809E+01 0. -1.
       -4    1    3    3    0  502 -0.34795188028E+03  0.14210453559E+04  0.13092256471E+03  0.14688712487E+04  0.12699999809E+01 0.  1.
</event>
<event>
 5   0  0.5248309E-07  0.3100824E+04  0.7818609E-02  0.8215512E-01
        2   -1    0    0  501    0  0.00000000000E+00  0.00000000000E+00  0.26558229082E+04  0.26558229082E+04  0.25500000920E-02 0. -1.
       -2   -1    0    0    0  501  0.00000000000E+00  0.00000000000E+00 -0.90509694495E+03  0.90509694496E+03  0.25500000920E-02 0.  1.
    10030    2    1    2    0    0  0.00000000000E+00  0.00000000000E+00  0.17507259633E+04  0.35609198532E+04  0.31008238909E+04 0.  0.
        4    1    3    3  502    0  0.16544940877E+03  0.13145171628E+04 -0.49382552996E+02  0.13258088579E+04  0.12699999809E+01 0.  1.
       -4    1    3    3    0  502 -0.16544940877E+03 -0.13145171628E+04  0.18001085163E+04  0.22351109953E+04  0.12699999809E+01 0. -1.
</event>
<event>
 5   0  0.5154105E-07  0.3097846E+04  0.7818609E-02  0.8216329E-01
        2   -1    0    0  501    0  0.00000000000E+00  0.00000000000E+00  0.21028252805E+04  0.21028252805E+04  0.25500000920E-02 0. -1.
       -2   -1    0    0    0  501  0.00000000000E+00  0.00000000000E+00 -0.11409236310E+04  0.11409236310E+04  0.25500000920E-02 0.  1.
    10030    2    1    2    0    0  0.00000000000E+00  0.00000000000E+00  0.96190164951E+03  0.32437489115E+04  0.30978463838E+04 0.  0.
        1    1    3    3  502    0  0.11330888247E+04  0.41932421794E+02  0.15858821301E+04  0.19495309033E+04  0.50400001928E-02 0. -1.
       -1    1    3    3    0  502 -0.11330888247E+04 -0.41932421794E+02 -0.62398048057E+03  0.12942180082E+04  0.50400001928E-02 0.  1.
</event>
<event>
 5   0  0.1830902E-07  0.3125710E+04  0.7818609E-02  0.8208717E-01
        1   -1    0    0  501    0  0.00000000000E+00  0.00000000000E+00  0.16651535434E+04  0.16651535434E+04  0.50400001928E-02 0.  1.
       -1   -1    0    0    0  501  0.00000000000E+00  0.00000000000E+00 -0.14668411912E+04  0.14668411912E+04  0.50400001928E-02 0. -1.
    10030    2    1    2    0    0  0.00000000000E+00  0.00000000000E+00  0.19831235225E+03  0.31319947346E+04  0.31257100359E+04 0.  0.
        3    1    3    3  502    0  0.46949133653E+03 -0.99761904506E+03  0.12090158097E+04  0.16362717111E+04  0.10100000352E+00 0.  1.
       -3    1    3    3    0  502 -0.46949133653E+03  0.99761904506E+03 -0.10107034574E+04  0.14957230236E+04  0.10100000352E+00 0. -1.
</event>
<event>
 5   0  0.5342534E-07  0.3101308E+04  0.7818609E-02  0.8215379E-01
        2   -1    0    0  501    0  0.00000000000E+00  0.00000000000E+00  0.20697006509E+04  0.20697006509E+04  0.25500000920E-02 0. -1.
       -2   -1    0    0    0  501  0.00000000000E+00  0.00000000000E+00 -0.11617757125E+04  0.11617757125E+04  0.25500000920E-02 0.  1.
    10030    2    1    2    0    0  0.00000000000E+00  0.00000000000E+00  0.90792493842E+03  0.32314763634E+04  0.31013080778E+04 0.  0.
        3    1    3    3  502    0 -0.13582271917E+04  0.60127927509E+03 -0.99317147397E+01  0.14854011310E+04  0.10100000352E+00 0.  1.
       -3    1    3    3    0  502  0.13582271917E+04 -0.60127927509E+03  0.91785665316E+03  0.17460752323E+04  0.10100000352E+00 0. -1.
</event>
<event>
 5   0  0.1875284E-07  0.3097353E+04  0.7818609E-02  0.8216465E-01
       -1   -1    0    0    0  501  0.00000000000E+00  0.00000000000E+00  0.26051462045E+04  0.26051462045E+04  0.50400001928E-02 0. -1.
        1   -1    0    0  501    0  0.00000000000E+00  0.00000000000E+00 -0.92063891842E+03  0.92063891843E+03  0.50400001928E-02 0.  1.
    10030    2    1    2    0    0  0.00000000000E+00  0.00000000000E+00  0.16845072861E+04  0.35257851230E+04  0.30973530532E+04 0.  0.
        4    1    3    3  502    0  0.98777182892E+03  0.34391396187E+02 -0.51494005107E+03  0.11144688525E+04  0.12699999809E+01 0.  1.
       -4    1    3    3    0  502 -0.98777182892E+03 -0.34391396187E+02  0.21994473372E+04  0.24113162705E+04  0.12699999809E+01 0. -1.
</event>
<event>
 5   0  0.5055900E-07  0.3099913E+04  0.7818609E-02  0.8215762E-01
       -2   -1    0    0    0  501  0.00000000000E+00  0.00000000000E+00  0.13107480778E+04  0.13107480778E+04  0.25500000920E-02 0.  1.
        2   -1    0    0  501    0  0.00000000000E+00  0.00000000000E+00 -0.18328204054E+04  0.18328204054E+04  0.25500000920E-02 0. -1.
    10030    2    1    2    0    0  0.00000000000E+00  0.00000000000E+00 -0.52207232761E+03  0.31435684833E+04  0.30999134333E+04 0.  0.
        2    1    3    3  502    0 -0.12568225141E+04 -0.63611522175E+02 -0.11786081562E+04  0.17241712338E+04  0.25500000920E-02 0. -1.
       -2    1    3    3    0  502  0.12568225141E+04  0.63611522175E+02  0.65653582861E+03  0.14193972495E+04  0.25500000920E-02 0.  1.
</event>
<event>
 5   0  0.1875284E-07  0.3100539E+04  0.7818609E-02  0.8215590E-01
       -1   -1    0    0    0  501  0.00000000000E+00  0.00000000000E+00  0.10301225365E+04  0.10301225365E+04  0.50400001928E-02 0.  1.
        1   -1    0    0  501    0  0.00000000000E+00  0.00000000000E+00 -0.23330578838E+04  0.23330578838E+04  0.50400001928E-02 0. -1.
    10030    2    1    2    0    0  0.00000000000E+00  0.00000000000E+00 -0.13029353473E+04  0.33631804203E+04  0.31005389886E+04 0.  0.
        4    1    3    3  502    0  0.13800739538E+04  0.67446777142E+03 -0.87853990034E+03  0.17695606410E+04  0.12699999809E+01 0. -1.
       -4    1    3    3    0  502 -0.13800739538E+04 -0.67446777142E+03 -0.42439544695E+03  0.15936197793E+04  0.12699999809E+01 0.  1.
</event>
<event>
 5   0  0.1875284E-07  0.3098748E+04  0.7818609E-02  0.8216082E-01
       -1   -1    0    0    0  501  0.00000000000E+00  0.00000000000E+00  0.95169037736E+03  0.95169037738E+03  0.50400001928E-02 0.  1.
        1   -1    0    0  501    0  0.00000000000E+00  0.00000000000E+00 -0.25224166530E+04  0.25224166530E+04  0.50400001928E-02 0. -1.
    10030    2    1    2    0    0  0.00000000000E+00  0.00000000000E+00 -0.15707262756E+04  0.34741070304E+04  0.30987479126E+04 0.  0.
        4    1    3    3  502    0  0.63724293226E+03 -0.14092977585E+04 -0.88786749639E+03  0.17833981695E+04  0.12699999809E+01 0.  1.
       -4    1    3    3    0  502 -0.63724293226E+03  0.14092977585E+04 -0.68285877924E+03  0.16907088609E+04  0.12699999809E+01 0. -1.
</event>
<event>
 5   0  0.1845123E-07  0.3081528E+04  0.7818609E-02  0.8220826E-01
       -1   -1    0    0    0  501  0.00000000000E+00  0.00000000000E+00  0.12472334956E+04  0.12472334956E+04  0.50400001928E-02 0. -1.
        1   -1    0    0  501    0  0.00000000000E+00  0.00000000000E+00 -0.19033759768E+04  0.19033759768E+04  0.50400001928E-02 0.  1.
    10030    2    1    2    0    0  0.00000000000E+00  0.00000000000E+00 -0.65614248119E+03  0.31506094725E+04  0.30815283696E+04 0.  0.
        2    1    3    3  502    0 -0.75371848253E+03  0.65742187526E+03  0.87023522791E+03  0.13257467424E+04  0.25500000920E-02 0. -1.
       -2    1    3    3    0  502  0.75371848253E+03 -0.65742187526E+03 -0.15263777091E+04  0.18248627301E+04  0.25500000920E-02 0.  1.
</event>
<event>
 5   0  0.5055900E-07  0.3097099E+04  0.7818609E-02  0.8216534E-01
       -2   -1    0    0    0  501  0.00000000000E+00  0.00000000000E+00  0.12397148805E+04  0.12397148805E+04  0.25500000920E-02 0. -1.
        2   -1    0    0  501    0  0.00000000000E+00  0.00000000000E+00 -0.19343203255E+04  0.19343203255E+04  0.25500000920E-02 0.  1.
    10030    2    1    2    0    0  0.00000000000E+00  0.00000000000E+00 -0.69460544501E+03  0.31740352060E+04  0.30970990886E+04 0.  0.
        2    1    3    3  502    0 -0.10171435230E+04  0.11314983324E+04 -0.51806520589E+02  0.15223512532E+04  0.25500000920E-02 0. -1.
       -2    1    3    3    0  502  0.10171435230E+04 -0.11314983324E+04 -0.64279892442E+03  0.16516839528E+04  0.25500000920E-02 0.  1.
</event>
<event>
 5   0  0.5154105E-07  0.3105860E+04  0.7818609E-02  0.8214131E-01
       -2   -1    0    0    0  501  0.00000000000E+00  0.00000000000E+00  0.11878580423E+04  0.11878580423E+04  0.25500000920E-02 0. -1.
        2   -1    0    0  501    0  0.00000000000E+00  0.00000000000E+00 -0.20302024728E+04  0.20302024728E+04  0.25500000920E-02 0.  1.
    10030    2    1    2    0    0  0.00000000000E+00  0.00000000000E+00 -0.84234443052E+03  0.32180605150E+04  0.31058604828E+04 0.  0.
        1    1    3    3  502    0  0.75345480433E+03  0.12337819820E+04 -0.10088299242E+04  0.17628527838E+04  0.50400001928E-02 0.  1.
       -1    1    3    3    0  502 -0.75345480433E+03 -0.12337819820E+04  0.16648549368E+03  0.14552077312E+04  0.50400001928E-02 0. -1.
</event>
<event>
 5   0  0.5376678E-07  0.3101158E+04  0.7818609E-02  0.8215420E-01
       -2   -1    0    0    0  501  0.00000000000E+00  0.00000000000E+00  0.84710018965E+03  0.84710018965E+03  0.25500000920E-02 0.  1.
        2   -1    0    0  501    0  0.00000000000E+00  0.00000000000E+00 -0.28382656980E+04  0.28382656980E+04  0.25500000920E-02 0. -1.
    10030    2    1    2    0    0  0.00000000000E+00  0.00000000000E+00 -0.19911655084E+04  0.36853658877E+04  0.31011581134E+04 0.  0.
        5    1    3    3  502    0 -0.99862394887E+03  0.73045198688E+03  0.11507195984E+03  0.12426075577E+04  0.46999998093E+01 0.  1.
       -5    1    3    3    0  502  0.99862394887E+03 -0.73045198688E+03 -0.21062374682E+04  0.24427583300E+04  0.46999998093E+01 0. -1.
</event>
<event>
 5   0  0.5154105E-07  0.3101685E+04  0.7818609E-02  0.8215276E-01
        2   -1    0    0  501    0  0.00000000000E+00  0.00000000000E+00  0.11856822285E+04  0.11856822285E+04  0.25500000920E-02 0. -1.
       -2   -1    0    0    0  501  0.00000000000E+00  0.00000000000E+00 -0.20284624494E+04  0.20284624494E+04  0.25500000920E-02 0.  1.
    10030    2    1    2    0    0  0.00000000000E+00  0.00000000000E+00 -0.84278022083E+03  0.32141446779E+04  0.31016846245E+04 0.  0.
        1    1    3    3  502    0 -0.21239431161E+02  0.14019586336E+04  0.26533903365E+03  0.14270052301E+04  0.50400001928E-02 0.  1.
       -1    1    3    3    0  502  0.21239431161E+02 -0.14019586336E+04 -0.11081192545E+04  0.17871394478E+04  0.50400001928E-02 0. -1.
</event>
<event>
 5   0  0.1840359E-07  0.3090415E+04  0.7818609E-02  0.8218373E-01
       -1   -1    0    0    0  501  0.00000000000E+00  0.00000000000E+00  0.10663672810E+04  0.10663672810E+04  0.50400001928E-02 0.  1.
        1   -1    0    0  501    0  0.00000000000E+00  0.00000000000E+00 -0.22390653947E+04  0.22390653947E+04  0.50400001928E-02 0. -1.
    10030    2    1    2    0    0  0.00000000000E+00  0.00000000000E+00 -0.11726981137E+04  0.33054326757E+04  0.30904149087E+04 0.  0.
        1    1    3    3  502    0 -0.35394039361E+03 -0.15038035605E+04 -0.61961141868E+03  0.16645171255E+04  0.50400001928E-02 0.  1.
       -1    1    3    3    0  502  0.35394039361E+03  0.15038035605E+04 -0.55308669501E+03  0.16409155502E+04  0.50400001928E-02 0. -1.
</event>
<event>
 5   0  0.5376678E-07  0.3099657E+04  0.7818609E-02  0.8215832E-01
        2   -1    0    0  501    0  0.00000000000E+00  0.00000000000E+00  0.22435591651E+04  0.22435591651E+04  0.25500000920E-02 0. -1.
       -2   -1    0    0    0  501  0.00000000000E+00  0.00000000000E+00 -0.10706065452E+04  0.10706065452E+04  0.25500000920E-02 0.  1.
    10030    2    1    2    0    0  0.00000000000E+00  0.00000000000E+00  0.11729526199E+04  0.33141657103E+04  0.30996574821E+04 0.  0.
        5    1    3    3  502    0 -0.54037411750E+03  0.80666919486E+03 -0.70510585707E+03  0.11999648897E+04  0.46999998093E+01 0.  1.
       -5    1    3    3    0  502  0.54037411750E+03 -0.80666919486E+03  0.18780584770E+04  0.21142008206E+04  0.46999998093E+01 0. -1.
</event>
<event>
 5   0  0.1727000E-07  0.3099104E+04  0.7818609E-02  0.8215984E-01
        3   -1    0    0  501    0  0.00000000000E+00  0.00000000000E+00  0.19364713904E+04  0.19364713930E+04  0.10100000352E+00 0.  1.
       -3   -1    0    0    0  501  0.00000000000E+00  0.00000000000E+00 -0.12399413147E+04  0.12399413188E+04  0.10100000352E+00 0. -1.
    10030    2    1    2    0    0  0.00000000000E+00  0.00000000000E+00  0.69653007565E+03  0.31764127118E+04  0.30991036720E+04 0.  0.
        3    1    3    3  502    0 -0.59821924861E+03  0.12611045681E+04 -0.34147072519E+03  0.14369597306E+04  0.10100000352E+00 0. -1.
       -3    1    3    3    0  502  0.59821924861E+03 -0.12611045681E+04  0.10380008008E+04  0.17394529812E+04  0.10100000352E+00 0.  1.
</event>
<event>
 5   0  0.5248309E-07  0.3098854E+04  0.7818609E-02  0.8216052E-01
       -2   -1    0    0    0  501  0.00000000000E+00  0.00000000000E+00  0.16043202751E+04  0.16043202751E+04  0.25500000920E-02 0. -1.
        2   -1    0    0  501    0  0.00000000000E+00  0.00000000000E+00 -0.14964122718E+04  0.14964122718E+04  0.25500000920E-02 0.  1.
    10030    2    1    2    0    0  0.00000000000E+00  0.00000000000E+00  0.10790800330E+03  0.31007325470E+04  0.30988543352E+04 0.  0.
        4    1    3    3  502    0 -0.97998428336E+03 -0.11781436768E+04  0.28285282430E+03  0.15583321379E+04  0.12699999809E+01 0. -1.
       -4    1    3    3    0  502  0.97998428336E+03  0.11781436768E+04 -0.17494482100E+03  0.15424004091E+04  0.12699999809E+01 0.  1.
</event>
<event>
 5   0  0.5248309E-07  0.3102280E+04  0.7818609E-02  0.8215113E-01
       -2   -1    0    0    0  501  0.00000000000E+00  0.00000000000E+00  0.14598012457E+04  0.14598012457E+04  0.25500000920E-02 0.  1.
        2   -1    0    0  501    0  0.00000000000E+00  0.00000000000E+00 -0.16481932562E+04  0.16481932562E+04  0.25500000920E-02 0. -1.
    10030    2    1    2    0    0  0.00000000000E+00  0.00000000000E+00 -0.18839201058E+03  0.31079945019E+04  0.31022795287E+04 0.  0.
        4    1    3    3  502    0  0.57929025982E+03  0.24229113796E+03  0.13267788772E+04  0.14678644361E+04  0.12699999809E+01 0.  1.
       -4    1    3    3    0  502 -0.57929025982E+03 -0.24229113796E+03 -0.15151708878E+04  0.16401300658E+04  0.12699999809E+01 0. -1.
</event>
<event>
 5   0  0.1845123E-07  0.3095265E+04  0.7818609E-02  0.8217039E-01
        1   -1    0    0  501    0  0.00000000000E+00  0.00000000000E+00  0.19116507874E+04  0.19116507874E+04  0.50400001928E-02 0. -1.
       -1   -1    0    0    0  501  0.00000000000E+00  0.00000000000E+00 -0.12529306573E+04  0.12529306573E+04  0.50400001928E-02 0.  1.
    10030    2    1    2    0    0  0.00000000000E+00  0.00000000000E+00  0.65872013009E+03  0.31645814448E+04  0.30952646916E+04 0.  0.
        2    1    3    3  502    0  0.86407228861E+03  0.12710447317E+04  0.51505979513E+03  0.16209448548E+04  0.25500000920E-02 0. -1.
       -2    1    3    3    0  502 -0.86407228861E+03 -0.12710447317E+04  0.14366033496E+03  0.15436365899E+04  0.25500000920E-02 0.  1.
</event>
<event>
 5   0  0.1830902E-07  0.3100633E+04  0.7818609E-02  0.8215564E-01
        1   -1    0    0  501    0  0.00000000000E+00  0.00000000000E+00  0.17294691199E+04  0.17294691199E+04  0.50400001928E-02 0. -1.
       -1   -1    0    0    0  501  0.00000000000E+00  0.00000000000E+00 -0.13897216654E+04  0.13897216654E+04  0.50400001928E-02 0.  1.
    10030    2    1    2    0    0  0.00000000000E+00  0.00000000000E+00  0.33974745452E+03  0.31191907853E+04  0.31006326487E+04 0.  0.
        3    1    3    3  502    0 -0.50636049478E+03  0.11548679693E+04 -0.73738875816E+03  0.14607748519E+04  0.10100000352E+00 0.  1.
       -3    1    3    3    0  502  0.50636049478E+03 -0.11548679693E+04  0.10771362127E+04  0.16584159334E+04  0.10100000352E+00 0. -1.
</event>
<event>
 5   0  0.1814075E-07  0.3108894E+04  0.7818609E-02  0.8213301E-01
        1   -1    0    0  501    0  0.00000000000E+00  0.00000000000E+00  0.13121129050E+04  0.13121129050E+04  0.50400001928E-02 0.  1.
       -1   -1    0    0    0  501  0.00000000000E+00  0.00000000000E+00 -0.18415380128E+04  0.18415380128E+04  0.50400001928E-02 0. -1.
    10030    2    1    2    0    0  0.00000000000E+00  0.00000000000E+00 -0.52942510784E+03  0.31536509178E+04  0.31088942032E+04 0.  0.
        5    1    3    3  502    0 -0.66668544061E+03  0.81878177413E+03  0.89250456858E+03  0.13825554475E+04  0.46999998093E+01 0.  1.
       -5    1    3    3    0  502  0.66668544061E+03 -0.81878177413E+03 -0.14219296764E+04  0.17710954703E+04  0.46999998093E+01 0. -1.
</event>
<event>
 5   0  0.5248309E-07  0.3094745E+04  0.7818609E-02  0.8217181E-01
       -2   -1    0    0    0  501  0.00000000000E+00  0.00000000000E+00  0.14237809263E+04  0.14237809263E+04  0.25500000920E-02 0. -1.
        2   -1    0    0  501    0  0.00000000000E+00  0.00000000000E+00 -0.16816928124E+04  0.16816928124E+04  0.25500000920E-02 0.  1.
    10030    2    1    2    0    0  0.00000000000E+00  0.00000000000E+00 -0.25791188606E+03  0.31054737387E+04  0.30947453208E+04 0.  0.
        4    1    3    3  502    0  0.30054914994E+02  0.56164857042E+03  0.13175711306E+04  0.14326017282E+04  0.12699999809E+01 0. -1.
       -4    1    3    3    0  502 -0.30054914994E+02 -0.56164857042E+03 -0.15754830167E+04  0.16728720104E+04  0.12699999809E+01 0.  1.
</event>
<event>
 5   0  0.5376678E-07  0.3102351E+04  0.7818609E-02  0.8215093E-01
        2   -1    0    0  501    0  0.00000000000E+00  0.00000000000E+00  0.11891790231E+04  0.11891790231E+04  0.25500000920E-02 0.  1.
       -2   -1    0    0    0  501  0.00000000000E+00  0.00000000000E+00 -0.20233673163E+04  0.20233673163E+04  0.25500000920E-02 0. -1.
    10030    2    1    2    0    0  0.00000000000E+00  0.00000000000E+00 -0.83418829321E+03  0.32125463394E+04  0.31023513460E+04 0.  0.
        5    1    3    3  502    0  0.29473708653E+02 -0.11693718441E+04  0.63782801250E+03  0.13323460034E+04  0.46999998093E+01 0.  1.
       -5    1    3    3    0  502 -0.29473708653E+02  0.11693718441E+04 -0.14720163057E+04  0.18802003360E+04  0.46999998093E+01 0. -1.
</event>
<event>
 5   0  0.5154105E-07  0.3097936E+04  0.7818609E-02  0.8216304E-01
       -2   -1    0    0    0  501  0.00000000000E+00  0.00000000000E+00  0.16996109439E+04  0.16996109439E+04  0.25500000920E-02 0.  1.
        2   -1    0    0  501    0  0.00000000000E+00  0.00000000000E+00 -0.14116774684E+04  0.14116774684E+04  0.25500000920E-02 0. -1.
    10030    2    1    2    0    0  0.00000000000E+00  0.00000000000E+00  0.28793347550E+03  0.31112884123E+04  0.30979363935E+04 0.  0.
        1    1    3    3  502    0  0.98908914966E+03 -0.11828166999E+04  0.29275987185E+03  0.15694142328E+04  0.50400001928E-02 0.  1.
       -1    1    3    3    0  502 -0.98908914966E+03  0.11828166999E+04 -0.48263963463E+01  0.15418741796E+04  0.50400001928E-02 0. -1.
</event>
<event>
 5   0  0.5154105E-07  0.3095211E+04  0.7818609E-02  0.8217054E-01
       -2   -1    0    0    0  501  0.00000000000E+00  0.00000000000E+00  0.11175166755E+04  0.11175166755E+04  0.25500000920E-02 0. -1.
        2   -1    0    0  501    0  0.00000000000E+00  0.00000000000E+00 -0.21432183101E+04  0.21432183101E+04  0.25500000920E-02 0.  1.
    10030    2    1    2    0    0  0.00000000000E+00  0.00000000000E+00 -0.10257016346E+04  0.32607349856E+04  0.30952106234E+04 0.  0.
        1    1    3    3  502    0 -0.84141453893E+03 -0.56936812276E+03 -0.17427260907E+04  0.20172388834E+04  0.50400001928E-02 0.  1.
       -1    1    3    3    0  502  0.84141453893E+03  0.56936812276E+03  0.71702445608E+03  0.12434961022E+04  0.50400001928E-02 0. -1.
</event>
<event>
 5   0  0.1814075E-07  0.3103772E+04  0.7818609E-02  0.8214703E-01
        1   -1    0    0  501    0  0.00000000000E+00  0.00000000000E+00  0.13644179874E+04  0.13644179874E+04  0.50400001928E-02 0.  1.
       -1   -1    0    0    0  501  0.00000000000E+00  0.00000000000E+00 -0.17651117599E+04  0.17651117599E+04  0.50400001928E-02 0. -1.
    10030    2    1    2    0    0  0.00000000000E+00  0.00000000000E+00 -0.40069377245E+03  0.31295297473E+04  0.31037720503E+04 0.  0.
        5    1    3    3  502    0 -0.60244603388E+03  0.44377270176E+03 -0.15712079400E+04  0.17402850097E+04  0.46999998093E+01 0. -1.
       -5    1    3    3    0  502  0.60244603388E+03 -0.44377270176E+03  0.11705141675E+04  0.13892447376E+04  0.46999998093E+01 0.  1.
</event>
<event>
 5   0  0.1814075E-07  0.3096232E+04  0.7818609E-02  0.8216773E-01
        1   -1    0    0  501    0  0.00000000000E+00  0.00000000000E+00  0.11253385007E+04  0.11253385007E+04  0.50400001928E-02 0.  1.
       -1   -1    0    0    0  501  0.00000000000E+00  0.00000000000E+00 -0.21297267282E+04  0.21297267282E+04  0.50400001928E-02 0. -1.
    10030    2    1    2    0    0  0.00000000000E+00  0.00000000000E+00 -0.10043882276E+04  0.32550652289E+04  0.30962322156E+04 0.  0.
        5    1    3    3  502    0  0.10690484184E+04 -0.52678219042E+03 -0.15409483022E+04  0.19480522984E+04  0.46999998093E+01 0. -1.
       -5    1    3    3    0  502 -0.10690484184E+04  0.52678219042E+03  0.53656007469E+03  0.13070129306E+04  0.46999998093E+01 0.  1.
</event>
<event>
 5   0  0.5248309E-07  0.3100658E+04  0.7818609E-02  0.8215557E-01
        2   -1    0    0  501    0  0.00000000000E+00  0.00000000000E+00  0.13405031050E+04  0.13405031050E+04  0.25500000920E-02 0. -1.
       -2   -1    0    0    0  501  0.00000000000E+00  0.00000000000E+00 -0.17929989648E+04  0.17929989648E+04  0.25500000920E-02 0.  1.
    10030    2    1    2    0    0  0.00000000000E+00  0.00000000000E+00 -0.45249585974E+03  0.31335020698E+04  0.31006584331E+04 0.  0.
        4    1    3    3  502    0  0.31688135741E+02 -0.55506985393E+03 -0.16887859253E+04  0.17779499979E+04  0.12699999809E+01 0.  1.
       -4    1    3    3    0  502 -0.31688135741E+02  0.55506985393E+03  0.12362900655E+04  0.13555520719E+04  0.12699999809E+01 0. -1.
</event>
<event>
 5   0  0.1875284E-07  0.3109477E+04  0.7818609E-02  0.8213142E-01
        1   -1    0    0  501    0  0.00000000000E+00  0.00000000000E+00  0.28563593563E+04  0.28563593564E+04  0.50400001928E-02 0.  1.
       -1   -1    0    0    0  501  0.00000000000E+00  0.00000000000E+00 -0.84625630327E+03  0.84625630329E+03  0.50400001928E-02 0. -1.
    10030    2    1    2    0    0  0.00000000000E+00  0.00000000000E+00  0.20101030531E+04  0.37026156596E+04  0.31094771971E+04 0.  0.
        4    1    3    3  502    0 -0.10937108499E+04  0.12500237613E+03  0.23123763705E+04  0.25610378968E+04  0.12699999809E+01 0. -1.
       -4    1    3    3    0  502  0.10937108499E+04 -0.12500237613E+03 -0.30227331746E+03  0.11415777628E+04  0.12699999809E+01 0.  1.
</event>
<event>
 5   0  0.5248309E-07  0.3119077E+04  0.7818609E-02  0.8210522E-01
       -2   -1    0    0    0  501  0.00000000000E+00  0.00000000000E+00  0.15522772575E+04  0.15522772576E+04  0.25500000920E-02 0. -1.
        2   -1    0    0  501    0  0.00000000000E+00  0.00000000000E+00 -0.15668336058E+04  0.15668336058E+04  0.25500000920E-02 0.  1.
    10030    2    1    2    0    0  0.00000000000E+00  0.00000000000E+00 -0.14556348298E+02  0.31191108634E+04  0.31190768972E+04 0.  0.
        4    1    3    3  502    0  0.12810244179E+04  0.56178851111E+03 -0.69687155158E+03  0.15627736441E+04  0.12699999809E+01 0. -1.
       -4    1    3    3    0  502 -0.12810244179E+04 -0.56178851111E+03  0.68231520328E+03  0.15563372193E+04  0.12699999809E+01 0.  1.
</event>
<event>
 5   0  0.1830902E-07  0.3096933E+04  0.7818609E-02  0.8216580E-01
       -1   -1    0    0    0  501  0.00000000000E+00  0.00000000000E+00  0.13859044454E+04  0.13859044454E+04  0.50400001928E-02 0. -1.
        1   -1    0    0  501    0  0.00000000000E+00  0.00000000000E+00 -0.17300964323E+04  0.17300964323E+04  0.50400001928E-02 0.  1.
    10030    2    1    2    0    0  0.00000000000E+00  0.00000000000E+00 -0.34419198689E+03  0.31160008777E+04  0.30969328934E+04 0.  0.
        3    1    3    3  502    0 -0.53795998003E+03 -0.40518114272E+03  0.12308260003E+04  0.14030343373E+04  0.10100000352E+00 0. -1.
       -3    1    3    3    0  502  0.53795998003E+03  0.40518114272E+03 -0.15750179871E+04  0.17129665404E+04  0.10100000352E+00 0.  1.
</event>
<event>
 5   0  0.1875284E-07  0.3104532E+04  0.7818609E-02  0.8214495E-01
       -1   -1    0    0    0  501  0.00000000000E+00  0.00000000000E+00  0.96964998266E+03  0.96964998267E+03  0.50400001928E-02 0.  1.
        1   -1    0    0  501    0  0.00000000000E+00  0.00000000000E+00 -0.24849479010E+04  0.24849479010E+04  0.50400001928E-02 0. -1.
    10030    2    1    2    0    0  0.00000000000E+00  0.00000000000E+00 -0.15152979183E+04  0.34545978837E+04  0.31045319706E+04 0.  0.
        4    1    3    3  502    0 -0.10809540917E+04  0.10348219654E+04 -0.29856334707E+03  0.15259292034E+04  0.12699999809E+01 0.  1.
       -4    1    3    3    0  502  0.10809540917E+04 -0.10348219654E+04 -0.12167345713E+04  0.19286686803E+04  0.12699999809E+01 0. -1.
</event>
<event>
 5   0  0.1845123E-07  0.3058244E+04  0.7818609E-02  0.8227292E-01
        1   -1    0    0  501    0  0.00000000000E+00  0.00000000000E+00  0.13920148796E+04  0.13920148796E+04  0.50400001928E-02 0. -1.
       -1   -1    0    0    0  501  0.00000000000E+00  0.00000000000E+00 -0.16797339074E+04  0.16797339074E+04  0.50400001928E-02 0.  1.
    10030    2    1    2    0    0  0.00000000000E+00  0.00000000000E+00 -0.28771902782E+03  0.30717487870E+04  0.30582443282E+04 0.  0.
        2    1    3    3  502    0  0.97599371125E+02  0.14774586509E+04  0.23967068153E+03  0.14999505785E+04  0.25500000920E-02 0.  1.
       -2    1    3    3    0  502 -0.97599371125E+02 -0.14774586509E+04 -0.52738970936E+03  0.15717982084E+04  0.25500000920E-02 0. -1.
</event>
<event>
 5   0  0.5154105E-07  0.3096238E+04  0.7818609E-02  0.8216771E-01
       -2   -1    0    0    0  501  0.00000000000E+00  0.00000000000E+00  0.94208701236E+03  0.94208701236E+03  0.25500000920E-02 0.  1.
        2   -1    0    0  501    0  0.00000000000E+00  0.00000000000E+00 -0.25440032161E+04  0.25440032161E+04  0.25500000920E-02 0. -1.
    10030    2    1    2    0    0  0.00000000000E+00  0.00000000000E+00 -0.16019162038E+04  0.34860902285E+04  0.30962379685E+04 0.  0.
        1    1    3    3  502    0 -0.29249296274E+03  0.42751595344E+03 -0.24435355381E+04  0.24978366539E+04  0.50400001928E-02 0. -1.
       -1    1    3    3    0  502  0.29249296274E+03 -0.42751595344E+03  0.84161933433E+03  0.98825357457E+03  0.50400001928E-02 0.  1.
</event>
<event>
 5   0  0.1840359E-07  0.3091940E+04  0.7818609E-02  0.8217953E-01
       -1   -1    0    0    0  501  0.00000000000E+00  0.00000000000E+00  0.19185563522E+04  0.19185563522E+04  0.50400001928E-02 0.  1.
        1   -1    0    0  501    0  0.00000000000E+00  0.00000000000E+00 -0.12457406255E+04  0.12457406255E+04  0.50400001928E-02 0. -1.
    10030    2    1    2    0    0  0.00000000000E+00  0.00000000000E+00  0.67281572673E+03  0.31642969777E+04  0.30919402260E+04 0.  0.
        1    1    3    3  502    0 -0.96513457748E+03 -0.46450376167E+03  0.14772943008E+04  0.18247320210E+04  0.50400001928E-02 0.  1.
       -1    1    3    3    0  502  0.96513457748E+03  0.46450376167E+03 -0.80447857404E+03  0.13395649568E+04  0.50400001928E-02 0. -1.
</event>
<event>
 5   0  0.5154105E-07  0.3101939E+04  0.7818609E-02  0.8215206E-01
        2   -1    0    0  501    0  0.00000000000E+00  0.00000000000E+00  0.17980453838E+04  0.17980453838E+04  0.25500000920E-02 0. -1.
       -2   -1    0    0    0  501  0.00000000000E+00  0.00000000000E+00 -0.13378451535E+04  0.13378451535E+04  0.25500000920E-02 0.  1.
    10030    2    1    2    0    0  0.00000000000E+00  0.00000000000E+00  0.46020023033E+03  0.31358905373E+04  0.31019389436E+04 0.  0.
        1    1    3    3  502    0  0.13455167805E+04  0.68362881069E+03 -0.13122273859E+03  0.15149201842E+04  0.50400001928E-02 0.  1.
       -1    1    3    3    0  502 -0.13455167805E+04 -0.68362881069E+03  0.59142296892E+03  0.16209703531E+04  0.50400001928E-02 0. -1.
</event>
<event>
 5   0  0.5055900E-07  0.3099681E+04  0.7818609E-02  0.8215825E-01
       -2   -1    0    0    0  501  0.00000000000E+00  0.00000000000E+00  0.19827361345E+04  0.19827361345E+04  0.25500000920E-02 0.  1.
        2   -1    0    0  501    0  0.00000000000E+00  0.00000000000E+00 -0.12114601623E+04  0.12114601623E+04  0.25500000920E-02 0. -1.
    10030    2    1    2    0    0  0.00000000000E+00  0.00000000000E+00  0.77127597216E+03  0.31941962968E+04  0.30996811702E+04 0.  0.
        2    1    3    3  502    0  0.18259103226E+03 -0.27168012946E+03 -0.11754318104E+04  0.12201596283E+04  0.25500000920E-02 0. -1.
       -2    1    3    3    0  502 -0.18259103226E+03  0.27168012946E+03  0.19467077825E+04  0.19740366684E+04  0.25500000920E-02 0.  1.
</event>
<event>
 5   0  0.5248309E-07  0.3096662E+04  0.7818609E-02  0.8216655E-01
       -2   -1    0    0    0  501  0.00000000000E+00  0.00000000000E+00  0.15087915321E+04  0.15087915321E+04  0.25500000920E-02 0. -1.
        2   -1    0    0  501    0  0.00000000000E+00  0.00000000000E+00 -0.15889065000E+04  0.15889065000E+04  0.25500000920E-02 0.  1.
    10030    2    1    2    0    0  0.00000000000E+00  0.00000000000E+00 -0.80114967909E+02  0.30976980321E+04  0.30966618624E+04 0.  0.
        4    1    3    3  502    0 -0.13257617752E+04  0.15293435326E+02  0.75986556712E+03  0.15281608118E+04  0.12699999809E+01 0. -1.
       -4    1    3    3    0  502  0.13257617752E+04 -0.15293435326E+02 -0.83998053502E+03  0.15695372203E+04  0.12699999809E+01 0.  1.
</event>
<event>
 5   0  0.1875284E-07  0.3092861E+04  0.7818609E-02  0.8217700E-01
        1   -1    0    0  501    0  0.00000000000E+00  0.00000000000E+00  0.95015101307E+03  0.95015101308E+03  0.50400001928E-02 0.  1.
       -1   -1    0    0    0  501  0.00000000000E+00  0.00000000000E+00 -0.25169131513E+04  0.25169131513E+04  0.50400001928E-02 0. -1.
    10030    2    1    2    0    0  0.00000000000E+00  0.00000000000E+00 -0.15667621383E+04  0.34670641644E+04  0.30928611870E+04 0.  0.
        4    1    3    3  502    0 -0.41316174910E+03 -0.88633413716E+03 -0.21263033366E+04  0.23403970445E+04  0.12699999809E+01 0. -1.
       -4    1    3    3    0  502  0.41316174910E+03  0.88633413716E+03  0.55954119835E+03  0.11266671199E+04  0.12699999809E+01 0.  1.
</event>
<event>
 5   0  0.1840359E-07  0.3097809E+04  0.7818609E-02  0.8216339E-01
        1   -1    0    0  501    0  0.00000000000E+00  0.00000000000E+00  0.18397884018E+04  0.18397884018E+04  0.50400001928E-02 0.  1.
       -1   -1    0    0    0  501  0.00000000000E+00  0.00000000000E+00 -0.13040114316E+04  0.13040114316E+04  0.50400001928E-02 0. -1.
    10030    2    1    2    0    0  0.00000000000E+00  0.00000000000E+00  0.53577697025E+03  0.31437998334E+04  0.30978089726E+04 0.  0.
        1    1    3    3  502    0 -0.15065095692E+04  0.15570134815E+03 -0.61414840682E+02  0.15157789333E+04  0.50400001928E-02 0. -1.
       -1    1    3    3    0  502  0.15065095692E+04 -0.15570134815E+03  0.59719181093E+03  0.16280209001E+04  0.50400001928E-02 0.  1.
</event>
<event>
 5   0  0.5248309E-07  0.3101376E+04  0.7818609E-02  0.8215360E-01
       -2   -1    0    0    0  501  0.00000000000E+00  0.00000000000E+00  0.92928390368E+03  0.92928390368E+03  0.25500000920E-02 0.  1.
        2   -1    0    0  501    0  0.00000000000E+00  0.00000000000E+00 -0.25876192943E+04  0.25876192943E+04  0.25500000920E-02 0. -1.
    10030    2    1    2    0    0  0.00000000000E+00  0.00000000000E+00 -0.16583353907E+04  0.35169031980E+04  0.31013757973E+04 0.  0.
        4    1    3    3  502    0 -0.90127474612E+03  0.48082275522E+03 -0.21521625723E+04  0.23822871448E+04  0.12699999809E+01 0. -1.
       -4    1    3    3    0  502  0.90127474612E+03 -0.48082275522E+03  0.49382718164E+03  0.11346160532E+04  0.12699999809E+01 0.  1.
</event>
<event>
 5   0  0.5342534E-07  0.3101304E+04  0.7818609E-02  0.8215380E-01
       -2   -1    0    0    0  501  0.00000000000E+00  0.00000000000E+00  0.10441742648E+04  0.10441742648E+04  0.25500000920E-02 0. -1.
        2   -1    0    0  501    0  0.00000000000E+00  0.00000000000E+00 -0.23027978890E+04  0.23027978890E+04  0.25500000920E-02 0.  1.
    10030    2    1    2    0    0  0.00000000000E+00  0.00000000000E+00 -0.12586236242E+04  0.33469721538E+04  0.31013044305E+04 0.  0.
        3    1    3    3  502    0 -0.76263341522E+02  0.15149397388E+04 -0.97678492551E+03  0.18041527957E+04  0.10100000352E+00 0.  1.
       -3    1    3    3    0  502  0.76263341522E+02 -0.15149397388E+04 -0.28183869867E+03  0.15428193581E+04  0.10100000352E+00 0. -1.
</event>
<event>
 5   0  0.1845123E-07  0.3096305E+04  0.7818609E-02  0.8216753E-01
        1   -1    0    0  501    0  0.00000000000E+00  0.00000000000E+00  0.17684265760E+04  0.17684265760E+04  0.50400001928E-02 0.  1.
       -1   -1    0    0    0  501  0.00000000000E+00  0.00000000000E+00 -0.13553156466E+04  0.13553156466E+04  0.50400001928E-02 0. -1.
    10030    2    1    2    0    0  0.00000000000E+00  0.00000000000E+00  0.41311092937E+03  0.31237422226E+04  0.30963050291E+04 0.  0.
        2    1    3    3  502    0 -0.63422274541E+01  0.18060710851E+03 -0.13446378983E+04  0.13567277652E+04  0.25500000920E-02 0. -1.
       -2    1    3    3    0  502  0.63422274541E+01 -0.18060710851E+03  0.17577488276E+04  0.17670144574E+04  0.25500000920E-02 0.  1.
</event>
<event>
 5   0  0.1830902E-07  0.3099523E+04  0.7818609E-02  0.8215869E-01
       -1   -1    0    0    0  501  0.00000000000E+00  0.00000000000E+00  0.11359501886E+04  0.11359501886E+04  0.50400001928E-02 0. -1.
        1   -1    0    0  501    0  0.00000000000E+00  0.00000000000E+00 -0.21143183526E+04  0.21143183526E+04  0.50400001928E-02 0.  1.
    10030    2    1    2    0    0  0.00000000000E+00  0.00000000000E+00 -0.97836816405E+03  0.32502685412E+04  0.30995227577E+04 0.  0.
        3    1    3    3  502    0 -0.27208781183E+03 -0.44076605166E+03  0.10424888571E+04  0.11640831229E+04  0.10100000352E+00 0. -1.
       -3    1    3    3    0  502  0.27208781183E+03  0.44076605166E+03 -0.20208570211E+04  0.20861854183E+04  0.10100000352E+00 0.  1.
</event>
<event>
 5   0  0.5055900E-07  0.3095579E+04  0.7818609E-02  0.8216952E-01
        2   -1    0    0  501    0  0.00000000000E+00  0.00000000000E+00  0.15344533660E+04  0.15344533660E+04  0.25500000920E-02 0.  1.
       -2   -1    0    0    0  501  0.00000000000E+00  0.00000000000E+00 -0.15612418833E+04  0.15612418833E+04  0.25500000920E-02 0. -1.
    10030    2    1    2    0    0  0.00000000000E+00  0.00000000000E+00 -0.26788517278E+02  0.30956952493E+04  0.30955793402E+04 0.  0.
        2    1    3    3  502    0  0.10575074897E+04 -0.11234206021E+04 -0.13691780070E+03  0.15489165324E+04  0.25500000920E-02 0. -1.
       -2    1    3    3    0  502 -0.10575074897E+04  0.11234206021E+04  0.11012928343E+03  0.15467787169E+04  0.25500000920E-02 0.  1.
</event>
<event>
 5   0  0.5248309E-07  0.3097002E+04  0.7818609E-02  0.8216561E-01
        2   -1    0    0  501    0  0.00000000000E+00  0.00000000000E+00  0.20201684747E+04  0.20201684747E+04  0.25500000920E-02 0.  1.
       -2   -1    0    0    0  501  0.00000000000E+00  0.00000000000E+00 -0.11869583537E+04  0.11869583537E+04  0.25500000920E-02 0. -1.
    10030    2    1    2    0    0  0.00000000000E+00  0.00000000000E+00  0.83321012105E+03  0.32071268284E+04  0.30970023228E+04 0.  0.
        4    1    3    3  502    0 -0.81715327299E+03  0.64417191378E+03  0.16041866463E+04  0.19120965810E+04  0.12699999809E+01 0.  1.
       -4    1    3    3    0  502  0.81715327299E+03 -0.64417191378E+03 -0.77097652528E+03  0.12950302473E+04  0.12699999809E+01 0. -1.
</event>
<event>
 5   0  0.1840359E-07  0.3099240E+04  0.7818609E-02  0.8215947E-01
        1   -1    0    0  501    0  0.00000000000E+00  0.00000000000E+00  0.18903635864E+04  0.18903635864E+04  0.50400001928E-02 0.  1.
       -1   -1    0    0    0  501  0.00000000000E+00  0.00000000000E+00 -0.12702963970E+04  0.12702963971E+04  0.50400001928E-02 0. -1.
    10030    2    1    2    0    0  0.00000000000E+00  0.00000000000E+00  0.62006718933E+03  0.31606599834E+04  0.30992399410E+04 0.  0.
        1    1    3    3  502    0 -0.12007902365E+04  0.17740524762E+03 -0.67235970016E+03  0.13876013046E+04  0.50400001928E-02 0.  1.
       -1    1    3    3    0  502  0.12007902365E+04 -0.17740524762E+03  0.12924268895E+04  0.17730586789E+04  0.50400001928E-02 0. -1.
</event>
<event>
 5   0  0.1840359E-07  0.3101966E+04  0.7818609E-02  0.8215199E-01
       -1   -1    0    0    0  501  0.00000000000E+00  0.00000000000E+00  0.83871584455E+03  0.83871584457E+03  0.50400001928E-02 0.  1.
        1   -1    0    0  501    0  0.00000000000E+00  0.00000000000E+00 -0.28681328929E+04  0.28681328929E+04  0.50400001928E-02 0. -1.
    10030    2    1    2    0    0  0.00000000000E+00  0.00000000000E+00 -0.20294170483E+04  0.37068487374E+04  0.31019661517E+04 0.  0.
        1    1    3    3  502    0 -0.35967060838E+03 -0.24235315067E+03 -0.27941953512E+04  0.28276537370E+04  0.50400001928E-02 0. -1.
       -1    1    3    3    0  502  0.35967060838E+03  0.24235315067E+03  0.76477830285E+03  0.87919500039E+03  0.50400001928E-02 0.  1.
</event>
<event>
 5   0  0.5342534E-07  0.3064756E+04  0.7818609E-02  0.8225477E-01
        2   -1    0    0  501    0  0.00000000000E+00  0.00000000000E+00  0.12427130416E+04  0.12427130416E+04  0.25500000920E-02 0.  1.
       -2   -1    0    0    0  501  0.00000000000E+00  0.00000000000E+00 -0.18895611483E+04  0.18895611483E+04  0.25500000920E-02 0. -1.
    10030    2    1    2    0    0  0.00000000000E+00  0.00000000000E+00 -0.64684810673E+03  0.31322741899E+04  0.30647559655E+04 0.  0.
        3    1    3    3  502    0  0.12757274735E+04  0.26887840986E+03  0.49955240857E+03  0.13961836573E+04  0.10100000352E+00 0.  1.
       -3    1    3    3    0  502 -0.12757274735E+04 -0.26887840986E+03 -0.11464005153E+04  0.17360905326E+04  0.10100000352E+00 0. -1.
</event>
<event>
 5   0  0.1875284E-07  0.3101504E+04  0.7818609E-02  0.8215325E-01
        1   -1    0    0  501    0  0.00000000000E+00  0.00000000000E+00  0.22330850853E+04  0.22330850853E+04  0.50400001928E-02 0.  1.
       -1   -1    0    0    0  501  0.00000000000E+00  0.00000000000E+00 -0.10769102555E+04  0.10769102555E+04  0.50400001928E-02 0. -1.
    10030    2    1    2    0    0  0.00000000000E+00  0.00000000000E+00  0.11561748298E+04  0.33099953409E+04  0.31015042994E+04 0.  0.
        4    1    3    3  502    0 -0.44038250149E+02 -0.65987319670E+03  0.20750391490E+04  0.21778799522E+04  0.12699999809E+01 0.  1.
       -4    1    3    3    0  502  0.44038250149E+02  0.65987319670E+03 -0.91886431923E+03  0.11321153887E+04  0.12699999809E+01 0. -1.
</event>
<event>
 5   0  0.1840359E-07  0.3103409E+04  0.7818609E-02  0.8214803E-01
       -1   -1    0    0    0  501  0.00000000000E+00  0.00000000000E+00  0.23799344928E+04  0.23799344928E+04  0.50400001928E-02 0. -1.
        1   -1    0    0  501    0  0.00000000000E+00  0.00000000000E+00 -0.10117029059E+04  0.10117029059E+04  0.50400001928E-02 0.  1.
    10030    2    1    2    0    0  0.00000000000E+00  0.00000000000E+00  0.13682315869E+04  0.33916373987E+04  0.31034088627E+04 0.  0.
        1    1    3    3  502    0  0.25126971701E+03 -0.56047222552E+03 -0.87319096406E+03  0.10675804635E+04  0.50400001928E-02 0.  1.
       -1    1    3    3    0  502 -0.25126971701E+03  0.56047222552E+03  0.22414225509E+04  0.23240569352E+04  0.50400001928E-02 0. -1.
</event>
<event>
 5   0  0.1840359E-07  0.3103422E+04  0.7818609E-02  0.8214799E-01
       -1   -1    0    0    0  501  0.00000000000E+00  0.00000000000E+00  0.84295034573E+03  0.84295034574E+03  0.50400001928E-02 0. -1.
        1   -1    0    0  501    0  0.00000000000E+00  0.00000000000E+00 -0.28564044729E+04  0.28564044729E+04  0.50400001928E-02 0.  1.
    10030    2    1    2    0    0  0.00000000000E+00  0.00000000000E+00 -0.20134541272E+04  0.36993548187E+04  0.31034220712E+04 0.  0.
        1    1    3    3  502    0  0.54028771016E+03  0.14420265978E+04 -0.77912961717E+03  0.17258025608E+04  0.50400001928E-02 0. -1.
       -1    1    3    3    0  502 -0.54028771016E+03 -0.14420265978E+04 -0.12343245100E+04  0.19735522579E+04  0.50400001928E-02 0.  1.
</event>
<event>
 5   0  0.1830902E-07  0.3095819E+04  0.7818609E-02  0.8216886E-01
        1   -1    0    0  501    0  0.00000000000E+00  0.00000000000E+00  0.14407977181E+04  0.14407977181E+04  0.50400001928E-02 0.  1.
       -1   -1    0    0    0  501  0.00000000000E+00  0.00000000000E+00 -0.16629840879E+04  0.16629840879E+04  0.50400001928E-02 0. -1.
    10030    2    1    2    0    0  0.00000000000E+00  0.00000000000E+00 -0.22218636978E+03  0.31037818060E+04  0.30958189088E+04 0.  0.
        3    1    3    3  502    0  0.11753947174E+04  0.56436988280E+02 -0.11193068690E+04  0.16240645777E+04  0.10100000352E+00 0. -1.
       -3    1    3    3    0  502 -0.11753947174E+04 -0.56436988280E+02  0.89712049925E+03  0.14797172283E+04  0.10100000352E+00 0.  1.
</event>
<event>
 5   0  0.5376678E-07  0.3097479E+04  0.7818609E-02  0.8216430E-01
       -2   -1    0    0    0  501  0.00000000000E+00  0.00000000000E+00  0.18961940753E+04  0.18961940753E+04  0.25500000920E-02 0.  1.
        2   -1    0    0  501    0  0.00000000000E+00  0.00000000000E+00 -0.12649516488E+04  0.12649516488E+04  0.25500000920E-02 0. -1.
    10030    2    1    2    0    0  0.00000000000E+00  0.00000000000E+00  0.63124242648E+03  0.31611457241E+04  0.30974788600E+04 0.  0.
        5    1    3    3  502    0 -0.14334900102E+04 -0.41456328640E+03  0.73864736318E+03  0.16650460489E+04  0.46999998093E+01 0. -1.
       -5    1    3    3    0  502  0.14334900102E+04  0.41456328640E+03 -0.10740493670E+03  0.14960996752E+04  0.46999998093E+01 0.  1.
</event>
<event>
 5   0  0.1875284E-07  0.3145856E+04  0.7818609E-02  0.8203265E-01
        1   -1    0    0  501    0  0.00000000000E+00  0.00000000000E+00  0.15567990022E+04  0.15567990022E+04  0.50400001928E-02 0.  1.
       -1   -1    0    0    0  501  0.00000000000E+00  0.00000000000E+00 -0.15892241018E+04  0.15892241019E+04  0.50400001928E-02 0. -1.
    10030    2    1    2    0    0  0.00000000000E+00  0.00000000000E+00 -0.32425099637E+02  0.31460231041E+04  0.31458560018E+04 0.  0.
        4    1    3    3  502    0  0.36725696829E+02 -0.42940207413E+03 -0.15290275019E+04  0.15886036739E+04  0.12699999809E+01 0. -1.
       -4    1    3    3    0  502 -0.36725696829E+02  0.42940207413E+03  0.14966024023E+04  0.15574194302E+04  0.12699999809E+01 0.  1.
</event>
<event>
 5   0  0.1840359E-07  0.3103076E+04  0.7818609E-02  0.8214894E-01
       -1   -1    0    0    0  501  0.00000000000E+00  0.00000000000E+00  0.10373435277E+04  0.10373435277E+04  0.50400001928E-02 0. -1.
        1   -1    0    0  501    0  0.00000000000E+00  0.00000000000E+00 -0.23206110457E+04  0.23206110457E+04  0.50400001928E-02 0.  1.
    10030    2    1    2    0    0  0.00000000000E+00  0.00000000000E+00 -0.12832675180E+04  0.33579545734E+04  0.31030764403E+04 0.  0.
        1    1    3    3  502    0  0.10804300392E+04 -0.11033411877E+04 -0.80424266847E+03  0.17411195007E+04  0.50400001928E-02 0. -1.
       -1    1    3    3    0  502 -0.10804300392E+04  0.11033411877E+04 -0.47902484955E+03  0.16168350727E+04  0.50400001928E-02 0.  1.
</event>
<event>
 5   0  0.1840359E-07  0.3100176E+04  0.7818609E-02  0.8215690E-01
       -1   -1    0    0    0  501  0.00000000000E+00  0.00000000000E+00  0.11808491348E+04  0.11808491348E+04  0.50400001928E-02 0. -1.
        1   -1    0    0  501    0  0.00000000000E+00  0.00000000000E+00 -0.20347839022E+04  0.20347839023E+04  0.50400001928E-02 0.  1.
    10030    2    1    2    0    0  0.00000000000E+00  0.00000000000E+00 -0.85393476748E+03  0.32156330370E+04  0.31001760017E+04 0.  0.
        1    1    3    3  502    0  0.12137949869E+03  0.13726553588E+04 -0.11632318152E+04  0.18033368994E+04  0.50400001928E-02 0.  1.
       -1    1    3    3    0  502 -0.12137949869E+03 -0.13726553588E+04  0.30929704768E+03  0.14122961377E+04  0.50400001928E-02 0. -1.
</event>
<event>
 5   0  0.5376678E-07  0.3085765E+04  0.7818609E-02  0.8219655E-01
       -2   -1    0    0    0  501  0.00000000000E+00  0.00000000000E+00  0.15156168169E+04  0.15156168169E+04  0.25500000920E-02 0. -1.
        2   -1    0    0  501    0  0.00000000000E+00  0.00000000000E+00 -0.15706386064E+04  0.15706386064E+04  0.25500000920E-02 0.  1.
    10030    2    1    2    0    0  0.00000000000E+00  0.00000000000E+00 -0.55021789532E+02  0.30862554233E+04  0.30857649198E+04 0.  0.
        5    1    3    3  502    0 -0.77454705268E+03 -0.46122617130E+03  0.12248109271E+04  0.15208013069E+04  0.46999998093E+01 0. -1.
       -5    1    3    3    0  502  0.77454705268E+03  0.46122617130E+03 -0.12798327166E+04  0.15654541164E+04  0.46999998093E+01 0.  1.
</event>
<event>
 5   0  0.5248309E-07  0.3092451E+04  0.7818609E-02  0.8217813E-01
       -2   -1    0    0    0  501  0.00000000000E+00  0.00000000000E+00  0.14733008321E+04  0.14733008321E+04  0.25500000920E-02 0.  1.
        2   -1    0    0  501    0  0.00000000000E+00  0.00000000000E+00 -0.16227596022E+04  0.16227596022E+04  0.25500000920E-02 0. -1.
    10030    2    1    2    0    0  0.00000000000E+00  0.00000000000E+00 -0.14945877009E+03  0.30960604342E+04  0.30924508547E+04 0.  0.
        4    1    3    3  502    0 -0.46731237693E+03  0.14124382578E+04 -0.49646775876E+03  0.15683891539E+04  0.12699999809E+01 0. -1.
       -4    1    3    3    0  502  0.46731237693E+03 -0.14124382578E+04  0.34700898867E+03  0.15276712803E+04  0.12699999809E+01 0.  1.
</event>
<event>
 5   0  0.1814075E-07  0.3098844E+04  0.7818609E-02  0.8216055E-01
       -1   -1    0    0    0  501  0.00000000000E+00  0.00000000000E+00  0.16813415769E+04  0.16813415769E+04  0.50400001928E-02 0. -1.
        1   -1    0    0  501    0  0.00000000000E+00  0.00000000000E+00 -0.14278531928E+04  0.14278531928E+04  0.50400001928E-02 0.  1.
    10030    2    1    2    0    0  0.00000000000E+00  0.00000000000E+00  0.25348838415E+03  0.31091947697E+04  0.30988442611E+04 0.  0.
        5    1    3    3  502    0  0.15437908713E+04 -0.10757599711E+03  0.20331422522E+03  0.15608400346E+04  0.46999998093E+01 0.  1.
       -5    1    3    3    0  502 -0.15437908713E+04  0.10757599711E+03  0.50174158932E+02  0.15483547351E+04  0.46999998093E+01 0. -1.
</event>
<event>
 5   0  0.5248309E-07  0.3097725E+04  0.7818609E-02  0.8216363E-01
       -2   -1    0    0    0  501  0.00000000000E+00  0.00000000000E+00  0.12476236069E+04  0.12476236069E+04  0.25500000920E-02 0.  1.
        2   -1    0    0  501    0  0.00000000000E+00  0.00000000000E+00 -0.19228354641E+04  0.19228354641E+04  0.25500000920E-02 0. -1.
    10030    2    1    2    0    0  0.00000000000E+00  0.00000000000E+00 -0.67521185712E+03  0.31704590710E+04  0.30977249182E+04 0.  0.
        4    1    3    3  502    0  0.15400615390E+03  0.63635654477E+03  0.10990279871E+04  0.12792699781E+04  0.12699999809E+01 0.  1.
       -4    1    3    3    0  502 -0.15400615390E+03 -0.63635654477E+03 -0.17742398442E+04  0.18911890929E+04  0.12699999809E+01 0. -1.
</event>
<event>
 5   0  0.1830902E-07  0.3099478E+04  0.7818609E-02  0.8215881E-01
        1   -1    0    0  501    0  0.00000000000E+00  0.00000000000E+00  0.13122373178E+04  0.13122373179E+04  0.50400001928E-02 0. -1.
       -1   -1    0    0    0  501  0.00000000000E+00  0.00000000000E+00 -0.18302263035E+04  0.18302263035E+04  0.50400001928E-02 0.  1.
    10030    2    1    2    0    0  0.00000000000E+00  0.00000000000E+00 -0.51798898561E+03  0.31424636213E+04  0.30994781855E+04 0.  0.
        3    1    3    3  502    0  0.46609723110E+03 -0.75004633059E+03 -0.15501851661E+04  0.17840656340E+04  0.10100000352E+00 0.  1.
       -3    1    3    3    0  502 -0.46609723110E+03  0.75004633059E+03  0.10321961805E+04  0.13583979874E+04  0.10100000352E+00 0. -1.
</event>
<event>
 5   0  0.5055900E-07  0.3095577E+04  0.7818609E-02  0.8216953E-01
       -2   -1    0    0    0  501  0.00000000000E+00  0.00000000000E+00  0.12260442544E+04  0.12260442544E+04  0.25500000920E-02 0.  1.
        2   -1    0    0  501    0  0.00000000000E+00  0.00000000000E+00 -0.19539658950E+04  0.19539658950E+04  0.25500000920E-02 0. -1.
    10030    2    1    2    0    0  0.00000000000E+00  0.00000000000E+00 -0.72792164059E+03  0.31800101495E+04  0.30955766241E+04 0.  0.
        2    1    3    3  502    0  0.19808871740E+03 -0.84009241485E+03 -0.16837817323E+04  0.18921192688E+04  0.25500000920E-02 0.  1.
       -2    1    3    3    0  502 -0.19808871740E+03  0.84009241485E+03  0.95586009173E+03  0.12878908806E+04  0.25500000920E-02 0. -1.
</event>
<event>
 5   0  0.5154105E-07  0.3130860E+04  0.7818609E-02  0.8207319E-01
       -2   -1    0    0    0  501  0.00000000000E+00  0.00000000000E+00  0.11907306971E+04  0.11907306971E+04  0.25500000920E-02 0.  1.
        2   -1    0    0  501    0  0.00000000000E+00  0.00000000000E+00 -0.20580394281E+04  0.20580394281E+04  0.25500000920E-02 0. -1.
    10030    2    1    2    0    0  0.00000000000E+00  0.00000000000E+00 -0.86730873105E+03  0.32487701252E+04  0.31308597687E+04 0.  0.
        1    1    3    3  502    0  0.26151426528E+03  0.90918355204E+03 -0.17278490958E+04  0.19698900833E+04  0.50400001928E-02 0. -1.
       -1    1    3    3    0  502 -0.26151426528E+03 -0.90918355204E+03  0.86054036475E+03  0.12788800419E+04  0.50400001928E-02 0.  1.
</event>
<event>
 5   0  0.1875284E-07  0.3103727E+04  0.7818609E-02  0.8214716E-01
       -1   -1    0    0    0  501  0.00000000000E+00  0.00000000000E+00  0.13755528092E+04  0.13755528092E+04  0.50400001928E-02 0.  1.
        1   -1    0    0  501    0  0.00000000000E+00  0.00000000000E+00 -0.17507725200E+04  0.17507725200E+04  0.50400001928E-02 0. -1.
    10030    2    1    2    0    0  0.00000000000E+00  0.00000000000E+00 -0.37521971077E+03  0.31263253292E+04  0.31037268296E+04 0.  0.
        4    1    3    3  502    0 -0.85015275110E+03  0.66358252072E+03 -0.13116096218E+04  0.16980644496E+04  0.12699999809E+01 0. -1.
       -4    1    3    3    0  502  0.85015275110E+03 -0.66358252072E+03  0.93638991102E+03  0.14282608797E+04  0.12699999809E+01 0.  1.
</event>
<event>
 5   0  0.5154105E-07  0.3098359E+04  0.7818609E-02  0.8216189E-01
        2   -1    0    0  501    0  0.00000000000E+00  0.00000000000E+00  0.11700820743E+04  0.11700820743E+04  0.25500000920E-02 0. -1.
       -2   -1    0    0    0  501  0.00000000000E+00  0.00000000000E+00 -0.20511010163E+04  0.20511010163E+04  0.25500000920E-02 0.  1.
    10030    2    1    2    0    0  0.00000000000E+00  0.00000000000E+00 -0.88101894205E+03  0.32211830906E+04  0.30983586182E+04 0.  0.
        1    1    3    3  502    0 -0.37707918728E+03  0.13437719310E+04  0.25848617957E+03  0.14194107303E+04  0.50400001928E-02 0. -1.
       -1    1    3    3    0  502  0.37707918728E+03 -0.13437719310E+04 -0.11395051216E+04  0.18017723603E+04  0.50400001928E-02 0.  1.
</event>
<event>
 5   0  0.1845123E-07  0.3111344E+04  0.7818609E-02  0.8212631E-01
        1   -1    0    0  501    0  0.00000000000E+00  0.00000000000E+00  0.12667948153E+04  0.12667948153E+04  0.50400001928E-02 0.  1.
       -1   -1    0    0    0  501  0.00000000000E+00  0.00000000000E+00 -0.19104244818E+04  0.19104244818E+04  0.50400001928E-02 0. -1.
    10030    2    1    2    0    0  0.00000000000E+00  0.00000000000E+00 -0.64362966650E+03  0.31772192970E+04  0.31113442937E+04 0.  0.
        2    1    3    3  502    0  0.11810496175E+04 -0.92897765093E+03  0.89501179734E+02  0.15052867288E+04  0.25500000920E-02 0.  1.
       -2    1    3    3    0  502 -0.11810496175E+04  0.92897765093E+03 -0.73313084624E+03  0.16719325682E+04  0.25500000920E-02 0. -1.
</event>
<event>
 5   0  0.5248309E-07  0.3093139E+04  0.7818609E-02  0.8217623E-01
       -2   -1    0    0    0  501  0.00000000000E+00  0.00000000000E+00  0.12736844494E+04  0.12736844494E+04  0.25500000920E-02 0.  1.
        2   -1    0    0  501    0  0.00000000000E+00  0.00000000000E+00 -0.18779192612E+04  0.18779192612E+04  0.25500000920E-02 0. -1.
    10030    2    1    2    0    0  0.00000000000E+00  0.00000000000E+00 -0.60423481181E+03  0.31516037106E+04  0.30931385745E+04 0.  0.
        4    1    3    3  502    0  0.81361381368E+03 -0.59979500222E+03 -0.14947778968E+04  0.18044622624E+04  0.12699999809E+01 0. -1.
       -4    1    3    3    0  502 -0.81361381368E+03  0.59979500222E+03  0.89054308502E+03  0.13471414483E+04  0.12699999809E+01 0.  1.
</event>
<event>
 5   0  0.5342534E-07  0.3099404E+04  0.7818609E-02  0.8215901E-01
        2   -1    0    0  501    0  0.00000000000E+00  0.00000000000E+00  0.23748041500E+04  0.23748041500E+04  0.25500000920E-02 0.  1.
       -2   -1    0    0    0  501  0.00000000000E+00  0.00000000000E+00 -0.10112736179E+04  0.10112736179E+04  0.25500000920E-02 0. -1.
    10030    2    1    2    0    0  0.00000000000E+00  0.00000000000E+00  0.13635305321E+04  0.33860777679E+04  0.30994043199E+04 0.  0.
        3    1    3    3  502    0  0.20043381421E+03  0.89094589866E+03  0.20496165412E+04  0.22438552281E+04  0.10100000352E+00 0.  1.
       -3    1    3    3    0  502 -0.20043381421E+03 -0.89094589866E+03 -0.68608600917E+03  0.11422225398E+04  0.10100000352E+00 0. -1.
</event>
<event>
 5   0  0.1845123E-07  0.3097449E+04  0.7818609E-02  0.8216438E-01
        1   -1    0    0  501    0  0.00000000000E+00  0.00000000000E+00  0.78303433861E+03  0.78303433863E+03  0.50400001928E-02 0.  1.
       -1   -1    0    0    0  501  0.00000000000E+00  0.00000000000E+00 -0.30631449816E+04  0.30631449816E+04  0.50400001928E-02 0. -1.
    10030    2    1    2    0    0  0.00000000000E+00  0.00000000000E+00 -0.22801106430E+04  0.38461793202E+04  0.30974490826E+04 0.  0.
        2    1    3    3  502    0 -0.65870599875E+03 -0.10996371924E+04 -0.60788477665E+02  0.12832734653E+04  0.25500000920E-02 0.  1.
       -2    1    3    3    0  502  0.65870599875E+03  0.10996371924E+04 -0.22193221653E+04  0.25629058549E+04  0.25500000920E-02 0. -1.
</event>
<event>
 5   0  0.1875284E-07  0.3089877E+04  0.7818609E-02  0.8218522E-01
       -1   -1    0    0    0  501  0.00000000000E+00  0.00000000000E+00  0.15843078481E+04  0.15843078481E+04  0.50400001928E-02 0. -1.
        1   -1    0    0  501    0  0.00000000000E+00  0.00000000000E+00 -0.15065471250E+04  0.15065471250E+04  0.50400001928E-02 0.  1.
    10030    2    1    2    0    0  0.00000000000E+00  0.00000000000E+00  0.77760723104E+02  0.30908549732E+04  0.30898766537E+04 0.  0.
        4    1    3    3  502    0  0.11453207969E+04  0.56267198397E+03 -0.83229912888E+03  0.15235100729E+04  0.12699999809E+01 0. -1.
       -4    1    3    3    0  502 -0.11453207969E+04 -0.56267198397E+03  0.91005985198E+03  0.15673449003E+04  0.12699999809E+01 0.  1.
</event>
<event>
 5   0  0.1830902E-07  0.3101480E+04  0.7818609E-02  0.8215332E-01
        1   -1    0    0  501    0  0.00000000000E+00  0.00000000000E+00  0.17764435184E+04  0.17764435184E+04  0.50400001928E-02 0. -1.
       -1   -1    0    0    0  501  0.00000000000E+00  0.00000000000E+00 -0.13537130929E+04  0.13537130929E+04  0.50400001928E-02 0.  1.
    10030    2    1    2    0    0  0.00000000000E+00  0.00000000000E+00  0.42273042544E+03  0.31301566113E+04  0.31014801948E+04 0.  0.
        3    1    3    3  502    0 -0.21430400776E+03  0.66863855728E+02  0.17599571073E+04  0.17742170139E+04  0.10100000352E+00 0. -1.
       -3    1    3    3    0  502  0.21430400776E+03 -0.66863855728E+02 -0.13372266818E+04  0.13559395974E+04  0.10100000352E+00 0.  1.
</event>
<event>
 5   0  0.1830902E-07  0.3111092E+04  0.7818609E-02  0.8212700E-01
       -1   -1    0    0    0  501  0.00000000000E+00  0.00000000000E+00  0.18142520943E+04  0.18142520943E+04  0.50400001928E-02 0.  1.
        1   -1    0    0  501    0  0.00000000000E+00  0.00000000000E+00 -0.13337306218E+04  0.13337306218E+04  0.50400001928E-02 0. -1.
    10030    2    1    2    0    0  0.00000000000E+00  0.00000000000E+00  0.48052147250E+03  0.31479827162E+04  0.31110921388E+04 0.  0.
        3    1    3    3  502    0 -0.51633950497E+03 -0.53655367928E+02  0.17240176320E+04  0.18004783222E+04  0.10100000352E+00 0.  1.
       -3    1    3    3    0  502  0.51633950497E+03  0.53655367928E+02 -0.12434961595E+04  0.13475043940E+04  0.10100000352E+00 0. -1.
</event>
<event>
 5   0  0.5154105E-07  0.3097723E+04  0.7818609E-02  0.8216363E-01
        2   -1    0    0  501    0  0.00000000000E+00  0.00000000000E+00  0.22618029726E+04  0.22618029726E+04  0.25500000920E-02 0. -1.
       -2   -1    0    0    0  501  0.00000000000E+00  0.00000000000E+00 -0.10606458171E+04  0.10606458171E+04  0.25500000920E-02 0.  1.
    10030    2    1    2    0    0  0.00000000000E+00  0.00000000000E+00  0.12011571555E+04  0.33224487898E+04  0.30977229457E+04 0.  0.
        1    1    3    3  502    0 -0.74724051477E+03  0.14491328325E+02  0.20556056223E+04  0.21872569259E+04  0.50400001928E-02 0. -1.
       -1    1    3    3    0  502  0.74724051477E+03 -0.14491328325E+02 -0.85444846674E+03  0.11351918639E+04  0.50400001928E-02 0.  1.
</event>
<event>
 5   0  0.5376678E-07  0.3099712E+04  0.7818609E-02  0.8215817E-01
        2   -1    0    0  501    0  0.00000000000E+00  0.00000000000E+00  0.21091128769E+04  0.21091128769E+04  0.25500000920E-02 0. -1.
       -2   -1    0    0    0  501  0.00000000000E+00  0.00000000000E+00 -0.11388931623E+04  0.11388931623E+04  0.25500000920E-02 0.  1.
    10030    2    1    2    0    0  0.00000000000E+00  0.00000000000E+00  0.97021971464E+03  0.32480060392E+04  0.30997123957E+04 0.  0.
        5    1    3    3  502    0  0.41572232974E+03 -0.75809655804E+03  0.18329189450E+04  0.20266103216E+04  0.46999998093E+01 0. -1.
       -5    1    3    3    0  502 -0.41572232974E+03  0.75809655804E+03 -0.86269923039E+03  0.12213957176E+04  0.46999998093E+01 0.  1.
</event>
<event>
 5   0  0.5055900E-07  0.3099348E+04  0.7818609E-02  0.8215917E-01
       -2   -1    0    0    0  501  0.00000000000E+00  0.00000000000E+00  0.93599051506E+03  0.93599051507E+03  0.25500000920E-02 0. -1.
        2   -1    0    0  501    0  0.00000000000E+00  0.00000000000E+00 -0.25657206030E+04  0.25657206030E+04  0.25500000920E-02 0.  1.
    10030    2    1    2    0    0  0.00000000000E+00  0.00000000000E+00 -0.16297300879E+04  0.35017111180E+04  0.30993484145E+04 0.  0.
        2    1    3    3  502    0  0.29117939423E+03 -0.11871434196E+03  0.89956693975E+03  0.95294239790E+03  0.25500000920E-02 0. -1.
       -2    1    3    3    0  502 -0.29117939423E+03  0.11871434196E+03 -0.25292970276E+04  0.25487687201E+04  0.25500000920E-02 0.  1.
</event>
<event>
 5   0  0.1840359E-07  0.3102262E+04  0.7818609E-02  0.8215117E-01
        1   -1    0    0  501    0  0.00000000000E+00  0.00000000000E+00  0.22001716193E+04  0.22001716193E+04  0.50400001928E-02 0.  1.
       -1   -1    0    0    0  501  0.00000000000E+00  0.00000000000E+00 -0.10935547416E+04  0.10935547416E+04  0.50400001928E-02 0. -1.
    10030    2    1    2    0    0  0.00000000000E+00  0.00000000000E+00  0.11066168777E+04  0.32937263609E+04  0.31022624690E+04 0.  0.
        1    1    3    3  502    0  0.75568812383E+03 -0.97006925443E+03 -0.45051118656E+03  0.13096026986E+04  0.50400001928E-02 0. -1.
       -1    1    3    3    0  502 -0.75568812383E+03  0.97006925443E+03  0.15571280643E+04  0.19841236623E+04  0.50400001928E-02 0.  1.
</event>
<event>
 5   0  0.5055900E-07  0.3096726E+04  0.7818609E-02  0.8216637E-01
        2   -1    0    0  501    0  0.00000000000E+00  0.00000000000E+00  0.17741512971E+04  0.17741512971E+04  0.25500000920E-02 0.  1.
       -2   -1    0    0    0  501  0.00000000000E+00  0.00000000000E+00 -0.13513100604E+04  0.13513100604E+04  0.25500000920E-02 0. -1.
    10030    2    1    2    0    0  0.00000000000E+00  0.00000000000E+00  0.42284123666E+03  0.31254613575E+04  0.30967263337E+04 0.  0.
        2    1    3    3  502    0 -0.84392067653E+03  0.42962611243E+03  0.14477969802E+04  0.17299990753E+04  0.25500000920E-02 0.  1.
       -2    1    3    3    0  502  0.84392067653E+03 -0.42962611243E+03 -0.10249557435E+04  0.13954622822E+04  0.25500000920E-02 0. -1.
</event>
<event>
 5   0  0.1840359E-07  0.3100903E+04  0.7818609E-02  0.8215490E-01
        1   -1    0    0  501    0  0.00000000000E+00  0.00000000000E+00  0.28556717931E+04  0.28556717931E+04  0.50400001928E-02 0. -1.
       -1   -1    0    0    0  501  0.00000000000E+00  0.00000000000E+00 -0.84179847499E+03  0.84179847501E+03  0.50400001928E-02 0.  1.
    10030    2    1    2    0    0  0.00000000000E+00  0.00000000000E+00  0.20138733181E+04  0.36974702681E+04  0.31009031978E+04 0.  0.
        1    1    3    3  502    0  0.74312125727E+03  0.70480528226E+03  0.23948852613E+04  0.26046986589E+04  0.50400001928E-02 0. -1.
       -1    1    3    3    0  502 -0.74312125727E+03 -0.70480528226E+03 -0.38101194322E+03  0.10927716092E+04  0.50400001928E-02 0.  1.
</event>
<event>
 5   0  0.1814075E-07  0.3095994E+04  0.7818609E-02  0.8216838E-01
       -1   -1    0    0    0  501  0.00000000000E+00  0.00000000000E+00  0.15713248932E+04  0.15713248932E+04  0.50400001928E-02 0. -1.
        1   -1    0    0  501    0  0.00000000000E+00  0.00000000000E+00 -0.15250155645E+04  0.15250155645E+04  0.50400001928E-02 0.  1.
    10030    2    1    2    0    0  0.00000000000E+00  0.00000000000E+00  0.46309328652E+02  0.30963404577E+04  0.30959941338E+04 0.  0.
        5    1    3    3  502    0  0.93166139210E+03  0.23940213365E+02 -0.12129879445E+04  0.15296822961E+04  0.46999998093E+01 0.  1.
       -5    1    3    3    0  502 -0.93166139210E+03 -0.23940213365E+02  0.12592972732E+04  0.15666581617E+04  0.46999998093E+01 0. -1.
</event>
<event>
 5   0  0.5248309E-07  0.3060925E+04  0.7818609E-02  0.8226544E-01
        2   -1    0    0  501    0  0.00000000000E+00  0.00000000000E+00  0.17457518550E+04  0.17457518550E+04  0.25500000920E-02 0. -1.
       -2   -1    0    0    0  501  0.00000000000E+00  0.00000000000E+00 -0.13417229331E+04  0.13417229331E+04  0.25500000920E-02 0.  1.
    10030    2    1    2    0    0  0.00000000000E+00  0.00000000000E+00  0.40402892188E+03  0.30874747882E+04  0.30609248925E+04 0.  0.
        4    1    3    3  502    0 -0.20476143867E+03  0.11303887767E+04 -0.81799750367E+03  0.14102579772E+04  0.12699999809E+01 0. -1.
       -4    1    3    3    0  502  0.20476143867E+03 -0.11303887767E+04  0.12220264255E+04  0.16772168110E+04  0.12699999809E+01 0.  1.
</event>
<event>
 5   0  0.1830902E-07  0.3091564E+04  0.7818609E-02  0.8218057E-01
       -1   -1    0    0    0  501  0.00000000000E+00  0.00000000000E+00  0.19444162723E+04  0.19444162723E+04  0.50400001928E-02 0.  1.
        1   -1    0    0  501    0  0.00000000000E+00  0.00000000000E+00 -0.12288737663E+04  0.12288737664E+04  0.50400001928E-02 0. -1.
    10030    2    1    2    0    0  0.00000000000E+00  0.00000000000E+00  0.71554250596E+03  0.31732900387E+04  0.30915641012E+04 0.  0.
        3    1    3    3  502    0  0.80551295488E+03  0.12362850684E+04 -0.11504698663E+03  0.14800296315E+04  0.10100000352E+00 0. -1.
       -3    1    3    3    0  502 -0.80551295488E+03 -0.12362850684E+04  0.83058949259E+03  0.16932604071E+04  0.10100000352E+00 0.  1.
</event>
<event>
 5   0  0.1727000E-07  0.3099649E+04  0.7818609E-02  0.8215834E-01
       -3   -1    0    0    0  501  0.00000000000E+00  0.00000000000E+00  0.16334415607E+04  0.16334415638E+04  0.10100000352E+00 0. -1.
        3   -1    0    0  501    0  0.00000000000E+00  0.00000000000E+00 -0.14704881180E+04  0.14704881214E+04  0.10100000352E+00 0.  1.
    10030    2    1    2    0    0  0.00000000000E+00  0.00000000000E+00  0.16295344267E+03  0.31039296852E+04  0.30996492812E+04 0.  0.
        4    1    3    3  502    0 -0.40750162828E+03 -0.54993610980E+02  0.15778202907E+04  0.16305214985E+04  0.12699999809E+01 0. -1.
       -4    1    3    3    0  502  0.40750162828E+03  0.54993610980E+02 -0.14148668480E+04  0.14734081868E+04  0.12699999809E+01 0.  1.
</event>
<event>
 5   0  0.1840359E-07  0.3101338E+04  0.7818609E-02  0.8215371E-01
       -1   -1    0    0    0  501  0.00000000000E+00  0.00000000000E+00  0.10098182806E+04  0.10098182807E+04  0.50400001928E-02 0. -1.
        1   -1    0    0  501    0  0.00000000000E+00  0.00000000000E+00 -0.23811950051E+04  0.23811950051E+04  0.50400001928E-02 0.  1.
    10030    2    1    2    0    0  0.00000000000E+00  0.00000000000E+00 -0.13713767245E+04  0.33910132858E+04  0.31013379345E+04 0.  0.
        1    1    3    3  502    0  0.13368771478E+04 -0.26967675557E+03 -0.14925935026E+04  0.20218312058E+04  0.50400001928E-02 0.  1.
       -1    1    3    3    0  502 -0.13368771478E+04  0.26967675557E+03  0.12121677818E+03  0.13691820799E+04  0.50400001928E-02 0. -1.
</event>
<event>
 5   0  0.1845123E-07  0.3123678E+04  0.7818609E-02  0.8209270E-01
        1   -1    0    0  501    0  0.00000000000E+00  0.00000000000E+00  0.24974853632E+04  0.24974853632E+04  0.50400001928E-02 0.  1.
       -1   -1    0    0    0  501  0.00000000000E+00  0.00000000000E+00 -0.97671859854E+03  0.97671859855E+03  0.50400001928E-02 0. -1.
    10030    2    1    2    0    0  0.00000000000E+00  0.00000000000E+00  0.15207667646E+04  0.34742039617E+04  0.31236775786E+04 0.  0.
        2    1    3    3  502    0 -0.67372906503E+03 -0.11892523542E+03 -0.80119564302E+03  0.10535504369E+04  0.25500000920E-02 0. -1.
       -2    1    3    3    0  502  0.67372906503E+03  0.11892523542E+03  0.23219624076E+04  0.24206535248E+04  0.25500000920E-02 0.  1.
</event>
<event>
 5   0  0.1875284E-07  0.3103479E+04  0.7818609E-02  0.8214784E-01
        1   -1    0    0  501    0  0.00000000000E+00  0.00000000000E+00  0.16347458184E+04  0.16347458184E+04  0.50400001928E-02 0. -1.
       -1   -1    0    0    0  501  0.00000000000E+00  0.00000000000E+00 -0.14729482683E+04  0.14729482683E+04  0.50400001928E-02 0.  1.
    10030    2    1    2    0    0  0.00000000000E+00  0.00000000000E+00  0.16179755010E+03  0.31076940867E+04  0.31034793522E+04 0.  0.
        4    1    3    3  502    0  0.29906708194E+03  0.14510724319E+04  0.54287343640E+03  0.15778990788E+04  0.12699999809E+01 0. -1.
       -4    1    3    3    0  502 -0.29906708194E+03 -0.14510724319E+04 -0.38107588629E+03  0.15297950079E+04  0.12699999809E+01 0.  1.
</event>
<event>
 5   0  0.1814075E-07  0.3100523E+04  0.7818609E-02  0.8215594E-01
       -1   -1    0    0    0  501  0.00000000000E+00  0.00000000000E+00  0.10300132007E+04  0.10300132007E+04  0.50400001928E-02 0.  1.
        1   -1    0    0  501    0  0.00000000000E+00  0.00000000000E+00 -0.23332809615E+04  0.23332809615E+04  0.50400001928E-02 0. -1.
    10030    2    1    2    0    0  0.00000000000E+00  0.00000000000E+00 -0.13032677608E+04  0.33632941622E+04  0.31005226600E+04 0.  0.
        5    1    3    3  502    0 -0.12077694562E+04 -0.71679522216E+02  0.39975936232E+03  0.12742349277E+04  0.46999998093E+01 0.  1.
       -5    1    3    3    0  502  0.12077694562E+04  0.71679522216E+02 -0.17030271231E+04  0.20890592345E+04  0.46999998093E+01 0. -1.
</event>
<event>
 5   0  0.5154105E-07  0.3096616E+04  0.7818609E-02  0.8216667E-01
        2   -1    0    0  501    0  0.00000000000E+00  0.00000000000E+00  0.15135894862E+04  0.15135894862E+04  0.25500000920E-02 0.  1.
       -2   -1    0    0    0  501  0.00000000000E+00  0.00000000000E+00 -0.15838224601E+04  0.15838224601E+04  0.25500000920E-02 0. -1.
    10030    2    1    2    0    0  0.00000000000E+00  0.00000000000E+00 -0.70232973838E+02  0.30974119463E+04  0.30966155871E+04 0.  0.
        1    1    3    3  502    0  0.15103767433E+04  0.22223540369E+03  0.22307882190E+03  0.15428514647E+04  0.50400001928E-02 0.  1.
       -1    1    3    3    0  502 -0.15103767433E+04 -0.22223540369E+03 -0.29331179574E+03  0.15545604816E+04  0.50400001928E-02 0. -1.
</event>
<event>
 5   0  0.1845123E-07  0.3100151E+04  0.7818609E-02  0.8215696E-01
       -1   -1    0    0    0  501  0.00000000000E+00  0.00000000000E+00  0.11241692489E+04  0.11241692489E+04  0.50400001928E-02 0. -1.
        1   -1    0    0  501    0  0.00000000000E+00  0.00000000000E+00 -0.21373420101E+04  0.21373420101E+04  0.50400001928E-02 0.  1.
    10030    2    1    2    0    0  0.00000000000E+00  0.00000000000E+00 -0.10131727612E+04  0.32615112590E+04  0.31001510687E+04 0.  0.
        2    1    3    3  502    0  0.42020013524E+03 -0.11047373187E+04 -0.15616408571E+04  0.19585032202E+04  0.25500000920E-02 0.  1.
       -2    1    3    3    0  502 -0.42020013524E+03  0.11047373187E+04  0.54846809585E+03  0.13030080388E+04  0.25500000920E-02 0. -1.
</event>
<event>
 5   0  0.5342534E-07  0.3103703E+04  0.7818609E-02  0.8214722E-01
       -2   -1    0    0    0  501  0.00000000000E+00  0.00000000000E+00  0.19424786686E+04  0.19424786686E+04  0.25500000920E-02 0. -1.
        2   -1    0    0  501    0  0.00000000000E+00  0.00000000000E+00 -0.12397784046E+04  0.12397784046E+04  0.25500000920E-02 0.  1.
    10030    2    1    2    0    0  0.00000000000E+00  0.00000000000E+00  0.70270026408E+03  0.31822570732E+04  0.31037030172E+04 0.  0.
        3    1    3    3  502    0  0.87179829303E+03  0.93817035973E+03 -0.54721395911E+03  0.13927092356E+04  0.10100000352E+00 0.  1.
       -3    1    3    3    0  502 -0.87179829303E+03 -0.93817035973E+03  0.12499142232E+04  0.17895478376E+04  0.10100000352E+00 0. -1.
</event>
<event>
 5   0  0.1875284E-07  0.3100011E+04  0.7818609E-02  0.8215735E-01
       -1   -1    0    0    0  501  0.00000000000E+00  0.00000000000E+00  0.16171832346E+04  0.16171832346E+04  0.50400001928E-02 0.  1.
        1   -1    0    0  501    0  0.00000000000E+00  0.00000000000E+00 -0.14856178906E+04  0.14856178906E+04  0.50400001928E-02 0. -1.
    10030    2    1    2    0    0  0.00000000000E+00  0.00000000000E+00  0.13156534409E+03  0.31028011252E+04  0.31000105456E+04 0.  0.
        4    1    3    3  502    0 -0.97417675904E+03  0.11272419854E+04 -0.36217663964E+03  0.15332541807E+04  0.12699999809E+01 0. -1.
       -4    1    3    3    0  502  0.97417675904E+03 -0.11272419854E+04  0.49374198373E+03  0.15695469445E+04  0.12699999809E+01 0.  1.
</event>
<event>
 5   0  0.5154105E-07  0.3098835E+04  0.7818609E-02  0.8216058E-01
       -2   -1    0    0    0  501  0.00000000000E+00  0.00000000000E+00  0.95851072497E+03  0.95851072498E+03  0.25500000920E-02 0.  1.
        2   -1    0    0  501    0  0.00000000000E+00  0.00000000000E+00 -0.25046092408E+04  0.25046092408E+04  0.25500000920E-02 0. -1.
    10030    2    1    2    0    0  0.00000000000E+00  0.00000000000E+00 -0.15460985158E+04  0.34631199657E+04  0.30988351483E+04 0.  0.
        1    1    3    3  502    0 -0.14771617127E+04 -0.28770440665E+03 -0.11850534058E+04  0.19154978793E+04  0.50400001928E-02 0.  1.
       -1    1    3    3    0  502  0.14771617127E+04  0.28770440665E+03 -0.36104510996E+03  0.15476220864E+04  0.50400001928E-02 0. -1.
</event>
<event>
 5   0  0.1830902E-07  0.3094708E+04  0.7818609E-02  0.8217192E-01
       -1   -1    0    0    0  501  0.00000000000E+00  0.00000000000E+00  0.29704485660E+04  0.29704485660E+04  0.50400001928E-02 0. -1.
        1   -1    0    0  501    0  0.00000000000E+00  0.00000000000E+00 -0.80604110982E+03  0.80604110984E+03  0.50400001928E-02 0.  1.
    10030    2    1    2    0    0  0.00000000000E+00  0.00000000000E+00  0.21644074562E+04  0.37764896759E+04  0.30947075202E+04 0.  0.
        3    1    3    3  502    0  0.29026371726E+03  0.11794982364E+03 -0.76692747955E+03  0.82845817972E+03  0.10100000352E+00 0.  1.
       -3    1    3    3    0  502 -0.29026371726E+03 -0.11794982364E+03  0.29313349358E+04  0.29480314962E+04  0.10100000352E+00 0. -1.
</event>
<event>
 5   0  0.5248309E-07  0.3100371E+04  0.7818609E-02  0.8215636E-01
       -2   -1    0    0    0  501  0.00000000000E+00  0.00000000000E+00  0.11287693545E+04  0.11287693545E+04  0.25500000920E-02 0.  1.
        2   -1    0    0  501    0  0.00000000000E+00  0.00000000000E+00 -0.21289334270E+04  0.21289334270E+04  0.25500000920E-02 0. -1.
    10030    2    1    2    0    0  0.00000000000E+00  0.00000000000E+00 -0.10001640726E+04  0.32577027815E+04  0.31003708231E+04 0.  0.
        4    1    3    3  502    0 -0.35604023865E+03 -0.11727533006E+04  0.49727383502E+03  0.13226480392E+04  0.12699999809E+01 0.  1.
       -4    1    3    3    0  502  0.35604023865E+03  0.11727533006E+04 -0.14974379076E+04  0.19350547423E+04  0.12699999809E+01 0. -1.
</event>
<event>
 5   0  0.5055900E-07  0.3099622E+04  0.7818609E-02  0.8215842E-01
        2   -1    0    0  501    0  0.00000000000E+00  0.00000000000E+00  0.28130824692E+04  0.28130824692E+04  0.25500000920E-02 0.  1.
       -2   -1    0    0    0  501  0.00000000000E+00  0.00000000000E+00 -0.85383681610E+03  0.85383681610E+03  0.25500000920E-02 0. -1.
    10030    2    1    2    0    0  0.00000000000E+00  0.00000000000E+00  0.19592456531E+04  0.36669192853E+04  0.30996215117E+04 0.  0.
        2    1    3    3  502    0 -0.77760177212E+03  0.64873186154E+03 -0.40829693410E+03  0.10918900726E+04  0.25500000920E-02 0. -1.
       -2    1    3    3    0  502  0.77760177212E+03 -0.64873186154E+03  0.23675425872E+04  0.25750292127E+04  0.25500000920E-02 0.  1.
</event>
<event>
 5   0  0.5376678E-07  0.3099185E+04  0.7818609E-02  0.8215962E-01
       -2   -1    0    0    0  501  0.00000000000E+00  0.00000000000E+00  0.21216923720E+04  0.21216923720E+04  0.25500000920E-02 0. -1.
        2   -1    0    0  501    0  0.00000000000E+00  0.00000000000E+00 -0.11317556680E+04  0.11317556680E+04  0.25500000920E-02 0.  1.
    10030    2    1    2    0    0  0.00000000000E+00  0.00000000000E+00  0.98993670396E+03  0.32534480400E+04  0.30991852915E+04 0.  0.
        5    1    3    3  502    0  0.11779909136E+04  0.16080853116E+03 -0.54832727520E+03  0.13092772307E+04  0.46999998093E+01 0.  1.
       -5    1    3    3    0  502 -0.11779909136E+04 -0.16080853116E+03  0.15382639792E+04  0.19441708093E+04  0.46999998093E+01 0. -1.
</event>
<event>
 5   0  0.5055900E-07  0.3103279E+04  0.7818609E-02  0.8214839E-01
        2   -1    0    0  501    0  0.00000000000E+00  0.00000000000E+00  0.23052817811E+04  0.23052817811E+04  0.25500000920E-02 0.  1.
       -2   -1    0    0    0  501  0.00000000000E+00  0.00000000000E+00 -0.10443777440E+04  0.10443777440E+04  0.25500000920E-02 0. -1.
    10030    2    1    2    0    0  0.00000000000E+00  0.00000000000E+00  0.12609040371E+04  0.33496595250E+04  0.31032789019E+04 0.  0.
        2    1    3    3  502    0  0.13943081028E+04  0.60173914655E+03  0.97416712450E+03  0.18042135884E+04  0.25500000920E-02 0. -1.
       -2    1    3    3    0  502 -0.13943081028E+04 -0.60173914655E+03  0.28673691257E+03  0.15454459367E+04  0.25500000920E-02 0.  1.
</event>
<event>
 5   0  0.5342534E-07  0.3101929E+04  0.7818609E-02  0.8215209E-01
       -2   -1    0    0    0  501  0.00000000000E+00  0.00000000000E+00  0.16630825959E+04  0.16630825959E+04  0.25500000920E-02 0.  1.
        2   -1    0    0  501    0  0.00000000000E+00  0.00000000000E+00 -0.14464051445E+04  0.14464051445E+04  0.25500000920E-02 0. -1.
    10030    2    1    2    0    0  0.00000000000E+00  0.00000000000E+00  0.21667745138E+03  0.31094877404E+04  0.31019292207E+04 0.  0.
        3    1    3    3  502    0 -0.98670081180E+03  0.71160790756E+03 -0.85604858943E+03  0.14875427738E+04  0.10100000352E+00 0. -1.
       -3    1    3    3    0  502  0.98670081180E+03 -0.71160790756E+03  0.10727260408E+04  0.16219449667E+04  0.10100000352E+00 0.  1.
</event>
<event>
 5   0  0.5342534E-07  0.3097602E+04  0.7818609E-02  0.8216396E-01
        2   -1    0    0  501    0  0.00000000000E+00  0.00000000000E+00  0.17526504283E+04  0.17526504283E+04  0.25500000920E-02 0. -1.
       -2   -1    0    0    0  501  0.00000000000E+00  0.00000000000E+00 -0.13686614771E+04  0.13686614771E+04  0.25500000920E-02 0.  1.
    10030    2    1    2    0    0  0.00000000000E+00  0.00000000000E+00  0.38398895121E+03  0.31213119053E+04  0.30976023786E+04 0.  0.
        3    1    3    3  502    0  0.15656298889E+03 -0.82603021412E+03 -0.11187103747E+04  0.13994108749E+04  0.10100000352E+00 0.  1.
       -3    1    3    3    0  502 -0.15656298889E+03  0.82603021412E+03  0.15026993259E+04  0.17219010304E+04  0.10100000352E+00 0. -1.
</event>
<event>
 5   0  0.5055900E-07  0.3089577E+04  0.7818609E-02  0.8218604E-01
        2   -1    0    0  501    0  0.00000000000E+00  0.00000000000E+00  0.19159404170E+04  0.19159404170E+04  0.25500000920E-02 0. -1.
       -2   -1    0    0    0  501  0.00000000000E+00  0.00000000000E+00 -0.12455355391E+04  0.12455355391E+04  0.25500000920E-02 0.  1.
    10030    2    1    2    0    0  0.00000000000E+00  0.00000000000E+00  0.67040487787E+03  0.31614759560E+04  0.30895772397E+04 0.  0.
        2    1    3    3  502    0 -0.13890674231E+04  0.12163288678E+03  0.10155578826E+04  0.17250103415E+04  0.25500000920E-02 0. -1.
       -2    1    3    3    0  502  0.13890674231E+04 -0.12163288678E+03 -0.34515300476E+03  0.14364656146E+04  0.25500000920E-02 0.  1.
</event>
<event>
 5   0  0.1727000E-07  0.3099400E+04  0.7818609E-02  0.8215903E-01
        3   -1    0    0  501    0  0.00000000000E+00  0.00000000000E+00  0.97107097882E+03  0.97107098407E+03  0.10100000352E+00 0. -1.
       -3   -1    0    0    0  501  0.00000000000E+00  0.00000000000E+00 -0.24731143942E+04  0.24731143962E+04  0.10100000352E+00 0.  1.
    10030    2    1    2    0    0  0.00000000000E+00  0.00000000000E+00 -0.15020434154E+04  0.34441853803E+04  0.30993997019E+04 0.  0.
        3    1    3    3  502    0  0.13518053064E+04 -0.69989611906E+03 -0.42830669065E+03  0.15813534695E+04  0.10100000352E+00 0.  1.
       -3    1    3    3    0  502 -0.13518053064E+04  0.69989611906E+03 -0.10737367247E+04  0.18628319109E+04  0.10100000352E+00 0. -1.
</event>
<event>
 5   0  0.5376678E-07  0.3098232E+04  0.7818609E-02  0.8216223E-01
        2   -1    0    0  501    0  0.00000000000E+00  0.00000000000E+00  0.19446673528E+04  0.19446673528E+04  0.25500000920E-02 0.  1.
       -2   -1    0    0    0  501  0.00000000000E+00  0.00000000000E+00 -0.12340207578E+04  0.12340207578E+04  0.25500000920E-02 0. -1.
    10030    2    1    2    0    0  0.00000000000E+00  0.00000000000E+00  0.71064659499E+03  0.31786881106E+04  0.30982316766E+04 0.  0.
        5    1    3    3  502    0 -0.19592484380E+03  0.75977188279E+03 -0.10150641520E+04  0.12829720110E+04  0.46999998093E+01 0. -1.
       -5    1    3    3    0  502  0.19592484380E+03 -0.75977188279E+03  0.17257107470E+04  0.18957160997E+04  0.46999998093E+01 0.  1.
</event>
<event>
 5   0  0.5342534E-07  0.3105635E+04  0.7818609E-02  0.8214193E-01
       -2   -1    0    0    0  501  0.00000000000E+00  0.00000000000E+00  0.10511624219E+04  0.10511624219E+04  0.25500000920E-02 0. -1.
        2   -1    0    0  501    0  0.00000000000E+00  0.00000000000E+00 -0.22938819854E+04  0.22938819854E+04  0.25500000920E-02 0.  1.
    10030    2    1    2    0    0  0.00000000000E+00  0.00000000000E+00 -0.12427195636E+04  0.33450444073E+04  0.31056352286E+04 0.  0.
        3    1    3    3  502    0  0.49131298299E+03  0.10337116195E+04 -0.17516843137E+04  0.20924497854E+04  0.10100000352E+00 0.  1.
       -3    1    3    3    0  502 -0.49131298299E+03 -0.10337116195E+04  0.50896475012E+03  0.12525946218E+04  0.10100000352E+00 0. -1.
</event>
<event>
 5   0  0.1875284E-07  0.3087014E+04  0.7818609E-02  0.8219311E-01
       -1   -1    0    0    0  501  0.00000000000E+00  0.00000000000E+00  0.18724603130E+04  0.18724603130E+04  0.50400001928E-02 0.  1.
        1   -1    0    0  501    0  0.00000000000E+00  0.00000000000E+00 -0.12723439367E+04  0.12723439367E+04  0.50400001928E-02 0. -1.
    10030    2    1    2    0    0  0.00000000000E+00  0.00000000000E+00  0.60011637634E+03  0.31448042497E+04  0.30870137842E+04 0.  0.
        4    1    3    3  502    0 -0.15250715280E+04 -0.13475755565E+03  0.10040677452E+03  0.15343030658E+04  0.12699999809E+01 0.  1.
       -4    1    3    3    0  502  0.15250715280E+04  0.13475755565E+03  0.49970960182E+03  0.16105011839E+04  0.12699999809E+01 0. -1.
</event>
<event>
 5   0  0.5154105E-07  0.3102149E+04  0.7818609E-02  0.8215148E-01
        2   -1    0    0  501    0  0.00000000000E+00  0.00000000000E+00  0.13408416385E+04  0.13408416385E+04  0.25500000920E-02 0. -1.
       -2   -1    0    0    0  501  0.00000000000E+00  0.00000000000E+00 -0.17942700001E+04  0.17942700001E+04  0.25500000920E-02 0.  1.
    10030    2    1    2    0    0  0.00000000000E+00  0.00000000000E+00 -0.45342836168E+03  0.31351116386E+04  0.31021488854E+04 0.  0.
        1    1    3    3  502    0  0.14008514615E+04 -0.30006120262E+03  0.37408595991E+03  0.14806626382E+04  0.50400001928E-02 0.  1.
       -1    1    3    3    0  502 -0.14008514615E+04  0.30006120262E+03 -0.82751432159E+03  0.16544490004E+04  0.50400001928E-02 0. -1.
</event>
<event>
 5   0  0.5055900E-07  0.3097959E+04  0.7818609E-02  0.8216298E-01
       -2   -1    0    0    0  501  0.00000000000E+00  0.00000000000E+00  0.22978830385E+04  0.22978830385E+04  0.25500000920E-02 0.  1.
        2   -1    0    0  501    0  0.00000000000E+00  0.00000000000E+00 -0.10441515048E+04  0.10441515048E+04  0.25500000920E-02 0. -1.
    10030    2    1    2    0    0  0.00000000000E+00  0.00000000000E+00  0.12537315336E+04  0.33420345433E+04  0.30979593493E+04 0.  0.
        2    1    3    3  502    0 -0.59213422240E+03  0.27790227025E+03 -0.88785299538E+03  0.11027853602E+04  0.25500000920E-02 0. -1.
       -2    1    3    3    0  502  0.59213422240E+03 -0.27790227025E+03  0.21415845290E+04  0.22392491831E+04  0.25500000920E-02 0.  1.
</event>
<event>
 5   0  0.1845123E-07  0.3097332E+04  0.7818609E-02  0.8216470E-01
        1   -1    0    0  501    0  0.00000000000E+00  0.00000000000E+00  0.12868287430E+04  0.12868287430E+04  0.50400001928E-02 0.  1.
       -1   -1    0    0    0  501  0.00000000000E+00  0.00000000000E+00 -0.18637806370E+04  0.18637806370E+04  0.50400001928E-02 0. -1.
    10030    2    1    2    0    0  0.00000000000E+00  0.00000000000E+00 -0.57695189401E+03  0.31506093800E+04  0.30973320741E+04 0.  0.
        2    1    3    3  502    0 -0.22352025171E+03  0.37618348401E+03 -0.17995900232E+04  0.18520258011E+04  0.25500000920E-02 0. -1.
       -2    1    3    3    0  502  0.22352025171E+03 -0.37618348401E+03  0.12226381291E+04  0.12985835789E+04  0.25500000920E-02 0.  1.
</event>
<event>
 5   0  0.5376678E-07  0.3092170E+04  0.7818609E-02  0.8217890E-01
       -2   -1    0    0    0  501  0.00000000000E+00  0.00000000000E+00  0.17393274362E+04  0.17393274362E+04  0.25500000920E-02 0.  1.
        2   -1    0    0  501    0  0.00000000000E+00  0.00000000000E+00 -0.13743119858E+04  0.13743119858E+04  0.25500000920E-02 0. -1.
    10030    2    1    2    0    0  0.00000000000E+00  0.00000000000E+00  0.36501545039E+03  0.31136394220E+04  0.30921698160E+04 0.  0.
        5    1    3    3  502    0  0.91327510280E+03 -0.53687940929E+03 -0.95138614115E+03  0.14238920581E+04  0.46999998093E+01 0. -1.
       -5    1    3    3    0  502 -0.91327510280E+03  0.53687940929E+03  0.13164015915E+04  0.16897473639E+04  0.46999998093E+01 0.  1.
</event>
<event>
 5   0  0.1830902E-07  0.3108060E+04  0.7818609E-02  0.8213529E-01
        1   -1    0    0  501    0  0.00000000000E+00  0.00000000000E+00  0.21090398623E+04  0.21090398623E+04  0.50400001928E-02 0. -1.
       -1   -1    0    0    0  501  0.00000000000E+00  0.00000000000E+00 -0.11450754925E+04  0.11450754925E+04  0.50400001928E-02 0.  1.
    10030    2    1    2    0    0  0.00000000000E+00  0.00000000000E+00  0.96396436982E+03  0.32541153549E+04  0.31080603978E+04 0.  0.
        3    1    3    3  502    0  0.30578866930E+03 -0.88301704127E+03 -0.81805348288E+03  0.12419489992E+04  0.10100000352E+00 0.  1.
       -3    1    3    3    0  502 -0.30578866930E+03  0.88301704127E+03  0.17820178527E+04  0.20121663557E+04  0.10100000352E+00 0. -1.
</event>
<event>
 5   0  0.1830902E-07  0.3108406E+04  0.7818609E-02  0.8213435E-01
        1   -1    0    0  501    0  0.00000000000E+00  0.00000000000E+00  0.23278209889E+04  0.23278209889E+04  0.50400001928E-02 0.  1.
       -1   -1    0    0    0  501  0.00000000000E+00  0.00000000000E+00 -0.10376858349E+04  0.10376858350E+04  0.50400001928E-02 0. -1.
    10030    2    1    2    0    0  0.00000000000E+00  0.00000000000E+00  0.12901351540E+04  0.33655068239E+04  0.31084059365E+04 0.  0.
        3    1    3    3  502    0  0.10777122773E+04 -0.49661338961E+03  0.17318091307E+04  0.20993454901E+04  0.10100000352E+00 0.  1.
       -3    1    3    3    0  502 -0.10777122773E+04  0.49661338961E+03 -0.44167397670E+03  0.12661613338E+04  0.10100000352E+00 0. -1.
</event>
<event>
 5   0  0.1875284E-07  0.3098480E+04  0.7818609E-02  0.8216155E-01
        1   -1    0    0  501    0  0.00000000000E+00  0.00000000000E+00  0.21795625639E+04  0.21795625639E+04  0.50400001928E-02 0. -1.
       -1   -1    0    0    0  501  0.00000000000E+00  0.00000000000E+00 -0.11012049026E+04  0.11012049027E+04  0.50400001928E-02 0.  1.
    10030    2    1    2    0    0  0.00000000000E+00  0.00000000000E+00  0.10783576612E+04  0.32807674665E+04  0.30984802604E+04 0.  0.
        4    1    3    3  502    0  0.13414431376E+04  0.56146859325E+03  0.11048629811E+04  0.18263188365E+04  0.12699999809E+01 0. -1.
       -4    1    3    3    0  502 -0.13414431376E+04 -0.56146859325E+03 -0.26505319896E+02  0.14544486300E+04  0.12699999809E+01 0.  1.
</event>
<event>
 5   0  0.5248309E-07  0.3102935E+04  0.7818609E-02  0.8214933E-01
       -2   -1    0    0    0  501  0.00000000000E+00  0.00000000000E+00  0.14942890714E+04  0.14942890714E+04  0.25500000920E-02 0.  1.
        2   -1    0    0  501    0  0.00000000000E+00  0.00000000000E+00 -0.16108339344E+04  0.16108339344E+04  0.25500000920E-02 0. -1.
    10030    2    1    2    0    0  0.00000000000E+00  0.00000000000E+00 -0.11654486306E+03  0.31051230058E+04  0.31029350905E+04 0.  0.
        4    1    3    3  502    0 -0.15245736009E+03 -0.66346607427E+03 -0.14533929840E+04  0.16049246890E+04  0.12699999809E+01 0. -1.
       -4    1    3    3    0  502  0.15245736009E+03  0.66346607427E+03  0.13368481210E+04  0.15001983168E+04  0.12699999809E+01 0.  1.
</event>
<event>
 5   0  0.5055900E-07  0.3101108E+04  0.7818609E-02  0.8215434E-01
       -2   -1    0    0    0  501  0.00000000000E+00  0.00000000000E+00  0.80784360312E+03  0.80784360313E+03  0.25500000920E-02 0. -1.
        2   -1    0    0  501    0  0.00000000000E+00  0.00000000000E+00 -0.29760925014E+04  0.29760925014E+04  0.25500000920E-02 0.  1.
    10030    2    1    2    0    0  0.00000000000E+00  0.00000000000E+00 -0.21682488983E+04  0.37839361046E+04  0.31011077309E+04 0.  0.
        2    1    3    3  502    0 -0.15080266394E+04 -0.16496755240E+03 -0.69279065570E+03  0.16677282546E+04  0.25500000920E-02 0.  1.
       -2    1    3    3    0  502  0.15080266394E+04  0.16496755240E+03 -0.14754582426E+04  0.21162078500E+04  0.25500000920E-02 0. -1.
</event>
<event>
 5   0  0.5248309E-07  0.3103821E+04  0.7818609E-02  0.8214690E-01
       -2   -1    0    0    0  501  0.00000000000E+00  0.00000000000E+00  0.11287894602E+04  0.11287894602E+04  0.25500000920E-02 0. -1.
        2   -1    0    0  501    0  0.00000000000E+00  0.00000000000E+00 -0.21336369117E+04  0.21336369117E+04  0.25500000920E-02 0.  1.
    10030    2    1    2    0    0  0.00000000000E+00  0.00000000000E+00 -0.10048474516E+04  0.32624263719E+04  0.31038214239E+04 0.  0.
        4    1    3    3  502    0 -0.33395198287E+03 -0.12661652669E+04 -0.13778876202E+04  0.19008614670E+04  0.12699999809E+01 0. -1.
       -4    1    3    3    0  502  0.33395198287E+03  0.12661652669E+04  0.37304016862E+03  0.13615649049E+04  0.12699999809E+01 0.  1.
</event>
<event>
 5   0  0.5154105E-07  0.3090706E+04  0.7818609E-02  0.8218293E-01
        2   -1    0    0  501    0  0.00000000000E+00  0.00000000000E+00  0.20803655183E+04  0.20803655183E+04  0.25500000920E-02 0. -1.
       -2   -1    0    0    0  501  0.00000000000E+00  0.00000000000E+00 -0.11479305475E+04  0.11479305475E+04  0.25500000920E-02 0.  1.
    10030    2    1    2    0    0  0.00000000000E+00  0.00000000000E+00  0.93243497077E+03  0.32282960658E+04  0.30907055042E+04 0.  0.
        1    1    3    3  502    0  0.56961321063E+03 -0.19839500915E+03  0.19523333447E+04  0.20433857390E+04  0.50400001928E-02 0. -1.
       -1    1    3    3    0  502 -0.56961321063E+03  0.19839500915E+03 -0.10198983739E+04  0.11849103268E+04  0.50400001928E-02 0.  1.
</event>
<event>
 5   0  0.5342534E-07  0.3107252E+04  0.7818609E-02  0.8213751E-01
        2   -1    0    0  501    0  0.00000000000E+00  0.00000000000E+00  0.16108506616E+04  0.16108506616E+04  0.25500000920E-02 0.  1.
       -2   -1    0    0    0  501  0.00000000000E+00  0.00000000000E+00 -0.14984337987E+04  0.14984337987E+04  0.25500000920E-02 0. -1.
    10030    2    1    2    0    0  0.00000000000E+00  0.00000000000E+00  0.11241686290E+03  0.31092844604E+04  0.31072515676E+04 0.  0.
        3    1    3    3  502    0 -0.82179693024E+03 -0.36122658159E+03  0.13250751896E+04  0.16005183866E+04  0.10100000352E+00 0. -1.
       -3    1    3    3    0  502  0.82179693024E+03  0.36122658159E+03 -0.12126583267E+04  0.15087660737E+04  0.10100000352E+00 0.  1.
</event>
<event>
 5   0  0.1840359E-07  0.3106386E+04  0.7818609E-02  0.8213988E-01
        1   -1    0    0  501    0  0.00000000000E+00  0.00000000000E+00  0.10604022219E+04  0.10604022220E+04  0.50400001928E-02 0.  1.
       -1   -1    0    0    0  501  0.00000000000E+00  0.00000000000E+00 -0.22749933055E+04  0.22749933056E+04  0.50400001928E-02 0. -1.
    10030    2    1    2    0    0  0.00000000000E+00  0.00000000000E+00 -0.12145910836E+04  0.33353955275E+04  0.31063856529E+04 0.  0.
        1    1    3    3  502    0  0.49253459552E+03  0.72754000287E+03  0.76795082934E+03  0.11668989930E+04  0.50400001928E-02 0.  1.
       -1    1    3    3    0  502 -0.49253459552E+03 -0.72754000287E+03 -0.19825419129E+04  0.21684965345E+04  0.50400001928E-02 0. -1.
</event>
<event>
 5   0  0.5055900E-07  0.3162884E+04  0.7818609E-02  0.8198689E-01
        2   -1    0    0  501    0  0.00000000000E+00  0.00000000000E+00  0.16291541260E+04  0.16291541260E+04  0.25500000920E-02 0.  1.
       -2   -1    0    0    0  501  0.00000000000E+00  0.00000000000E+00 -0.15351267365E+04  0.15351267365E+04  0.25500000920E-02 0. -1.
    10030    2    1    2    0    0  0.00000000000E+00  0.00000000000E+00  0.94027389505E+02  0.31642808625E+04  0.31628835304E+04 0.  0.
        2    1    3    3  502    0  0.15693047461E+04  0.17179633174E+03 -0.46444335877E+02  0.15793633027E+04  0.25500000920E-02 0. -1.
       -2    1    3    3    0  502 -0.15693047461E+04 -0.17179633174E+03  0.14047172538E+03  0.15849175598E+04  0.25500000920E-02 0.  1.
</event>
<event>
 5   0  0.1845123E-07  0.3103125E+04  0.7818609E-02  0.8214881E-01
       -1   -1    0    0    0  501  0.00000000000E+00  0.00000000000E+00  0.15872223594E+04  0.15872223594E+04  0.50400001928E-02 0.  1.
        1   -1    0    0  501    0  0.00000000000E+00  0.00000000000E+00 -0.15167039519E+04  0.15167039519E+04  0.50400001928E-02 0. -1.
    10030    2    1    2    0    0  0.00000000000E+00  0.00000000000E+00  0.70518407476E+02  0.31039263113E+04  0.31031251506E+04 0.  0.
        2    1    3    3  502    0  0.13389870047E+04  0.33877554136E+03 -0.67181180504E+03  0.15358991398E+04  0.25500000920E-02 0. -1.
       -2    1    3    3    0  502 -0.13389870047E+04 -0.33877554136E+03  0.74233021252E+03  0.15680271715E+04  0.25500000920E-02 0.  1.
</event>
<event>
 5   0  0.5055900E-07  0.3097398E+04  0.7818609E-02  0.8216452E-01
        2   -1    0    0  501    0  0.00000000000E+00  0.00000000000E+00  0.10830743220E+04  0.10830743220E+04  0.25500000920E-02 0.  1.
       -2   -1    0    0    0  501  0.00000000000E+00  0.00000000000E+00 -0.22145000466E+04  0.22145000466E+04  0.25500000920E-02 0. -1.
    10030    2    1    2    0    0  0.00000000000E+00  0.00000000000E+00 -0.11314257246E+04  0.32975743687E+04  0.30973977056E+04 0.  0.
        2    1    3    3  502    0 -0.94623222415E+03  0.68286754864E+03 -0.16497548142E+04  0.20207311692E+04  0.25500000920E-02 0. -1.
       -2    1    3    3    0  502  0.94623222415E+03 -0.68286754864E+03  0.51832908959E+03  0.12768431995E+04  0.25500000920E-02 0.  1.
</event>
<event>
 5   0  0.5248309E-07  0.3100571E+04  0.7818609E-02  0.8215581E-01
        2   -1    0    0  501    0  0.00000000000E+00  0.00000000000E+00  0.13695119649E+04  0.13695119649E+04  0.25500000920E-02 0. -1.
       -2   -1    0    0    0  501  0.00000000000E+00  0.00000000000E+00 -0.17549204285E+04  0.17549204285E+04  0.25500000920E-02 0.  1.
    10030    2    1    2    0    0  0.00000000000E+00  0.00000000000E+00 -0.38540846367E+03  0.31244323934E+04  0.31005706083E+04 0.  0.
        4    1    3    3  502    0  0.18259460065E+03  0.25314682522E+03  0.13375207174E+04  0.13734581849E+04  0.12699999809E+01 0. -1.
       -4    1    3    3    0  502 -0.18259460065E+03 -0.25314682522E+03 -0.17229291810E+04  0.17509742086E+04  0.12699999809E+01 0.  1.
</event>
<event>
 5   0  0.1840359E-07  0.3095928E+04  0.7818609E-02  0.8216856E-01
        1   -1    0    0  501    0  0.00000000000E+00  0.00000000000E+00  0.12672133982E+04  0.12672133982E+04  0.50400001928E-02 0.  1.
       -1   -1    0    0    0  501  0.00000000000E+00  0.00000000000E+00 -0.18909150894E+04  0.18909150894E+04  0.50400001928E-02 0. -1.
    10030    2    1    2    0    0  0.00000000000E+00  0.00000000000E+00 -0.62370169123E+03  0.31581284876E+04  0.30959282525E+04 0.  0.
        1    1    3    3  502    0 -0.69767966507E+03  0.99511650507E+03 -0.12898511568E+04  0.17722104221E+04  0.50400001928E-02 0. -1.
       -1    1    3    3    0  502  0.69767966507E+03 -0.99511650507E+03  0.66614946553E+03  0.13859180655E+04  0.50400001928E-02 0.  1.
</event>
<event>
 5   0  0.1830902E-07  0.3088036E+04  0.7818609E-02  0.8219029E-01
       -1   -1    0    0    0  501  0.00000000000E+00  0.00000000000E+00  0.16319490194E+04  0.16319490194E+04  0.50400001928E-02 0.  1.
        1   -1    0    0  501    0  0.00000000000E+00  0.00000000000E+00 -0.14608251466E+04  0.14608251466E+04  0.50400001928E-02 0. -1.
    10030    2    1    2    0    0  0.00000000000E+00  0.00000000000E+00  0.17112387279E+03  0.30927741660E+04  0.30880363764E+04 0.  0.
        3    1    3    3  502    0  0.57377142613E+02 -0.14815499350E+04  0.51716371230E+03  0.15702677039E+04  0.10100000352E+00 0.  1.
       -3    1    3    3    0  502 -0.57377142613E+02  0.14815499350E+04 -0.34603983951E+03  0.15225064621E+04  0.10100000352E+00 0. -1.
</event>
<event>
 5   0  0.5342534E-07  0.3102551E+04  0.7818609E-02  0.8215038E-01
       -2   -1    0    0    0  501  0.00000000000E+00  0.00000000000E+00  0.10491148525E+04  0.10491148525E+04  0.25500000920E-02 0. -1.
        2   -1    0    0  501    0  0.00000000000E+00  0.00000000000E+00 -0.22937963674E+04  0.22937963674E+04  0.25500000920E-02 0.  1.
    10030    2    1    2    0    0  0.00000000000E+00  0.00000000000E+00 -0.12446815149E+04  0.33429112199E+04  0.31025511037E+04 0.  0.
        3    1    3    3  502    0  0.13155848495E+04 -0.17231433734E+03 -0.14883493317E+04  0.19939005668E+04  0.10100000352E+00 0.  1.
       -3    1    3    3    0  502 -0.13155848495E+04  0.17231433734E+03  0.24366781687E+03  0.13490106531E+04  0.10100000352E+00 0. -1.
</event>
<event>
 5   0  0.1814075E-07  0.3106900E+04  0.7818609E-02  0.8213847E-01
       -1   -1    0    0    0  501  0.00000000000E+00  0.00000000000E+00  0.15812701878E+04  0.15812701878E+04  0.50400001928E-02 0. -1.
        1   -1    0    0  501    0  0.00000000000E+00  0.00000000000E+00 -0.15261195277E+04  0.15261195277E+04  0.50400001928E-02 0.  1.
    10030    2    1    2    0    0  0.00000000000E+00  0.00000000000E+00  0.55150660161E+02  0.31073897155E+04  0.31069002638E+04 0.  0.
        5    1    3    3  502    0 -0.10601742736E+04 -0.11345149012E+04  0.73317321435E+02  0.15545066970E+04  0.46999998093E+01 0. -1.
       -5    1    3    3    0  502  0.10601742736E+04  0.11345149012E+04 -0.18166661274E+02  0.15528830185E+04  0.46999998093E+01 0.  1.
</event>
<event>
 5   0  0.1875284E-07  0.3103717E+04  0.7818609E-02  0.8214718E-01
        1   -1    0    0  501    0  0.00000000000E+00  0.00000000000E+00  0.20093568644E+04  0.20093568644E+04  0.50400001928E-02 0. -1.
       -1   -1    0    0    0  501  0.00000000000E+00  0.00000000000E+00 -0.11985255577E+04  0.11985255577E+04  0.50400001928E-02 0.  1.
    10030    2    1    2    0    0  0.00000000000E+00  0.00000000000E+00  0.81083130675E+03  0.32078824221E+04  0.31037174849E+04 0.  0.
        4    1    3    3  502    0 -0.11020319741E+03  0.64753313555E+03 -0.10477657323E+04  0.12366319376E+04  0.12699999809E+01 0.  1.
       -4    1    3    3    0  502  0.11020319741E+03 -0.64753313555E+03  0.18585970390E+04  0.19712504845E+04  0.12699999809E+01 0. -1.
</event>
<event>
 5   0  0.5248309E-07  0.3098780E+04  0.7818609E-02  0.8216073E-01
       -2   -1    0    0    0  501  0.00000000000E+00  0.00000000000E+00  0.11541070428E+04  0.11541070428E+04  0.25500000920E-02 0. -1.
        2   -1    0    0  501    0  0.00000000000E+00  0.00000000000E+00 -0.20800583497E+04  0.20800583498E+04  0.25500000920E-02 0.  1.
    10030    2    1    2    0    0  0.00000000000E+00  0.00000000000E+00 -0.92595130691E+03  0.32341653926E+04  0.30987803994E+04 0.  0.
        4    1    3    3  502    0 -0.78548632401E+03  0.57665632382E+03  0.79426427583E+03  0.12571311124E+04  0.12699999809E+01 0. -1.
       -4    1    3    3    0  502  0.78548632401E+03 -0.57665632382E+03 -0.17202155827E+04  0.19770342802E+04  0.12699999809E+01 0.  1.
</event>
<event>
 5   0  0.5154105E-07  0.3098874E+04  0.7818609E-02  0.8216047E-01
        2   -1    0    0  501    0  0.00000000000E+00  0.00000000000E+00  0.13252044242E+04  0.13252044242E+04  0.25500000920E-02 0. -1.
       -2   -1    0    0    0  501  0.00000000000E+00  0.00000000000E+00 -0.18116115282E+04  0.18116115282E+04  0.25500000920E-02 0.  1.
    10030    2    1    2    0    0  0.00000000000E+00  0.00000000000E+00 -0.48640710403E+03  0.31368159524E+04  0.30988743841E+04 0.  0.
        1    1    3    3  502    0  0.81015560814E+03  0.11600679894E+04  0.39591090545E+03  0.14693043574E+04  0.50400001928E-02 0. -1.
       -1    1    3    3    0  502 -0.81015560814E+03 -0.11600679894E+04 -0.88231800948E+03  0.16675115950E+04  0.50400001928E-02 0.  1.
</event>
<event>
 5   0  0.1845123E-07  0.3096704E+04  0.7818609E-02  0.8216643E-01
       -1   -1    0    0    0  501  0.00000000000E+00  0.00000000000E+00  0.19246822404E+04  0.19246822404E+04  0.50400001928E-02 0.  1.
        1   -1    0    0  501    0  0.00000000000E+00  0.00000000000E+00 -0.12456053743E+04  0.12456053743E+04  0.50400001928E-02 0. -1.
    10030    2    1    2    0    0  0.00000000000E+00  0.00000000000E+00  0.67907686609E+03  0.31702876147E+04  0.30967044046E+04 0.  0.
        2    1    3    3  502    0  0.43511519433E+03 -0.14349175877E+04  0.73482295437E+03  0.16698139088E+04  0.25500000920E-02 0.  1.
       -2    1    3    3    0  502 -0.43511519433E+03  0.14349175877E+04 -0.55746088285E+02  0.15004737059E+04  0.25500000920E-02 0. -1.
</event>
<event>
 5   0  0.5055900E-07  0.3114851E+04  0.7818609E-02  0.8211674E-01
       -2   -1    0    0    0  501  0.00000000000E+00  0.00000000000E+00  0.14926116706E+04  0.14926116706E+04  0.25500000920E-02 0. -1.
        2   -1    0    0  501    0  0.00000000000E+00  0.00000000000E+00 -0.16250537178E+04  0.16250537178E+04  0.25500000920E-02 0.  1.
    10030    2    1    2    0    0  0.00000000000E+00  0.00000000000E+00 -0.13244204716E+03  0.31176653883E+04  0.31148509720E+04 0.  0.
        2    1    3    3  502    0 -0.76339598392E+03  0.12314343825E+04  0.50558324887E+03  0.15345417845E+04  0.25500000920E-02 0.  1.
       -2    1    3    3    0  502  0.76339598392E+03 -0.12314343825E+04 -0.63802529603E+03  0.15831236039E+04  0.25500000920E-02 0. -1.
</event>
<event>
 5   0  0.5154105E-07  0.3100318E+04  0.7818609E-02  0.8215651E-01
       -2   -1    0    0    0  501  0.00000000000E+00  0.00000000000E+00  0.12778021020E+04  0.12778021020E+04  0.25500000920E-02 0. -1.
        2   -1    0    0  501    0  0.00000000000E+00  0.00000000000E+00 -0.18805671049E+04  0.18805671049E+04  0.25500000920E-02 0.  1.
    10030    2    1    2    0    0  0.00000000000E+00  0.00000000000E+00 -0.60276500289E+03  0.31583692070E+04  0.31003177900E+04 0.  0.
        1    1    3    3  502    0  0.84801303171E+03  0.61577272086E+03  0.86223548817E+03  0.13571117061E+04  0.50400001928E-02 0. -1.
       -1    1    3    3    0  502 -0.84801303171E+03 -0.61577272086E+03 -0.14650004911E+04  0.18012575009E+04  0.50400001928E-02 0.  1.
</event>
<event>
 5   0  0.5342534E-07  0.3102412E+04  0.7818609E-02  0.8215076E-01
       -2   -1    0    0    0  501  0.00000000000E+00  0.00000000000E+00  0.14540947300E+04  0.14540947301E+04  0.25500000920E-02 0.  1.
        2   -1    0    0  501    0  0.00000000000E+00  0.00000000000E+00 -0.16548031605E+04  0.16548031605E+04  0.25500000920E-02 0. -1.
    10030    2    1    2    0    0  0.00000000000E+00  0.00000000000E+00 -0.20070843042E+03  0.31088978905E+04  0.31024123226E+04 0.  0.
        3    1    3    3  502    0  0.52907145920E+03 -0.48910077928E+03 -0.14769451360E+04  0.16433207618E+04  0.10100000352E+00 0. -1.
       -3    1    3    3    0  502 -0.52907145920E+03  0.48910077928E+03  0.12762367056E+04  0.14655771287E+04  0.10100000352E+00 0.  1.
</event>
<event>
 5   0  0.5055900E-07  0.3132469E+04  0.7818609E-02  0.8206883E-01
        2   -1    0    0  501    0  0.00000000000E+00  0.00000000000E+00  0.24471346462E+04  0.24471346462E+04  0.25500000920E-02 0. -1.
       -2   -1    0    0    0  501  0.00000000000E+00  0.00000000000E+00 -0.10024339586E+04  0.10024339586E+04  0.25500000920E-02 0.  1.
    10030    2    1    2    0    0  0.00000000000E+00  0.00000000000E+00  0.14447006876E+04  0.34495686048E+04  0.31324692309E+04 0.  0.
        2    1    3    3  502    0 -0.46681510752E+03 -0.22165570403E+03  0.23505488438E+04  0.24066839142E+04  0.25500000920E-02 0. -1.
       -2    1    3    3    0  502  0.46681510752E+03  0.22165570403E+03 -0.90584815620E+03  0.10428846906E+04  0.25500000920E-02 0.  1.
</event>
<event>
 5   0  0.1814075E-07  0.3142970E+04  0.7818609E-02  0.8204043E-01
       -1   -1    0    0    0  501  0.00000000000E+00  0.00000000000E+00  0.17294804856E+04  0.17294804856E+04  0.50400001928E-02 0. -1.
        1   -1    0    0  501    0  0.00000000000E+00  0.00000000000E+00 -0.14279227975E+04  0.14279227975E+04  0.50400001928E-02 0.  1.
    10030    2    1    2    0    0  0.00000000000E+00  0.00000000000E+00  0.30155768809E+03  0.31574032831E+04  0.31429696869E+04 0.  0.
        5    1    3    3  502    0  0.14975334361E+04  0.43742940489E+03  0.34030270931E+03  0.15968027118E+04  0.46999998093E+01 0.  1.
       -5    1    3    3    0  502 -0.14975334361E+04 -0.43742940489E+03 -0.38745021219E+02  0.15606005713E+04  0.46999998093E+01 0. -1.
</event>
<event>
 5   0  0.5248309E-07  0.3097965E+04  0.7818609E-02  0.8216297E-01
       -2   -1    0    0    0  501  0.00000000000E+00  0.00000000000E+00  0.81643022728E+03  0.81643022728E+03  0.25500000920E-02 0.  1.
        2   -1    0    0  501    0  0.00000000000E+00  0.00000000000E+00 -0.29388266941E+04  0.29388266941E+04  0.25500000920E-02 0. -1.
    10030    2    1    2    0    0  0.00000000000E+00  0.00000000000E+00 -0.21223964668E+04  0.37552569213E+04  0.30979651036E+04 0.  0.
        4    1    3    3  502    0 -0.39781795384E+03 -0.12211163852E+02 -0.28757859502E+04  0.29031973204E+04  0.12699999809E+01 0. -1.
       -4    1    3    3    0  502  0.39781795384E+03  0.12211163852E+02  0.75338948342E+03  0.85205960094E+03  0.12699999809E+01 0.  1.
</event>
<event>
 5   0  0.1830902E-07  0.3094504E+04  0.7818609E-02  0.8217248E-01
       -1   -1    0    0    0  501  0.00000000000E+00  0.00000000000E+00  0.11928821440E+04  0.11928821440E+04  0.50400001928E-02 0. -1.
        1   -1    0    0  501    0  0.00000000000E+00  0.00000000000E+00 -0.20068949057E+04  0.20068949057E+04  0.50400001928E-02 0.  1.
    10030    2    1    2    0    0  0.00000000000E+00  0.00000000000E+00 -0.81401276168E+03  0.31997770498E+04  0.30945042240E+04 0.  0.
        3    1    3    3  502    0  0.11861399213E+04  0.89730374667E+03  0.34008798172E+02  0.14876957133E+04  0.10100000352E+00 0. -1.
       -3    1    3    3    0  502 -0.11861399213E+04 -0.89730374667E+03 -0.84802155986E+03  0.17120813365E+04  0.10100000352E+00 0.  1.
</event>
<event>
 5   0  0.1840359E-07  0.3075686E+04  0.7818609E-02  0.8222443E-01
        1   -1    0    0  501    0  0.00000000000E+00  0.00000000000E+00  0.18847686821E+04  0.18847686821E+04  0.50400001928E-02 0. -1.
       -1   -1    0    0    0  501  0.00000000000E+00  0.00000000000E+00 -0.12547749687E+04  0.12547749687E+04  0.50400001928E-02 0.  1.
    10030    2    1    2    0    0  0.00000000000E+00  0.00000000000E+00  0.62999371339E+03  0.31395436507E+04  0.30756856562E+04 0.  0.
        1    1    3    3  502    0 -0.11559451369E+04 -0.78218425745E+03 -0.34411775360E+03  0.14375111827E+04  0.50400001928E-02 0.  1.
       -1    1    3    3    0  502  0.11559451369E+04  0.78218425745E+03  0.97411146699E+03  0.17020324680E+04  0.50400001928E-02 0. -1.
</event>
<event>
 5   0  0.5342534E-07  0.3092139E+04  0.7818609E-02  0.8217899E-01
        2   -1    0    0  501    0  0.00000000000E+00  0.00000000000E+00  0.27173845211E+04  0.27173845211E+04  0.25500000920E-02 0.  1.
       -2   -1    0    0    0  501  0.00000000000E+00  0.00000000000E+00 -0.87964411924E+03  0.87964411925E+03  0.25500000920E-02 0. -1.
    10030    2    1    2    0    0  0.00000000000E+00  0.00000000000E+00  0.18377404018E+04  0.35970286403E+04  0.30921392683E+04 0.  0.
        3    1    3    3  502    0 -0.13812626593E+04  0.18921108090E+03  0.14143254744E+03  0.14013174311E+04  0.10100000352E+00 0.  1.
       -3    1    3    3    0  502  0.13812626593E+04 -0.18921108090E+03  0.16963078544E+04  0.21957112092E+04  0.10100000352E+00 0. -1.
</event>
<event>
 5   0  0.1727000E-07  0.3097937E+04  0.7818609E-02  0.8216304E-01
        3   -1    0    0  501    0  0.00000000000E+00  0.00000000000E+00  0.25457293543E+04  0.25457293563E+04  0.10100000352E+00 0.  1.
       -3   -1    0    0    0  501  0.00000000000E+00  0.00000000000E+00 -0.94248192501E+03  0.94248193042E+03  0.10100000352E+00 0. -1.
    10030    2    1    2    0    0  0.00000000000E+00  0.00000000000E+00  0.16032474292E+04  0.34882112867E+04  0.30979373236E+04 0.  0.
        4    1    3    3  502    0  0.31582214898E+03  0.15120711731E+04  0.67226136101E+03  0.16846482757E+04  0.12699999809E+01 0.  1.
       -4    1    3    3    0  502 -0.31582214898E+03 -0.15120711731E+04  0.93098606823E+03  0.18035630110E+04  0.12699999809E+01 0. -1.
</event>
<event>
 5   0  0.1830902E-07  0.3105333E+04  0.7818609E-02  0.8214276E-01
       -1   -1    0    0    0  501  0.00000000000E+00  0.00000000000E+00  0.13471498745E+04  0.13471498745E+04  0.50400001928E-02 0. -1.
        1   -1    0    0  501    0  0.00000000000E+00  0.00000000000E+00 -0.17895361575E+04  0.17895361575E+04  0.50400001928E-02 0.  1.
    10030    2    1    2    0    0  0.00000000000E+00  0.00000000000E+00 -0.44238628303E+03  0.31366860320E+04  0.31053330965E+04 0.  0.
        3    1    3    3  502    0 -0.13382154289E+04  0.12867977786E+03 -0.10058205748E+04  0.16790038887E+04  0.10100000352E+00 0.  1.
       -3    1    3    3    0  502  0.13382154289E+04 -0.12867977786E+03  0.56343429180E+03  0.14576821433E+04  0.10100000352E+00 0. -1.
</event>
<event>
 5   0  0.1875284E-07  0.3104727E+04  0.7818609E-02  0.8214442E-01
       -1   -1    0    0    0  501  0.00000000000E+00  0.00000000000E+00  0.13747228328E+04  0.13747228328E+04  0.50400001928E-02 0.  1.
        1   -1    0    0  501    0  0.00000000000E+00  0.00000000000E+00 -0.17529584689E+04  0.17529584689E+04  0.50400001928E-02 0. -1.
    10030    2    1    2    0    0  0.00000000000E+00  0.00000000000E+00 -0.37823563614E+03  0.31276813017E+04  0.31047267398E+04 0.  0.
        4    1    3    3  502    0 -0.85802809602E+02 -0.11313620456E+04  0.87819077849E+03  0.14347692695E+04  0.12699999809E+01 0.  1.
       -4    1    3    3    0  502  0.85802809602E+02  0.11313620456E+04 -0.12564264146E+04  0.16929120322E+04  0.12699999809E+01 0. -1.
</event>
<event>
 5   0  0.1814075E-07  0.3108739E+04  0.7818609E-02  0.8213344E-01
        1   -1    0    0  501    0  0.00000000000E+00  0.00000000000E+00  0.19392404228E+04  0.19392404228E+04  0.50400001928E-02 0. -1.
       -1   -1    0    0    0  501  0.00000000000E+00  0.00000000000E+00 -0.12458822315E+04  0.12458822316E+04  0.50400001928E-02 0.  1.
    10030    2    1    2    0    0  0.00000000000E+00  0.00000000000E+00  0.69335819122E+03  0.31851226543E+04  0.31087394136E+04 0.  0.
        5    1    3    3  502    0 -0.31448983123E+03 -0.72090904288E+03  0.17203027514E+04  0.18915806482E+04  0.46999998093E+01 0. -1.
       -5    1    3    3    0  502  0.31448983123E+03  0.72090904288E+03 -0.10269445602E+04  0.12935420062E+04  0.46999998093E+01 0.  1.
</event>
<event>
 5   0  0.1875284E-07  0.3105500E+04  0.7818609E-02  0.8214230E-01
       -1   -1    0    0    0  501  0.00000000000E+00  0.00000000000E+00  0.12902052394E+04  0.12902052394E+04  0.50400001928E-02 0.  1.
        1   -1    0    0  501    0  0.00000000000E+00  0.00000000000E+00 -0.18687196352E+04  0.18687196352E+04  0.50400001928E-02 0. -1.
    10030    2    1    2    0    0  0.00000000000E+00  0.00000000000E+00 -0.57851439580E+03  0.31589248746E+04  0.31054995503E+04 0.  0.
        4    1    3    3  502    0  0.75521990479E+03  0.99722256595E+03  0.64647063339E+03  0.14080965320E+04  0.12699999809E+01 0.  1.
       -4    1    3    3    0  502 -0.75521990479E+03 -0.99722256595E+03 -0.12249850292E+04  0.17508283426E+04  0.12699999809E+01 0. -1.
</event>
<event>
 5   0  0.5154105E-07  0.3074573E+04  0.7818609E-02  0.8222751E-01
       -2   -1    0    0    0  501  0.00000000000E+00  0.00000000000E+00  0.13241049593E+04  0.13241049593E+04  0.25500000920E-02 0. -1.
        2   -1    0    0  501    0  0.00000000000E+00  0.00000000000E+00 -0.17847904549E+04  0.17847904549E+04  0.25500000920E-02 0.  1.
    10030    2    1    2    0    0  0.00000000000E+00  0.00000000000E+00 -0.46068549564E+03  0.31088954142E+04  0.30745730712E+04 0.  0.
        1    1    3    3  502    0  0.40968357426E+03  0.95468330107E+03  0.91543914391E+03  0.13846622919E+04  0.50400001928E-02 0. -1.
       -1    1    3    3    0  502 -0.40968357426E+03 -0.95468330107E+03 -0.13761246396E+04  0.17242331223E+04  0.50400001928E-02 0.  1.
</event>
<event>
 5   0  0.1840359E-07  0.3127498E+04  0.7818609E-02  0.8208232E-01
        1   -1    0    0  501    0  0.00000000000E+00  0.00000000000E+00  0.16866317002E+04  0.16866317002E+04  0.50400001928E-02 0. -1.
       -1   -1    0    0    0  501  0.00000000000E+00  0.00000000000E+00 -0.14498194189E+04  0.14498194190E+04  0.50400001928E-02 0.  1.
    10030    2    1    2    0    0  0.00000000000E+00  0.00000000000E+00  0.23681228121E+03  0.31364511191E+04  0.31274982919E+04 0.  0.
        1    1    3    3  502    0  0.15292282061E+04  0.11909233389E+03  0.42356242256E+03  0.15912658534E+04  0.50400001928E-02 0. -1.
       -1    1    3    3    0  502 -0.15292282061E+04 -0.11909233389E+03 -0.18675014135E+03  0.15451852658E+04  0.50400001928E-02 0.  1.
</event>
<event>
 5   0  0.5342534E-07  0.3092245E+04  0.7818609E-02  0.8217870E-01
        2   -1    0    0  501    0  0.00000000000E+00  0.00000000000E+00  0.11477505416E+04  0.11477505416E+04  0.25500000920E-02 0.  1.
       -2   -1    0    0    0  501  0.00000000000E+00  0.00000000000E+00 -0.20827645074E+04  0.20827645074E+04  0.25500000920E-02 0. -1.
    10030    2    1    2    0    0  0.00000000000E+00  0.00000000000E+00 -0.93501396577E+03  0.32305150489E+04  0.30922445513E+04 0.  0.
        3    1    3    3  502    0 -0.91674011564E+03  0.68468070541E+02 -0.17662329181E+04  0.19911501821E+04  0.10100000352E+00 0. -1.
       -3    1    3    3    0  502  0.91674011564E+03 -0.68468070541E+02  0.83121895234E+03  0.12393648669E+04  0.10100000352E+00 0.  1.
</event>
<event>
 5   0  0.5248309E-07  0.3091033E+04  0.7818609E-02  0.8218203E-01
       -2   -1    0    0    0  501  0.00000000000E+00  0.00000000000E+00  0.15484160199E+04  0.15484160199E+04  0.25500000920E-02 0.  1.
        2   -1    0    0  501    0  0.00000000000E+00  0.00000000000E+00 -0.15426221827E+04  0.15426221827E+04  0.25500000920E-02 0. -1.
    10030    2    1    2    0    0  0.00000000000E+00  0.00000000000E+00  0.57938371810E+01  0.30910382026E+04  0.30910327726E+04 0.  0.
        4    1    3    3  502    0  0.17801198097E+02 -0.58497591674E+03  0.14333209013E+04  0.15482002858E+04  0.12699999809E+01 0.  1.
       -4    1    3    3    0  502 -0.17801198097E+02  0.58497591674E+03 -0.14275270641E+04  0.15428379168E+04  0.12699999809E+01 0. -1.
</event>
<event>
 5   0  0.1875284E-07  0.3104863E+04  0.7818609E-02  0.8214405E-01
        1   -1    0    0  501    0  0.00000000000E+00  0.00000000000E+00  0.20055030221E+04  0.20055030221E+04  0.50400001928E-02 0.  1.
       -1   -1    0    0    0  501  0.00000000000E+00  0.00000000000E+00 -0.12017152282E+04  0.12017152282E+04  0.50400001928E-02 0. -1.
    10030    2    1    2    0    0  0.00000000000E+00  0.00000000000E+00  0.80378779387E+03  0.32072182503E+04  0.31048629740E+04 0.  0.
        4    1    3    3  502    0 -0.14916127549E+04 -0.39389247020E+03  0.58075525447E+03  0.16484350661E+04  0.12699999809E+01 0.  1.
       -4    1    3    3    0  502  0.14916127549E+04  0.39389247020E+03  0.22303253940E+03  0.15587831842E+04  0.12699999809E+01 0. -1.
</event>
<event>
 5   0  0.1840359E-07  0.3093192E+04  0.7818609E-02  0.8217609E-01
       -1   -1    0    0    0  501  0.00000000000E+00  0.00000000000E+00  0.91366687911E+03  0.91366687912E+03  0.50400001928E-02 0. -1.
        1   -1    0    0  501    0  0.00000000000E+00  0.00000000000E+00 -0.26179767914E+04  0.26179767914E+04  0.50400001928E-02 0.  1.
    10030    2    1    2    0    0  0.00000000000E+00  0.00000000000E+00 -0.17043099123E+04  0.35316436706E+04  0.30931916750E+04 0.  0.
        1    1    3    3  502    0 -0.43518737313E+03 -0.38397956163E+03  0.78462286001E+03  0.97594128203E+03  0.50400001928E-02 0. -1.
       -1    1    3    3    0  502  0.43518737313E+03  0.38397956163E+03 -0.24889327723E+04  0.25557023885E+04  0.50400001928E-02 0.  1.
</event>
<event>
 5   0  0.5055900E-07  0.3101974E+04  0.7818609E-02  0.8215196E-01
        2   -1    0    0  501    0  0.00000000000E+00  0.00000000000E+00  0.14448320150E+04  0.14448320150E+04  0.25500000920E-02 0.  1.
       -2   -1    0    0    0  501  0.00000000000E+00  0.00000000000E+00 -0.16649409871E+04  0.16649409871E+04  0.25500000920E-02 0. -1.
    10030    2    1    2    0    0  0.00000000000E+00  0.00000000000E+00 -0.22010897216E+03  0.31097730021E+04  0.31019735919E+04 0.  0.
        2    1    3    3  502    0  0.27516368876E+03  0.14480762570E+04  0.37377698458E+03  0.15206410280E+04  0.25500000920E-02 0.  1.
       -2    1    3    3    0  502 -0.27516368876E+03 -0.14480762570E+04 -0.59388595674E+03  0.15891319742E+04  0.25500000920E-02 0. -1.
</event>
<event>
 5   0  0.5342534E-07  0.3097366E+04  0.7818609E-02  0.8216461E-01
        2   -1    0    0  501    0  0.00000000000E+00  0.00000000000E+00  0.20984711255E+04  0.20984711255E+04  0.25500000920E-02 0.  1.
       -2   -1    0    0    0  501  0.00000000000E+00  0.00000000000E+00 -0.11429366688E+04  0.11429366688E+04  0.25500000920E-02 0. -1.
    10030    2    1    2    0    0  0.00000000000E+00  0.00000000000E+00  0.95553445664E+03  0.32414077943E+04  0.30973663637E+04 0.  0.
        3    1    3    3  502    0  0.27145086022E+03  0.15227925092E+04  0.55772039098E+03  0.16442732863E+04  0.10100000352E+00 0. -1.
       -3    1    3    3    0  502 -0.27145086022E+03 -0.15227925092E+04  0.39781406566E+03  0.15971345080E+04  0.10100000352E+00 0.  1.
</event>
<event>
 5   0  0.1875284E-07  0.3098076E+04  0.7818609E-02  0.8216266E-01
        1   -1    0    0  501    0  0.00000000000E+00  0.00000000000E+00  0.14489705235E+04  0.14489705235E+04  0.50400001928E-02 0. -1.
       -1   -1    0    0    0  501  0.00000000000E+00  0.00000000000E+00 -0.16560159656E+04  0.16560159656E+04  0.50400001928E-02 0.  1.
    10030    2    1    2    0    0  0.00000000000E+00  0.00000000000E+00 -0.20704544216E+03  0.31049864891E+04  0.30980757386E+04 0.  0.
        4    1    3    3  502    0  0.89841075607E+03  0.73438480594E+02  0.11590419453E+04  0.14683034226E+04  0.12699999809E+01 0. -1.
       -4    1    3    3    0  502 -0.89841075607E+03 -0.73438480594E+02 -0.13660873874E+04  0.16366830665E+04  0.12699999809E+01 0.  1.
</event>
<event>
 5   0  0.1845123E-07  0.3077914E+04  0.7818609E-02  0.8221825E-01
        1   -1    0    0  501    0  0.00000000000E+00  0.00000000000E+00  0.20597525410E+04  0.20597525410E+04  0.50400001928E-02 0.  1.
       -1   -1    0    0    0  501  0.00000000000E+00  0.00000000000E+00 -0.11498413056E+04  0.11498413056E+04  0.50400001928E-02 0. -1.
    10030    2    1    2    0    0  0.00000000000E+00  0.00000000000E+00  0.90991123544E+03  0.32095938467E+04  0.30779139371E+04 0.  0.
        2    1    3    3  502    0  0.60796599659E+03 -0.12177923657E+04  0.12038356248E+04  0.18171023940E+04  0.25500000920E-02 0.  1.
       -2    1    3    3    0  502 -0.60796599659E+03  0.12177923657E+04 -0.29392438933E+03  0.13924914526E+04  0.25500000920E-02 0. -1.
</event>
<event>
 5   0  0.1840359E-07  0.3103885E+04  0.7818609E-02  0.8214673E-01
       -1   -1    0    0    0  501  0.00000000000E+00  0.00000000000E+00  0.98707562747E+03  0.98707562749E+03  0.50400001928E-02 0.  1.
        1   -1    0    0  501    0  0.00000000000E+00  0.00000000000E+00 -0.24400613396E+04  0.24400613396E+04  0.50400001928E-02 0. -1.
    10030    2    1    2    0    0  0.00000000000E+00  0.00000000000E+00 -0.14529857121E+04  0.34271369671E+04  0.31038847130E+04 0.  0.
        1    1    3    3  502    0 -0.14771694699E+04 -0.46832708374E+03 -0.63302993190E+03  0.16739434861E+04  0.50400001928E-02 0.  1.
       -1    1    3    3    0  502  0.14771694699E+04  0.46832708374E+03 -0.81995578023E+03  0.17531934810E+04  0.50400001928E-02 0. -1.
</event>
<event>
 5   0  0.5055900E-07  0.3099629E+04  0.7818609E-02  0.8215840E-01
       -2   -1    0    0    0  501  0.00000000000E+00  0.00000000000E+00  0.23294366676E+04  0.23294366676E+04  0.25500000920E-02 0.  1.
        2   -1    0    0  501    0  0.00000000000E+00  0.00000000000E+00 -0.10311183709E+04  0.10311183709E+04  0.25500000920E-02 0. -1.
    10030    2    1    2    0    0  0.00000000000E+00  0.00000000000E+00  0.12983182967E+04  0.33605550385E+04  0.30996289725E+04 0.  0.
        2    1    3    3  502    0 -0.10062705672E+04  0.10400200128E+04  0.12505641943E+04  0.19126246065E+04  0.25500000920E-02 0. -1.
       -2    1    3    3    0  502  0.10062705672E+04 -0.10400200128E+04  0.47754102372E+02  0.14479304319E+04  0.25500000920E-02 0.  1.
</event>
<event>
 5   0  0.1814075E-07  0.3101937E+04  0.7818609E-02  0.8215206E-01
       -1   -1    0    0    0  501  0.00000000000E+00  0.00000000000E+00  0.13057870322E+04  0.13057870322E+04  0.50400001928E-02 0.  1.
        1   -1    0    0  501    0  0.00000000000E+00  0.00000000000E+00 -0.18421868697E+04  0.18421868697E+04  0.50400001928E-02 0. -1.
    10030    2    1    2    0    0  0.00000000000E+00  0.00000000000E+00 -0.53639983753E+03  0.31479739019E+04  0.31019372820E+04 0.  0.
        5    1    3    3  502    0 -0.10020694934E+04  0.19148982934E+03  0.91732840589E+03  0.13719785416E+04  0.46999998093E+01 0.  1.
       -5    1    3    3    0  502  0.10020694934E+04 -0.19148982934E+03 -0.14537282434E+04  0.17759953604E+04  0.46999998093E+01 0. -1.
</event>
<event>
 5   0  0.1830902E-07  0.3095184E+04  0.7818609E-02  0.8217061E-01
        1   -1    0    0  501    0  0.00000000000E+00  0.00000000000E+00  0.19894298861E+04  0.19894298861E+04  0.50400001928E-02 0. -1.
       -1   -1    0    0    0  501  0.00000000000E+00  0.00000000000E+00 -0.12038832634E+04  0.12038832634E+04  0.50400001928E-02 0.  1.
    10030    2    1    2    0    0  0.00000000000E+00  0.00000000000E+00  0.78554662274E+03  0.31933131495E+04  0.30951842230E+04 0.  0.
        3    1    3    3  502    0 -0.10219710072E+04 -0.55795849884E+03  0.14445541189E+04  0.18553918827E+04  0.10100000352E+00 0. -1.
       -3    1    3    3    0  502  0.10219710072E+04  0.55795849884E+03 -0.65900749616E+03  0.13379212668E+04  0.10100000352E+00 0.  1.
</event>
<event>
 5   0  0.5342534E-07  0.3118943E+04  0.7818609E-02  0.8210558E-01
       -2   -1    0    0    0  501  0.00000000000E+00  0.00000000000E+00  0.10557376642E+04  0.10557376642E+04  0.25500000920E-02 0. -1.
        2   -1    0    0  501    0  0.00000000000E+00  0.00000000000E+00 -0.23035566484E+04  0.23035566484E+04  0.25500000920E-02 0.  1.
    10030    2    1    2    0    0  0.00000000000E+00  0.00000000000E+00 -0.12478189842E+04  0.33592943127E+04  0.31189431001E+04 0.  0.
        3    1    3    3  502    0  0.86965215763E+03 -0.32761670051E+03 -0.19727434374E+04  0.21806751839E+04  0.10100000352E+00 0.  1.
       -3    1    3    3    0  502 -0.86965215763E+03  0.32761670051E+03  0.72492445317E+03  0.11786191288E+04  0.10100000352E+00 0. -1.
</event>
<event>
 5   0  0.5342534E-07  0.3102024E+04  0.7818609E-02  0.8215183E-01
       -2   -1    0    0    0  501  0.00000000000E+00  0.00000000000E+00  0.12555689345E+04  0.12555689345E+04  0.25500000920E-02 0. -1.
        2   -1    0    0  501    0  0.00000000000E+00  0.00000000000E+00 -0.19159748444E+04  0.19159748444E+04  0.25500000920E-02 0.  1.
    10030    2    1    2    0    0  0.00000000000E+00  0.00000000000E+00 -0.66040590990E+03  0.31715437789E+04  0.31020241740E+04 0.  0.
        3    1    3    3  502    0  0.92315149730E+03  0.11342468954E+03  0.93880836147E+03  0.13215275241E+04  0.10100000352E+00 0. -1.
       -3    1    3    3    0  502 -0.92315149730E+03 -0.11342468954E+03 -0.15992142714E+04  0.18500162548E+04  0.10100000352E+00 0.  1.
</event>
<event>
 5   0  0.1840359E-07  0.3112597E+04  0.7818609E-02  0.8212289E-01
       -1   -1    0    0    0  501  0.00000000000E+00  0.00000000000E+00  0.90675261860E+03  0.90675261861E+03  0.50400001928E-02 0. -1.
        1   -1    0    0  501    0  0.00000000000E+00  0.00000000000E+00 -0.26711413059E+04  0.26711413059E+04  0.50400001928E-02 0.  1.
    10030    2    1    2    0    0  0.00000000000E+00  0.00000000000E+00 -0.17643886873E+04  0.35778939245E+04  0.31125965840E+04 0.  0.
        1    1    3    3  502    0  0.24752189415E+03 -0.10906085703E+04 -0.21262841045E+04  0.24024525458E+04  0.50400001928E-02 0.  1.
       -1    1    3    3    0  502 -0.24752189415E+03  0.10906085703E+04  0.36189541722E+03  0.11754413787E+04  0.50400001928E-02 0. -1.
</event>
<event>
 5   0  0.5154105E-07  0.3099377E+04  0.7818609E-02  0.8215909E-01
       -2   -1    0    0    0  501  0.00000000000E+00  0.00000000000E+00  0.72804664641E+03  0.72804664641E+03  0.25500000920E-02 0. -1.
        2   -1    0    0  501    0  0.00000000000E+00  0.00000000000E+00 -0.32985991893E+04  0.32985991893E+04  0.25500000920E-02 0.  1.
    10030    2    1    2    0    0  0.00000000000E+00  0.00000000000E+00 -0.25705525429E+04  0.40266458357E+04  0.30993767616E+04 0.  0.
        1    1    3    3  502    0 -0.10947410484E+04  0.10708482062E+04 -0.97684709561E+03  0.18164261868E+04  0.50400001928E-02 0. -1.
       -1    1    3    3    0  502  0.10947410484E+04 -0.10708482062E+04 -0.15937054473E+04  0.22102196489E+04  0.50400001928E-02 0.  1.
</event>
<event>
 5   0  0.1845123E-07  0.3101055E+04  0.7818609E-02  0.8215449E-01
        1   -1    0    0  501    0  0.00000000000E+00  0.00000000000E+00  0.21191032061E+04  0.21191032061E+04  0.50400001928E-02 0.  1.
       -1   -1    0    0    0  501  0.00000000000E+00  0.00000000000E+00 -0.11345058220E+04  0.11345058220E+04  0.50400001928E-02 0. -1.
    10030    2    1    2    0    0  0.00000000000E+00  0.00000000000E+00  0.98459738415E+03  0.32536090282E+04  0.31010546108E+04 0.  0.
        2    1    3    3  502    0  0.14708259601E+04  0.47198955489E+03  0.63318709614E+03  0.16694397394E+04  0.25500000920E-02 0.  1.
       -2    1    3    3    0  502 -0.14708259601E+04 -0.47198955489E+03  0.35141028801E+03  0.15841692887E+04  0.25500000920E-02 0. -1.
</event>
<event>
 5   0  0.1840359E-07  0.3100552E+04  0.7818609E-02  0.8215586E-01
        1   -1    0    0  501    0  0.00000000000E+00  0.00000000000E+00  0.14371356644E+04  0.14371356644E+04  0.50400001928E-02 0. -1.
       -1   -1    0    0    0  501  0.00000000000E+00  0.00000000000E+00 -0.16723237291E+04  0.16723237291E+04  0.50400001928E-02 0.  1.
    10030    2    1    2    0    0  0.00000000000E+00  0.00000000000E+00 -0.23518806471E+03  0.31094593934E+04  0.31005522562E+04 0.  0.
        1    1    3    3  502    0 -0.10520271799E+04 -0.11353763676E+04 -0.30653640304E+02  0.15481538454E+04  0.50400001928E-02 0.  1.
       -1    1    3    3    0  502  0.10520271799E+04  0.11353763676E+04 -0.20453442441E+03  0.15613055480E+04  0.50400001928E-02 0. -1.
</event>
<event>
 5   0  0.5376678E-07  0.3095786E+04  0.7818609E-02  0.8216895E-01
        2   -1    0    0  501    0  0.00000000000E+00  0.00000000000E+00  0.20227880139E+04  0.20227880139E+04  0.25500000920E-02 0. -1.
       -2   -1    0    0    0  501  0.00000000000E+00  0.00000000000E+00 -0.11844902620E+04  0.11844902620E+04  0.25500000920E-02 0.  1.
    10030    2    1    2    0    0  0.00000000000E+00  0.00000000000E+00  0.83829775188E+03  0.32072782758E+04  0.30957859774E+04 0.  0.
        5    1    3    3  502    0 -0.91404088957E+03 -0.11458991607E+04  0.93445007800E+03  0.17383252493E+04  0.46999998093E+01 0. -1.
       -5    1    3    3    0  502  0.91404088957E+03  0.11458991607E+04 -0.96152326116E+02  0.14689530265E+04  0.46999998093E+01 0.  1.
</event>
<event>
 5   0  0.5154105E-07  0.3107003E+04  0.7818609E-02  0.8213819E-01
        2   -1    0    0  501    0  0.00000000000E+00  0.00000000000E+00  0.18269707610E+04  0.18269707610E+04  0.25500000920E-02 0.  1.
       -2   -1    0    0    0  501  0.00000000000E+00  0.00000000000E+00 -0.13209663016E+04  0.13209663016E+04  0.25500000920E-02 0. -1.
    10030    2    1    2    0    0  0.00000000000E+00  0.00000000000E+00  0.50600445940E+03  0.31479370627E+04  0.31070029349E+04 0.  0.
        1    1    3    3  502    0  0.14237117292E+03 -0.12228352091E+04 -0.70698894067E+03  0.14196580088E+04  0.50400001928E-02 0. -1.
       -1    1    3    3    0  502 -0.14237117292E+03  0.12228352091E+04  0.12129934001E+04  0.17282790539E+04  0.50400001928E-02 0.  1.
</event>
<event>
 5   0  0.1845123E-07  0.3150484E+04  0.7818609E-02  0.8202018E-01
        1   -1    0    0  501    0  0.00000000000E+00  0.00000000000E+00  0.25965561376E+04  0.25965561376E+04  0.50400001928E-02 0. -1.
       -1   -1    0    0    0  501  0.00000000000E+00  0.00000000000E+00 -0.95564572701E+03  0.95564572702E+03  0.50400001928E-02 0.  1.
    10030    2    1    2    0    0  0.00000000000E+00  0.00000000000E+00  0.16409104106E+04  0.35522018646E+04  0.31504842662E+04 0.  0.
        2    1    3    3  502    0 -0.10809706642E+03  0.60012132670E+03  0.24580859201E+04  0.25325909605E+04  0.25500000920E-02 0. -1.
       -2    1    3    3    0  502  0.10809706642E+03 -0.60012132670E+03 -0.81717550950E+03  0.10196109041E+04  0.25500000920E-02 0.  1.
</event>
<event>
 5   0  0.1845123E-07  0.3105203E+04  0.7818609E-02  0.8214311E-01
        1   -1    0    0  501    0  0.00000000000E+00  0.00000000000E+00  0.10593454406E+04  0.10593454406E+04  0.50400001928E-02 0. -1.
       -1   -1    0    0    0  501  0.00000000000E+00  0.00000000000E+00 -0.22755290312E+04  0.22755290312E+04  0.50400001928E-02 0.  1.
    10030    2    1    2    0    0  0.00000000000E+00  0.00000000000E+00 -0.12161835906E+04  0.33348744718E+04  0.31052029269E+04 0.  0.
        2    1    3    3  502    0  0.10711139868E+04  0.65901947115E+03 -0.15859173692E+04  0.20240369903E+04  0.25500000920E-02 0.  1.
       -2    1    3    3    0  502 -0.10711139868E+04 -0.65901947115E+03  0.36973377865E+03  0.13108374816E+04  0.25500000920E-02 0. -1.
</event>
<event>
 5   0  0.5055900E-07  0.3097188E+04  0.7818609E-02  0.8216510E-01
        2   -1    0    0  501    0  0.00000000000E+00  0.00000000000E+00  0.17661350951E+04  0.17661350951E+04  0.25500000920E-02 0.  1.
       -2   -1    0    0    0  501  0.00000000000E+00  0.00000000000E+00 -0.13578485082E+04  0.13578485082E+04  0.25500000920E-02 0. -1.
    10030    2    1    2    0    0  0.00000000000E+00  0.00000000000E+00  0.40828658687E+03  0.31239836033E+04  0.30971883405E+04 0.  0.
        2    1    3    3  502    0  0.74908319770E+02 -0.13254086806E+04 -0.60014130349E+03  0.14568764571E+04  0.25500000920E-02 0. -1.
       -2    1    3    3    0  502 -0.74908319770E+02  0.13254086806E+04  0.10084278904E+04  0.16671071462E+04  0.25500000920E-02 0.  1.
</event>
<event>
 5   0  0.1830902E-07  0.3097574E+04  0.7818609E-02  0.8216404E-01
       -1   -1    0    0    0  501  0.00000000000E+00  0.00000000000E+00  0.15135641497E+04  0.15135641497E+04  0.50400001928E-02 0.  1.
        1   -1    0    0  501    0  0.00000000000E+00  0.00000000000E+00 -0.15848291104E+04  0.15848291104E+04  0.50400001928E-02 0. -1.
    10030    2    1    2    0    0  0.00000000000E+00  0.00000000000E+00 -0.71264960734E+02  0.30983932602E+04  0.30975735827E+04 0.  0.
        3    1    3    3  502    0  0.27625090190E+03  0.29715266640E+03 -0.15307273900E+04  0.15835847374E+04  0.10100000352E+00 0. -1.
       -3    1    3    3    0  502 -0.27625090190E+03 -0.29715266640E+03  0.14594624293E+04  0.15148085227E+04  0.10100000352E+00 0.  1.
</event>
<event>
 5   0  0.5376678E-07  0.3102450E+04  0.7818609E-02  0.8215066E-01
       -2   -1    0    0    0  501  0.00000000000E+00  0.00000000000E+00  0.97704853080E+03  0.97704853080E+03  0.25500000920E-02 0.  1.
        2   -1    0    0  501    0  0.00000000000E+00  0.00000000000E+00 -0.24628239222E+04  0.24628239222E+04  0.25500000920E-02 0. -1.
    10030    2    1    2    0    0  0.00000000000E+00  0.00000000000E+00 -0.14857753914E+04  0.34398724530E+04  0.31024496740E+04 0.  0.
        5    1    3    3  502    0  0.20864127124E+02  0.14901451720E+04 -0.26559452858E+03  0.15137801984E+04  0.46999998093E+01 0.  1.
       -5    1    3    3    0  502 -0.20864127124E+02 -0.14901451720E+04 -0.12201808629E+04  0.19260922547E+04  0.46999998093E+01 0. -1.
</event>
<event>
 5   0  0.1830902E-07  0.3098645E+04  0.7818609E-02  0.8216110E-01
       -1   -1    0    0    0  501  0.00000000000E+00  0.00000000000E+00  0.11735104153E+04  0.11735104153E+04  0.50400001928E-02 0.  1.
        1   -1    0    0  501    0  0.00000000000E+00  0.00000000000E+00 -0.20454864499E+04  0.20454864499E+04  0.50400001928E-02 0. -1.
    10030    2    1    2    0    0  0.00000000000E+00  0.00000000000E+00 -0.87197603459E+03  0.32189968653E+04  0.30986446414E+04 0.  0.
        3    1    3    3  502    0  0.10036139602E+03 -0.66265534173E+03  0.10151254011E+04  0.12164144449E+04  0.10100000352E+00 0.  1.
       -3    1    3    3    0  502 -0.10036139602E+03  0.66265534173E+03 -0.18871014356E+04  0.20025824204E+04  0.10100000352E+00 0. -1.
</event>
<event>
 5   0  0.5055900E-07  0.3098767E+04  0.7818609E-02  0.8216076E-01
       -2   -1    0    0    0  501  0.00000000000E+00  0.00000000000E+00  0.13360132683E+04  0.13360132683E+04  0.25500000920E-02 0. -1.
        2   -1    0    0  501    0  0.00000000000E+00  0.00000000000E+00 -0.17968300814E+04  0.17968300814E+04  0.25500000920E-02 0.  1.
    10030    2    1    2    0    0  0.00000000000E+00  0.00000000000E+00 -0.46081681306E+03  0.31328433497E+04  0.30987667415E+04 0.  0.
        2    1    3    3  502    0  0.12368752016E+04 -0.22867195437E+03 -0.11450324361E+04  0.17009557333E+04  0.25500000920E-02 0.  1.
       -2    1    3    3    0  502 -0.12368752016E+04  0.22867195437E+03  0.68421562303E+03  0.14318876164E+04  0.25500000920E-02 0. -1.
</event>
<event>
 5   0  0.5055900E-07  0.3099831E+04  0.7818609E-02  0.8215784E-01
       -2   -1    0    0    0  501  0.00000000000E+00  0.00000000000E+00  0.16244400204E+04  0.16244400204E+04  0.25500000920E-02 0.  1.
        2   -1    0    0  501    0  0.00000000000E+00  0.00000000000E+00 -0.14788103323E+04  0.14788103323E+04  0.25500000920E-02 0. -1.
    10030    2    1    2    0    0  0.00000000000E+00  0.00000000000E+00  0.14562968816E+03  0.31032503527E+04  0.30998314060E+04 0.  0.
        2    1    3    3  502    0 -0.35280777307E+03  0.46138658824E+03 -0.13657417969E+04  0.14841164254E+04  0.25500000920E-02 0. -1.
       -2    1    3    3    0  502  0.35280777307E+03 -0.46138658824E+03  0.15113714850E+04  0.16191339272E+04  0.25500000920E-02 0.  1.
</event>
<event>
 5   0  0.1840359E-07  0.3108921E+04  0.7818609E-02  0.8213294E-01
        1   -1    0    0  501    0  0.00000000000E+00  0.00000000000E+00  0.11740238968E+04  0.11740238968E+04  0.50400001928E-02 0.  1.
       -1   -1    0    0    0  501  0.00000000000E+00  0.00000000000E+00 -0.20581756393E+04  0.20581756393E+04  0.50400001928E-02 0. -1.
    10030    2    1    2    0    0  0.00000000000E+00  0.00000000000E+00 -0.88415174252E+03  0.32321995361E+04  0.31089209603E+04 0.  0.
        1    1    3    3  502    0  0.56550988668E+03 -0.13795505600E+04 -0.89927061422E+03  0.17411630645E+04  0.50400001928E-02 0. -1.
       -1    1    3    3    0  502 -0.56550988668E+03  0.13795505600E+04  0.15118871700E+02  0.14910364716E+04  0.50400001928E-02 0.  1.
</event>
<event>
 5   0  0.5342534E-07  0.3098552E+04  0.7818609E-02  0.8216135E-01
       -2   -1    0    0    0  501  0.00000000000E+00  0.00000000000E+00  0.11566657671E+04  0.11566657671E+04  0.25500000920E-02 0. -1.
        2   -1    0    0  501    0  0.00000000000E+00  0.00000000000E+00 -0.20751507330E+04  0.20751507330E+04  0.25500000920E-02 0.  1.
    10030    2    1    2    0    0  0.00000000000E+00  0.00000000000E+00 -0.91848496591E+03  0.32318165001E+04  0.30985518000E+04 0.  0.
        3    1    3    3  502    0  0.43287306474E+03  0.12953414701E+04  0.30362922106E+03  0.13990994705E+04  0.10100000352E+00 0. -1.
       -3    1    3    3    0  502 -0.43287306474E+03 -0.12953414701E+04 -0.12221141870E+04  0.18327170296E+04  0.10100000352E+00 0.  1.
</event>
<event>
 5   0  0.5055900E-07  0.3103871E+04  0.7818609E-02  0.8214676E-01
        2   -1    0    0  501    0  0.00000000000E+00  0.00000000000E+00  0.15301394635E+04  0.15301394635E+04  0.25500000920E-02 0. -1.
       -2   -1    0    0    0  501  0.00000000000E+00  0.00000000000E+00 -0.15740419566E+04  0.15740419566E+04  0.25500000920E-02 0.  1.
    10030    2    1    2    0    0  0.00000000000E+00  0.00000000000E+00 -0.43902493143E+02  0.31041814201E+04  0.31038709477E+04 0.  0.
        2    1    3    3  502    0  0.14747229365E+04 -0.70389135479E+02 -0.50026820049E+03  0.15588555553E+04  0.25500000920E-02 0.  1.
       -2    1    3    3    0  502 -0.14747229365E+04  0.70389135479E+02  0.45636570735E+03  0.15453258649E+04  0.25500000920E-02 0. -1.
</event>
<event>
 5   0  0.1830902E-07  0.3102067E+04  0.7818609E-02  0.8215171E-01
        1   -1    0    0  501    0  0.00000000000E+00  0.00000000000E+00  0.11657770582E+04  0.11657770582E+04  0.50400001928E-02 0. -1.
       -1   -1    0    0    0  501  0.00000000000E+00  0.00000000000E+00 -0.20636063244E+04  0.20636063244E+04  0.50400001928E-02 0.  1.
    10030    2    1    2    0    0  0.00000000000E+00  0.00000000000E+00 -0.89782926622E+03  0.32293833826E+04  0.31020669949E+04 0.  0.
        3    1    3    3  502    0  0.10513999220E+04  0.86000778834E+03 -0.12284112477E+04  0.18314063983E+04  0.10100000352E+00 0.  1.
       -3    1    3    3    0  502 -0.10513999220E+04 -0.86000778834E+03  0.33058198148E+03  0.13979769843E+04  0.10100000352E+00 0. -1.
</event>
<event>
 5   0  0.1830902E-07  0.3095033E+04  0.7818609E-02  0.8217102E-01
       -1   -1    0    0    0  501  0.00000000000E+00  0.00000000000E+00  0.10107881275E+04  0.10107881275E+04  0.50400001928E-02 0.  1.
        1   -1    0    0  501    0  0.00000000000E+00  0.00000000000E+00 -0.23692481594E+04  0.23692481594E+04  0.50400001928E-02 0. -1.
    10030    2    1    2    0    0  0.00000000000E+00  0.00000000000E+00 -0.13584600320E+04  0.33800362869E+04  0.30950333831E+04 0.  0.
        3    1    3    3  502    0  0.10964743949E+04 -0.67025711868E+03 -0.16207730917E+04  0.20684308374E+04  0.10100000352E+00 0. -1.
       -3    1    3    3    0  502 -0.10964743949E+04  0.67025711868E+03  0.26231305978E+03  0.13116054496E+04  0.10100000352E+00 0.  1.
</event>
<event>
 5   0  0.1875284E-07  0.3097900E+04  0.7818609E-02  0.8216314E-01
       -1   -1    0    0    0  501  0.00000000000E+00  0.00000000000E+00  0.15001602924E+04  0.15001602924E+04  0.50400001928E-02 0. -1.
        1   -1    0    0  501    0  0.00000000000E+00  0.00000000000E+00 -0.15993270026E+04  0.15993270026E+04  0.50400001928E-02 0.  1.
    10030    2    1    2    0    0  0.00000000000E+00  0.00000000000E+00 -0.99166710227E+02  0.30994872951E+04  0.30979004916E+04 0.  0.
        4    1    3    3  502    0 -0.89554515869E+03 -0.11673866115E+04 -0.53403444947E+03  0.15652434437E+04  0.12699999809E+01 0.  1.
       -4    1    3    3    0  502  0.89554515869E+03  0.11673866115E+04  0.43486773924E+03  0.15342438514E+04  0.12699999809E+01 0. -1.
</event>
<event>
 5   0  0.5342534E-07  0.3097160E+04  0.7818609E-02  0.8216518E-01
       -2   -1    0    0    0  501  0.00000000000E+00  0.00000000000E+00  0.99308245236E+03  0.99308245236E+03  0.25500000920E-02 0.  1.
        2   -1    0    0  501    0  0.00000000000E+00  0.00000000000E+00 -0.24148039625E+04  0.24148039625E+04  0.25500000920E-02 0. -1.
    10030    2    1    2    0    0  0.00000000000E+00  0.00000000000E+00 -0.14217215101E+04  0.34078864148E+04  0.30971596284E+04 0.  0.
        3    1    3    3  502    0 -0.66671917041E+03 -0.97849577276E+03  0.38733497259E+03  0.12457916442E+04  0.10100000352E+00 0.  1.
       -3    1    3    3    0  502  0.66671917041E+03  0.97849577276E+03 -0.18090564827E+04  0.21620947706E+04  0.10100000352E+00 0. -1.
</event>
<event>
 5   0  0.5055900E-07  0.3131651E+04  0.7818609E-02  0.8207105E-01
       -2   -1    0    0    0  501  0.00000000000E+00  0.00000000000E+00  0.19302012878E+04  0.19302012878E+04  0.25500000920E-02 0. -1.
        2   -1    0    0  501    0  0.00000000000E+00  0.00000000000E+00 -0.12702352114E+04  0.12702352114E+04  0.25500000920E-02 0.  1.
    10030    2    1    2    0    0  0.00000000000E+00  0.00000000000E+00  0.65996607633E+03  0.32004364992E+04  0.31316510923E+04 0.  0.
        2    1    3    3  502    0  0.13382156485E+04  0.19565696916E+03 -0.47646738308E+03  0.14339190837E+04  0.25500000920E-02 0.  1.
       -2    1    3    3    0  502 -0.13382156485E+04 -0.19565696916E+03  0.11364334594E+04  0.17665174155E+04  0.25500000920E-02 0. -1.
</event>
<event>
 5   0  0.5248309E-07  0.3097333E+04  0.7818609E-02  0.8216470E-01
       -2   -1    0    0    0  501  0.00000000000E+00  0.00000000000E+00  0.14229009014E+04  0.14229009014E+04  0.25500000920E-02 0. -1.
        2   -1    0    0  501    0  0.00000000000E+00  0.00000000000E+00 -0.16855483112E+04  0.16855483112E+04  0.25500000920E-02 0.  1.
    10030    2    1    2    0    0  0.00000000000E+00  0.00000000000E+00 -0.26264740989E+03  0.31084492126E+04  0.30973331828E+04 0.  0.
        4    1    3    3  502    0 -0.17490890228E+02 -0.11113609596E+04 -0.12135897556E+04  0.16456703259E+04  0.12699999809E+01 0.  1.
       -4    1    3    3    0  502  0.17490890228E+02  0.11113609596E+04  0.95094234569E+03  0.14627788867E+04  0.12699999809E+01 0. -1.
</event>
<event>
 5   0  0.1845123E-07  0.3105748E+04  0.7818609E-02  0.8214162E-01
        1   -1    0    0  501    0  0.00000000000E+00  0.00000000000E+00  0.12578097369E+04  0.12578097370E+04  0.50400001928E-02 0. -1.
       -1   -1    0    0    0  501  0.00000000000E+00  0.00000000000E+00 -0.19171560407E+04  0.19171560407E+04  0.50400001928E-02 0.  1.
    10030    2    1    2    0    0  0.00000000000E+00  0.00000000000E+00 -0.65934630378E+03  0.31749657777E+04  0.31057479198E+04 0.  0.
        2    1    3    3  502    0 -0.56251262697E+03 -0.68826499564E+03 -0.16313493989E+04  0.18578024709E+04  0.25500000920E-02 0.  1.
       -2    1    3    3    0  502  0.56251262697E+03  0.68826499564E+03  0.97200309512E+03  0.13171633068E+04  0.25500000920E-02 0. -1.
</event>
<event>
 5   0  0.1727000E-07  0.3089417E+04  0.7818609E-02  0.8218648E-01
       -3   -1    0    0    0  501  0.00000000000E+00  0.00000000000E+00  0.14464382300E+04  0.14464382336E+04  0.10100000352E+00 0.  1.
        3   -1    0    0  501    0  0.00000000000E+00  0.00000000000E+00 -0.16496546655E+04  0.16496546686E+04  0.10100000352E+00 0. -1.
    10030    2    1    2    0    0  0.00000000000E+00  0.00000000000E+00 -0.20321643546E+03  0.30960929021E+04  0.30894165046E+04 0.  0.
        1    1    3    3  502    0  0.12561191491E+04 -0.87530954694E+03 -0.30728688758E+03  0.15615464614E+04  0.50400001928E-02 0.  1.
       -1    1    3    3    0  502 -0.12561191491E+04  0.87530954694E+03  0.10407045212E+03  0.15345464407E+04  0.50400001928E-02 0. -1.
</event>
<event>
 5   0  0.5154105E-07  0.3092479E+04  0.7818609E-02  0.8217805E-01
        2   -1    0    0  501    0  0.00000000000E+00  0.00000000000E+00  0.18802603189E+04  0.18802603189E+04  0.25500000920E-02 0.  1.
       -2   -1    0    0    0  501  0.00000000000E+00  0.00000000000E+00 -0.12715559773E+04  0.12715559773E+04  0.25500000920E-02 0. -1.
    10030    2    1    2    0    0  0.00000000000E+00  0.00000000000E+00  0.60870434158E+03  0.31518162961E+04  0.30924787775E+04 0.  0.
        1    1    3    3  502    0 -0.14304683900E+04 -0.27088164094E+03 -0.22644755732E+03  0.14733957969E+04  0.50400001928E-02 0. -1.
       -1    1    3    3    0  502  0.14304683900E+04  0.27088164094E+03  0.83515189890E+03  0.16784204993E+04  0.50400001928E-02 0.  1.
</event>
<event>
 5   0  0.5055900E-07  0.3105794E+04  0.7818609E-02  0.8214150E-01
        2   -1    0    0  501    0  0.00000000000E+00  0.00000000000E+00  0.17904938339E+04  0.17904938339E+04  0.25500000920E-02 0.  1.
       -2   -1    0    0    0  501  0.00000000000E+00  0.00000000000E+00 -0.13468288462E+04  0.13468288463E+04  0.25500000920E-02 0. -1.
    10030    2    1    2    0    0  0.00000000000E+00  0.00000000000E+00  0.44366498769E+03  0.31373226802E+04  0.31057937759E+04 0.  0.
        2    1    3    3  502    0  0.94432502183E+03  0.70137473568E+03 -0.80227021932E+03  0.14238376914E+04  0.25500000920E-02 0. -1.
       -2    1    3    3    0  502 -0.94432502183E+03 -0.70137473568E+03  0.12459352070E+04  0.17134849888E+04  0.25500000920E-02 0.  1.
</event>
<event>
 5   0  0.1840359E-07  0.3102225E+04  0.7818609E-02  0.8215127E-01
        1   -1    0    0  501    0  0.00000000000E+00  0.00000000000E+00  0.25119880481E+04  0.25119880482E+04  0.50400001928E-02 0. -1.
       -1   -1    0    0    0  501  0.00000000000E+00  0.00000000000E+00 -0.95778735082E+03  0.95778735083E+03  0.50400001928E-02 0.  1.
    10030    2    1    2    0    0  0.00000000000E+00  0.00000000000E+00  0.15542006973E+04  0.34697753990E+04  0.31022252516E+04 0.  0.
        1    1    3    3  502    0 -0.13163207169E+04 -0.42207235006E+03 -0.99032639532E+01  0.13823687544E+04  0.50400001928E-02 0.  1.
       -1    1    3    3    0  502  0.13163207169E+04  0.42207235006E+03  0.15641039613E+04  0.20874066446E+04  0.50400001928E-02 0. -1.
</event>
<event>
 5   0  0.1830902E-07  0.3097913E+04  0.7818609E-02  0.8216311E-01
        1   -1    0    0  501    0  0.00000000000E+00  0.00000000000E+00  0.18945140784E+04  0.18945140785E+04  0.50400001928E-02 0.  1.
       -1   -1    0    0    0  501  0.00000000000E+00  0.00000000000E+00 -0.12664284620E+04  0.12664284620E+04  0.50400001928E-02 0. -1.
    10030    2    1    2    0    0  0.00000000000E+00  0.00000000000E+00  0.62808561645E+03  0.31609425405E+04  0.30979132013E+04 0.  0.
        3    1    3    3  502    0 -0.78299049783E+03  0.12518280291E+04  0.79166817143E+03  0.16753763869E+04  0.10100000352E+00 0.  1.
       -3    1    3    3    0  502  0.78299049783E+03 -0.12518280291E+04 -0.16358255498E+03  0.14855661535E+04  0.10100000352E+00 0. -1.
</event>
<event>
 5   0  0.1875284E-07  0.3097244E+04  0.7818609E-02  0.8216495E-01
       -1   -1    0    0    0  501  0.00000000000E+00  0.00000000000E+00  0.86862359631E+03  0.86862359633E+03  0.50400001928E-02 0. -1.
        1   -1    0    0  501    0  0.00000000000E+00  0.00000000000E+00 -0.27609541580E+04  0.27609541581E+04  0.50400001928E-02 0.  1.
    10030    2    1    2    0    0  0.00000000000E+00  0.00000000000E+00 -0.18923305617E+04  0.36295777544E+04  0.30972438910E+04 0.  0.
        4    1    3    3  502    0 -0.79545661522E+03  0.32202563352E+03 -0.24568262785E+04  0.26023928818E+04  0.12699999809E+01 0.  1.
       -4    1    3    3    0  502  0.79545661522E+03 -0.32202563352E+03  0.56449571679E+03  0.10271848726E+04  0.12699999809E+01 0. -1.
</event>
<event>
 5   0  0.1840359E-07  0.3057066E+04  0.7818609E-02  0.8227621E-01
        1   -1    0    0  501    0  0.00000000000E+00  0.00000000000E+00  0.16087968742E+04  0.16087968742E+04  0.50400001928E-02 0.  1.
       -1   -1    0    0    0  501  0.00000000000E+00  0.00000000000E+00 -0.14522732195E+04  0.14522732195E+04  0.50400001928E-02 0. -1.
    10030    2    1    2    0    0  0.00000000000E+00  0.00000000000E+00  0.15652365465E+03  0.30610700937E+04  0.30570656624E+04 0.  0.
        1    1    3    3  502    0  0.41129364409E+03 -0.14926663502E+03  0.15447517424E+04  0.16055220135E+04  0.50400001928E-02 0.  1.
       -1    1    3    3    0  502 -0.41129364409E+03  0.14926663502E+03 -0.13882280878E+04  0.14555480802E+04  0.50400001928E-02 0. -1.
</event>
<event>
 5   0  0.5342534E-07  0.3095587E+04  0.7818609E-02  0.8216950E-01
       -2   -1    0    0    0  501  0.00000000000E+00  0.00000000000E+00  0.30182787137E+04  0.30182787137E+04  0.25500000920E-02 0. -1.
        2   -1    0    0  501    0  0.00000000000E+00  0.00000000000E+00 -0.79371889703E+03  0.79371889704E+03  0.25500000920E-02 0.  1.
    10030    2    1    2    0    0  0.00000000000E+00  0.00000000000E+00  0.22245598166E+04  0.38119976107E+04  0.30955870859E+04 0.  0.
        3    1    3    3  502    0  0.46435986735E+03  0.13889481022E+04  0.49550953256E+03  0.15460713515E+04  0.10100000352E+00 0.  1.
       -3    1    3    3    0  502 -0.46435986735E+03 -0.13889481022E+04  0.17290502841E+04  0.22659262592E+04  0.10100000352E+00 0. -1.
</event>
<event>
 5   0  0.1845123E-07  0.3098606E+04  0.7818609E-02  0.8216120E-01
        1   -1    0    0  501    0  0.00000000000E+00  0.00000000000E+00  0.16732373187E+04  0.16732373187E+04  0.50400001928E-02 0. -1.
       -1   -1    0    0    0  501  0.00000000000E+00  0.00000000000E+00 -0.14345487091E+04  0.14345487091E+04  0.50400001928E-02 0.  1.
    10030    2    1    2    0    0  0.00000000000E+00  0.00000000000E+00  0.23868860962E+03  0.31077860278E+04  0.30986064194E+04 0.  0.
        2    1    3    3  502    0 -0.11945306435E+04  0.15799190727E+03  0.10961265570E+04  0.16289132359E+04  0.25500000920E-02 0. -1.
       -2    1    3    3    0  502  0.11945306435E+04 -0.15799190727E+03 -0.85743794736E+03  0.14788727919E+04  0.25500000920E-02 0.  1.
</event>
<event>
 5   0  0.5154105E-07  0.3096079E+04  0.7818609E-02  0.8216815E-01
       -2   -1    0    0    0  501  0.00000000000E+00  0.00000000000E+00  0.16147084832E+04  0.16147084832E+04  0.25500000920E-02 0.  1.
        2   -1    0    0  501    0  0.00000000000E+00  0.00000000000E+00 -0.14841233750E+04  0.14841233750E+04  0.25500000920E-02 0. -1.
    10030    2    1    2    0    0  0.00000000000E+00  0.00000000000E+00  0.13058510821E+03  0.30988318583E+04  0.30960792004E+04 0.  0.
        1    1    3    3  502    0 -0.12662900683E+04  0.75493154853E+03  0.53795644609E+03  0.15693340365E+04  0.50400001928E-02 0. -1.
       -1    1    3    3    0  502  0.12662900683E+04 -0.75493154853E+03 -0.40737133788E+03  0.15294978218E+04  0.50400001928E-02 0.  1.
</event>
<event>
 5   0  0.1845123E-07  0.3112598E+04  0.7818609E-02  0.8212289E-01
       -1   -1    0    0    0  501  0.00000000000E+00  0.00000000000E+00  0.12121466374E+04  0.12121466374E+04  0.50400001928E-02 0. -1.
        1   -1    0    0  501    0  0.00000000000E+00  0.00000000000E+00 -0.19981625462E+04  0.19981625462E+04  0.50400001928E-02 0.  1.
    10030    2    1    2    0    0  0.00000000000E+00  0.00000000000E+00 -0.78601590882E+03  0.32103091837E+04  0.31125976364E+04 0.  0.
        2    1    3    3  502    0 -0.25562840375E+03  0.36209600403E+03 -0.19316871421E+04  0.19818866294E+04  0.25500000920E-02 0.  1.
       -2    1    3    3    0  502  0.25562840375E+03 -0.36209600403E+03  0.11456712333E+04  0.12284225542E+04  0.25500000920E-02 0. -1.
</event>
<event>
 5   0  0.1830902E-07  0.3100054E+04  0.7818609E-02  0.8215723E-01
       -1   -1    0    0    0  501  0.00000000000E+00  0.00000000000E+00  0.82119211589E+03  0.82119211591E+03  0.50400001928E-02 0.  1.
        1   -1    0    0  501    0  0.00000000000E+00  0.00000000000E+00 -0.29257267442E+04  0.29257267442E+04  0.50400001928E-02 0. -1.
    10030    2    1    2    0    0  0.00000000000E+00  0.00000000000E+00 -0.21045346283E+04  0.37469188601E+04  0.31000540225E+04 0.  0.
        3    1    3    3  502    0 -0.10874472650E+04  0.98293706389E+03 -0.16612663701E+04  0.22155163706E+04  0.10100000352E+00 0.  1.
       -3    1    3    3    0  502  0.10874472650E+04 -0.98293706389E+03 -0.44326825813E+03  0.15314024894E+04  0.10100000352E+00 0. -1.
</event>
<event>
 5   0  0.5248309E-07  0.3101279E+04  0.7818609E-02  0.8215387E-01
       -2   -1    0    0    0  501  0.00000000000E+00  0.00000000000E+00  0.92248218110E+03  0.92248218111E+03  0.25500000920E-02 0. -1.
        2   -1    0    0  501    0  0.00000000000E+00  0.00000000000E+00 -0.26065353335E+04  0.26065353335E+04  0.25500000920E-02 0.  1.
    10030    2    1    2    0    0  0.00000000000E+00  0.00000000000E+00 -0.16840531524E+04  0.35290175146E+04  0.31012787038E+04 0.  0.
        4    1    3    3  502    0 -0.58893403007E+03  0.11110146007E+04 -0.18745213646E+04  0.22572170242E+04  0.12699999809E+01 0.  1.
       -4    1    3    3    0  502  0.58893403007E+03 -0.11110146007E+04  0.19046821218E+03  0.12718004905E+04  0.12699999809E+01 0. -1.
</event>
<event>
 5   0  0.1875284E-07  0.3100251E+04  0.7818609E-02  0.8215669E-01
       -1   -1    0    0    0  501  0.00000000000E+00  0.00000000000E+00  0.18219422033E+04  0.18219422033E+04  0.50400001928E-02 0. -1.
        1   -1    0    0  501    0  0.00000000000E+00  0.00000000000E+00 -0.13188616333E+04  0.13188616333E+04  0.50400001928E-02 0.  1.
    10030    2    1    2    0    0  0.00000000000E+00  0.00000000000E+00  0.50308056998E+03  0.31408038366E+04  0.31002513898E+04 0.  0.
        4    1    3    3  502    0  0.85587079741E+03 -0.15795361873E+03 -0.10479792162E+04  0.13622504241E+04  0.12699999809E+01 0.  1.
       -4    1    3    3    0  502 -0.85587079741E+03  0.15795361873E+03  0.15510597862E+04  0.17785534124E+04  0.12699999809E+01 0. -1.
</event>
<event>
 5   0  0.5055900E-07  0.3118822E+04  0.7818609E-02  0.8210591E-01
        2   -1    0    0  501    0  0.00000000000E+00  0.00000000000E+00  0.25855516000E+04  0.25855516000E+04  0.25500000920E-02 0.  1.
       -2   -1    0    0    0  501  0.00000000000E+00  0.00000000000E+00 -0.94051974435E+03  0.94051974436E+03  0.25500000920E-02 0. -1.
    10030    2    1    2    0    0  0.00000000000E+00  0.00000000000E+00  0.16450318557E+04  0.35260713444E+04  0.31188217839E+04 0.  0.
        2    1    3    3  502    0  0.12688775826E+04 -0.21028208357E+03  0.18194097563E+04  0.22281204491E+04  0.25500000920E-02 0.  1.
       -2    1    3    3    0  502 -0.12688775826E+04  0.21028208357E+03 -0.17437790068E+03  0.12979508953E+04  0.25500000920E-02 0. -1.
</event>
<event>
 5   0  0.1814075E-07  0.3104932E+04  0.7818609E-02  0.8214386E-01
       -1   -1    0    0    0  501  0.00000000000E+00  0.00000000000E+00  0.15271627028E+04  0.15271627028E+04  0.50400001928E-02 0. -1.
        1   -1    0    0  501    0  0.00000000000E+00  0.00000000000E+00 -0.15781884421E+04  0.15781884421E+04  0.50400001928E-02 0.  1.
    10030    2    1    2    0    0  0.00000000000E+00  0.00000000000E+00 -0.51025739292E+02  0.31053511448E+04  0.31049319005E+04 0.  0.
        5    1    3    3  502    0  0.13802950515E+04  0.55231036004E+03 -0.47263841299E+03  0.15600225391E+04  0.46999998093E+01 0.  1.
       -5    1    3    3    0  502 -0.13802950515E+04 -0.55231036004E+03  0.42161267370E+03  0.15453286057E+04  0.46999998093E+01 0. -1.
</event>
<event>
 5   0  0.5342534E-07  0.3107795E+04  0.7818609E-02  0.8213602E-01
        2   -1    0    0  501    0  0.00000000000E+00  0.00000000000E+00  0.91450171721E+03  0.91450171722E+03  0.25500000920E-02 0.  1.
       -2   -1    0    0    0  501  0.00000000000E+00  0.00000000000E+00 -0.26403413893E+04  0.26403413893E+04  0.25500000920E-02 0. -1.
    10030    2    1    2    0    0  0.00000000000E+00  0.00000000000E+00 -0.17258396721E+04  0.35548431066E+04  0.31077945457E+04 0.  0.
        3    1    3    3  502    0 -0.14891137053E+04 -0.31696944965E+03 -0.12185579535E+04  0.19500801921E+04  0.10100000352E+00 0. -1.
       -3    1    3    3    0  502  0.14891137053E+04  0.31696944965E+03 -0.50728171867E+03  0.16047629145E+04  0.10100000352E+00 0.  1.
</event>
<event>
 5   0  0.1845123E-07  0.3109087E+04  0.7818609E-02  0.8213248E-01
       -1   -1    0    0    0  501  0.00000000000E+00  0.00000000000E+00  0.25587413048E+04  0.25587413048E+04  0.50400001928E-02 0.  1.
        1   -1    0    0  501    0  0.00000000000E+00  0.00000000000E+00 -0.94445102788E+03  0.94445102789E+03  0.50400001928E-02 0. -1.
    10030    2    1    2    0    0  0.00000000000E+00  0.00000000000E+00  0.16142902769E+04  0.35031923327E+04  0.31090872329E+04 0.  0.
        2    1    3    3  502    0  0.36461731953E+03  0.19323168341E+03  0.24959016599E+04  0.25297844511E+04  0.25500000920E-02 0.  1.
       -2    1    3    3    0  502 -0.36461731953E+03 -0.19323168341E+03 -0.88161138302E+03  0.97340788155E+03  0.25500000920E-02 0. -1.
</event>
<event>
 5   0  0.5055900E-07  0.3099645E+04  0.7818609E-02  0.8215835E-01
       -2   -1    0    0    0  501  0.00000000000E+00  0.00000000000E+00  0.10473205061E+04  0.10473205061E+04  0.25500000920E-02 0. -1.
        2   -1    0    0  501    0  0.00000000000E+00  0.00000000000E+00 -0.22934239162E+04  0.22934239162E+04  0.25500000920E-02 0.  1.
    10030    2    1    2    0    0  0.00000000000E+00  0.00000000000E+00 -0.12461034101E+04  0.33407444223E+04  0.30996450742E+04 0.  0.
        2    1    3    3  502    0 -0.11457007870E+04  0.38047351324E+03  0.42442879420E+03  0.12796601850E+04  0.25500000920E-02 0. -1.
       -2    1    3    3    0  502  0.11457007870E+04 -0.38047351324E+03 -0.16705322043E+04  0.20610842373E+04  0.25500000920E-02 0.  1.
</event>
<event>
 5   0  0.5154105E-07  0.3095497E+04  0.7818609E-02  0.8216975E-01
        2   -1    0    0  501    0  0.00000000000E+00  0.00000000000E+00  0.22338879125E+04  0.22338879125E+04  0.25500000920E-02 0. -1.
       -2   -1    0    0    0  501  0.00000000000E+00  0.00000000000E+00 -0.10723567197E+04  0.10723567197E+04  0.25500000920E-02 0.  1.
    10030    2    1    2    0    0  0.00000000000E+00  0.00000000000E+00  0.11615311928E+04  0.33062446322E+04  0.30954965444E+04 0.  0.
        1    1    3    3  502    0 -0.45663732014E+03  0.11558760494E+04 -0.40451204863E+03  0.13069801380E+04  0.50400001928E-02 0.  1.
       -1    1    3    3    0  502  0.45663732014E+03 -0.11558760494E+04  0.15660432414E+04  0.19992644942E+04  0.50400001928E-02 0. -1.
</event>
<event>
 5   0  0.1830902E-07  0.3098495E+04  0.7818609E-02  0.8216151E-01
       -1   -1    0    0    0  501  0.00000000000E+00  0.00000000000E+00  0.12324681506E+04  0.12324681506E+04  0.50400001928E-02 0. -1.
        1   -1    0    0  501    0  0.00000000000E+00  0.00000000000E+00 -0.19474484867E+04  0.19474484867E+04  0.50400001928E-02 0.  1.
    10030    2    1    2    0    0  0.00000000000E+00  0.00000000000E+00 -0.71498033610E+03  0.31799166374E+04  0.30984952702E+04 0.  0.
        3    1    3    3  502    0 -0.14614084544E+03 -0.11588283737E+04  0.68706085260E+03  0.13550988790E+04  0.10100000352E+00 0. -1.
       -3    1    3    3    0  502  0.14614084544E+03  0.11588283737E+04 -0.14020411887E+04  0.18248177584E+04  0.10100000352E+00 0.  1.
</event>
<event>
 5   0  0.1875284E-07  0.3099106E+04  0.7818609E-02  0.8215983E-01
        1   -1    0    0  501    0  0.00000000000E+00  0.00000000000E+00  0.15523350020E+04  0.15523350020E+04  0.50400001928E-02 0. -1.
       -1   -1    0    0    0  501  0.00000000000E+00  0.00000000000E+00 -0.15467763227E+04  0.15467763227E+04  0.50400001928E-02 0.  1.
    10030    2    1    2    0    0  0.00000000000E+00  0.00000000000E+00  0.55586792953E+01  0.30991113247E+04  0.30991063395E+04 0.  0.
        4    1    3    3  502    0 -0.94100715501E+02 -0.81359160335E+03 -0.13126417861E+04  0.15471962749E+04  0.12699999809E+01 0.  1.
       -4    1    3    3    0  502  0.94100715501E+02  0.81359160335E+03  0.13182004654E+04  0.15519150497E+04  0.12699999809E+01 0. -1.
</event>
<event>
 5   0  0.5055900E-07  0.3109690E+04  0.7818609E-02  0.8213084E-01
       -2   -1    0    0    0  501  0.00000000000E+00  0.00000000000E+00  0.18784783977E+04  0.18784783977E+04  0.25500000920E-02 0. -1.
        2   -1    0    0  501    0  0.00000000000E+00  0.00000000000E+00 -0.12869688864E+04  0.12869688864E+04  0.25500000920E-02 0.  1.
    10030    2    1    2    0    0  0.00000000000E+00  0.00000000000E+00  0.59150951129E+03  0.31654472841E+04  0.31096901786E+04 0.  0.
        2    1    3    3  502    0 -0.25215591633E+03 -0.42132474094E+03 -0.12059754712E+04  0.13021036750E+04  0.25500000920E-02 0.  1.
       -2    1    3    3    0  502  0.25215591633E+03  0.42132474094E+03  0.17974849824E+04  0.18633436091E+04  0.25500000920E-02 0. -1.
</event>
<event>
 5   0  0.5248309E-07  0.3098213E+04  0.7818609E-02  0.8216228E-01
       -2   -1    0    0    0  501  0.00000000000E+00  0.00000000000E+00  0.20363524901E+04  0.20363524901E+04  0.25500000920E-02 0.  1.
        2   -1    0    0  501    0  0.00000000000E+00  0.00000000000E+00 -0.11784458839E+04  0.11784458839E+04  0.25500000920E-02 0. -1.
    10030    2    1    2    0    0  0.00000000000E+00  0.00000000000E+00  0.85790660618E+03  0.32147983740E+04  0.30982131689E+04 0.  0.
        4    1    3    3  502    0 -0.99726605048E+03  0.11661921553E+04  0.64952196596E+03  0.16662605185E+04  0.12699999809E+01 0. -1.
       -4    1    3    3    0  502  0.99726605048E+03 -0.11661921553E+04  0.20838464021E+03  0.15485378554E+04  0.12699999809E+01 0.  1.
</event>
<event>
 5   0  0.5342534E-07  0.3097130E+04  0.7818609E-02  0.8216526E-01
       -2   -1    0    0    0  501  0.00000000000E+00  0.00000000000E+00  0.83693062260E+03  0.83693062261E+03  0.25500000920E-02 0.  1.
        2   -1    0    0  501    0  0.00000000000E+00  0.00000000000E+00 -0.28652963511E+04  0.28652963511E+04  0.25500000920E-02 0. -1.
    10030    2    1    2    0    0  0.00000000000E+00  0.00000000000E+00 -0.20283657285E+04  0.37022269737E+04  0.30971304519E+04 0.  0.
        3    1    3    3  502    0  0.21684610650E+03  0.62856119903E+03 -0.26859724716E+04  0.27670488871E+04  0.10100000352E+00 0. -1.
       -3    1    3    3    0  502 -0.21684610650E+03 -0.62856119903E+03  0.65760674316E+03  0.93517808662E+03  0.10100000352E+00 0.  1.
</event>
<event>
 5   0  0.5376678E-07  0.3092454E+04  0.7818609E-02  0.8217812E-01
       -2   -1    0    0    0  501  0.00000000000E+00  0.00000000000E+00  0.17715222071E+04  0.17715222071E+04  0.25500000920E-02 0.  1.
        2   -1    0    0  501    0  0.00000000000E+00  0.00000000000E+00 -0.13495835559E+04  0.13495835559E+04  0.25500000920E-02 0. -1.
    10030    2    1    2    0    0  0.00000000000E+00  0.00000000000E+00  0.42193865125E+03  0.31211057630E+04  0.30924535499E+04 0.  0.
        5    1    3    3  502    0  0.27403167338E+03 -0.12753309584E+04  0.10488617223E+04  0.16738265783E+04  0.46999998093E+01 0.  1.
       -5    1    3    3    0  502 -0.27403167338E+03  0.12753309584E+04 -0.62692307106E+03  0.14472791847E+04  0.46999998093E+01 0. -1.
</event>
<event>
 5   0  0.1875284E-07  0.3103350E+04  0.7818609E-02  0.8214819E-01
        1   -1    0    0  501    0  0.00000000000E+00  0.00000000000E+00  0.15057618496E+04  0.15057618496E+04  0.50400001928E-02 0.  1.
       -1   -1    0    0    0  501  0.00000000000E+00  0.00000000000E+00 -0.15989886311E+04  0.15989886311E+04  0.50400001928E-02 0. -1.
    10030    2    1    2    0    0  0.00000000000E+00  0.00000000000E+00 -0.93226781559E+02  0.31047504807E+04  0.31033504982E+04 0.  0.
        4    1    3    3  502    0 -0.11317709195E+04 -0.52600523266E+02 -0.11072908169E+04  0.15842243514E+04  0.12699999809E+01 0. -1.
       -4    1    3    3    0  502  0.11317709195E+04  0.52600523266E+02  0.10140640353E+04  0.15205261293E+04  0.12699999809E+01 0.  1.
</event>
<event>
 5   0  0.1814075E-07  0.3100132E+04  0.7818609E-02  0.8215702E-01
        1   -1    0    0  501    0  0.00000000000E+00  0.00000000000E+00  0.19575362567E+04  0.19575362568E+04  0.50400001928E-02 0. -1.
       -1   -1    0    0    0  501  0.00000000000E+00  0.00000000000E+00 -0.12274125603E+04  0.12274125603E+04  0.50400001928E-02 0.  1.
    10030    2    1    2    0    0  0.00000000000E+00  0.00000000000E+00  0.73012369643E+03  0.31849488171E+04  0.31001319900E+04 0.  0.
        5    1    3    3  502    0  0.18786372878E+03 -0.13955374305E+04  0.10307596283E+04  0.17450802279E+04  0.46999998093E+01 0. -1.
       -5    1    3    3    0  502 -0.18786372878E+03  0.13955374305E+04 -0.30063593184E+03  0.14398685892E+04  0.46999998093E+01 0.  1.
</event>
<event>
 5   0  0.1840359E-07  0.3103490E+04  0.7818609E-02  0.8214781E-01
        1   -1    0    0  501    0  0.00000000000E+00  0.00000000000E+00  0.20542794848E+04  0.20542794848E+04  0.50400001928E-02 0. -1.
       -1   -1    0    0    0  501  0.00000000000E+00  0.00000000000E+00 -0.11721446291E+04  0.11721446291E+04  0.50400001928E-02 0.  1.
    10030    2    1    2    0    0  0.00000000000E+00  0.00000000000E+00  0.88213485571E+03  0.32264241139E+04  0.31034900772E+04 0.  0.
        1    1    3    3  502    0 -0.30868260777E+03 -0.60606996432E+02  0.20207825719E+04  0.20451211121E+04  0.50400001928E-02 0. -1.
       -1    1    3    3    0  502  0.30868260777E+03  0.60606996432E+02 -0.11386477162E+04  0.11813030018E+04  0.50400001928E-02 0.  1.
</event>
<event>
 5   0  0.5248309E-07  0.3097128E+04  0.7818609E-02  0.8216527E-01
       -2   -1    0    0    0  501  0.00000000000E+00  0.00000000000E+00  0.17091700597E+04  0.17091700598E+04  0.25500000920E-02 0.  1.
        2   -1    0    0  501    0  0.00000000000E+00  0.00000000000E+00 -0.14030492286E+04  0.14030492286E+04  0.25500000920E-02 0. -1.
    10030    2    1    2    0    0  0.00000000000E+00  0.00000000000E+00  0.30612083119E+03  0.31122192883E+04  0.30971275297E+04 0.  0.
        4    1    3    3  502    0  0.15815340391E+03 -0.12836442468E+04 -0.70273088058E+03  0.14719332033E+04  0.12699999809E+01 0. -1.
       -4    1    3    3    0  502 -0.15815340391E+03  0.12836442468E+04  0.10088517118E+04  0.16402860850E+04  0.12699999809E+01 0.  1.
</event>
<event>
 5   0  0.5248309E-07  0.3095050E+04  0.7818609E-02  0.8217098E-01
        2   -1    0    0  501    0  0.00000000000E+00  0.00000000000E+00  0.18629285446E+04  0.18629285446E+04  0.25500000920E-02 0. -1.
       -2   -1    0    0    0  501  0.00000000000E+00  0.00000000000E+00 -0.12855206538E+04  0.12855206538E+04  0.25500000920E-02 0.  1.
    10030    2    1    2    0    0  0.00000000000E+00  0.00000000000E+00  0.57740789079E+03  0.31484491984E+04  0.30950496737E+04 0.  0.
        4    1    3    3  502    0  0.60461286087E+03  0.13752487882E+04  0.66654959062E+03  0.16435193673E+04  0.12699999809E+01 0.  1.
       -4    1    3    3    0  502 -0.60461286087E+03 -0.13752487882E+04 -0.89141699832E+02  0.15049298311E+04  0.12699999809E+01 0. -1.
</event>
<event>
 5   0  0.1814075E-07  0.3106781E+04  0.7818609E-02  0.8213879E-01
       -1   -1    0    0    0  501  0.00000000000E+00  0.00000000000E+00  0.16829601158E+04  0.16829601158E+04  0.50400001928E-02 0.  1.
        1   -1    0    0  501    0  0.00000000000E+00  0.00000000000E+00 -0.14337961302E+04  0.14337961302E+04  0.50400001928E-02 0. -1.
    10030    2    1    2    0    0  0.00000000000E+00  0.00000000000E+00  0.24916398562E+03  0.31167562461E+04  0.31067807785E+04 0.  0.
        5    1    3    3  502    0  0.13785968226E+04  0.48683186602E+03 -0.40195096106E+03  0.15162853063E+04  0.46999998093E+01 0.  1.
       -5    1    3    3    0  502 -0.13785968226E+04 -0.48683186602E+03  0.65111494668E+03  0.16004709397E+04  0.46999998093E+01 0. -1.
</event>
<event>
 5   0  0.5055900E-07  0.3047157E+04  0.7818609E-02  0.8230392E-01
       -2   -1    0    0    0  501  0.00000000000E+00  0.00000000000E+00  0.92981056120E+03  0.92981056121E+03  0.25500000920E-02 0.  1.
        2   -1    0    0  501    0  0.00000000000E+00  0.00000000000E+00 -0.24965208707E+04  0.24965208707E+04  0.25500000920E-02 0. -1.
    10030    2    1    2    0    0  0.00000000000E+00  0.00000000000E+00 -0.15667103095E+04  0.34263314319E+04  0.30471570172E+04 0.  0.
        2    1    3    3  502    0  0.36218594636E+03 -0.84144543834E+03 -0.21522519594E+04  0.23391018751E+04  0.25500000920E-02 0. -1.
       -2    1    3    3    0  502 -0.36218594636E+03  0.84144543834E+03  0.58554164988E+03  0.10872295568E+04  0.25500000920E-02 0.  1.
</event>
<event>
 5   0  0.1845123E-07  0.3095115E+04  0.7818609E-02  0.8217080E-01
        1   -1    0    0  501    0  0.00000000000E+00  0.00000000000E+00  0.17038592637E+04  0.17038592637E+04  0.50400001928E-02 0.  1.
       -1   -1    0    0    0  501  0.00000000000E+00  0.00000000000E+00 -0.14055937407E+04  0.14055937407E+04  0.50400001928E-02 0. -1.
    10030    2    1    2    0    0  0.00000000000E+00  0.00000000000E+00  0.29826552298E+03  0.31094530044E+04  0.30951148063E+04 0.  0.
        2    1    3    3  502    0  0.35823200848E+03 -0.40914880801E+03  0.16047066176E+04  0.16943483253E+04  0.25500000920E-02 0.  1.
       -2    1    3    3    0  502 -0.35823200848E+03  0.40914880801E+03 -0.13064410946E+04  0.14151046790E+04  0.25500000920E-02 0. -1.
</event>
<event>
 5   0  0.1830902E-07  0.3086945E+04  0.7818609E-02  0.8219330E-01
       -1   -1    0    0    0  501  0.00000000000E+00  0.00000000000E+00  0.15525626299E+04  0.15525626299E+04  0.50400001928E-02 0. -1.
        1   -1    0    0  501    0  0.00000000000E+00  0.00000000000E+00 -0.15344356395E+04  0.15344356395E+04  0.50400001928E-02 0.  1.
    10030    2    1    2    0    0  0.00000000000E+00  0.00000000000E+00  0.18126990450E+02  0.30869982694E+04  0.30869450477E+04 0.  0.
        3    1    3    3  502    0 -0.10489949438E+04  0.10621420406E+04 -0.38308012324E+03  0.15411964500E+04  0.10100000352E+00 0.  1.
       -3    1    3    3    0  502  0.10489949438E+04 -0.10621420406E+04  0.40120711369E+03  0.15458018194E+04  0.10100000352E+00 0. -1.
</event>
<event>
 5   0  0.5342534E-07  0.3100373E+04  0.7818609E-02  0.8215636E-01
       -2   -1    0    0    0  501  0.00000000000E+00  0.00000000000E+00  0.86290639894E+03  0.86290639894E+03  0.25500000920E-02 0. -1.
        2   -1    0    0  501    0  0.00000000000E+00  0.00000000000E+00 -0.27848650553E+04  0.27848650553E+04  0.25500000920E-02 0.  1.
    10030    2    1    2    0    0  0.00000000000E+00  0.00000000000E+00 -0.19219586563E+04  0.36477714542E+04  0.31003728011E+04 0.  0.
        3    1    3    3  502    0 -0.13411644256E+04 -0.25757378847E+03 -0.18239767915E+04  0.22785867592E+04  0.10100000352E+00 0. -1.
       -3    1    3    3    0  502  0.13411644256E+04  0.25757378847E+03 -0.97981864807E+02  0.13691846950E+04  0.10100000352E+00 0.  1.
</event>
<event>
 5   0  0.5154105E-07  0.3090206E+04  0.7818609E-02  0.8218431E-01
       -2   -1    0    0    0  501  0.00000000000E+00  0.00000000000E+00  0.28016030628E+04  0.28016030628E+04  0.25500000920E-02 0.  1.
        2   -1    0    0  501    0  0.00000000000E+00  0.00000000000E+00 -0.85213469272E+03  0.85213469273E+03  0.25500000920E-02 0. -1.
    10030    2    1    2    0    0  0.00000000000E+00  0.00000000000E+00  0.19494683700E+04  0.36537377555E+04  0.30902059252E+04 0.  0.
        1    1    3    3  502    0  0.72755689796E+03  0.30970569478E+03 -0.59477392795E+03  0.98945069738E+03  0.50400001928E-02 0. -1.
       -1    1    3    3    0  502 -0.72755689796E+03 -0.30970569478E+03  0.25442422980E+04  0.26642870581E+04  0.50400001928E-02 0.  1.
</event>
<event>
 5   0  0.1875284E-07  0.3095136E+04  0.7818609E-02  0.8217074E-01
        1   -1    0    0  501    0  0.00000000000E+00  0.00000000000E+00  0.20246398104E+04  0.20246398104E+04  0.50400001928E-02 0. -1.
       -1   -1    0    0    0  501  0.00000000000E+00  0.00000000000E+00 -0.11829100529E+04  0.11829100530E+04  0.50400001928E-02 0.  1.
    10030    2    1    2    0    0  0.00000000000E+00  0.00000000000E+00  0.84172975742E+03  0.32075498633E+04  0.30951360457E+04 0.  0.
        4    1    3    3  502    0  0.12180877304E+04  0.90766372342E+02  0.14056350467E+04  0.18621997076E+04  0.12699999809E+01 0. -1.
       -4    1    3    3    0  502 -0.12180877304E+04 -0.90766372342E+02 -0.56390528929E+03  0.13453501558E+04  0.12699999809E+01 0.  1.
</event>
<event>
 5   0  0.1875284E-07  0.3105551E+04  0.7818609E-02  0.8214216E-01
        1   -1    0    0  501    0  0.00000000000E+00  0.00000000000E+00  0.17173636349E+04  0.17173636349E+04  0.50400001928E-02 0. -1.
       -1   -1    0    0    0  501  0.00000000000E+00  0.00000000000E+00 -0.14039614929E+04  0.14039614929E+04  0.50400001928E-02 0.  1.
    10030    2    1    2    0    0  0.00000000000E+00  0.00000000000E+00  0.31340214193E+03  0.31213251278E+04  0.31055514246E+04 0.  0.
        4    1    3    3  502    0 -0.14002883034E+04 -0.48009584013E+03  0.62792294326E+03  0.16079764252E+04  0.12699999809E+01 0. -1.
       -4    1    3    3    0  502  0.14002883034E+04  0.48009584013E+03 -0.31452080133E+03  0.15133487026E+04  0.12699999809E+01 0.  1.
</event>
<event>
 5   0  0.1814075E-07  0.3099075E+04  0.7818609E-02  0.8215992E-01
        1   -1    0    0  501    0  0.00000000000E+00  0.00000000000E+00  0.18041202369E+04  0.18041202369E+04  0.50400001928E-02 0. -1.
       -1   -1    0    0    0  501  0.00000000000E+00  0.00000000000E+00 -0.13308790858E+04  0.13308790858E+04  0.50400001928E-02 0.  1.
    10030    2    1    2    0    0  0.00000000000E+00  0.00000000000E+00  0.47324115109E+03  0.31349993227E+04  0.30990746306E+04 0.  0.
        5    1    3    3  502    0 -0.77985977706E+03 -0.13267966767E+04  0.41891246540E+03  0.15950173782E+04  0.46999998093E+01 0.  1.
       -5    1    3    3    0  502  0.77985977706E+03  0.13267966767E+04  0.54328685683E+02  0.15399819444E+04  0.46999998093E+01 0. -1.
</event>
<event>
 5   0  0.5248309E-07  0.3096977E+04  0.7818609E-02  0.8216568E-01
        2   -1    0    0  501    0  0.00000000000E+00  0.00000000000E+00  0.29229972370E+04  0.29229972370E+04  0.25500000920E-02 0.  1.
       -2   -1    0    0    0  501  0.00000000000E+00  0.00000000000E+00 -0.82032807039E+03  0.82032807039E+03  0.25500000920E-02 0. -1.
    10030    2    1    2    0    0  0.00000000000E+00  0.00000000000E+00  0.21026691666E+04  0.37433253074E+04  0.30969770314E+04 0.  0.
        4    1    3    3  502    0 -0.26957277013E+03 -0.13838855074E+04  0.18252882352E+04  0.23064013811E+04  0.12699999809E+01 0.  1.
       -4    1    3    3    0  502  0.26957277013E+03  0.13838855074E+04  0.27738093136E+03  0.14369239263E+04  0.12699999809E+01 0. -1.
</event>
<event>
 5   0  0.1814075E-07  0.3094982E+04  0.7818609E-02  0.8217116E-01
        1   -1    0    0  501    0  0.00000000000E+00  0.00000000000E+00  0.14926194346E+04  0.14926194346E+04  0.50400001928E-02 0. -1.
       -1   -1    0    0    0  501  0.00000000000E+00  0.00000000000E+00 -0.16043796715E+04  0.16043796715E+04  0.50400001928E-02 0.  1.
    10030    2    1    2    0    0  0.00000000000E+00  0.00000000000E+00 -0.11176023694E+03  0.30969991061E+04  0.30949819244E+04 0.  0.
        5    1    3    3  502    0  0.73561873113E+03 -0.88282275479E+03 -0.10929895355E+04  0.15859253288E+04  0.46999998093E+01 0.  1.
       -5    1    3    3    0  502 -0.73561873113E+03  0.88282275479E+03  0.98122929855E+03  0.15110737773E+04  0.46999998093E+01 0. -1.
</event>
<event>
 5   0  0.5342534E-07  0.3100388E+04  0.7818609E-02  0.8215632E-01
        2   -1    0    0  501    0  0.00000000000E+00  0.00000000000E+00  0.11825857312E+04  0.11825857312E+04  0.25500000920E-02 0. -1.
       -2   -1    0    0    0  501  0.00000000000E+00  0.00000000000E+00 -0.20320731724E+04  0.20320731724E+04  0.25500000920E-02 0.  1.
    10030    2    1    2    0    0  0.00000000000E+00  0.00000000000E+00 -0.84948744117E+03  0.32146589036E+04  0.31003875489E+04 0.  0.
        3    1    3    3  502    0  0.93391680371E+02  0.15184484324E+04 -0.11595332564E+03  0.15257302618E+04  0.10100000352E+00 0.  1.
       -3    1    3    3    0  502 -0.93391680371E+02 -0.15184484324E+04 -0.73353411553E+03  0.16889286417E+04  0.10100000352E+00 0. -1.
</event>
<event>
 5   0  0.5342534E-07  0.3095903E+04  0.7818609E-02  0.8216863E-01
        2   -1    0    0  501    0  0.00000000000E+00  0.00000000000E+00  0.15259074603E+04  0.15259074603E+04  0.25500000920E-02 0. -1.
       -2   -1    0    0    0  501  0.00000000000E+00  0.00000000000E+00 -0.15703143976E+04  0.15703143976E+04  0.25500000920E-02 0.  1.
    10030    2    1    2    0    0  0.00000000000E+00  0.00000000000E+00 -0.44406937284E+02  0.30962218579E+04  0.30959033928E+04 0.  0.
        3    1    3    3  502    0  0.75380531801E+03  0.22494461630E+03  0.13110997907E+04  0.15289882960E+04  0.10100000352E+00 0. -1.
       -3    1    3    3    0  502 -0.75380531801E+03 -0.22494461630E+03 -0.13555067280E+04  0.15672335619E+04  0.10100000352E+00 0.  1.
</event>
<event>
 5   0  0.1727000E-07  0.3100324E+04  0.7818609E-02  0.8215649E-01
       -3   -1    0    0    0  501  0.00000000000E+00  0.00000000000E+00  0.11349211436E+04  0.11349211481E+04  0.10100000352E+00 0. -1.
        3   -1    0    0  501    0  0.00000000000E+00  0.00000000000E+00 -0.21173290493E+04  0.21173290517E+04  0.10100000352E+00 0.  1.
    10030    2    1    2    0    0  0.00000000000E+00  0.00000000000E+00 -0.98240790574E+03  0.32522501998E+04  0.31003235426E+04 0.  0.
        4    1    3    3  502    0 -0.11226755288E+04  0.80074212090E+03 -0.12340077700E+04  0.18505040060E+04  0.12699999809E+01 0.  1.
       -4    1    3    3    0  502  0.11226755288E+04 -0.80074212090E+03  0.25159986426E+03  0.14017461937E+04  0.12699999809E+01 0. -1.
</event>
<event>
 5   0  0.1814075E-07  0.3097570E+04  0.7818609E-02  0.8216405E-01
       -1   -1    0    0    0  501  0.00000000000E+00  0.00000000000E+00  0.25051141575E+04  0.25051141575E+04  0.50400001928E-02 0.  1.
        1   -1    0    0  501    0  0.00000000000E+00  0.00000000000E+00 -0.95753495264E+03  0.95753495266E+03  0.50400001928E-02 0. -1.
    10030    2    1    2    0    0  0.00000000000E+00  0.00000000000E+00  0.15475792048E+04  0.34626491101E+04  0.30975696061E+04 0.  0.
        5    1    3    3  502    0  0.10322300693E+04 -0.70372802174E+03 -0.24951351396E+03  0.12739745399E+04  0.46999998093E+01 0. -1.
       -5    1    3    3    0  502 -0.10322300693E+04  0.70372802174E+03  0.17970927188E+04  0.21886745703E+04  0.46999998093E+01 0.  1.
</event>
<event>
 5   0  0.5342534E-07  0.3082416E+04  0.7818609E-02  0.8220580E-01
       -2   -1    0    0    0  501  0.00000000000E+00  0.00000000000E+00  0.14249329502E+04  0.14249329502E+04  0.25500000920E-02 0. -1.
        2   -1    0    0  501    0  0.00000000000E+00  0.00000000000E+00 -0.16669713142E+04  0.16669713142E+04  0.25500000920E-02 0.  1.
    10030    2    1    2    0    0  0.00000000000E+00  0.00000000000E+00 -0.24203836401E+03  0.30919042643E+04  0.30824161643E+04 0.  0.
        3    1    3    3  502    0 -0.10486020709E+04 -0.10999658262E+04 -0.37838491284E+03  0.15660990627E+04  0.10100000352E+00 0.  1.
       -3    1    3    3    0  502  0.10486020709E+04  0.10999658262E+04  0.13634654884E+03  0.15258052016E+04  0.10100000352E+00 0. -1.
</event>
<event>
 5   0  0.1727000E-07  0.3113391E+04  0.7818609E-02  0.8212072E-01
       -3   -1    0    0    0  501  0.00000000000E+00  0.00000000000E+00  0.14637032354E+04  0.14637032389E+04  0.10100000352E+00 0. -1.
        3   -1    0    0  501    0  0.00000000000E+00  0.00000000000E+00 -0.16555959013E+04  0.16555959043E+04  0.10100000352E+00 0.  1.
    10030    2    1    2    0    0  0.00000000000E+00  0.00000000000E+00 -0.19189266586E+03  0.31192991432E+04  0.31133911334E+04 0.  0.
        3    1    3    3  502    0 -0.32844709940E+03 -0.80796150519E+03  0.11959274213E+04  0.14801762389E+04  0.10100000352E+00 0. -1.
       -3    1    3    3    0  502  0.32844709940E+03  0.80796150519E+03 -0.13878200872E+04  0.16391229043E+04  0.10100000352E+00 0.  1.
</event>
<event>
 5   0  0.5055900E-07  0.3098086E+04  0.7818609E-02  0.8216263E-01
        2   -1    0    0  501    0  0.00000000000E+00  0.00000000000E+00  0.15827499904E+04  0.15827499904E+04  0.25500000920E-02 0.  1.
       -2   -1    0    0    0  501  0.00000000000E+00  0.00000000000E+00 -0.15160541671E+04  0.15160541671E+04  0.25500000920E-02 0. -1.
    10030    2    1    2    0    0  0.00000000000E+00  0.00000000000E+00  0.66695823294E+02  0.30988041576E+04  0.30980863245E+04 0.  0.
        2    1    3    3  502    0 -0.22028520749E+03  0.13422732749E+04  0.77467522409E+03  0.15653577291E+04  0.25500000920E-02 0.  1.
       -2    1    3    3    0  502  0.22028520749E+03 -0.13422732749E+04 -0.70797940080E+03  0.15334464285E+04  0.25500000920E-02 0. -1.
</event>
<event>
 5   0  0.5154105E-07  0.3165146E+04  0.7818609E-02  0.8198083E-01
       -2   -1    0    0    0  501  0.00000000000E+00  0.00000000000E+00  0.80794051513E+03  0.80794051514E+03  0.25500000920E-02 0.  1.
        2   -1    0    0  501    0  0.00000000000E+00  0.00000000000E+00 -0.30999032424E+04  0.30999032424E+04  0.25500000920E-02 0. -1.
    10030    2    1    2    0    0  0.00000000000E+00  0.00000000000E+00 -0.22919627273E+04  0.39078437576E+04  0.31651460772E+04 0.  0.
        1    1    3    3  502    0 -0.30054931153E+03  0.12837106938E+04 -0.65191517509E+02  0.13200352147E+04  0.50400001928E-02 0.  1.
       -1    1    3    3    0  502  0.30054931153E+03 -0.12837106938E+04 -0.22267712098E+04  0.25878085429E+04  0.50400001928E-02 0. -1.
</event>
<event>
 5   0  0.1840359E-07  0.3102416E+04  0.7818609E-02  0.8215075E-01
        1   -1    0    0  501    0  0.00000000000E+00  0.00000000000E+00  0.15550895551E+04  0.15550895551E+04  0.50400001928E-02 0.  1.
       -1   -1    0    0    0  501  0.00000000000E+00  0.00000000000E+00 -0.15473364539E+04  0.15473364540E+04  0.50400001928E-02 0. -1.
    10030    2    1    2    0    0  0.00000000000E+00  0.00000000000E+00  0.77531011570E+01  0.31024260091E+04  0.31024163214E+04 0.  0.
        1    1    3    3  502    0 -0.36036109618E+03 -0.55278554492E+03 -0.13999849411E+04  0.15477046920E+04  0.50400001928E-02 0. -1.
       -1    1    3    3    0  502  0.36036109618E+03  0.55278554492E+03  0.14077380422E+04  0.15547213171E+04  0.50400001928E-02 0.  1.
</event>
<event>
 5   0  0.5248309E-07  0.3092104E+04  0.7818609E-02  0.8217908E-01
       -2   -1    0    0    0  501  0.00000000000E+00  0.00000000000E+00  0.14277724917E+04  0.14277724917E+04  0.25500000920E-02 0. -1.
        2   -1    0    0  501    0  0.00000000000E+00  0.00000000000E+00 -0.16741299749E+04  0.16741299749E+04  0.25500000920E-02 0.  1.
    10030    2    1    2    0    0  0.00000000000E+00  0.00000000000E+00 -0.24635748312E+03  0.31019024666E+04  0.30921039606E+04 0.  0.
        4    1    3    3  502    0 -0.65963789902E+03  0.77237694943E+03  0.10460991734E+04  0.14580855268E+04  0.12699999809E+01 0. -1.
       -4    1    3    3    0  502  0.65963789902E+03 -0.77237694943E+03 -0.12924566565E+04  0.16438169399E+04  0.12699999809E+01 0.  1.
</event>
<event>
 5   0  0.5248309E-07  0.3102690E+04  0.7818609E-02  0.8215000E-01
        2   -1    0    0  501    0  0.00000000000E+00  0.00000000000E+00  0.17913042631E+04  0.17913042631E+04  0.25500000920E-02 0. -1.
       -2   -1    0    0    0  501  0.00000000000E+00  0.00000000000E+00 -0.13435299429E+04  0.13435299429E+04  0.25500000920E-02 0.  1.
    10030    2    1    2    0    0  0.00000000000E+00  0.00000000000E+00  0.44777432022E+03  0.31348342060E+04  0.31026897455E+04 0.  0.
        4    1    3    3  502    0 -0.14968148092E+04 -0.40538653695E+03  0.18011997218E+03  0.15611654732E+04  0.12699999809E+01 0.  1.
       -4    1    3    3    0  502  0.14968148092E+04  0.40538653695E+03  0.26765434804E+03  0.15736687328E+04  0.12699999809E+01 0. -1.
</event>
<event>
 5   0  0.5342534E-07  0.3100009E+04  0.7818609E-02  0.8215735E-01
       -2   -1    0    0    0  501  0.00000000000E+00  0.00000000000E+00  0.98993304050E+03  0.98993304050E+03  0.25500000920E-02 0.  1.
        2   -1    0    0  501    0  0.00000000000E+00  0.00000000000E+00 -0.24269458228E+04  0.24269458228E+04  0.25500000920E-02 0. -1.
    10030    2    1    2    0    0  0.00000000000E+00  0.00000000000E+00 -0.14370127823E+04  0.34168788633E+04  0.31000089403E+04 0.  0.
        3    1    3    3  502    0 -0.70966611476E+03  0.76653233902E+03 -0.19806835610E+04  0.22392644328E+04  0.10100000352E+00 0. -1.
       -3    1    3    3    0  502  0.70966611476E+03 -0.76653233902E+03  0.54367077864E+03  0.11776144305E+04  0.10100000352E+00 0.  1.
</event>
<event>
 5   0  0.1875284E-07  0.3100247E+04  0.7818609E-02  0.8215670E-01
       -1   -1    0    0    0  501  0.00000000000E+00  0.00000000000E+00  0.25724880972E+04  0.25724880972E+04  0.50400001928E-02 0. -1.
        1   -1    0    0  501    0  0.00000000000E+00  0.00000000000E+00 -0.93406981252E+03  0.93406981253E+03  0.50400001928E-02 0.  1.
    10030    2    1    2    0    0  0.00000000000E+00  0.00000000000E+00  0.16384182847E+04  0.35065579097E+04  0.31002473931E+04 0.  0.
        4    1    3    3  502    0 -0.10305814536E+04 -0.46652580852E+03 -0.37946492323E+03  0.11932056417E+04  0.12699999809E+01 0.  1.
       -4    1    3    3    0  502  0.10305814536E+04  0.46652580852E+03  0.20178832079E+04  0.23133522681E+04  0.12699999809E+01 0. -1.
</event>
<event>
 5   0  0.1845123E-07  0.3100420E+04  0.7818609E-02  0.8215623E-01
        1   -1    0    0  501    0  0.00000000000E+00  0.00000000000E+00  0.18247312358E+04  0.18247312358E+04  0.50400001928E-02 0.  1.
       -1   -1    0    0    0  501  0.00000000000E+00  0.00000000000E+00 -0.13169892476E+04  0.13169892476E+04  0.50400001928E-02 0. -1.
    10030    2    1    2    0    0  0.00000000000E+00  0.00000000000E+00  0.50774198825E+03  0.31417204834E+04  0.31004202408E+04 0.  0.
        2    1    3    3  502    0  0.14821832561E+04  0.41303633843E+03  0.44529262953E+03  0.16017964126E+04  0.25500000920E-02 0.  1.
       -2    1    3    3    0  502 -0.14821832561E+04 -0.41303633843E+03  0.62449358719E+02  0.15399240708E+04  0.25500000920E-02 0. -1.
</event>
<event>
 5   0  0.5342534E-07  0.3102168E+04  0.7818609E-02  0.8215143E-01
        2   -1    0    0  501    0  0.00000000000E+00  0.00000000000E+00  0.13218386896E+04  0.13218386896E+04  0.25500000920E-02 0.  1.
       -2   -1    0    0    0  501  0.00000000000E+00  0.00000000000E+00 -0.18200871153E+04  0.18200871153E+04  0.25500000920E-02 0. -1.
    10030    2    1    2    0    0  0.00000000000E+00  0.00000000000E+00 -0.49824842567E+03  0.31419258049E+04  0.31021679951E+04 0.  0.
        3    1    3    3  502    0  0.23960921979E+03 -0.11773635435E+04 -0.12426468027E+04  0.17285162939E+04  0.10100000352E+00 0. -1.
       -3    1    3    3    0  502 -0.23960921979E+03  0.11773635435E+04  0.74439837700E+03  0.14134095110E+04  0.10100000352E+00 0.  1.
</event>
<event>
 5   0  0.5248309E-07  0.3084607E+04  0.7818609E-02  0.8219975E-01
        2   -1    0    0  501    0  0.00000000000E+00  0.00000000000E+00  0.21447543967E+04  0.21447543967E+04  0.25500000920E-02 0. -1.
       -2   -1    0    0    0  501  0.00000000000E+00  0.00000000000E+00 -0.11090778976E+04  0.11090778976E+04  0.25500000920E-02 0.  1.
    10030    2    1    2    0    0  0.00000000000E+00  0.00000000000E+00  0.10356764990E+04  0.32538322943E+04  0.30846067479E+04 0.  0.
        4    1    3    3  502    0  0.13192026504E+04 -0.70412559423E+03  0.91619276122E+03  0.17537101454E+04  0.12699999809E+01 0. -1.
       -4    1    3    3    0  502 -0.13192026504E+04  0.70412559423E+03  0.11948373783E+03  0.15001221490E+04  0.12699999809E+01 0.  1.
</event>
<event>
 5   0  0.5248309E-07  0.3100520E+04  0.7818609E-02  0.8215595E-01
       -2   -1    0    0    0  501  0.00000000000E+00  0.00000000000E+00  0.11940994960E+04  0.11940994960E+04  0.25500000920E-02 0. -1.
        2   -1    0    0  501    0  0.00000000000E+00  0.00000000000E+00 -0.20126514295E+04  0.20126514295E+04  0.25500000920E-02 0.  1.
    10030    2    1    2    0    0  0.00000000000E+00  0.00000000000E+00 -0.81855193355E+03  0.32067509255E+04  0.31005199935E+04 0.  0.
        4    1    3    3  502    0  0.88599475922E+03 -0.98972203152E+03  0.41733712441E+03  0.13923750577E+04  0.12699999809E+01 0. -1.
       -4    1    3    3    0  502 -0.88599475922E+03  0.98972203152E+03 -0.12358890580E+04  0.18143758678E+04  0.12699999809E+01 0.  1.
</event>
<event>
 5   0  0.1830902E-07  0.3098370E+04  0.7818609E-02  0.8216185E-01
       -1   -1    0    0    0  501  0.00000000000E+00  0.00000000000E+00  0.94931627163E+03  0.94931627165E+03  0.50400001928E-02 0. -1.
        1   -1    0    0  501    0  0.00000000000E+00  0.00000000000E+00 -0.25281083263E+04  0.25281083263E+04  0.50400001928E-02 0.  1.
    10030    2    1    2    0    0  0.00000000000E+00  0.00000000000E+00 -0.15787920547E+04  0.34774245980E+04  0.30983701332E+04 0.  0.
        3    1    3    3  502    0 -0.28241491109E+03 -0.72393851372E+03  0.71476112002E+03  0.10558070953E+04  0.10100000352E+00 0. -1.
       -3    1    3    3    0  502  0.28241491109E+03  0.72393851372E+03 -0.22935531747E+04  0.24216175026E+04  0.10100000352E+00 0.  1.
</event>
<event>
 5   0  0.1840359E-07  0.3098469E+04  0.7818609E-02  0.8216158E-01
       -1   -1    0    0    0  501  0.00000000000E+00  0.00000000000E+00  0.13584781225E+04  0.13584781225E+04  0.50400001928E-02 0.  1.
        1   -1    0    0  501    0  0.00000000000E+00  0.00000000000E+00 -0.17667768804E+04  0.17667768805E+04  0.50400001928E-02 0. -1.
    10030    2    1    2    0    0  0.00000000000E+00  0.00000000000E+00 -0.40829875791E+03  0.31252550030E+04  0.30984691314E+04 0.  0.
        1    1    3    3  502    0  0.15623034645E+03  0.50996244572E+03 -0.16712538144E+04  0.17542972750E+04  0.50400001928E-02 0. -1.
       -1    1    3    3    0  502 -0.15623034645E+03 -0.50996244572E+03  0.12629550564E+04  0.13709577280E+04  0.50400001928E-02 0.  1.
</event>
<event>
 5   0  0.1845123E-07  0.3092766E+04  0.7818609E-02  0.8217726E-01
        1   -1    0    0  501    0  0.00000000000E+00  0.00000000000E+00  0.15839124028E+04  0.15839124028E+04  0.50400001928E-02 0.  1.
       -1   -1    0    0    0  501  0.00000000000E+00  0.00000000000E+00 -0.15097429791E+04  0.15097429791E+04  0.50400001928E-02 0. -1.
    10030    2    1    2    0    0  0.00000000000E+00  0.00000000000E+00  0.74169423680E+02  0.30936553819E+04  0.30927661597E+04 0.  0.
        2    1    3    3  502    0  0.28440411413E+03 -0.14432871285E+04  0.51402070293E+03  0.15582620827E+04  0.25500000920E-02 0.  1.
       -2    1    3    3    0  502 -0.28440411413E+03  0.14432871285E+04 -0.43985127925E+03  0.15353932992E+04  0.25500000920E-02 0. -1.
</event>
<event>
 5   0  0.5154105E-07  0.3090573E+04  0.7818609E-02  0.8218330E-01
        2   -1    0    0  501    0  0.00000000000E+00  0.00000000000E+00  0.17500473892E+04  0.17500473892E+04  0.25500000920E-02 0. -1.
       -2   -1    0    0    0  501  0.00000000000E+00  0.00000000000E+00 -0.13644833494E+04  0.13644833494E+04  0.25500000920E-02 0.  1.
    10030    2    1    2    0    0  0.00000000000E+00  0.00000000000E+00  0.38556403978E+03  0.31145307386E+04  0.30905731010E+04 0.  0.
        1    1    3    3  502    0  0.14819356647E+04  0.18814962033E+02  0.63369297928E+03  0.16118480416E+04  0.50400001928E-02 0.  1.
       -1    1    3    3    0  502 -0.14819356647E+04 -0.18814962033E+02 -0.24812893950E+03  0.15026826970E+04  0.50400001928E-02 0. -1.
</event>
<event>
 5   0  0.5248309E-07  0.3106364E+04  0.7818609E-02  0.8213994E-01
       -2   -1    0    0    0  501  0.00000000000E+00  0.00000000000E+00  0.18845024429E+04  0.18845024429E+04  0.25500000920E-02 0.  1.
        2   -1    0    0  501    0  0.00000000000E+00  0.00000000000E+00 -0.12801117169E+04  0.12801117169E+04  0.25500000920E-02 0. -1.
    10030    2    1    2    0    0  0.00000000000E+00  0.00000000000E+00  0.60439072594E+03  0.31646141598E+04  0.31063635703E+04 0.  0.
        4    1    3    3  502    0 -0.21000775607E+03  0.15325780470E+04  0.44435897550E+03  0.16094580578E+04  0.12699999809E+01 0.  1.
       -4    1    3    3    0  502  0.21000775607E+03 -0.15325780470E+04  0.16003175045E+03  0.15551561020E+04  0.12699999809E+01 0. -1.
</event>
<event>
 5   0  0.1814075E-07  0.3102294E+04  0.7818609E-02  0.8215109E-01
       -1   -1    0    0    0  501  0.00000000000E+00  0.00000000000E+00  0.14055018270E+04  0.14055018270E+04  0.50400001928E-02 0. -1.
        1   -1    0    0  501    0  0.00000000000E+00  0.00000000000E+00 -0.17118846651E+04  0.17118846651E+04  0.50400001928E-02 0.  1.
    10030    2    1    2    0    0  0.00000000000E+00  0.00000000000E+00 -0.30638283807E+03  0.31173864922E+04  0.31022940057E+04 0.  0.
        5    1    3    3  502    0 -0.52382122470E+03 -0.13452918187E+04  0.41687456711E+03  0.15026660466E+04  0.46999998093E+01 0. -1.
       -5    1    3    3    0  502  0.52382122470E+03  0.13452918187E+04 -0.72325740518E+03  0.16147204455E+04  0.46999998093E+01 0.  1.
</event>
<event>
 5   0  0.5154105E-07  0.3126862E+04  0.7818609E-02  0.8208404E-01
        2   -1    0    0  501    0  0.00000000000E+00  0.00000000000E+00  0.12176416886E+04  0.12176416886E+04  0.25500000920E-02 0.  1.
       -2   -1    0    0    0  501  0.00000000000E+00  0.00000000000E+00 -0.20074181538E+04  0.20074181538E+04  0.25500000920E-02 0. -1.
    10030    2    1    2    0    0  0.00000000000E+00  0.00000000000E+00 -0.78977646526E+03  0.32250598424E+04  0.31268617049E+04 0.  0.
        1    1    3    3  502    0  0.16056697565E+03  0.40116120103E+02  0.12085812120E+04  0.12198604850E+04  0.50400001928E-02 0.  1.
       -1    1    3    3    0  502 -0.16056697565E+03 -0.40116120103E+02 -0.19983576772E+04  0.20051993574E+04  0.50400001928E-02 0. -1.
</event>
<event>
 5   0  0.1830902E-07  0.3100821E+04  0.7818609E-02  0.8215513E-01
        1   -1    0    0  501    0  0.00000000000E+00  0.00000000000E+00  0.22034399462E+04  0.22034399462E+04  0.50400001928E-02 0.  1.
       -1   -1    0    0    0  501  0.00000000000E+00  0.00000000000E+00 -0.10909183581E+04  0.10909183581E+04  0.50400001928E-02 0. -1.
    10030    2    1    2    0    0  0.00000000000E+00  0.00000000000E+00  0.11125215881E+04  0.32943583042E+04  0.31008212384E+04 0.  0.
        3    1    3    3  502    0  0.38094483760E+02  0.14031686933E+04  0.12557134912E+04  0.18833878925E+04  0.10100000352E+00 0.  1.
       -3    1    3    3    0  502 -0.38094483760E+02 -0.14031686933E+04 -0.14319190307E+03  0.14109704117E+04  0.10100000352E+00 0. -1.
</event>
<event>
 5   0  0.1814075E-07  0.3100350E+04  0.7818609E-02  0.8215642E-01
       -1   -1    0    0    0  501  0.00000000000E+00  0.00000000000E+00  0.23846783379E+04  0.23846783380E+04  0.50400001928E-02 0. -1.
        1   -1    0    0  501    0  0.00000000000E+00  0.00000000000E+00 -0.10077009842E+04  0.10077009842E+04  0.50400001928E-02 0.  1.
    10030    2    1    2    0    0  0.00000000000E+00  0.00000000000E+00  0.13769773538E+04  0.33923793221E+04  0.31003501145E+04 0.  0.
        5    1    3    3  502    0 -0.51011683006E+03  0.15818119389E+03  0.22808224387E+04  0.23425229043E+04  0.46999998093E+01 0. -1.
       -5    1    3    3    0  502  0.51011683006E+03 -0.15818119389E+03 -0.90384508495E+03  0.10498564178E+04  0.46999998093E+01 0.  1.
</event>
<event>
 5   0  0.1814075E-07  0.3053867E+04  0.7818609E-02  0.8228514E-01
        1   -1    0    0  501    0  0.00000000000E+00  0.00000000000E+00  0.30653040276E+04  0.30653040276E+04  0.50400001928E-02 0. -1.
       -1   -1    0    0    0  501  0.00000000000E+00  0.00000000000E+00 -0.76061814026E+03  0.76061814028E+03  0.50400001928E-02 0.  1.
    10030    2    1    2    0    0  0.00000000000E+00  0.00000000000E+00  0.23046858873E+04  0.38259221678E+04  0.30538669577E+04 0.  0.
        5    1    3    3  502    0  0.13555580861E+04  0.11399364641E+03  0.28349119120E+03  0.13895760583E+04  0.46999998093E+01 0.  1.
       -5    1    3    3    0  502 -0.13555580861E+04 -0.11399364641E+03  0.20211946961E+04  0.24363461096E+04  0.46999998093E+01 0. -1.
</event>
<event>
 5   0  0.5376678E-07  0.3096376E+04  0.7818609E-02  0.8216733E-01
       -2   -1    0    0    0  501  0.00000000000E+00  0.00000000000E+00  0.14573585504E+04  0.14573585504E+04  0.25500000920E-02 0.  1.
        2   -1    0    0  501    0  0.00000000000E+00  0.00000000000E+00 -0.16446781466E+04  0.16446781466E+04  0.25500000920E-02 0. -1.
    10030    2    1    2    0    0  0.00000000000E+00  0.00000000000E+00 -0.18731959617E+03  0.31020366970E+04  0.30963757909E+04 0.  0.
        5    1    3    3  502    0 -0.73018477011E+03  0.12793479620E+04  0.38361717039E+03  0.15221975002E+04  0.46999998093E+01 0.  1.
       -5    1    3    3    0  502  0.73018477011E+03 -0.12793479620E+04 -0.57093676656E+03  0.15798391968E+04  0.46999998093E+01 0. -1.
</event>
<event>
 5   0  0.5376678E-07  0.3100302E+04  0.7818609E-02  0.8215655E-01
       -2   -1    0    0    0  501  0.00000000000E+00  0.00000000000E+00  0.21875780835E+04  0.21875780835E+04  0.25500000920E-02 0.  1.
        2   -1    0    0  501    0  0.00000000000E+00  0.00000000000E+00 -0.10984604446E+04  0.10984604446E+04  0.25500000920E-02 0. -1.
    10030    2    1    2    0    0  0.00000000000E+00  0.00000000000E+00  0.10891176389E+04  0.32860385280E+04  0.31003019170E+04 0.  0.
        5    1    3    3  502    0 -0.47604324448E+03  0.13602310704E+04 -0.60704247335E+02  0.14424121571E+04  0.46999998093E+01 0. -1.
       -5    1    3    3    0  502  0.47604324448E+03 -0.13602310704E+04  0.11498218862E+04  0.18436263709E+04  0.46999998093E+01 0.  1.
</event>
<event>
 5   0  0.5055900E-07  0.3097142E+04  0.7818609E-02  0.8216523E-01
        2   -1    0    0  501    0  0.00000000000E+00  0.00000000000E+00  0.14768292502E+04  0.14768292503E+04  0.25500000920E-02 0. -1.
       -2   -1    0    0    0  501  0.00000000000E+00  0.00000000000E+00 -0.16237981765E+04  0.16237981765E+04  0.25500000920E-02 0.  1.
    10030    2    1    2    0    0  0.00000000000E+00  0.00000000000E+00 -0.14696892621E+03  0.31006274267E+04  0.30971423238E+04 0.  0.
        2    1    3    3  502    0  0.50484302630E+03  0.53469780250E+03 -0.14378475709E+04  0.16149841666E+04  0.25500000920E-02 0.  1.
       -2    1    3    3    0  502 -0.50484302630E+03 -0.53469780250E+03  0.12908786447E+04  0.14856432601E+04  0.25500000920E-02 0. -1.
</event>
<event>
 5   0  0.1840359E-07  0.3100775E+04  0.7818609E-02  0.8215525E-01
       -1   -1    0    0    0  501  0.00000000000E+00  0.00000000000E+00  0.13431722156E+04  0.13431722156E+04  0.50400001928E-02 0. -1.
        1   -1    0    0  501    0  0.00000000000E+00  0.00000000000E+00 -0.17895704906E+04  0.17895704907E+04  0.50400001928E-02 0.  1.
    10030    2    1    2    0    0  0.00000000000E+00  0.00000000000E+00 -0.44639827508E+03  0.31327427062E+04  0.31007749747E+04 0.  0.
        1    1    3    3  502    0 -0.76180314676E+03 -0.73505729487E+03 -0.13675941228E+04  0.17294412236E+04  0.50400001928E-02 0.  1.
       -1    1    3    3    0  502  0.76180314676E+03  0.73505729487E+03  0.92119584775E+03  0.14033014826E+04  0.50400001928E-02 0. -1.
</event>
<event>
 5   0  0.5376678E-07  0.3095782E+04  0.7818609E-02  0.8216896E-01
        2   -1    0    0  501    0  0.00000000000E+00  0.00000000000E+00  0.18746626499E+04  0.18746626499E+04  0.25500000920E-02 0.  1.
       -2   -1    0    0    0  501  0.00000000000E+00  0.00000000000E+00 -0.12780790066E+04  0.12780790066E+04  0.25500000920E-02 0. -1.
    10030    2    1    2    0    0  0.00000000000E+00  0.00000000000E+00  0.59658364331E+03  0.31527416565E+04  0.30957822774E+04 0.  0.
        5    1    3    3  502    0  0.58592051254E+03 -0.48547365012E+01  0.17573482615E+04  0.18524636077E+04  0.46999998093E+01 0.  1.
       -5    1    3    3    0  502 -0.58592051254E+03  0.48547365012E+01 -0.11607646182E+04  0.13002780489E+04  0.46999998093E+01 0. -1.
</event>
<event>
 5   0  0.1814075E-07  0.3101180E+04  0.7818609E-02  0.8215414E-01
        1   -1    0    0  501    0  0.00000000000E+00  0.00000000000E+00  0.15949531797E+04  0.15949531797E+04  0.50400001928E-02 0.  1.
       -1   -1    0    0    0  501  0.00000000000E+00  0.00000000000E+00 -0.15074610503E+04  0.15074610503E+04  0.50400001928E-02 0. -1.
    10030    2    1    2    0    0  0.00000000000E+00  0.00000000000E+00  0.87492129451E+02  0.31024142300E+04  0.31011802885E+04 0.  0.
        5    1    3    3  502    0  0.12512486468E+04  0.87160783377E+03  0.32489936962E+03  0.15591360051E+04  0.46999998093E+01 0.  1.
       -5    1    3    3    0  502 -0.12512486468E+04 -0.87160783377E+03 -0.23740724017E+03  0.15432782250E+04  0.46999998093E+01 0. -1.
</event>
<event>
 5   0  0.5342534E-07  0.3097195E+04  0.7818609E-02  0.8216508E-01
        2   -1    0    0  501    0  0.00000000000E+00  0.00000000000E+00  0.14221977312E+04  0.14221977312E+04  0.25500000920E-02 0. -1.
       -2   -1    0    0    0  501  0.00000000000E+00  0.00000000000E+00 -0.16862315461E+04  0.16862315461E+04  0.25500000920E-02 0.  1.
    10030    2    1    2    0    0  0.00000000000E+00  0.00000000000E+00 -0.26403381485E+03  0.31084292773E+04  0.30971952984E+04 0.  0.
        3    1    3    3  502    0 -0.75284330483E+03 -0.28385442180E+03  0.11959635903E+04  0.14414143381E+04  0.10100000352E+00 0. -1.
       -3    1    3    3    0  502  0.75284330483E+03  0.28385442180E+03 -0.14599974052E+04  0.16670149393E+04  0.10100000352E+00 0.  1.
</event>
<event>
 5   0  0.5376678E-07  0.3095420E+04  0.7818609E-02  0.8216996E-01
       -2   -1    0    0    0  501  0.00000000000E+00  0.00000000000E+00  0.13632354928E+04  0.13632354928E+04  0.25500000920E-02 0.  1.
        2   -1    0    0  501    0  0.00000000000E+00  0.00000000000E+00 -0.17571476576E+04  0.17571476576E+04  0.25500000920E-02 0. -1.
    10030    2    1    2    0    0  0.00000000000E+00  0.00000000000E+00 -0.39391216479E+03  0.31203831504E+04  0.30954198764E+04 0.  0.
        5    1    3    3  502    0  0.84954179040E+03  0.22325689921E+02  0.11069840386E+04  0.13955842654E+04  0.46999998093E+01 0.  1.
       -5    1    3    3    0  502 -0.84954179040E+03 -0.22325689921E+02 -0.15008962034E+04  0.17247988850E+04  0.46999998093E+01 0. -1.
</event>
<event>
 5   0  0.1875284E-07  0.3101823E+04  0.7818609E-02  0.8215238E-01
       -1   -1    0    0    0  501  0.00000000000E+00  0.00000000000E+00  0.20846176125E+04  0.20846176125E+04  0.50400001928E-02 0. -1.
        1   -1    0    0  501    0  0.00000000000E+00  0.00000000000E+00 -0.11538454685E+04  0.11538454685E+04  0.50400001928E-02 0.  1.
    10030    2    1    2    0    0  0.00000000000E+00  0.00000000000E+00  0.93077214402E+03  0.32384630809E+04  0.31018230676E+04 0.  0.
        4    1    3    3  502    0 -0.23432165545E+03 -0.43309185922E+03  0.20008340503E+04  0.20605372374E+04  0.12699999809E+01 0. -1.
       -4    1    3    3    0  502  0.23432165545E+03  0.43309185922E+03 -0.10700619063E+04  0.11779258436E+04  0.12699999809E+01 0.  1.
</event>
<event>
 5   0  0.5342534E-07  0.3102740E+04  0.7818609E-02  0.8214986E-01
        2   -1    0    0  501    0  0.00000000000E+00  0.00000000000E+00  0.20131867490E+04  0.20131867490E+04  0.25500000920E-02 0.  1.
       -2   -1    0    0    0  501  0.00000000000E+00  0.00000000000E+00 -0.11954918774E+04  0.11954918774E+04  0.25500000920E-02 0. -1.
    10030    2    1    2    0    0  0.00000000000E+00  0.00000000000E+00  0.81769487165E+03  0.32086786264E+04  0.31027396965E+04 0.  0.
        3    1    3    3  502    0  0.29676404040E+03 -0.13030464856E+04 -0.40593004688E+03  0.13967026357E+04  0.10100000352E+00 0. -1.
       -3    1    3    3    0  502 -0.29676404040E+03  0.13030464856E+04  0.12236249185E+04  0.18119759907E+04  0.10100000352E+00 0.  1.
</event>
<event>
 5   0  0.5055900E-07  0.3080443E+04  0.7818609E-02  0.8221126E-01
        2   -1    0    0  501    0  0.00000000000E+00  0.00000000000E+00  0.16632084443E+04  0.16632084443E+04  0.25500000920E-02 0.  1.
       -2   -1    0    0    0  501  0.00000000000E+00  0.00000000000E+00 -0.14263284529E+04  0.14263284529E+04  0.25500000920E-02 0. -1.
    10030    2    1    2    0    0  0.00000000000E+00  0.00000000000E+00  0.23687999143E+03  0.30895368972E+04  0.30804425184E+04 0.  0.
        2    1    3    3  502    0  0.36890728814E+03  0.14441961094E+04 -0.27063121985E+03  0.15149377040E+04  0.25500000920E-02 0. -1.
       -2    1    3    3    0  502 -0.36890728814E+03 -0.14441961094E+04  0.50751121127E+03  0.15745991932E+04  0.25500000920E-02 0.  1.
</event>
<event>
 5   0  0.5248309E-07  0.3100337E+04  0.7818609E-02  0.8215646E-01
        2   -1    0    0  501    0  0.00000000000E+00  0.00000000000E+00  0.20341698173E+04  0.20341698173E+04  0.25500000920E-02 0. -1.
       -2   -1    0    0    0  501  0.00000000000E+00  0.00000000000E+00 -0.11813280193E+04  0.11813280193E+04  0.25500000920E-02 0.  1.
    10030    2    1    2    0    0  0.00000000000E+00  0.00000000000E+00  0.85284179800E+03  0.32154978367E+04  0.31003366277E+04 0.  0.
        4    1    3    3  502    0 -0.82714733092E+03 -0.53138463918E+03  0.16694715832E+04  0.19374414370E+04  0.12699999809E+01 0. -1.
       -4    1    3    3    0  502  0.82714733092E+03  0.53138463918E+03 -0.81662978518E+03  0.12780563997E+04  0.12699999809E+01 0.  1.
</event>
<event>
 5   0  0.5342534E-07  0.3092508E+04  0.7818609E-02  0.8217797E-01
       -2   -1    0    0    0  501  0.00000000000E+00  0.00000000000E+00  0.12135565442E+04  0.12135565443E+04  0.25500000920E-02 0.  1.
        2   -1    0    0  501    0  0.00000000000E+00  0.00000000000E+00 -0.19701610126E+04  0.19701610126E+04  0.25500000920E-02 0. -1.
    10030    2    1    2    0    0  0.00000000000E+00  0.00000000000E+00 -0.75660446830E+03  0.31837175568E+04  0.30925082312E+04 0.  0.
        3    1    3    3  502    0  0.16318399957E+03 -0.14844511471E+04 -0.79097069088E+03  0.16899286583E+04  0.10100000352E+00 0. -1.
       -3    1    3    3    0  502 -0.16318399957E+03  0.14844511471E+04  0.34366222576E+02  0.14937888985E+04  0.10100000352E+00 0.  1.
</event>
<event>
 5   0  0.5154105E-07  0.3095517E+04  0.7818609E-02  0.8216969E-01
        2   -1    0    0  501    0  0.00000000000E+00  0.00000000000E+00  0.12543776079E+04  0.12543776079E+04  0.25500000920E-02 0. -1.
       -2   -1    0    0    0  501  0.00000000000E+00  0.00000000000E+00 -0.19097568431E+04  0.19097568431E+04  0.25500000920E-02 0.  1.
    10030    2    1    2    0    0  0.00000000000E+00  0.00000000000E+00 -0.65537923520E+03  0.31641344511E+04  0.30955169007E+04 0.  0.
        1    1    3    3  502    0  0.12006596191E+04 -0.36417687462E+03 -0.12540614182E+04  0.17739442939E+04  0.50400001928E-02 0.  1.
       -1    1    3    3    0  502 -0.12006596191E+04  0.36417687462E+03  0.59868218303E+03  0.13901901572E+04  0.50400001928E-02 0. -1.
</event>
<event>
 5   0  0.5154105E-07  0.3095627E+04  0.7818609E-02  0.8216939E-01
        2   -1    0    0  501    0  0.00000000000E+00  0.00000000000E+00  0.22395226517E+04  0.22395226517E+04  0.25500000920E-02 0. -1.
       -2   -1    0    0    0  501  0.00000000000E+00  0.00000000000E+00 -0.10697485850E+04  0.10697485851E+04  0.25500000920E-02 0.  1.
    10030    2    1    2    0    0  0.00000000000E+00  0.00000000000E+00  0.11697740666E+04  0.33092712367E+04  0.30956267138E+04 0.  0.
        1    1    3    3  502    0 -0.14494795297E+04  0.54161682418E+03  0.54508152601E+03  0.16405650128E+04  0.50400001928E-02 0.  1.
       -1    1    3    3    0  502  0.14494795297E+04 -0.54161682418E+03  0.62469254060E+03  0.16687062239E+04  0.50400001928E-02 0. -1.
</event>
<event>
 5   0  0.1840359E-07  0.3121210E+04  0.7818609E-02  0.8209941E-01
        1   -1    0    0  501    0  0.00000000000E+00  0.00000000000E+00  0.25777727125E+04  0.25777727125E+04  0.50400001928E-02 0.  1.
       -1   -1    0    0    0  501  0.00000000000E+00  0.00000000000E+00 -0.94480301752E+03  0.94480301754E+03  0.50400001928E-02 0. -1.
    10030    2    1    2    0    0  0.00000000000E+00  0.00000000000E+00  0.16329696950E+04  0.35225757300E+04  0.31212096612E+04 0.  0.
        1    1    3    3  502    0  0.15408012768E+04  0.22624950736E+03  0.93063479200E+03  0.18142046550E+04  0.50400001928E-02 0.  1.
       -1    1    3    3    0  502 -0.15408012768E+04 -0.22624950736E+03  0.70233490296E+03  0.17083710750E+04  0.50400001928E-02 0. -1.
</event>
<event>
 5   0  0.1845123E-07  0.3098871E+04  0.7818609E-02  0.8216048E-01
       -1   -1    0    0    0  501  0.00000000000E+00  0.00000000000E+00  0.13233609047E+04  0.13233609047E+04  0.50400001928E-02 0. -1.
        1   -1    0    0  501    0  0.00000000000E+00  0.00000000000E+00 -0.18141311539E+04  0.18141311539E+04  0.50400001928E-02 0.  1.
    10030    2    1    2    0    0  0.00000000000E+00  0.00000000000E+00 -0.49077024918E+03  0.31374920586E+04  0.30988709202E+04 0.  0.
        2    1    3    3  502    0  0.11893309200E+04  0.81355672993E+03  0.33124578583E+03  0.14785487347E+04  0.25500000920E-02 0. -1.
       -2    1    3    3    0  502 -0.11893309200E+04 -0.81355672993E+03 -0.82201603501E+03  0.16589433239E+04  0.25500000920E-02 0.  1.
</event>
<event>
 5   0  0.5154105E-07  0.3108332E+04  0.7818609E-02  0.8213455E-01
       -2   -1    0    0    0  501  0.00000000000E+00  0.00000000000E+00  0.18967385735E+04  0.18967385735E+04  0.25500000920E-02 0.  1.
        2   -1    0    0  501    0  0.00000000000E+00  0.00000000000E+00 -0.12734657364E+04  0.12734657364E+04  0.25500000920E-02 0. -1.
    10030    2    1    2    0    0  0.00000000000E+00  0.00000000000E+00  0.62327283710E+03  0.31702043099E+04  0.31083317611E+04 0.  0.
        1    1    3    3  502    0 -0.13224229872E+04  0.59517613929E+03 -0.25841167723E+03  0.14730287808E+04  0.50400001928E-02 0. -1.
       -1    1    3    3    0  502  0.13224229872E+04 -0.59517613929E+03  0.88168451433E+03  0.16971755292E+04  0.50400001928E-02 0.  1.
</event>
<event>
 5   0  0.1830902E-07  0.3106431E+04  0.7818609E-02  0.8213975E-01
        1   -1    0    0  501    0  0.00000000000E+00  0.00000000000E+00  0.15137477100E+04  0.15137477100E+04  0.50400001928E-02 0.  1.
       -1   -1    0    0    0  501  0.00000000000E+00  0.00000000000E+00 -0.15937125905E+04  0.15937125905E+04  0.50400001928E-02 0. -1.
    10030    2    1    2    0    0  0.00000000000E+00  0.00000000000E+00 -0.79964880531E+02  0.31074603005E+04  0.31064312542E+04 0.  0.
        3    1    3    3  502    0 -0.27995471105E+00 -0.15380495546E+04  0.17661241003E+03  0.15481564728E+04  0.10100000352E+00 0.  1.
       -3    1    3    3    0  502  0.27995471105E+00  0.15380495546E+04 -0.25657729056E+03  0.15593038277E+04  0.10100000352E+00 0. -1.
</event>
<event>
 5   0  0.5376678E-07  0.3093942E+04  0.7818609E-02  0.8217402E-01
       -2   -1    0    0    0  501  0.00000000000E+00  0.00000000000E+00  0.11875629618E+04  0.11875629618E+04  0.25500000920E-02 0.  1.
        2   -1    0    0  501    0  0.00000000000E+00  0.00000000000E+00 -0.20151518269E+04  0.20151518269E+04  0.25500000920E-02 0. -1.
    10030    2    1    2    0    0  0.00000000000E+00  0.00000000000E+00 -0.82758886506E+03  0.32027147887E+04  0.30939422568E+04 0.  0.
        5    1    3    3  502    0 -0.41105140467E+02 -0.94429415123E+03  0.85388851017E+03  0.12737852073E+04  0.46999998093E+01 0.  1.
       -5    1    3    3    0  502  0.41105140467E+02  0.94429415123E+03 -0.16814773752E+04  0.19289295814E+04  0.46999998093E+01 0. -1.
</event>
<event>
 5   0  0.1830902E-07  0.3099896E+04  0.7818609E-02  0.8215766E-01
       -1   -1    0    0    0  501  0.00000000000E+00  0.00000000000E+00  0.11826997217E+04  0.11826997217E+04  0.50400001928E-02 0.  1.
        1   -1    0    0  501    0  0.00000000000E+00  0.00000000000E+00 -0.20312332394E+04  0.20312332394E+04  0.50400001928E-02 0. -1.
    10030    2    1    2    0    0  0.00000000000E+00  0.00000000000E+00 -0.84853351772E+03  0.32139329611E+04  0.30998961188E+04 0.  0.
        3    1    3    3  502    0 -0.53141483490E+03  0.61760520086E+03 -0.17912939526E+04  0.19678851455E+04  0.10100000352E+00 0. -1.
       -3    1    3    3    0  502  0.53141483490E+03 -0.61760520086E+03  0.94276043491E+03  0.12460478156E+04  0.10100000352E+00 0.  1.
</event>
<event>
 5   0  0.5055900E-07  0.3096247E+04  0.7818609E-02  0.8216769E-01
       -2   -1    0    0    0  501  0.00000000000E+00  0.00000000000E+00  0.15810971498E+04  0.15810971498E+04  0.25500000920E-02 0. -1.
        2   -1    0    0  501    0  0.00000000000E+00  0.00000000000E+00 -0.15158375853E+04  0.15158375853E+04  0.25500000920E-02 0.  1.
    10030    2    1    2    0    0  0.00000000000E+00  0.00000000000E+00  0.65259564479E+02  0.30969347351E+04  0.30962470739E+04 0.  0.
        2    1    3    3  502    0 -0.27935446206E+03  0.34328019874E+03 -0.14512111662E+04  0.15171994132E+04  0.25500000920E-02 0.  1.
       -2    1    3    3    0  502  0.27935446206E+03 -0.34328019874E+03  0.15164707307E+04  0.15797353220E+04  0.25500000920E-02 0. -1.
</event>
<event>
 5   0  0.1875284E-07  0.3097157E+04  0.7818609E-02  0.8216518E-01
       -1   -1    0    0    0  501  0.00000000000E+00  0.00000000000E+00  0.27450031550E+04  0.27450031550E+04  0.50400001928E-02 0. -1.
        1   -1    0    0  501    0  0.00000000000E+00  0.00000000000E+00 -0.87362223963E+03  0.87362223965E+03  0.50400001928E-02 0.  1.
    10030    2    1    2    0    0  0.00000000000E+00  0.00000000000E+00  0.18713809154E+04  0.36186253946E+04  0.30971572799E+04 0.  0.
        4    1    3    3  502    0 -0.63481475928E+03  0.13588984085E+04  0.48545167346E+03  0.15764706161E+04  0.12699999809E+01 0. -1.
       -4    1    3    3    0  502  0.63481475928E+03 -0.13588984085E+04  0.13859292419E+04  0.20421547786E+04  0.12699999809E+01 0.  1.
</event>
<event>
 5   0  0.1814075E-07  0.3098662E+04  0.7818609E-02  0.8216105E-01
        1   -1    0    0  501    0  0.00000000000E+00  0.00000000000E+00  0.18064632199E+04  0.18064632199E+04  0.50400001928E-02 0. -1.
       -1   -1    0    0    0  501  0.00000000000E+00  0.00000000000E+00 -0.13287990131E+04  0.13287990131E+04  0.50400001928E-02 0.  1.
    10030    2    1    2    0    0  0.00000000000E+00  0.00000000000E+00  0.47766420675E+03  0.31352622330E+04  0.30986619976E+04 0.  0.
        5    1    3    3  502    0 -0.79048868330E+03  0.54254370506E+03 -0.99257981771E+03  0.13800227588E+04  0.46999998093E+01 0.  1.
       -5    1    3    3    0  502  0.79048868330E+03 -0.54254370506E+03  0.14702440245E+04  0.17552394742E+04  0.46999998093E+01 0. -1.
</event>
<event>
 5   0  0.1840359E-07  0.3106757E+04  0.7818609E-02  0.8213886E-01
        1   -1    0    0  501    0  0.00000000000E+00  0.00000000000E+00  0.18588611564E+04  0.18588611564E+04  0.50400001928E-02 0.  1.
       -1   -1    0    0    0  501  0.00000000000E+00  0.00000000000E+00 -0.12980986433E+04  0.12980986433E+04  0.50400001928E-02 0. -1.
    10030    2    1    2    0    0  0.00000000000E+00  0.00000000000E+00  0.56076251310E+03  0.31569597998E+04  0.31067572453E+04 0.  0.
        1    1    3    3  502    0 -0.14642255867E+04  0.57117442326E+02  0.80423684860E+03  0.16715309987E+04  0.50400001928E-02 0.  1.
       -1    1    3    3    0  502  0.14642255867E+04 -0.57117442326E+02 -0.24347433551E+03  0.14854288011E+04  0.50400001928E-02 0. -1.
</event>
<event>
 5   0  0.1845123E-07  0.3095070E+04  0.7818609E-02  0.8217092E-01
        1   -1    0    0  501    0  0.00000000000E+00  0.00000000000E+00  0.19149252963E+04  0.19149252963E+04  0.50400001928E-02 0. -1.
       -1   -1    0    0    0  501  0.00000000000E+00  0.00000000000E+00 -0.12506311856E+04  0.12506311856E+04  0.50400001928E-02 0.  1.
    10030    2    1    2    0    0  0.00000000000E+00  0.00000000000E+00  0.66429411072E+03  0.31655564819E+04  0.30950704636E+04 0.  0.
        2    1    3    3  502    0  0.64557361161E+03 -0.10625495389E+04  0.12745920261E+04  0.17805509382E+04  0.25500000920E-02 0. -1.
       -2    1    3    3    0  502 -0.64557361161E+03  0.10625495389E+04 -0.61029791540E+03  0.13850055437E+04  0.25500000920E-02 0.  1.
</event>
<event>
 5   0  0.5342534E-07  0.3092962E+04  0.7818609E-02  0.8217672E-01
       -2   -1    0    0    0  501  0.00000000000E+00  0.00000000000E+00  0.12866246831E+04  0.12866246831E+04  0.25500000920E-02 0.  1.
        2   -1    0    0  501    0  0.00000000000E+00  0.00000000000E+00 -0.18588203527E+04  0.18588203527E+04  0.25500000920E-02 0. -1.
    10030    2    1    2    0    0  0.00000000000E+00  0.00000000000E+00 -0.57219566961E+03  0.31454450358E+04  0.30929624293E+04 0.  0.
        3    1    3    3  502    0 -0.46808276609E+03  0.54558656875E+03  0.11063833150E+04  0.13194128352E+04  0.10100000352E+00 0.  1.
       -3    1    3    3    0  502  0.46808276609E+03 -0.54558656875E+03 -0.16785789846E+04  0.18260322006E+04  0.10100000352E+00 0. -1.
</event>
<event>
 5   0  0.5154105E-07  0.3091294E+04  0.7818609E-02  0.8218131E-01
       -2   -1    0    0    0  501  0.00000000000E+00  0.00000000000E+00  0.16550993617E+04  0.16550993617E+04  0.25500000920E-02 0.  1.
        2   -1    0    0  501    0  0.00000000000E+00  0.00000000000E+00 -0.14434330443E+04  0.14434330443E+04  0.25500000920E-02 0. -1.
    10030    2    1    2    0    0  0.00000000000E+00  0.00000000000E+00  0.21166631738E+03  0.30985324060E+04  0.30912942987E+04 0.  0.
        1    1    3    3  502    0  0.15036262813E+04  0.36969876048E+02  0.46270943079E+03  0.15736450625E+04  0.50400001928E-02 0.  1.
       -1    1    3    3    0  502 -0.15036262813E+04 -0.36969876048E+02 -0.25104311341E+03  0.15248873435E+04  0.50400001928E-02 0. -1.
</event>
<event>
 5   0  0.1845123E-07  0.3099132E+04  0.7818609E-02  0.8215976E-01
       -1   -1    0    0    0  501  0.00000000000E+00  0.00000000000E+00  0.18017881293E+04  0.18017881293E+04  0.50400001928E-02 0.  1.
        1   -1    0    0  501    0  0.00000000000E+00  0.00000000000E+00 -0.13326513385E+04  0.13326513385E+04  0.50400001928E-02 0. -1.
    10030    2    1    2    0    0  0.00000000000E+00  0.00000000000E+00  0.46913679080E+03  0.31344394678E+04  0.30991323704E+04 0.  0.
        2    1    3    3  502    0  0.13253763026E+04  0.46229908932E+02 -0.57605869280E+03  0.14458918236E+04  0.25500000920E-02 0. -1.
       -2    1    3    3    0  502 -0.13253763026E+04 -0.46229908932E+02  0.10451954836E+04  0.16885476442E+04  0.25500000920E-02 0.  1.
</event>
<event>
 5   0  0.1875284E-07  0.3080202E+04  0.7818609E-02  0.8221192E-01
       -1   -1    0    0    0  501  0.00000000000E+00  0.00000000000E+00  0.14806404931E+04  0.14806404931E+04  0.50400001928E-02 0. -1.
        1   -1    0    0  501    0  0.00000000000E+00  0.00000000000E+00 -0.16019496320E+04  0.16019496320E+04  0.50400001928E-02 0.  1.
    10030    2    1    2    0    0  0.00000000000E+00  0.00000000000E+00 -0.12130913891E+03  0.30825901251E+04  0.30802022616E+04 0.  0.
        4    1    3    3  502    0 -0.11404295717E+04 -0.69214458102E+03 -0.83083947678E+03  0.15716041417E+04  0.12699999809E+01 0.  1.
       -4    1    3    3    0  502  0.11404295717E+04  0.69214458102E+03  0.70953033787E+03  0.15109859835E+04  0.12699999809E+01 0. -1.
</event>
<event>
 5   0  0.1830902E-07  0.3100705E+04  0.7818609E-02  0.8215544E-01
       -1   -1    0    0    0  501  0.00000000000E+00  0.00000000000E+00  0.14647843661E+04  0.14647843661E+04  0.50400001928E-02 0. -1.
        1   -1    0    0  501    0  0.00000000000E+00  0.00000000000E+00 -0.16409191818E+04  0.16409191818E+04  0.50400001928E-02 0.  1.
    10030    2    1    2    0    0  0.00000000000E+00  0.00000000000E+00 -0.17613481572E+03  0.31057035479E+04  0.31007049285E+04 0.  0.
        3    1    3    3  502    0  0.14076366396E+04 -0.58821427189E+03  0.18834090004E+03  0.15371757361E+04  0.10100000352E+00 0. -1.
       -3    1    3    3    0  502 -0.14076366396E+04  0.58821427189E+03 -0.36447571576E+03  0.15685278118E+04  0.10100000352E+00 0.  1.
</event>
<event>
 5   0  0.1875284E-07  0.3180327E+04  0.7818609E-02  0.8194032E-01
       -1   -1    0    0    0  501  0.00000000000E+00  0.00000000000E+00  0.13896959527E+04  0.13896959527E+04  0.50400001928E-02 0.  1.
        1   -1    0    0  501    0  0.00000000000E+00  0.00000000000E+00 -0.18195495130E+04  0.18195495130E+04  0.50400001928E-02 0. -1.
    10030    2    1    2    0    0  0.00000000000E+00  0.00000000000E+00 -0.42985356031E+03  0.32092454658E+04  0.31803274008E+04 0.  0.
        4    1    3    3  502    0  0.78328303065E+03  0.12956891679E+02  0.11814617923E+04  0.14175873048E+04  0.12699999809E+01 0.  1.
       -4    1    3    3    0  502 -0.78328303065E+03 -0.12956891679E+02 -0.16113153526E+04  0.17916581609E+04  0.12699999809E+01 0. -1.
</event>
<event>
 5   0  0.5055900E-07  0.3101328E+04  0.7818609E-02  0.8215373E-01
        2   -1    0    0  501    0  0.00000000000E+00  0.00000000000E+00  0.21949239698E+04  0.21949239698E+04  0.25500000920E-02 0. -1.
       -2   -1    0    0    0  501  0.00000000000E+00  0.00000000000E+00 -0.10955090914E+04  0.10955090914E+04  0.25500000920E-02 0.  1.
    10030    2    1    2    0    0  0.00000000000E+00  0.00000000000E+00  0.10994148783E+04  0.32904330612E+04  0.31013282083E+04 0.  0.
        2    1    3    3  502    0 -0.18517230379E+03 -0.33392863472E+03 -0.10448514831E+04  0.11124350484E+04  0.25500000920E-02 0.  1.
       -2    1    3    3    0  502  0.18517230379E+03  0.33392863472E+03  0.21442663614E+04  0.21779980128E+04  0.25500000920E-02 0. -1.
</event>
<event>
 5   0  0.5154105E-07  0.3100306E+04  0.7818609E-02  0.8215654E-01
       -2   -1    0    0    0  501  0.00000000000E+00  0.00000000000E+00  0.21327188912E+04  0.21327188912E+04  0.25500000920E-02 0. -1.
        2   -1    0    0  501    0  0.00000000000E+00  0.00000000000E+00 -0.11267188028E+04  0.11267188028E+04  0.25500000920E-02 0.  1.
    10030    2    1    2    0    0  0.00000000000E+00  0.00000000000E+00  0.10060000885E+04  0.32594376940E+04  0.31003060983E+04 0.  0.
        1    1    3    3  502    0  0.59919636784E+03 -0.10606424745E+04  0.15108366538E+04  0.19407797764E+04  0.50400001928E-02 0. -1.
       -1    1    3    3    0  502 -0.59919636784E+03  0.10606424745E+04 -0.50483656530E+03  0.13186579176E+04  0.50400001928E-02 0.  1.
</event>
<event>
 5   0  0.1840359E-07  0.3100726E+04  0.7818609E-02  0.8215539E-01
       -1   -1    0    0    0  501  0.00000000000E+00  0.00000000000E+00  0.13860791783E+04  0.13860791783E+04  0.50400001928E-02 0. -1.
        1   -1    0    0  501    0  0.00000000000E+00  0.00000000000E+00 -0.17341187241E+04  0.17341187242E+04  0.50400001928E-02 0.  1.
    10030    2    1    2    0    0  0.00000000000E+00  0.00000000000E+00 -0.34803954583E+03  0.31201979025E+04  0.31007262738E+04 0.  0.
        1    1    3    3  502    0 -0.10190082165E+04 -0.71766718217E+03 -0.11018740066E+04  0.16635955807E+04  0.50400001928E-02 0.  1.
       -1    1    3    3    0  502  0.10190082165E+04  0.71766718217E+03  0.75383446074E+03  0.14566023218E+04  0.50400001928E-02 0. -1.
</event>
<event>
 5   0  0.5055900E-07  0.3115591E+04  0.7818609E-02  0.8211472E-01
       -2   -1    0    0    0  501  0.00000000000E+00  0.00000000000E+00  0.16576729541E+04  0.16576729541E+04  0.25500000920E-02 0.  1.
        2   -1    0    0  501    0  0.00000000000E+00  0.00000000000E+00 -0.14639361980E+04  0.14639361980E+04  0.25500000920E-02 0. -1.
    10030    2    1    2    0    0  0.00000000000E+00  0.00000000000E+00  0.19373675613E+03  0.31216091521E+04  0.31155913994E+04 0.  0.
        2    1    3    3  502    0 -0.16850179849E+03  0.51445146721E+03 -0.13666631730E+04  0.14699732639E+04  0.25500000920E-02 0. -1.
       -2    1    3    3    0  502  0.16850179849E+03 -0.51445146721E+03  0.15603999292E+04  0.16516358882E+04  0.25500000920E-02 0.  1.
</event>
<event>
 5   0  0.1830902E-07  0.3098180E+04  0.7818609E-02  0.8216237E-01
       -1   -1    0    0    0  501  0.00000000000E+00  0.00000000000E+00  0.13017522298E+04  0.13017522298E+04  0.50400001928E-02 0. -1.
        1   -1    0    0  501    0  0.00000000000E+00  0.00000000000E+00 -0.18434231653E+04  0.18434231653E+04  0.50400001928E-02 0.  1.
    10030    2    1    2    0    0  0.00000000000E+00  0.00000000000E+00 -0.54167093546E+03  0.31451753951E+04  0.30981802503E+04 0.  0.
        3    1    3    3  502    0  0.59276176079E+02 -0.87095527445E+03 -0.15699354017E+04  0.17963223349E+04  0.10100000352E+00 0.  1.
       -3    1    3    3    0  502 -0.59276176079E+02  0.87095527445E+03  0.10282644663E+04  0.13488530602E+04  0.10100000352E+00 0. -1.
</event>
<event>
 5   0  0.5154105E-07  0.3099848E+04  0.7818609E-02  0.8215780E-01
        2   -1    0    0  501    0  0.00000000000E+00  0.00000000000E+00  0.89713465179E+03  0.89713465179E+03  0.25500000920E-02 0. -1.
       -2   -1    0    0    0  501  0.00000000000E+00  0.00000000000E+00 -0.26777078618E+04  0.26777078618E+04  0.25500000920E-02 0.  1.
    10030    2    1    2    0    0  0.00000000000E+00  0.00000000000E+00 -0.17805732100E+04  0.35748425136E+04  0.30998480674E+04 0.  0.
        1    1    3    3  502    0 -0.13887188270E+04  0.34728197304E+03 -0.15755815315E+04  0.21287559541E+04  0.50400001928E-02 0.  1.
       -1    1    3    3    0  502  0.13887188270E+04 -0.34728197304E+03 -0.20499167847E+03  0.14460865595E+04  0.50400001928E-02 0. -1.
</event>
<event>
 5   0  0.1830902E-07  0.3083619E+04  0.7818609E-02  0.8220248E-01
       -1   -1    0    0    0  501  0.00000000000E+00  0.00000000000E+00  0.89820040257E+03  0.89820040258E+03  0.50400001928E-02 0. -1.
        1   -1    0    0  501    0  0.00000000000E+00  0.00000000000E+00 -0.26465984813E+04  0.26465984813E+04  0.50400001928E-02 0.  1.
    10030    2    1    2    0    0  0.00000000000E+00  0.00000000000E+00 -0.17483980788E+04  0.35447988839E+04  0.30836185376E+04 0.  0.
        3    1    3    3  502    0  0.19319112989E+03  0.48957129644E+03  0.79173760869E+03  0.95071095406E+03  0.10100000352E+00 0. -1.
       -3    1    3    3    0  502 -0.19319112989E+03 -0.48957129644E+03 -0.25401356874E+04  0.25940879299E+04  0.10100000352E+00 0.  1.
</event>
<event>
 5   0  0.5376678E-07  0.3106365E+04  0.7818609E-02  0.8213993E-01
        2   -1    0    0  501    0  0.00000000000E+00  0.00000000000E+00  0.16992307040E+04  0.16992307040E+04  0.25500000920E-02 0.  1.
       -2   -1    0    0    0  501  0.00000000000E+00  0.00000000000E+00 -0.14196869221E+04  0.14196869221E+04  0.25500000920E-02 0. -1.
    10030    2    1    2    0    0  0.00000000000E+00  0.00000000000E+00  0.27954378184E+03  0.31189176261E+04  0.31063648260E+04 0.  0.
        5    1    3    3  502    0  0.30068962929E+03 -0.12658122831E+04 -0.71198309231E+03  0.14831173261E+04  0.46999998093E+01 0. -1.
       -5    1    3    3    0  502 -0.30068962929E+03  0.12658122831E+04  0.99152687415E+03  0.16358003000E+04  0.46999998093E+01 0.  1.
</event>
<event>
 5   0  0.5154105E-07  0.3092432E+04  0.7818609E-02  0.8217818E-01
       -2   -1    0    0    0  501  0.00000000000E+00  0.00000000000E+00  0.18643434949E+04  0.18643434949E+04  0.25500000920E-02 0.  1.
        2   -1    0    0  501    0  0.00000000000E+00  0.00000000000E+00 -0.12823734793E+04  0.12823734794E+04  0.25500000920E-02 0. -1.
    10030    2    1    2    0    0  0.00000000000E+00  0.00000000000E+00  0.58197001551E+03  0.31467169742E+04  0.30924324757E+04 0.  0.
        1    1    3    3  502    0  0.49914366842E+03 -0.11285176768E+04 -0.65708271293E+03  0.13980179685E+04  0.50400001928E-02 0. -1.
       -1    1    3    3    0  502 -0.49914366842E+03  0.11285176768E+04  0.12390527284E+04  0.17486990057E+04  0.50400001928E-02 0.  1.
</event>
<event>
 5   0  0.1845123E-07  0.3098691E+04  0.7818609E-02  0.8216097E-01
        1   -1    0    0  501    0  0.00000000000E+00  0.00000000000E+00  0.16854182236E+04  0.16854182236E+04  0.50400001928E-02 0. -1.
       -1   -1    0    0    0  501  0.00000000000E+00  0.00000000000E+00 -0.14242585007E+04  0.14242585007E+04  0.50400001928E-02 0.  1.
    10030    2    1    2    0    0  0.00000000000E+00  0.00000000000E+00  0.26115972290E+03  0.31096767243E+04  0.30986908411E+04 0.  0.
        2    1    3    3  502    0 -0.51506325604E+03 -0.70230187224E+03  0.14165100020E+04  0.16628345267E+04  0.25500000920E-02 0. -1.
       -2    1    3    3    0  502  0.51506325604E+03  0.70230187224E+03 -0.11553502791E+04  0.14468421976E+04  0.25500000920E-02 0.  1.
</event>
<event>
 5   0  0.5055900E-07  0.3095853E+04  0.7818609E-02  0.8216877E-01
        2   -1    0    0  501    0  0.00000000000E+00  0.00000000000E+00  0.21773761858E+04  0.21773761858E+04  0.25500000920E-02 0. -1.
       -2   -1    0    0    0  501  0.00000000000E+00  0.00000000000E+00 -0.11004419164E+04  0.11004419164E+04  0.25500000920E-02 0.  1.
    10030    2    1    2    0    0  0.00000000000E+00  0.00000000000E+00  0.10769342694E+04  0.32778181022E+04  0.30958527243E+04 0.  0.
        2    1    3    3  502    0  0.13102209541E+04 -0.82302586834E+03  0.58611791801E+03  0.16545648196E+04  0.25500000920E-02 0. -1.
       -2    1    3    3    0  502 -0.13102209541E+04  0.82302586834E+03  0.49081635139E+03  0.16232532826E+04  0.25500000920E-02 0.  1.
</event>
<event>
 5   0  0.5154105E-07  0.3066184E+04  0.7818609E-02  0.8225080E-01
       -2   -1    0    0    0  501  0.00000000000E+00  0.00000000000E+00  0.13188060644E+04  0.13188060644E+04  0.25500000920E-02 0. -1.
        2   -1    0    0  501    0  0.00000000000E+00  0.00000000000E+00 -0.17821960686E+04  0.17821960686E+04  0.25500000920E-02 0.  1.
    10030    2    1    2    0    0  0.00000000000E+00  0.00000000000E+00 -0.46339000418E+03  0.31010021329E+04  0.30661839365E+04 0.  0.
        1    1    3    3  502    0  0.96869342444E+03 -0.41542085983E+03 -0.13576337951E+04  0.17187527347E+04  0.50400001928E-02 0.  1.
       -1    1    3    3    0  502 -0.96869342444E+03  0.41542085983E+03  0.89424379093E+03  0.13822493983E+04  0.50400001928E-02 0. -1.
</event>
<event>
 5   0  0.1845123E-07  0.3100671E+04  0.7818609E-02  0.8215554E-01
       -1   -1    0    0    0  501  0.00000000000E+00  0.00000000000E+00  0.19311647399E+04  0.19311647399E+04  0.50400001928E-02 0.  1.
        1   -1    0    0  501    0  0.00000000000E+00  0.00000000000E+00 -0.12446068227E+04  0.12446068227E+04  0.50400001928E-02 0. -1.
    10030    2    1    2    0    0  0.00000000000E+00  0.00000000000E+00  0.68655791727E+03  0.31757715626E+04  0.31006714183E+04 0.  0.
        2    1    3    3  502    0  0.14412529833E+04 -0.54320183123E+03  0.16218464901E+03  0.15487356946E+04  0.25500000920E-02 0. -1.
       -2    1    3    3    0  502 -0.14412529833E+04  0.54320183123E+03  0.52437326826E+03  0.16270358680E+04  0.25500000920E-02 0.  1.
</event>
<event>
 5   0  0.1875284E-07  0.3102356E+04  0.7818609E-02  0.8215092E-01
        1   -1    0    0  501    0  0.00000000000E+00  0.00000000000E+00  0.18821324377E+04  0.18821324377E+04  0.50400001928E-02 0.  1.
       -1   -1    0    0    0  501  0.00000000000E+00  0.00000000000E+00 -0.12784187456E+04  0.12784187456E+04  0.50400001928E-02 0. -1.
    10030    2    1    2    0    0  0.00000000000E+00  0.00000000000E+00  0.60371369210E+03  0.31605511832E+04  0.31023561304E+04 0.  0.
        4    1    3    3  502    0 -0.76513527617E+03  0.87605043970E+03  0.13473905258E+04  0.17799885408E+04  0.12699999809E+01 0.  1.
       -4    1    3    3    0  502  0.76513527617E+03 -0.87605043970E+03 -0.74367683366E+03  0.13805626424E+04  0.12699999809E+01 0. -1.
</event>
<event>
 5   0  0.5376678E-07  0.3098254E+04  0.7818609E-02  0.8216217E-01
       -2   -1    0    0    0  501  0.00000000000E+00  0.00000000000E+00  0.24559837264E+04  0.24559837264E+04  0.25500000920E-02 0.  1.
        2   -1    0    0  501    0  0.00000000000E+00  0.00000000000E+00 -0.97712171312E+03  0.97712171312E+03  0.25500000920E-02 0. -1.
    10030    2    1    2    0    0  0.00000000000E+00  0.00000000000E+00  0.14788620133E+04  0.34331054395E+04  0.30982543641E+04 0.  0.
        5    1    3    3  502    0  0.51851463751E+03  0.12373563514E+04 -0.11878527369E+03  0.13468630966E+04  0.46999998093E+01 0.  1.
       -5    1    3    3    0  502 -0.51851463751E+03 -0.12373563514E+04  0.15976472870E+04  0.20862423429E+04  0.46999998093E+01 0. -1.
</event>
<event>
 5   0  0.1830902E-07  0.3095458E+04  0.7818609E-02  0.8216986E-01
        1   -1    0    0  501    0  0.00000000000E+00  0.00000000000E+00  0.16840311178E+04  0.16840311178E+04  0.50400001928E-02 0. -1.
       -1   -1    0    0    0  501  0.00000000000E+00  0.00000000000E+00 -0.14224588727E+04  0.14224588727E+04  0.50400001928E-02 0.  1.
    10030    2    1    2    0    0  0.00000000000E+00  0.00000000000E+00  0.26157224511E+03  0.31064899905E+04  0.30954579664E+04 0.  0.
        3    1    3    3  502    0 -0.48710829042E+03  0.36115489089E+03 -0.12982824620E+04  0.14329147579E+04  0.10100000352E+00 0.  1.
       -3    1    3    3    0  502  0.48710829042E+03 -0.36115489089E+03  0.15598547072E+04  0.16735752327E+04  0.10100000352E+00 0. -1.
</event>
<event>
 5   0  0.1830902E-07  0.3099749E+04  0.7818609E-02  0.8215807E-01
       -1   -1    0    0    0  501  0.00000000000E+00  0.00000000000E+00  0.15599838978E+04  0.15599838978E+04  0.50400001928E-02 0. -1.
        1   -1    0    0  501    0  0.00000000000E+00  0.00000000000E+00 -0.15398303779E+04  0.15398303779E+04  0.50400001928E-02 0.  1.
    10030    2    1    2    0    0  0.00000000000E+00  0.00000000000E+00  0.20153519916E+02  0.30998142757E+04  0.30997487607E+04 0.  0.
        3    1    3    3  502    0  0.27479047113E+03  0.16268733576E+03  0.15267279535E+04  0.15597676835E+04  0.10100000352E+00 0. -1.
       -3    1    3    3    0  502 -0.27479047113E+03 -0.16268733576E+03 -0.15065744336E+04  0.15400465922E+04  0.10100000352E+00 0.  1.
</event>
<event>
 5   0  0.5342534E-07  0.3092974E+04  0.7818609E-02  0.8217669E-01
        2   -1    0    0  501    0  0.00000000000E+00  0.00000000000E+00  0.11510430995E+04  0.11510430996E+04  0.25500000920E-02 0. -1.
       -2   -1    0    0    0  501  0.00000000000E+00  0.00000000000E+00 -0.20777866708E+04  0.20777866708E+04  0.25500000920E-02 0.  1.
    10030    2    1    2    0    0  0.00000000000E+00  0.00000000000E+00 -0.92674357122E+03  0.32288297703E+04  0.30929739797E+04 0.  0.
        3    1    3    3  502    0 -0.93407538003E+02  0.86185692445E+03  0.87354385288E+03  0.12306913502E+04  0.10100000352E+00 0. -1.
       -3    1    3    3    0  502  0.93407538003E+02 -0.86185692445E+03 -0.18002874241E+04  0.19981384201E+04  0.10100000352E+00 0.  1.
</event>
<event>
 5   0  0.5376678E-07  0.3098258E+04  0.7818609E-02  0.8216216E-01
       -2   -1    0    0    0  501  0.00000000000E+00  0.00000000000E+00  0.14873316528E+04  0.14873316528E+04  0.25500000920E-02 0. -1.
        2   -1    0    0  501    0  0.00000000000E+00  0.00000000000E+00 -0.16134942866E+04  0.16134942866E+04  0.25500000920E-02 0.  1.
    10030    2    1    2    0    0  0.00000000000E+00  0.00000000000E+00 -0.12616263380E+03  0.31008259395E+04  0.30982583005E+04 0.  0.
        5    1    3    3  502    0  0.11261085067E+04  0.10149383324E+04 -0.38202840895E+03  0.15633899010E+04  0.46999998093E+01 0.  1.
       -5    1    3    3    0  502 -0.11261085067E+04 -0.10149383324E+04  0.25586577515E+03  0.15374360384E+04  0.46999998093E+01 0. -1.
</event>
<event>
 5   0  0.1814075E-07  0.3089533E+04  0.7818609E-02  0.8218616E-01
       -1   -1    0    0    0  501  0.00000000000E+00  0.00000000000E+00  0.14915154359E+04  0.14915154359E+04  0.50400001928E-02 0.  1.
        1   -1    0    0  501    0  0.00000000000E+00  0.00000000000E+00 -0.15999186632E+04  0.15999186632E+04  0.50400001928E-02 0. -1.
    10030    2    1    2    0    0  0.00000000000E+00  0.00000000000E+00 -0.10840322730E+03  0.30914340991E+04  0.30895328982E+04 0.  0.
        5    1    3    3  502    0 -0.27802834816E+03 -0.36406487174E+03  0.14219818932E+04  0.14939536766E+04  0.46999998093E+01 0.  1.
       -5    1    3    3    0  502  0.27802834816E+03  0.36406487174E+03 -0.15303851205E+04  0.15974804225E+04  0.46999998093E+01 0. -1.
</event>
<event>
 5   0  0.1845123E-07  0.3101926E+04  0.7818609E-02  0.8215210E-01
       -1   -1    0    0    0  501  0.00000000000E+00  0.00000000000E+00  0.14513166994E+04  0.14513166995E+04  0.50400001928E-02 0.  1.
        1   -1    0    0  501    0  0.00000000000E+00  0.00000000000E+00 -0.16574508985E+04  0.16574508985E+04  0.50400001928E-02 0. -1.
    10030    2    1    2    0    0  0.00000000000E+00  0.00000000000E+00 -0.20613419908E+03  0.31087675980E+04  0.31019259614E+04 0.  0.
        2    1    3    3  502    0 -0.16846337828E+03  0.14327540697E+04 -0.67381596434E+03  0.15922286544E+04  0.25500000920E-02 0. -1.
       -2    1    3    3    0  502  0.16846337828E+03 -0.14327540697E+04  0.46768176526E+03  0.15165389436E+04  0.25500000920E-02 0.  1.
</event>
<event>
 5   0  0.5248309E-07  0.3101288E+04  0.7818609E-02  0.8215385E-01
       -2   -1    0    0    0  501  0.00000000000E+00  0.00000000000E+00  0.14268826043E+04  0.14268826043E+04  0.25500000920E-02 0.  1.
        2   -1    0    0  501    0  0.00000000000E+00  0.00000000000E+00 -0.16851395296E+04  0.16851395296E+04  0.25500000920E-02 0. -1.
    10030    2    1    2    0    0  0.00000000000E+00  0.00000000000E+00 -0.25825692539E+03  0.31120221339E+04  0.31012876555E+04 0.  0.
        4    1    3    3  502    0  0.13650806541E+03  0.59225368828E+03 -0.15606340718E+04  0.16748072134E+04  0.12699999809E+01 0. -1.
       -4    1    3    3    0  502 -0.13650806541E+03 -0.59225368828E+03  0.13023771464E+04  0.14372149205E+04  0.12699999809E+01 0.  1.
</event>
<event>
 5   0  0.5376678E-07  0.3099000E+04  0.7818609E-02  0.8216012E-01
       -2   -1    0    0    0  501  0.00000000000E+00  0.00000000000E+00  0.12615633413E+04  0.12615633413E+04  0.25500000920E-02 0.  1.
        2   -1    0    0  501    0  0.00000000000E+00  0.00000000000E+00 -0.19031552755E+04  0.19031552755E+04  0.25500000920E-02 0. -1.
    10030    2    1    2    0    0  0.00000000000E+00  0.00000000000E+00 -0.64159193415E+03  0.31647186168E+04  0.30990004378E+04 0.  0.
        5    1    3    3  502    0 -0.11932776662E+04 -0.26348925128E+03  0.65208223792E+03  0.13851250880E+04  0.46999998093E+01 0.  1.
       -5    1    3    3    0  502  0.11932776662E+04  0.26348925128E+03 -0.12936741721E+04  0.17795935288E+04  0.46999998093E+01 0. -1.
</event>
<event>
 5   0  0.1840359E-07  0.3087864E+04  0.7818609E-02  0.8219077E-01
        1   -1    0    0  501    0  0.00000000000E+00  0.00000000000E+00  0.19848095187E+04  0.19848095187E+04  0.50400001928E-02 0.  1.
       -1   -1    0    0    0  501  0.00000000000E+00  0.00000000000E+00 -0.12009845713E+04  0.12009845713E+04  0.50400001928E-02 0. -1.
    10030    2    1    2    0    0  0.00000000000E+00  0.00000000000E+00  0.78382494744E+03  0.31857940900E+04  0.30878637334E+04 0.  0.
        1    1    3    3  502    0  0.13618901517E+04  0.61118381812E+03 -0.14843756343E+02  0.14928197419E+04  0.50400001928E-02 0.  1.
       -1    1    3    3    0  502 -0.13618901517E+04 -0.61118381812E+03  0.79866870379E+03  0.16929743481E+04  0.50400001928E-02 0. -1.
</event>
<event>
 5   0  0.5055900E-07  0.3098514E+04  0.7818609E-02  0.8216146E-01
        2   -1    0    0  501    0  0.00000000000E+00  0.00000000000E+00  0.83424536102E+03  0.83424536102E+03  0.25500000920E-02 0. -1.
       -2   -1    0    0    0  501  0.00000000000E+00  0.00000000000E+00 -0.28770872225E+04  0.28770872225E+04  0.25500000920E-02 0.  1.
    10030    2    1    2    0    0  0.00000000000E+00  0.00000000000E+00 -0.20428418615E+04  0.37113325835E+04  0.30985136234E+04 0.  0.
        2    1    3    3  502    0 -0.38035736221E+03  0.20700125081E+03  0.76028210927E+03  0.87495721410E+03  0.25500000920E-02 0. -1.
       -2    1    3    3    0  502  0.38035736221E+03 -0.20700125081E+03 -0.28031239707E+04  0.28363753694E+04  0.25500000920E-02 0.  1.
</event>
<event>
 5   0  0.1845123E-07  0.3096359E+04  0.7818609E-02  0.8216738E-01
        1   -1    0    0  501    0  0.00000000000E+00  0.00000000000E+00  0.30789130491E+04  0.30789130491E+04  0.50400001928E-02 0.  1.
       -1   -1    0    0    0  501  0.00000000000E+00  0.00000000000E+00 -0.77847618105E+03  0.77847618106E+03  0.50400001928E-02 0. -1.
    10030    2    1    2    0    0  0.00000000000E+00  0.00000000000E+00  0.23004368680E+04  0.38573892302E+04  0.30963594573E+04 0.  0.
        2    1    3    3  502    0  0.50793997220E+02  0.15285861427E+04  0.14494781337E+04  0.21071645607E+04  0.25500000920E-02 0.  1.
       -2    1    3    3    0  502 -0.50793997220E+02 -0.15285861427E+04  0.85095873438E+03  0.17502246695E+04  0.25500000920E-02 0. -1.
</event>
<event>
 5   0  0.5154105E-07  0.3103513E+04  0.7818609E-02  0.8214774E-01
       -2   -1    0    0    0  501  0.00000000000E+00  0.00000000000E+00  0.11588050451E+04  0.11588050451E+04  0.25500000920E-02 0.  1.
        2   -1    0    0  501    0  0.00000000000E+00  0.00000000000E+00 -0.20779581862E+04  0.20779581862E+04  0.25500000920E-02 0. -1.
    10030    2    1    2    0    0  0.00000000000E+00  0.00000000000E+00 -0.91915314110E+03  0.32367632313E+04  0.31035131253E+04 0.  0.
        1    1    3    3  502    0 -0.57998560589E+03 -0.35723343953E+03 -0.19136951493E+04  0.20313119302E+04  0.50400001928E-02 0. -1.
       -1    1    3    3    0  502  0.57998560589E+03  0.35723343953E+03  0.99454200818E+03  0.12054513011E+04  0.50400001928E-02 0.  1.
</event>
<event>
 5   0  0.1830902E-07  0.3098368E+04  0.7818609E-02  0.8216186E-01
        1   -1    0    0  501    0  0.00000000000E+00  0.00000000000E+00  0.16530208912E+04  0.16530208912E+04  0.50400001928E-02 0. -1.
       -1   -1    0    0    0  501  0.00000000000E+00  0.00000000000E+00 -0.14518699382E+04  0.14518699382E+04  0.50400001928E-02 0.  1.
    10030    2    1    2    0    0  0.00000000000E+00  0.00000000000E+00  0.20115095298E+03  0.31048908295E+04  0.30983681765E+04 0.  0.
        3    1    3    3  502    0  0.15035716863E+04 -0.35754598672E+03  0.20759158661E+03  0.15593784741E+04  0.10100000352E+00 0. -1.
       -3    1    3    3    0  502 -0.15035716863E+04  0.35754598672E+03 -0.64406336307E+01  0.15455123553E+04  0.10100000352E+00 0.  1.
</event>
<event>
 5   0  0.1830902E-07  0.3102694E+04  0.7818609E-02  0.8214999E-01
        1   -1    0    0  501    0  0.00000000000E+00  0.00000000000E+00  0.24972043781E+04  0.24972043782E+04  0.50400001928E-02 0. -1.
       -1   -1    0    0    0  501  0.00000000000E+00  0.00000000000E+00 -0.96374871474E+03  0.96374871475E+03  0.50400001928E-02 0.  1.
    10030    2    1    2    0    0  0.00000000000E+00  0.00000000000E+00  0.15334556634E+04  0.34609530929E+04  0.31026939971E+04 0.  0.
        3    1    3    3  502    0 -0.67484628943E+03  0.13454781566E+04  0.11855088812E+04  0.19160272184E+04  0.10100000352E+00 0. -1.
       -3    1    3    3    0  502  0.67484628943E+03 -0.13454781566E+04  0.34794678219E+03  0.15449258745E+04  0.10100000352E+00 0.  1.
</event>
<event>
 5   0  0.5248309E-07  0.3102157E+04  0.7818609E-02  0.8215146E-01
        2   -1    0    0  501    0  0.00000000000E+00  0.00000000000E+00  0.26087187275E+04  0.26087187275E+04  0.25500000920E-02 0. -1.
       -2   -1    0    0    0  501  0.00000000000E+00  0.00000000000E+00 -0.92223219328E+03  0.92223219329E+03  0.25500000920E-02 0.  1.
    10030    2    1    2    0    0  0.00000000000E+00  0.00000000000E+00  0.16864865342E+04  0.35309509208E+04  0.31021569230E+04 0.  0.
        4    1    3    3  502    0  0.10784248488E+04 -0.10198170894E+04  0.13558434257E+04  0.20103084485E+04  0.12699999809E+01 0. -1.
       -4    1    3    3    0  502 -0.10784248488E+04  0.10198170894E+04  0.33064310854E+03  0.15206424723E+04  0.12699999809E+01 0.  1.
</event>
<event>
 5   0  0.5154105E-07  0.3095005E+04  0.7818609E-02  0.8217110E-01
        2   -1    0    0  501    0  0.00000000000E+00  0.00000000000E+00  0.16433911539E+04  0.16433911539E+04  0.25500000920E-02 0. -1.
       -2   -1    0    0    0  501  0.00000000000E+00  0.00000000000E+00 -0.14572091122E+04  0.14572091122E+04  0.25500000920E-02 0.  1.
    10030    2    1    2    0    0  0.00000000000E+00  0.00000000000E+00  0.18618204173E+03  0.31006002661E+04  0.30950053728E+04 0.  0.
        1    1    3    3  502    0 -0.14724369775E+04 -0.43095225411E+03 -0.10969541657E+03  0.15381233964E+04  0.50400001928E-02 0.  1.
       -1    1    3    3    0  502  0.14724369775E+04  0.43095225411E+03  0.29587745830E+03  0.15624768697E+04  0.50400001928E-02 0. -1.
</event>
<event>
 5   0  0.5376678E-07  0.3097773E+04  0.7818609E-02  0.8216349E-01
        2   -1    0    0  501    0  0.00000000000E+00  0.00000000000E+00  0.22127607432E+04  0.22127607432E+04  0.25500000920E-02 0.  1.
       -2   -1    0    0    0  501  0.00000000000E+00  0.00000000000E+00 -0.10841884479E+04  0.10841884479E+04  0.25500000920E-02 0. -1.
    10030    2    1    2    0    0  0.00000000000E+00  0.00000000000E+00  0.11285722953E+04  0.32969491911E+04  0.30977731587E+04 0.  0.
        5    1    3    3  502    0 -0.12714659227E+03 -0.11223829557E+04 -0.56362605506E+03  0.12623811529E+04  0.46999998093E+01 0. -1.
       -5    1    3    3    0  502  0.12714659227E+03  0.11223829557E+04  0.16921983504E+04  0.20345680383E+04  0.46999998093E+01 0.  1.
</event>
<event>
 5   0  0.1875284E-07  0.3095933E+04  0.7818609E-02  0.8216855E-01
       -1   -1    0    0    0  501  0.00000000000E+00  0.00000000000E+00  0.14969576834E+04  0.14969576834E+04  0.50400001928E-02 0. -1.
        1   -1    0    0  501    0  0.00000000000E+00  0.00000000000E+00 -0.16007131514E+04  0.16007131514E+04  0.50400001928E-02 0.  1.
    10030    2    1    2    0    0  0.00000000000E+00  0.00000000000E+00 -0.10375546806E+03  0.30976708348E+04  0.30959327195E+04 0.  0.
        4    1    3    3  502    0  0.12708894035E+04 -0.22033369661E+03 -0.90821535676E+03  0.15775181650E+04  0.12699999809E+01 0.  1.
       -4    1    3    3    0  502 -0.12708894035E+04  0.22033369661E+03  0.80445988869E+03  0.15201526697E+04  0.12699999809E+01 0. -1.
</event>
<event>
 5   0  0.1814075E-07  0.3098908E+04  0.7818609E-02  0.8216038E-01
        1   -1    0    0  501    0  0.00000000000E+00  0.00000000000E+00  0.29594008803E+04  0.29594008803E+04  0.50400001928E-02 0. -1.
       -1   -1    0    0    0  501  0.00000000000E+00  0.00000000000E+00 -0.81124762454E+03  0.81124762455E+03  0.50400001928E-02 0.  1.
    10030    2    1    2    0    0  0.00000000000E+00  0.00000000000E+00  0.21481532558E+04  0.37706485049E+04  0.30989075070E+04 0.  0.
        5    1    3    3  502    0  0.72505466196E+03  0.10746005281E+03  0.27351008675E+04  0.28316162825E+04  0.46999998093E+01 0. -1.
       -5    1    3    3    0  502 -0.72505466196E+03 -0.10746005281E+03 -0.58694761173E+03  0.93903222239E+03  0.46999998093E+01 0.  1.
</event>
<event>
 5   0  0.5055900E-07  0.3105679E+04  0.7818609E-02  0.8214181E-01
        2   -1    0    0  501    0  0.00000000000E+00  0.00000000000E+00  0.13058116435E+04  0.13058116435E+04  0.25500000920E-02 0.  1.
       -2   -1    0    0    0  501  0.00000000000E+00  0.00000000000E+00 -0.18465994576E+04  0.18465994576E+04  0.25500000920E-02 0. -1.
    10030    2    1    2    0    0  0.00000000000E+00  0.00000000000E+00 -0.54078781417E+03  0.31524111011E+04  0.31056793605E+04 0.  0.
        2    1    3    3  502    0 -0.63676971604E+03 -0.64948897327E+03  0.10071144474E+04  0.13570523600E+04  0.25500000920E-02 0.  1.
       -2    1    3    3    0  502  0.63676971604E+03  0.64948897327E+03 -0.15479022616E+04  0.17953587411E+04  0.25500000920E-02 0. -1.
</event>
<event>
 5   0  0.1875284E-07  0.3116858E+04  0.7818609E-02  0.8211127E-01
        1   -1    0    0  501    0  0.00000000000E+00  0.00000000000E+00  0.11471211267E+04  0.11471211267E+04  0.50400001928E-02 0.  1.
       -1   -1    0    0    0  501  0.00000000000E+00  0.00000000000E+00 -0.21172140136E+04  0.21172140136E+04  0.50400001928E-02 0. -1.
    10030    2    1    2    0    0  0.00000000000E+00  0.00000000000E+00 -0.97009288691E+03  0.32643351402E+04  0.31168579850E+04 0.  0.
        4    1    3    3  502    0 -0.27810734861E+03  0.82772009234E+03 -0.18369504653E+04  0.20339254838E+04  0.12699999809E+01 0. -1.
       -4    1    3    3    0  502  0.27810734861E+03 -0.82772009234E+03  0.86685757841E+03  0.12304096565E+04  0.12699999809E+01 0.  1.
</event>
<event>
 5   0  0.5376678E-07  0.3091896E+04  0.7818609E-02  0.8217965E-01
       -2   -1    0    0    0  501  0.00000000000E+00  0.00000000000E+00  0.15769793454E+04  0.15769793454E+04  0.25500000920E-02 0. -1.
        2   -1    0    0  501    0  0.00000000000E+00  0.00000000000E+00 -0.15155274824E+04  0.15155274824E+04  0.25500000920E-02 0.  1.
    10030    2    1    2    0    0  0.00000000000E+00  0.00000000000E+00  0.61451863069E+02  0.30925068278E+04  0.30918962060E+04 0.  0.
        5    1    3    3  502    0 -0.19636728378E+03 -0.26550903284E+02  0.15642176825E+04  0.15767257557E+04  0.46999998093E+01 0. -1.
       -5    1    3    3    0  502  0.19636728378E+03  0.26550903284E+02 -0.15027658194E+04  0.15157810721E+04  0.46999998093E+01 0.  1.
</event>
<event>
 5   0  0.1814075E-07  0.3101437E+04  0.7818609E-02  0.8215344E-01
        1   -1    0    0  501    0  0.00000000000E+00  0.00000000000E+00  0.15359751634E+04  0.15359751634E+04  0.50400001928E-02 0. -1.
       -1   -1    0    0    0  501  0.00000000000E+00  0.00000000000E+00 -0.15656036809E+04  0.15656036809E+04  0.50400001928E-02 0.  1.
    10030    2    1    2    0    0  0.00000000000E+00  0.00000000000E+00 -0.29628517498E+02  0.31015788443E+04  0.31014373246E+04 0.  0.
        5    1    3    3  502    0  0.10843919568E+04  0.11075257982E+04  0.31952926026E+02  0.15503426683E+04  0.46999998093E+01 0. -1.
       -5    1    3    3    0  502 -0.10843919568E+04 -0.11075257982E+04 -0.61581443524E+02  0.15512361760E+04  0.46999998093E+01 0.  1.
</event>
<event>
 5   0  0.1840359E-07  0.3101035E+04  0.7818609E-02  0.8215454E-01
       -1   -1    0    0    0  501  0.00000000000E+00  0.00000000000E+00  0.33766109189E+04  0.33766109189E+04  0.50400001928E-02 0.  1.
        1   -1    0    0  501    0  0.00000000000E+00  0.00000000000E+00 -0.71198753881E+03  0.71198753883E+03  0.50400001928E-02 0. -1.
    10030    2    1    2    0    0  0.00000000000E+00  0.00000000000E+00  0.26646233801E+04  0.40885984578E+04  0.31010352450E+04 0.  0.
        1    1    3    3  502    0  0.11587834523E+04 -0.66212754326E+03  0.23729059581E+04  0.27224758326E+04  0.50400001928E-02 0.  1.
       -1    1    3    3    0  502 -0.11587834523E+04  0.66212754326E+03  0.29171742201E+03  0.13661226252E+04  0.50400001928E-02 0. -1.
</event>
<event>
 5   0  0.5055900E-07  0.3094489E+04  0.7818609E-02  0.8217252E-01
       -2   -1    0    0    0  501  0.00000000000E+00  0.00000000000E+00  0.86436080431E+03  0.86436080431E+03  0.25500000920E-02 0.  1.
        2   -1    0    0  501    0  0.00000000000E+00  0.00000000000E+00 -0.27696374439E+04  0.27696374439E+04  0.25500000920E-02 0. -1.
    10030    2    1    2    0    0  0.00000000000E+00  0.00000000000E+00 -0.19052766396E+04  0.36339982482E+04  0.30944893270E+04 0.  0.
        2    1    3    3  502    0  0.55057320249E+03 -0.12857230234E+04 -0.17296177979E+04  0.22243633406E+04  0.25500000920E-02 0. -1.
       -2    1    3    3    0  502 -0.55057320249E+03  0.12857230234E+04 -0.17565884168E+03  0.14096349076E+04  0.25500000920E-02 0.  1.
</event>
<event>
 5   0  0.1814075E-07  0.3088202E+04  0.7818609E-02  0.8218983E-01
       -1   -1    0    0    0  501  0.00000000000E+00  0.00000000000E+00  0.12670854179E+04  0.12670854179E+04  0.50400001928E-02 0.  1.
        1   -1    0    0  501    0  0.00000000000E+00  0.00000000000E+00 -0.18816787906E+04  0.18816787907E+04  0.50400001928E-02 0. -1.
    10030    2    1    2    0    0  0.00000000000E+00  0.00000000000E+00 -0.61459337276E+03  0.31487642085E+04  0.30882019084E+04 0.  0.
        5    1    3    3  502    0  0.28478135537E+03 -0.97784023836E+03  0.87604670408E+03  0.13434105366E+04  0.46999998093E+01 0.  1.
       -5    1    3    3    0  502 -0.28478135537E+03  0.97784023836E+03 -0.14906400768E+04  0.18053536719E+04  0.46999998093E+01 0. -1.
</event>
<event>
 5   0  0.5154105E-07  0.3107008E+04  0.7818609E-02  0.8213817E-01
        2   -1    0    0  501    0  0.00000000000E+00  0.00000000000E+00  0.17132687164E+04  0.17132687164E+04  0.25500000920E-02 0.  1.
       -2   -1    0    0    0  501  0.00000000000E+00  0.00000000000E+00 -0.14086379752E+04  0.14086379752E+04  0.25500000920E-02 0. -1.
    10030    2    1    2    0    0  0.00000000000E+00  0.00000000000E+00  0.30463074119E+03  0.31219066916E+04  0.31070084490E+04 0.  0.
        1    1    3    3  502    0  0.84801138070E+03  0.29435349869E+03  0.14263099380E+04  0.16852677304E+04  0.50400001928E-02 0.  1.
       -1    1    3    3    0  502 -0.84801138070E+03 -0.29435349869E+03 -0.11216791968E+04  0.14366389611E+04  0.50400001928E-02 0. -1.
</event>
<event>
 5   0  0.1840359E-07  0.3104173E+04  0.7818609E-02  0.8214594E-01
        1   -1    0    0  501    0  0.00000000000E+00  0.00000000000E+00  0.21683440286E+04  0.21683440286E+04  0.50400001928E-02 0.  1.
       -1   -1    0    0    0  501  0.00000000000E+00  0.00000000000E+00 -0.11109732584E+04  0.11109732584E+04  0.50400001928E-02 0. -1.
    10030    2    1    2    0    0  0.00000000000E+00  0.00000000000E+00  0.10573707702E+04  0.32793172870E+04  0.31041728243E+04 0.  0.
        1    1    3    3  502    0  0.56595351331E+03 -0.14401910750E+04  0.40139408950E+03  0.15986153154E+04  0.50400001928E-02 0.  1.
       -1    1    3    3    0  502 -0.56595351331E+03  0.14401910750E+04  0.65597668067E+03  0.16807019716E+04  0.50400001928E-02 0. -1.
</event>
<event>
 5   0  0.1845123E-07  0.3116509E+04  0.7818609E-02  0.8211222E-01
        1   -1    0    0  501    0  0.00000000000E+00  0.00000000000E+00  0.15645695994E+04  0.15645695994E+04  0.50400001928E-02 0. -1.
       -1   -1    0    0    0  501  0.00000000000E+00  0.00000000000E+00 -0.15519648795E+04  0.15519648795E+04  0.50400001928E-02 0.  1.
    10030    2    1    2    0    0  0.00000000000E+00  0.00000000000E+00  0.12604719889E+02  0.31165344789E+04  0.31165089891E+04 0.  0.
        2    1    3    3  502    0  0.43688812343E+03 -0.93346821195E+02  0.14991548856E+04  0.15643050318E+04  0.25500000920E-02 0. -1.
       -2    1    3    3    0  502 -0.43688812343E+03  0.93346821195E+02 -0.14865501657E+04  0.15522294471E+04  0.25500000920E-02 0.  1.
</event>
<event>
 5   0  0.5248309E-07  0.3095938E+04  0.7818609E-02  0.8216854E-01
       -2   -1    0    0    0  501  0.00000000000E+00  0.00000000000E+00  0.10794775550E+04  0.10794775550E+04  0.25500000920E-02 0. -1.
        2   -1    0    0  501    0  0.00000000000E+00  0.00000000000E+00 -0.22197852479E+04  0.22197852479E+04  0.25500000920E-02 0.  1.
    10030    2    1    2    0    0  0.00000000000E+00  0.00000000000E+00 -0.11403076928E+04  0.32992628029E+04  0.30959382113E+04 0.  0.
        4    1    3    3  502    0 -0.10668740488E+04  0.26844783641E+03 -0.17306741343E+04  0.20507362212E+04  0.12699999809E+01 0.  1.
       -4    1    3    3    0  502  0.10668740488E+04 -0.26844783641E+03  0.59036644151E+03  0.12485265817E+04  0.12699999809E+01 0. -1.
</event>
<event>
 5   0  0.5055900E-07  0.3105369E+04  0.7818609E-02  0.8214266E-01
       -2   -1    0    0    0  501  0.00000000000E+00  0.00000000000E+00  0.16878281523E+04  0.16878281523E+04  0.25500000920E-02 0. -1.
        2   -1    0    0  501    0  0.00000000000E+00  0.00000000000E+00 -0.14283619748E+04  0.14283619748E+04  0.25500000920E-02 0.  1.
    10030    2    1    2    0    0  0.00000000000E+00  0.00000000000E+00  0.25946617758E+03  0.31161901271E+04  0.31053692551E+04 0.  0.
        2    1    3    3  502    0 -0.45664406193E+03 -0.13053817302E+04  0.83808536963E+03  0.16170752448E+04  0.25500000920E-02 0. -1.
       -2    1    3    3    0  502  0.45664406193E+03  0.13053817302E+04 -0.57861919206E+03  0.14991148822E+04  0.25500000920E-02 0.  1.
</event>
<event>
 5   0  0.5248309E-07  0.3093400E+04  0.7818609E-02  0.8217552E-01
       -2   -1    0    0    0  501  0.00000000000E+00  0.00000000000E+00  0.88909884626E+03  0.88909884627E+03  0.25500000920E-02 0.  1.
        2   -1    0    0  501    0  0.00000000000E+00  0.00000000000E+00 -0.26906806054E+04  0.26906806054E+04  0.25500000920E-02 0. -1.
    10030    2    1    2    0    0  0.00000000000E+00  0.00000000000E+00 -0.18015817591E+04  0.35797794516E+04  0.30934000853E+04 0.  0.
        4    1    3    3  502    0  0.13717590587E+04  0.66942729123E+03 -0.11899218198E+04  0.19353995358E+04  0.12699999809E+01 0.  1.
       -4    1    3    3    0  502 -0.13717590587E+04 -0.66942729123E+03 -0.61165993936E+03  0.16443799158E+04  0.12699999809E+01 0. -1.
</event>
<event>
 5   0  0.1845123E-07  0.3090873E+04  0.7818609E-02  0.8218247E-01
       -1   -1    0    0    0  501  0.00000000000E+00  0.00000000000E+00  0.12255843232E+04  0.12255843233E+04  0.50400001928E-02 0.  1.
        1   -1    0    0  501    0  0.00000000000E+00  0.00000000000E+00 -0.19487630973E+04  0.19487630973E+04  0.50400001928E-02 0. -1.
    10030    2    1    2    0    0  0.00000000000E+00  0.00000000000E+00 -0.72317877403E+03  0.31743474205E+04  0.30908726934E+04 0.  0.
        2    1    3    3  502    0 -0.37313690802E+03 -0.13445394703E+03 -0.18956036610E+04  0.19366523322E+04  0.25500000920E-02 0. -1.
       -2    1    3    3    0  502  0.37313690802E+03  0.13445394703E+03  0.11724248870E+04  0.12376950883E+04  0.25500000920E-02 0.  1.
</event>
<event>
 5   0  0.5154105E-07  0.3062888E+04  0.7818609E-02  0.8225997E-01
        2   -1    0    0  501    0  0.00000000000E+00  0.00000000000E+00  0.22649491515E+04  0.22649491515E+04  0.25500000920E-02 0. -1.
       -2   -1    0    0    0  501  0.00000000000E+00  0.00000000000E+00 -0.10354849863E+04  0.10354849863E+04  0.25500000920E-02 0.  1.
    10030    2    1    2    0    0  0.00000000000E+00  0.00000000000E+00  0.12294641652E+04  0.33004341378E+04  0.30628880757E+04 0.  0.
        1    1    3    3  502    0 -0.10054536193E+04  0.97738101299E+03  0.12782042169E+04  0.18973709825E+04  0.50400001928E-02 0. -1.
       -1    1    3    3    0  502  0.10054536193E+04 -0.97738101299E+03 -0.48740051725E+02  0.14030631553E+04  0.50400001928E-02 0.  1.
</event>
<event>
 5   0  0.1875284E-07  0.3097632E+04  0.7818609E-02  0.8216388E-01
        1   -1    0    0  501    0  0.00000000000E+00  0.00000000000E+00  0.13130419218E+04  0.13130419218E+04  0.50400001928E-02 0.  1.
       -1   -1    0    0    0  501  0.00000000000E+00  0.00000000000E+00 -0.18269263684E+04  0.18269263684E+04  0.50400001928E-02 0. -1.
    10030    2    1    2    0    0  0.00000000000E+00  0.00000000000E+00 -0.51388444659E+03  0.31399682902E+04  0.30976319405E+04 0.  0.
        4    1    3    3  502    0  0.10547094582E+03 -0.14489289768E+04  0.28734143971E+03  0.14809071599E+04  0.12699999809E+01 0.  1.
       -4    1    3    3    0  502 -0.10547094582E+03  0.14489289768E+04 -0.80122588630E+03  0.16590611303E+04  0.12699999809E+01 0. -1.
</event>
<event>
 5   0  0.1845123E-07  0.3087115E+04  0.7818609E-02  0.8219283E-01
       -1   -1    0    0    0  501  0.00000000000E+00  0.00000000000E+00  0.17143871491E+04  0.17143871492E+04  0.50400001928E-02 0.  1.
        1   -1    0    0  501    0  0.00000000000E+00  0.00000000000E+00 -0.13897500685E+04  0.13897500685E+04  0.50400001928E-02 0. -1.
    10030    2    1    2    0    0  0.00000000000E+00  0.00000000000E+00  0.32463708061E+03  0.31041372177E+04  0.30871149367E+04 0.  0.
        2    1    3    3  502    0  0.40821628839E+01 -0.39409291523E+03 -0.13383058056E+04  0.13951302158E+04  0.25500000920E-02 0. -1.
       -2    1    3    3    0  502 -0.40821628839E+01  0.39409291523E+03  0.16629428862E+04  0.17090070019E+04  0.25500000920E-02 0.  1.
</event>
<event>
 5   0  0.1840359E-07  0.3099946E+04  0.7818609E-02  0.8215753E-01
       -1   -1    0    0    0  501  0.00000000000E+00  0.00000000000E+00  0.13245784271E+04  0.13245784271E+04  0.50400001928E-02 0. -1.
        1   -1    0    0  501    0  0.00000000000E+00  0.00000000000E+00 -0.18137215557E+04  0.18137215557E+04  0.50400001928E-02 0.  1.
    10030    2    1    2    0    0  0.00000000000E+00  0.00000000000E+00 -0.48914312864E+03  0.31382999828E+04  0.30999460934E+04 0.  0.
        1    1    3    3  502    0 -0.10329735694E+04 -0.10476354357E+04 -0.73829600572E+03  0.16461030932E+04  0.50400001928E-02 0.  1.
       -1    1    3    3    0  502  0.10329735694E+04  0.10476354357E+04  0.24915287708E+03  0.14921968896E+04  0.50400001928E-02 0. -1.
</event>
<event>
 5   0  0.5248309E-07  0.3106896E+04  0.7818609E-02  0.8213848E-01
       -2   -1    0    0    0  501  0.00000000000E+00  0.00000000000E+00  0.98578744648E+03  0.98578744648E+03  0.25500000920E-02 0. -1.
        2   -1    0    0  501    0  0.00000000000E+00  0.00000000000E+00 -0.24479929123E+04  0.24479929123E+04  0.25500000920E-02 0.  1.
    10030    2    1    2    0    0  0.00000000000E+00  0.00000000000E+00 -0.14622054658E+04  0.34337803588E+04  0.31068959957E+04 0.  0.
        4    1    3    3  502    0  0.10399259781E+04 -0.40066417634E+03  0.46499114613E+03  0.12075579494E+04  0.12699999809E+01 0. -1.
       -4    1    3    3    0  502 -0.10399259781E+04  0.40066417634E+03 -0.19271966120E+04  0.22262224094E+04  0.12699999809E+01 0.  1.
</event>
<event>
 5   0  0.1830902E-07  0.3125024E+04  0.7818609E-02  0.8208904E-01
       -1   -1    0    0    0  501  0.00000000000E+00  0.00000000000E+00  0.17631511349E+04  0.17631511349E+04  0.50400001928E-02 0.  1.
        1   -1    0    0  501    0  0.00000000000E+00  0.00000000000E+00 -0.13847043468E+04  0.13847043468E+04  0.50400001928E-02 0. -1.
    10030    2    1    2    0    0  0.00000000000E+00  0.00000000000E+00  0.37844678810E+03  0.31478554818E+04  0.31250235460E+04 0.  0.
        3    1    3    3  502    0  0.12361971826E+04 -0.10348933418E+03 -0.76774371211E+03  0.14588776283E+04  0.10100000352E+00 0. -1.
       -3    1    3    3    0  502 -0.12361971826E+04  0.10348933418E+03  0.11461905002E+04  0.16889778535E+04  0.10100000352E+00 0.  1.
</event>
<event>
 5   0  0.1814075E-07  0.3112236E+04  0.7818609E-02  0.8212388E-01
       -1   -1    0    0    0  501  0.00000000000E+00  0.00000000000E+00  0.13662476716E+04  0.13662476716E+04  0.50400001928E-02 0. -1.
        1   -1    0    0  501    0  0.00000000000E+00  0.00000000000E+00 -0.17723744480E+04  0.17723744481E+04  0.50400001928E-02 0.  1.
    10030    2    1    2    0    0  0.00000000000E+00  0.00000000000E+00 -0.40612677647E+03  0.31386221196E+04  0.31122355070E+04 0.  0.
        5    1    3    3  502    0 -0.12216788957E+04 -0.79571200418E+03 -0.75157127989E+03  0.16402860716E+04  0.46999998093E+01 0.  1.
       -5    1    3    3    0  502  0.12216788957E+04  0.79571200418E+03  0.34544450342E+03  0.14983360480E+04  0.46999998093E+01 0. -1.
</event>
<event>
 5   0  0.1830902E-07  0.3100052E+04  0.7818609E-02  0.8215724E-01
       -1   -1    0    0    0  501  0.00000000000E+00  0.00000000000E+00  0.12218659487E+04  0.12218659488E+04  0.50400001928E-02 0. -1.
        1   -1    0    0  501    0  0.00000000000E+00  0.00000000000E+00 -0.19663206983E+04  0.19663206983E+04  0.50400001928E-02 0.  1.
    10030    2    1    2    0    0  0.00000000000E+00  0.00000000000E+00 -0.74445474956E+03  0.31881866471E+04  0.31000518096E+04 0.  0.
        3    1    3    3  502    0  0.11882394996E+04  0.77490650978E+02  0.64828543522E+03  0.13557993676E+04  0.10100000352E+00 0. -1.
       -3    1    3    3    0  502 -0.11882394996E+04 -0.77490650978E+02 -0.13927401848E+04  0.18323872795E+04  0.10100000352E+00 0.  1.
</event>
<event>
 5   0  0.5055900E-07  0.3104006E+04  0.7818609E-02  0.8214639E-01
       -2   -1    0    0    0  501  0.00000000000E+00  0.00000000000E+00  0.27998971410E+04  0.27998971410E+04  0.25500000920E-02 0.  1.
        2   -1    0    0  501    0  0.00000000000E+00  0.00000000000E+00 -0.86028617913E+03  0.86028617913E+03  0.25500000920E-02 0. -1.
    10030    2    1    2    0    0  0.00000000000E+00  0.00000000000E+00  0.19396109618E+04  0.36601833201E+04  0.31040056787E+04 0.  0.
        2    1    3    3  502    0  0.10859891844E+04 -0.72123070352E+03 -0.23206435181E+02  0.13038729903E+04  0.25500000920E-02 0. -1.
       -2    1    3    3    0  502 -0.10859891844E+04  0.72123070352E+03  0.19628173970E+04  0.23563103298E+04  0.25500000920E-02 0.  1.
</event>
<event>
 5   0  0.5055900E-07  0.3098345E+04  0.7818609E-02  0.8216192E-01
        2   -1    0    0  501    0  0.00000000000E+00  0.00000000000E+00  0.16072542276E+04  0.16072542276E+04  0.25500000920E-02 0. -1.
       -2   -1    0    0    0  501  0.00000000000E+00  0.00000000000E+00 -0.14931896732E+04  0.14931896732E+04  0.25500000920E-02 0.  1.
    10030    2    1    2    0    0  0.00000000000E+00  0.00000000000E+00  0.11406455439E+03  0.31004439008E+04  0.30983449872E+04 0.  0.
        2    1    3    3  502    0 -0.82768791079E+03 -0.82694653864E+03  0.10731154095E+04  0.15876033943E+04  0.25500000920E-02 0. -1.
       -2    1    3    3    0  502  0.82768791079E+03  0.82694653864E+03 -0.95905085512E+03  0.15128405065E+04  0.25500000920E-02 0.  1.
</event>
<event>
 5   0  0.5248309E-07  0.3091221E+04  0.7818609E-02  0.8218151E-01
        2   -1    0    0  501    0  0.00000000000E+00  0.00000000000E+00  0.17122180872E+04  0.17122180872E+04  0.25500000920E-02 0.  1.
       -2   -1    0    0    0  501  0.00000000000E+00  0.00000000000E+00 -0.13952146164E+04  0.13952146164E+04  0.25500000920E-02 0. -1.
    10030    2    1    2    0    0  0.00000000000E+00  0.00000000000E+00  0.31700347082E+03  0.31074327037E+04  0.30912209250E+04 0.  0.
        4    1    3    3  502    0 -0.60381827060E+03 -0.14162628215E+04  0.21724916777E+02  0.15397631209E+04  0.12699999809E+01 0. -1.
       -4    1    3    3    0  502  0.60381827060E+03  0.14162628215E+04  0.29527855405E+03  0.15676695828E+04  0.12699999809E+01 0.  1.
</event>
<event>
 5   0  0.1727000E-07  0.3094905E+04  0.7818609E-02  0.8217138E-01
        3   -1    0    0  501    0  0.00000000000E+00  0.00000000000E+00  0.13263468073E+04  0.13263468112E+04  0.10100000352E+00 0. -1.
       -3   -1    0    0    0  501  0.00000000000E+00  0.00000000000E+00 -0.18054166812E+04  0.18054166840E+04  0.10100000352E+00 0.  1.
    10030    2    1    2    0    0  0.00000000000E+00  0.00000000000E+00 -0.47906987383E+03  0.31317634952E+04  0.30949046263E+04 0.  0.
        2    1    3    3  502    0 -0.13986205148E+04 -0.39046151040E+02 -0.90842529044E+03  0.16682027618E+04  0.25500000920E-02 0.  1.
       -2    1    3    3    0  502  0.13986205148E+04  0.39046151040E+02  0.42935541661E+03  0.14635607333E+04  0.25500000920E-02 0. -1.
</event>
<event>
 5   0  0.1830902E-07  0.3100931E+04  0.7818609E-02  0.8215483E-01
        1   -1    0    0  501    0  0.00000000000E+00  0.00000000000E+00  0.15235980859E+04  0.15235980859E+04  0.50400001928E-02 0.  1.
       -1   -1    0    0    0  501  0.00000000000E+00  0.00000000000E+00 -0.15778062106E+04  0.15778062106E+04  0.50400001928E-02 0. -1.
    10030    2    1    2    0    0  0.00000000000E+00  0.00000000000E+00 -0.54208124750E+02  0.31014042965E+04  0.31009305199E+04 0.  0.
        3    1    3    3  502    0 -0.12466697816E+04 -0.90741515736E+03  0.13526204799E+03  0.15478642202E+04  0.10100000352E+00 0.  1.
       -3    1    3    3    0  502  0.12466697816E+04  0.90741515736E+03 -0.18947017274E+03  0.15535400763E+04  0.10100000352E+00 0. -1.
</event>
<event>
 5   0  0.1875284E-07  0.3099505E+04  0.7818609E-02  0.8215874E-01
       -1   -1    0    0    0  501  0.00000000000E+00  0.00000000000E+00  0.12699734805E+04  0.12699734805E+04  0.50400001928E-02 0. -1.
        1   -1    0    0  501    0  0.00000000000E+00  0.00000000000E+00 -0.18911679767E+04  0.18911679767E+04  0.50400001928E-02 0.  1.
    10030    2    1    2    0    0  0.00000000000E+00  0.00000000000E+00 -0.62119449617E+03  0.31611414572E+04  0.30995052364E+04 0.  0.
        4    1    3    3  502    0  0.27008246420E+03  0.51999244925E+03  0.11526438898E+04  0.12930298660E+04  0.12699999809E+01 0. -1.
       -4    1    3    3    0  502 -0.27008246420E+03 -0.51999244925E+03 -0.17738383860E+04  0.18681115912E+04  0.12699999809E+01 0.  1.
</event>
<event>
 5   0  0.5376678E-07  0.3102941E+04  0.7818609E-02  0.8214931E-01
        2   -1    0    0  501    0  0.00000000000E+00  0.00000000000E+00  0.20394184143E+04  0.20394184143E+04  0.25500000920E-02 0. -1.
       -2   -1    0    0    0  501  0.00000000000E+00  0.00000000000E+00 -0.11802684614E+04  0.11802684614E+04  0.25500000920E-02 0.  1.
    10030    2    1    2    0    0  0.00000000000E+00  0.00000000000E+00  0.85914995283E+03  0.32196868757E+04  0.31029413362E+04 0.  0.
        5    1    3    3  502    0 -0.14640451629E+04  0.51293000582E+03  0.40605695273E+03  0.16035678248E+04  0.46999998093E+01 0.  1.
       -5    1    3    3    0  502  0.14640451629E+04 -0.51293000582E+03  0.45309300009E+03  0.16161190509E+04  0.46999998093E+01 0. -1.
</event>
<event>
 5   0  0.1830902E-07  0.3099909E+04  0.7818609E-02  0.8215763E-01
       -1   -1    0    0    0  501  0.00000000000E+00  0.00000000000E+00  0.20008962484E+04  0.20008962485E+04  0.50400001928E-02 0.  1.
        1   -1    0    0  501    0  0.00000000000E+00  0.00000000000E+00 -0.12006411441E+04  0.12006411441E+04  0.50400001928E-02 0. -1.
    10030    2    1    2    0    0  0.00000000000E+00  0.00000000000E+00  0.80025510431E+03  0.32015373926E+04  0.30999086187E+04 0.  0.
        3    1    3    3  502    0  0.15121863144E+04  0.14739478758E+03  0.71664806153E+03  0.16798860459E+04  0.10100000352E+00 0.  1.
       -3    1    3    3    0  502 -0.15121863144E+04 -0.14739478758E+03  0.83607042782E+02  0.15216513467E+04  0.10100000352E+00 0. -1.
</event>
<event>
 5   0  0.1845123E-07  0.3096418E+04  0.7818609E-02  0.8216722E-01
        1   -1    0    0  501    0  0.00000000000E+00  0.00000000000E+00  0.23931781414E+04  0.23931781414E+04  0.50400001928E-02 0. -1.
       -1   -1    0    0    0  501  0.00000000000E+00  0.00000000000E+00 -0.10015766294E+04  0.10015766295E+04  0.50400001928E-02 0.  1.
    10030    2    1    2    0    0  0.00000000000E+00  0.00000000000E+00  0.13916015119E+04  0.33947547708E+04  0.30964181220E+04 0.  0.
        2    1    3    3  502    0 -0.91985697321E+03  0.10211770858E+04 -0.85621378621E+02  0.13770513833E+04  0.25500000920E-02 0.  1.
       -2    1    3    3    0  502  0.91985697321E+03 -0.10211770858E+04  0.14772228906E+04  0.20177033876E+04  0.25500000920E-02 0. -1.
</event>
<event>
 5   0  0.5342534E-07  0.3099625E+04  0.7818609E-02  0.8215841E-01
       -2   -1    0    0    0  501  0.00000000000E+00  0.00000000000E+00  0.15964100344E+04  0.15964100344E+04  0.25500000920E-02 0. -1.
        2   -1    0    0  501    0  0.00000000000E+00  0.00000000000E+00 -0.15045754526E+04  0.15045754526E+04  0.25500000920E-02 0.  1.
    10030    2    1    2    0    0  0.00000000000E+00  0.00000000000E+00  0.91834581868E+02  0.31009854870E+04  0.30996253645E+04 0.  0.
        3    1    3    3  502    0 -0.50447267572E+03 -0.11390884105E+04 -0.87638975975E+03  0.15231789483E+04  0.10100000352E+00 0.  1.
       -3    1    3    3    0  502  0.50447267572E+03  0.11390884105E+04  0.96822434161E+03  0.15778065386E+04  0.10100000352E+00 0. -1.
</event>
<event>
 5   0  0.1830902E-07  0.3098986E+04  0.7818609E-02  0.8216016E-01
        1   -1    0    0  501    0  0.00000000000E+00  0.00000000000E+00  0.14718062032E+04  0.14718062032E+04  0.50400001928E-02 0. -1.
       -1   -1    0    0    0  501  0.00000000000E+00  0.00000000000E+00 -0.16312798664E+04  0.16312798664E+04  0.50400001928E-02 0.  1.
    10030    2    1    2    0    0  0.00000000000E+00  0.00000000000E+00 -0.15947366313E+03  0.31030860696E+04  0.30989855286E+04 0.  0.
        3    1    3    3  502    0  0.66856045387E+03  0.73112712062E+03 -0.12727023139E+04  0.16128518645E+04  0.10100000352E+00 0.  1.
       -3    1    3    3    0  502 -0.66856045387E+03 -0.73112712062E+03  0.11132286507E+04  0.14902342051E+04  0.10100000352E+00 0. -1.
</event>
<event>
 5   0  0.1830902E-07  0.3035069E+04  0.7818609E-02  0.8233787E-01
        1   -1    0    0  501    0  0.00000000000E+00  0.00000000000E+00  0.10331969406E+04  0.10331969406E+04  0.50400001928E-02 0. -1.
       -1   -1    0    0    0  501  0.00000000000E+00  0.00000000000E+00 -0.22289172017E+04  0.22289172017E+04  0.50400001928E-02 0.  1.
    10030    2    1    2    0    0  0.00000000000E+00  0.00000000000E+00 -0.11957202611E+04  0.32621141423E+04  0.30350686541E+04 0.  0.
        3    1    3    3  502    0  0.88986857757E+03  0.68453272269E+03  0.49952781579E+03  0.12288121023E+04  0.10100000352E+00 0. -1.
       -3    1    3    3    0  502 -0.88986857757E+03 -0.68453272269E+03 -0.16952480768E+04  0.20333020400E+04  0.10100000352E+00 0.  1.
</event>
<event>
 5   0  0.1830902E-07  0.3100239E+04  0.7818609E-02  0.8215672E-01
       -1   -1    0    0    0  501  0.00000000000E+00  0.00000000000E+00  0.19222597733E+04  0.19222597733E+04  0.50400001928E-02 0. -1.
        1   -1    0    0  501    0  0.00000000000E+00  0.00000000000E+00 -0.12500234547E+04  0.12500234547E+04  0.50400001928E-02 0.  1.
    10030    2    1    2    0    0  0.00000000000E+00  0.00000000000E+00  0.67223631862E+03  0.31722832280E+04  0.31002385731E+04 0.  0.
        3    1    3    3  502    0  0.13718694379E+04  0.63930170093E+03 -0.65328603765E+01  0.15135306762E+04  0.10100000352E+00 0.  1.
       -3    1    3    3    0  502 -0.13718694379E+04 -0.63930170093E+03  0.67876917899E+03  0.16587525518E+04  0.10100000352E+00 0. -1.
</event>
<event>
 5   0  0.1727000E-07  0.3109160E+04  0.7818609E-02  0.8213228E-01
       -4   -1    0    0    0  501  0.00000000000E+00  0.00000000000E+00  0.19052155398E+04  0.19052159631E+04  0.12699999809E+01 0. -1.
        4   -1    0    0  501    0  0.00000000000E+00  0.00000000000E+00 -0.12684745665E+04  0.12684752023E+04  0.12699999809E+01 0.  1.
    10030    2    1    2    0    0  0.00000000000E+00  0.00000000000E+00  0.63674097327E+03  0.31736911654E+04  0.31091601030E+04 0.  0.
        2    1    3    3  502    0 -0.80994040367E+03 -0.29403267240E+02 -0.10357569638E+04  0.13151655780E+04  0.25500000920E-02 0.  1.
       -2    1    3    3    0  502  0.80994040367E+03  0.29403267240E+02  0.16724979370E+04  0.18585255874E+04  0.25500000920E-02 0. -1.
</event>
<event>
 5   0  0.1875284E-07  0.3091861E+04  0.7818609E-02  0.8217975E-01
        1   -1    0    0  501    0  0.00000000000E+00  0.00000000000E+00  0.12810609144E+04  0.12810609144E+04  0.50400001928E-02 0. -1.
       -1   -1    0    0    0  501  0.00000000000E+00  0.00000000000E+00 -0.18655636812E+04  0.18655636812E+04  0.50400001928E-02 0.  1.
    10030    2    1    2    0    0  0.00000000000E+00  0.00000000000E+00 -0.58450276677E+03  0.31466245956E+04  0.30918607441E+04 0.  0.
        4    1    3    3  502    0  0.67034667635E+03  0.11945785113E+04  0.43704197454E+03  0.14378420589E+04  0.12699999809E+01 0. -1.
       -4    1    3    3    0  502 -0.67034667635E+03 -0.11945785113E+04 -0.10215447413E+04  0.17087825366E+04  0.12699999809E+01 0.  1.
</event>
<event>
 5   0  0.1875284E-07  0.3103079E+04  0.7818609E-02  0.8214893E-01
        1   -1    0    0  501    0  0.00000000000E+00  0.00000000000E+00  0.14672792188E+04  0.14672792188E+04  0.50400001928E-02 0. -1.
       -1   -1    0    0    0  501  0.00000000000E+00  0.00000000000E+00 -0.16406382346E+04  0.16406382346E+04  0.50400001928E-02 0.  1.
    10030    2    1    2    0    0  0.00000000000E+00  0.00000000000E+00 -0.17335901575E+03  0.31079174534E+04  0.31030787210E+04 0.  0.
        4    1    3    3  502    0 -0.13168920437E+04  0.45076077670E+03  0.59986939182E+03  0.15156631660E+04  0.12699999809E+01 0. -1.
       -4    1    3    3    0  502  0.13168920437E+04 -0.45076077670E+03 -0.77322840758E+03  0.15922542874E+04  0.12699999809E+01 0.  1.
</event>
<event>
 5   0  0.5342534E-07  0.3145732E+04  0.7818609E-02  0.8203298E-01
       -2   -1    0    0    0  501  0.00000000000E+00  0.00000000000E+00  0.11566283614E+04  0.11566283614E+04  0.25500000920E-02 0. -1.
        2   -1    0    0  501    0  0.00000000000E+00  0.00000000000E+00 -0.21388961794E+04  0.21388961794E+04  0.25500000920E-02 0.  1.
    10030    2    1    2    0    0  0.00000000000E+00  0.00000000000E+00 -0.98226781799E+03  0.32955245409E+04  0.31457323366E+04 0.  0.
        3    1    3    3  502    0 -0.38341860843E+03  0.48975650026E+03 -0.20045830385E+04  0.20988626509E+04  0.10100000352E+00 0.  1.
       -3    1    3    3    0  502  0.38341860843E+03 -0.48975650026E+03  0.10223152205E+04  0.11966618900E+04  0.10100000352E+00 0. -1.
</event>
<event>
 5   0  0.5248309E-07  0.3101067E+04  0.7818609E-02  0.8215445E-01
        2   -1    0    0  501    0  0.00000000000E+00  0.00000000000E+00  0.16684437763E+04  0.16684437763E+04  0.25500000920E-02 0.  1.
       -2   -1    0    0    0  501  0.00000000000E+00  0.00000000000E+00 -0.14409556780E+04  0.14409556780E+04  0.25500000920E-02 0. -1.
    10030    2    1    2    0    0  0.00000000000E+00  0.00000000000E+00  0.22748809827E+03  0.31093994542E+04  0.31010666119E+04 0.  0.
        4    1    3    3  502    0 -0.31690230745E+03  0.13261370497E+04 -0.62653879862E+03  0.15005395783E+04  0.12699999809E+01 0. -1.
       -4    1    3    3    0  502  0.31690230745E+03 -0.13261370497E+04  0.85402689688E+03  0.16088598760E+04  0.12699999809E+01 0.  1.
</event>
<event>
 5   0  0.5248309E-07  0.3097566E+04  0.7818609E-02  0.8216406E-01
       -2   -1    0    0    0  501  0.00000000000E+00  0.00000000000E+00  0.20755646480E+04  0.20755646480E+04  0.25500000920E-02 0.  1.
        2   -1    0    0  501    0  0.00000000000E+00  0.00000000000E+00 -0.11556991335E+04  0.11556991335E+04  0.25500000920E-02 0. -1.
    10030    2    1    2    0    0  0.00000000000E+00  0.00000000000E+00  0.91986551452E+03  0.32312637815E+04  0.30975656669E+04 0.  0.
        4    1    3    3  502    0 -0.52853471388E+03 -0.10417759165E+04  0.15207219736E+04  0.19176138657E+04  0.12699999809E+01 0.  1.
       -4    1    3    3    0  502  0.52853471388E+03  0.10417759165E+04 -0.60085645912E+03  0.13136499158E+04  0.12699999809E+01 0. -1.
</event>
<event>
 5   0  0.1814075E-07  0.3099769E+04  0.7818609E-02  0.8215801E-01
        1   -1    0    0  501    0  0.00000000000E+00  0.00000000000E+00  0.15836786366E+04  0.15836786366E+04  0.50400001928E-02 0.  1.
       -1   -1    0    0    0  501  0.00000000000E+00  0.00000000000E+00 -0.15168114535E+04  0.15168114535E+04  0.50400001928E-02 0. -1.
    10030    2    1    2    0    0  0.00000000000E+00  0.00000000000E+00  0.66867183109E+02  0.31004900902E+04  0.30997689558E+04 0.  0.
        5    1    3    3  502    0  0.13215808218E+04  0.74210550735E+03  0.35727325920E+03  0.15572291817E+04  0.46999998093E+01 0.  1.
       -5    1    3    3    0  502 -0.13215808218E+04 -0.74210550735E+03 -0.29040607609E+03  0.15432609085E+04  0.46999998093E+01 0. -1.
</event>
<event>
 5   0  0.1830902E-07  0.3093602E+04  0.7818609E-02  0.8217496E-01
       -1   -1    0    0    0  501  0.00000000000E+00  0.00000000000E+00  0.11777311341E+04  0.11777311341E+04  0.50400001928E-02 0. -1.
        1   -1    0    0  501    0  0.00000000000E+00  0.00000000000E+00 -0.20315274776E+04  0.20315274776E+04  0.50400001928E-02 0.  1.
    10030    2    1    2    0    0  0.00000000000E+00  0.00000000000E+00 -0.85379634356E+03  0.32092586117E+04  0.30936018879E+04 0.  0.
        3    1    3    3  502    0  0.50403967457E+03  0.71982475016E+03 -0.17474334241E+04  0.19559466369E+04  0.10100000352E+00 0.  1.
       -3    1    3    3    0  502 -0.50403967457E+03 -0.71982475016E+03  0.89363708051E+03  0.12533119749E+04  0.10100000352E+00 0. -1.
</event>
<event>
 5   0  0.5248309E-07  0.3095843E+04  0.7818609E-02  0.8216880E-01
       -2   -1    0    0    0  501  0.00000000000E+00  0.00000000000E+00  0.11306931525E+04  0.11306931525E+04  0.25500000920E-02 0.  1.
        2   -1    0    0  501    0  0.00000000000E+00  0.00000000000E+00 -0.21191086411E+04  0.21191086411E+04  0.25500000920E-02 0. -1.
    10030    2    1    2    0    0  0.00000000000E+00  0.00000000000E+00 -0.98841548860E+03  0.32498017936E+04  0.30958434262E+04 0.  0.
        4    1    3    3  502    0 -0.65490239394E+03  0.12959187298E+04  0.68899643075E+02  0.14536338169E+04  0.12699999809E+01 0. -1.
       -4    1    3    3    0  502  0.65490239394E+03 -0.12959187298E+04 -0.10573151317E+04  0.17961679767E+04  0.12699999809E+01 0.  1.
</event>
<event>
 5   0  0.5376678E-07  0.3102664E+04  0.7818609E-02  0.8215007E-01
       -2   -1    0    0    0  501  0.00000000000E+00  0.00000000000E+00  0.15639253221E+04  0.15639253221E+04  0.25500000920E-02 0. -1.
        2   -1    0    0  501    0  0.00000000000E+00  0.00000000000E+00 -0.15388402466E+04  0.15388402466E+04  0.25500000920E-02 0.  1.
    10030    2    1    2    0    0  0.00000000000E+00  0.00000000000E+00  0.25085075485E+02  0.31027655688E+04  0.31026641639E+04 0.  0.
        5    1    3    3  502    0 -0.13178190351E+04  0.63971025282E+03  0.52317936076E+03  0.15555111541E+04  0.46999998093E+01 0. -1.
       -5    1    3    3    0  502  0.13178190351E+04 -0.63971025282E+03 -0.49809428528E+03  0.15472544147E+04  0.46999998093E+01 0.  1.
</event>
<event>
 5   0  0.1814075E-07  0.3102976E+04  0.7818609E-02  0.8214922E-01
       -1   -1    0    0    0  501  0.00000000000E+00  0.00000000000E+00  0.17469482287E+04  0.17469482287E+04  0.50400001928E-02 0.  1.
        1   -1    0    0  501    0  0.00000000000E+00  0.00000000000E+00 -0.13778974290E+04  0.13778974290E+04  0.50400001928E-02 0. -1.
    10030    2    1    2    0    0  0.00000000000E+00  0.00000000000E+00  0.36905079974E+03  0.31248456577E+04  0.31029762957E+04 0.  0.
        5    1    3    3  502    0 -0.40441969687E+03  0.14183626182E+04 -0.30030887686E+03  0.15051628880E+04  0.46999998093E+01 0. -1.
       -5    1    3    3    0  502  0.40441969687E+03 -0.14183626182E+04  0.66935967660E+03  0.16196827697E+04  0.46999998093E+01 0.  1.
</event>
<event>
 5   0  0.1830902E-07  0.3099137E+04  0.7818609E-02  0.8215975E-01
       -1   -1    0    0    0  501  0.00000000000E+00  0.00000000000E+00  0.78605952781E+03  0.78605952783E+03  0.50400001928E-02 0.  1.
        1   -1    0    0  501    0  0.00000000000E+00  0.00000000000E+00 -0.30546831851E+04  0.30546831851E+04  0.50400001928E-02 0. -1.
    10030    2    1    2    0    0  0.00000000000E+00  0.00000000000E+00 -0.22686236573E+04  0.38407427129E+04  0.30991371845E+04 0.  0.
        3    1    3    3  502    0 -0.14841703582E+04  0.33274747324E+03 -0.76734621119E+03  0.17036146135E+04  0.10100000352E+00 0.  1.
       -3    1    3    3    0  502  0.14841703582E+04 -0.33274747324E+03 -0.15012774461E+04  0.21371280995E+04  0.10100000352E+00 0. -1.
</event>
<event>
 5   0  0.5055900E-07  0.3098261E+04  0.7818609E-02  0.8216215E-01
        2   -1    0    0  501    0  0.00000000000E+00  0.00000000000E+00  0.11890589983E+04  0.11890589983E+04  0.25500000920E-02 0. -1.
       -2   -1    0    0    0  501  0.00000000000E+00  0.00000000000E+00 -0.20182384140E+04  0.20182384140E+04  0.25500000920E-02 0.  1.
    10030    2    1    2    0    0  0.00000000000E+00  0.00000000000E+00 -0.82917941573E+03  0.32072974124E+04  0.30982605100E+04 0.  0.
        2    1    3    3  502    0  0.15048933478E+03  0.35590018351E+03  0.11383696629E+04  0.12021636619E+04  0.25500000920E-02 0. -1.
       -2    1    3    3    0  502 -0.15048933478E+03 -0.35590018351E+03 -0.19675490786E+04  0.20051337505E+04  0.25500000920E-02 0.  1.
</event>
<event>
 5   0  0.5376678E-07  0.3089495E+04  0.7818609E-02  0.8218627E-01
        2   -1    0    0  501    0  0.00000000000E+00  0.00000000000E+00  0.22268588458E+04  0.22268588458E+04  0.25500000920E-02 0. -1.
       -2   -1    0    0    0  501  0.00000000000E+00  0.00000000000E+00 -0.10715742694E+04  0.10715742694E+04  0.25500000920E-02 0.  1.
    10030    2    1    2    0    0  0.00000000000E+00  0.00000000000E+00  0.11552845764E+04  0.32984331152E+04  0.30894948719E+04 0.  0.
        5    1    3    3  502    0  0.42787523496E+03 -0.14358451353E+04  0.17604632338E+03  0.15085565509E+04  0.46999998093E+01 0.  1.
       -5    1    3    3    0  502 -0.42787523496E+03  0.14358451353E+04  0.97923825299E+03  0.17898765643E+04  0.46999998093E+01 0. -1.
</event>
<event>
 5   0  0.5154105E-07  0.3102226E+04  0.7818609E-02  0.8215127E-01
       -2   -1    0    0    0  501  0.00000000000E+00  0.00000000000E+00  0.13321375458E+04  0.13321375458E+04  0.25500000920E-02 0.  1.
        2   -1    0    0  501    0  0.00000000000E+00  0.00000000000E+00 -0.18060832371E+04  0.18060832371E+04  0.25500000920E-02 0. -1.
    10030    2    1    2    0    0  0.00000000000E+00  0.00000000000E+00 -0.47394569126E+03  0.31382207829E+04  0.31022258403E+04 0.  0.
        1    1    3    3  502    0 -0.91854598602E+03 -0.12266187738E+04  0.58770706733E+01  0.15324343003E+04  0.50400001928E-02 0.  1.
       -1    1    3    3    0  502  0.91854598602E+03  0.12266187738E+04 -0.47982276193E+03  0.16057864826E+04  0.50400001928E-02 0. -1.
</event>
<event>
 5   0  0.5248309E-07  0.3096038E+04  0.7818609E-02  0.8216826E-01
       -2   -1    0    0    0  501  0.00000000000E+00  0.00000000000E+00  0.12303126782E+04  0.12303126782E+04  0.25500000920E-02 0. -1.
        2   -1    0    0  501    0  0.00000000000E+00  0.00000000000E+00 -0.19477672592E+04  0.19477672592E+04  0.25500000920E-02 0.  1.
    10030    2    1    2    0    0  0.00000000000E+00  0.00000000000E+00 -0.71745458103E+03  0.31780799374E+04  0.30960379540E+04 0.  0.
        4    1    3    3  502    0 -0.14401995679E+04  0.34551946108E+03 -0.82099690771E+03  0.16933977763E+04  0.12699999809E+01 0.  1.
       -4    1    3    3    0  502  0.14401995679E+04 -0.34551946108E+03  0.10354232668E+03  0.14846821611E+04  0.12699999809E+01 0. -1.
</event>
<event>
 5   0  0.5376678E-07  0.3089768E+04  0.7818609E-02  0.8218552E-01
        2   -1    0    0  501    0  0.00000000000E+00  0.00000000000E+00  0.15703760791E+04  0.15703760791E+04  0.25500000920E-02 0.  1.
       -2   -1    0    0    0  501  0.00000000000E+00  0.00000000000E+00 -0.15198058501E+04  0.15198058501E+04  0.25500000920E-02 0. -1.
    10030    2    1    2    0    0  0.00000000000E+00  0.00000000000E+00  0.50570229025E+02  0.30901819292E+04  0.30897681155E+04 0.  0.
        5    1    3    3  502    0 -0.31588245075E+03 -0.73713230743E-01 -0.14871551440E+04  0.15203401726E+04  0.46999998093E+01 0. -1.
       -5    1    3    3    0  502  0.31588245075E+03  0.73713230743E-01  0.15377253730E+04  0.15698417567E+04  0.46999998093E+01 0.  1.
</event>
<event>
 5   0  0.5342534E-07  0.3097954E+04  0.7818609E-02  0.8216300E-01
        2   -1    0    0  501    0  0.00000000000E+00  0.00000000000E+00  0.14266748219E+04  0.14266748220E+04  0.25500000920E-02 0. -1.
       -2   -1    0    0    0  501  0.00000000000E+00  0.00000000000E+00 -0.16817633676E+04  0.16817633676E+04  0.25500000920E-02 0.  1.
    10030    2    1    2    0    0  0.00000000000E+00  0.00000000000E+00 -0.25508854565E+03  0.31084381896E+04  0.30979538105E+04 0.  0.
        3    1    3    3  502    0 -0.25802019025E+03 -0.49919287743E+03  0.13207955073E+04  0.14353636228E+04  0.10100000352E+00 0. -1.
       -3    1    3    3    0  502  0.25802019025E+03  0.49919287743E+03 -0.15758840529E+04  0.16730745667E+04  0.10100000352E+00 0.  1.
</event>
<event>
 5   0  0.1875284E-07  0.3082590E+04  0.7818609E-02  0.8220532E-01
        1   -1    0    0  501    0  0.00000000000E+00  0.00000000000E+00  0.15209266673E+04  0.15209266673E+04  0.50400001928E-02 0. -1.
       -1   -1    0    0    0  501  0.00000000000E+00  0.00000000000E+00 -0.15619361555E+04  0.15619361555E+04  0.50400001928E-02 0.  1.
    10030    2    1    2    0    0  0.00000000000E+00  0.00000000000E+00 -0.41009488250E+02  0.30828628228E+04  0.30825900483E+04 0.  0.
        4    1    3    3  502    0 -0.38236784983E+03 -0.27651880453E+03 -0.14879180983E+04  0.15609515374E+04  0.12699999809E+01 0.  1.
       -4    1    3    3    0  502  0.38236784983E+03  0.27651880453E+03  0.14469086101E+04  0.15219112854E+04  0.12699999809E+01 0. -1.
</event>
<event>
 5   0  0.5376678E-07  0.3098736E+04  0.7818609E-02  0.8216085E-01
        2   -1    0    0  501    0  0.00000000000E+00  0.00000000000E+00  0.10818237121E+04  0.10818237121E+04  0.25500000920E-02 0.  1.
       -2   -1    0    0    0  501  0.00000000000E+00  0.00000000000E+00 -0.22189756452E+04  0.22189756452E+04  0.25500000920E-02 0. -1.
    10030    2    1    2    0    0  0.00000000000E+00  0.00000000000E+00 -0.11371519331E+04  0.33007993573E+04  0.30987355289E+04 0.  0.
        5    1    3    3  502    0  0.44937176920E+02  0.84054226475E+03 -0.19541611135E+04  0.21277449086E+04  0.46999998093E+01 0. -1.
       -5    1    3    3    0  502 -0.44937176920E+02 -0.84054226475E+03  0.81700918038E+03  0.11730544487E+04  0.46999998093E+01 0.  1.
</event>
<event>
 5   0  0.1814075E-07  0.3101745E+04  0.7818609E-02  0.8215259E-01
       -1   -1    0    0    0  501  0.00000000000E+00  0.00000000000E+00  0.13014936122E+04  0.13014936122E+04  0.50400001928E-02 0. -1.
        1   -1    0    0  501    0  0.00000000000E+00  0.00000000000E+00 -0.18480345200E+04  0.18480345200E+04  0.50400001928E-02 0.  1.
    10030    2    1    2    0    0  0.00000000000E+00  0.00000000000E+00 -0.54654090777E+03  0.31495281322E+04  0.31017447496E+04 0.  0.
        5    1    3    3  502    0  0.11719469394E+04 -0.33355284011E+03  0.70091869954E+03  0.14057120044E+04  0.46999998093E+01 0. -1.
       -5    1    3    3    0  502 -0.11719469394E+04  0.33355284011E+03 -0.12474596073E+04  0.17438161279E+04  0.46999998093E+01 0.  1.
</event>
<event>
 5   0  0.1814075E-07  0.3106728E+04  0.7818609E-02  0.8213894E-01
       -1   -1    0    0    0  501  0.00000000000E+00  0.00000000000E+00  0.10423066526E+04  0.10423066526E+04  0.50400001928E-02 0. -1.
        1   -1    0    0  501    0  0.00000000000E+00  0.00000000000E+00 -0.23150001898E+04  0.23150001898E+04  0.50400001928E-02 0.  1.
    10030    2    1    2    0    0  0.00000000000E+00  0.00000000000E+00 -0.12726935371E+04  0.33573068424E+04  0.31067282460E+04 0.  0.
        5    1    3    3  502    0  0.10738088184E+04 -0.22238085395E+03 -0.18252653563E+04  0.21293506836E+04  0.46999998093E+01 0.  1.
       -5    1    3    3    0  502 -0.10738088184E+04  0.22238085395E+03  0.55257181918E+03  0.12279561588E+04  0.46999998093E+01 0. -1.
</event>
<event>
 5   0  0.1814075E-07  0.3094659E+04  0.7818609E-02  0.8217205E-01
       -1   -1    0    0    0  501  0.00000000000E+00  0.00000000000E+00  0.13318740010E+04  0.13318740010E+04  0.50400001928E-02 0.  1.
        1   -1    0    0  501    0  0.00000000000E+00  0.00000000000E+00 -0.17976384091E+04  0.17976384091E+04  0.50400001928E-02 0. -1.
    10030    2    1    2    0    0  0.00000000000E+00  0.00000000000E+00 -0.46576440808E+03  0.31295124102E+04  0.30946585339E+04 0.  0.
        5    1    3    3  502    0  0.39665506676E+03 -0.11177645330E+04  0.77202637112E+03  0.14151959585E+04  0.46999998093E+01 0.  1.
       -5    1    3    3    0  502 -0.39665506676E+03  0.11177645330E+04 -0.12377907792E+04  0.17143164516E+04  0.46999998093E+01 0. -1.
</event>
<event>
 5   0  0.1840359E-07  0.3093086E+04  0.7818609E-02  0.8217638E-01
       -1   -1    0    0    0  501  0.00000000000E+00  0.00000000000E+00  0.13312588055E+04  0.13312588055E+04  0.50400001928E-02 0.  1.
        1   -1    0    0  501    0  0.00000000000E+00  0.00000000000E+00 -0.17966422075E+04  0.17966422075E+04  0.50400001928E-02 0. -1.
    10030    2    1    2    0    0  0.00000000000E+00  0.00000000000E+00 -0.46538340205E+03  0.31279010130E+04  0.30930863286E+04 0.  0.
        1    1    3    3  502    0  0.19208929567E+03 -0.32480432273E+03  0.12839893729E+04  0.13382917676E+04  0.50400001928E-02 0.  1.
       -1    1    3    3    0  502 -0.19208929567E+03  0.32480432273E+03 -0.17493727749E+04  0.17896092454E+04  0.50400001928E-02 0. -1.
</event>
<event>
 5   0  0.5342534E-07  0.3103769E+04  0.7818609E-02  0.8214704E-01
       -2   -1    0    0    0  501  0.00000000000E+00  0.00000000000E+00  0.12604520224E+04  0.12604520224E+04  0.25500000920E-02 0. -1.
        2   -1    0    0  501    0  0.00000000000E+00  0.00000000000E+00 -0.19107002131E+04  0.19107002131E+04  0.25500000920E-02 0.  1.
    10030    2    1    2    0    0  0.00000000000E+00  0.00000000000E+00 -0.65024819075E+03  0.31711522355E+04  0.31037692877E+04 0.  0.
        3    1    3    3  502    0 -0.49420032506E+03  0.43336374624E+03 -0.17614564940E+04  0.18800976273E+04  0.10100000352E+00 0.  1.
       -3    1    3    3    0  502  0.49420032506E+03 -0.43336374624E+03  0.11112083033E+04  0.12910546082E+04  0.10100000352E+00 0. -1.
</event>
<event>
 5   0  0.5376678E-07  0.3097081E+04  0.7818609E-02  0.8216539E-01
        2   -1    0    0  501    0  0.00000000000E+00  0.00000000000E+00  0.26171910214E+04  0.26171910214E+04  0.25500000920E-02 0.  1.
       -2   -1    0    0    0  501  0.00000000000E+00  0.00000000000E+00 -0.91624121349E+03  0.91624121350E+03  0.25500000920E-02 0. -1.
    10030    2    1    2    0    0  0.00000000000E+00  0.00000000000E+00  0.17009498079E+04  0.35334322349E+04  0.30970813857E+04 0.  0.
        5    1    3    3  502    0 -0.14764693207E+04 -0.29803073581E+03  0.12605172398E+04  0.19641053373E+04  0.46999998093E+01 0.  1.
       -5    1    3    3    0  502  0.14764693207E+04  0.29803073581E+03  0.44043256814E+03  0.15693268976E+04  0.46999998093E+01 0. -1.
</event>
<event>
 5   0  0.1875284E-07  0.3102204E+04  0.7818609E-02  0.8215133E-01
        1   -1    0    0  501    0  0.00000000000E+00  0.00000000000E+00  0.13615452233E+04  0.13615452233E+04  0.50400001928E-02 0.  1.
       -1   -1    0    0    0  501  0.00000000000E+00  0.00000000000E+00 -0.17670489221E+04  0.17670489221E+04  0.50400001928E-02 0. -1.
    10030    2    1    2    0    0  0.00000000000E+00  0.00000000000E+00 -0.40550369882E+03  0.31285941454E+04  0.31022037452E+04 0.  0.
        4    1    3    3  502    0  0.38504816953E+03  0.12074095714E+04  0.69918016451E+03  0.14473957583E+04  0.12699999809E+01 0.  1.
       -4    1    3    3    0  502 -0.38504816953E+03 -0.12074095714E+04 -0.11046838633E+04  0.16811983871E+04  0.12699999809E+01 0. -1.
</event>
<event>
 5   0  0.5055900E-07  0.3108769E+04  0.7818609E-02  0.8213335E-01
       -2   -1    0    0    0  501  0.00000000000E+00  0.00000000000E+00  0.10205627402E+04  0.10205627402E+04  0.25500000920E-02 0. -1.
        2   -1    0    0  501    0  0.00000000000E+00  0.00000000000E+00 -0.23674301773E+04  0.23674301773E+04  0.25500000920E-02 0.  1.
    10030    2    1    2    0    0  0.00000000000E+00  0.00000000000E+00 -0.13468674371E+04  0.33879929175E+04  0.31087689068E+04 0.  0.
        2    1    3    3  502    0 -0.75101094484E+03  0.79508284669E+03  0.53027867033E+03  0.12154709542E+04  0.25500000920E-02 0. -1.
       -2    1    3    3    0  502  0.75101094484E+03 -0.79508284669E+03 -0.18771461074E+04  0.21725219633E+04  0.25500000920E-02 0.  1.
</event>
<event>
 5   0  0.5055900E-07  0.3096335E+04  0.7818609E-02  0.8216744E-01
        2   -1    0    0  501    0  0.00000000000E+00  0.00000000000E+00  0.23975784715E+04  0.23975784715E+04  0.25500000920E-02 0. -1.
       -2   -1    0    0    0  501  0.00000000000E+00  0.00000000000E+00 -0.99968482787E+03  0.99968482787E+03  0.25500000920E-02 0.  1.
    10030    2    1    2    0    0  0.00000000000E+00  0.00000000000E+00  0.13978936436E+04  0.33972632994E+04  0.30963351379E+04 0.  0.
        2    1    3    3  502    0  0.14093457255E+04 -0.64025891916E+03  0.67127756403E+03  0.16872464033E+04  0.25500000920E-02 0.  1.
       -2    1    3    3    0  502 -0.14093457255E+04  0.64025891916E+03  0.72661607959E+03  0.17100168960E+04  0.25500000920E-02 0. -1.
</event>
<event>
 5   0  0.1840359E-07  0.3102134E+04  0.7818609E-02  0.8215152E-01
       -1   -1    0    0    0  501  0.00000000000E+00  0.00000000000E+00  0.11248025822E+04  0.11248025822E+04  0.50400001928E-02 0. -1.
        1   -1    0    0  501    0  0.00000000000E+00  0.00000000000E+00 -0.21388722280E+04  0.21388722280E+04  0.50400001928E-02 0.  1.
    10030    2    1    2    0    0  0.00000000000E+00  0.00000000000E+00 -0.10140696458E+04  0.32636748103E+04  0.31021341075E+04 0.  0.
        1    1    3    3  502    0 -0.14289399256E+04 -0.20590290143E+03  0.89541902484E+02  0.14464726296E+04  0.50400001928E-02 0. -1.
       -1    1    3    3    0  502  0.14289399256E+04  0.20590290143E+03 -0.11036115483E+04  0.18172021807E+04  0.50400001928E-02 0.  1.
</event>
<event>
 5   0  0.5376678E-07  0.3100007E+04  0.7818609E-02  0.8215736E-01
        2   -1    0    0  501    0  0.00000000000E+00  0.00000000000E+00  0.29804376391E+04  0.29804376391E+04  0.25500000920E-02 0. -1.
       -2   -1    0    0    0  501  0.00000000000E+00  0.00000000000E+00 -0.80609339430E+03  0.80609339430E+03  0.25500000920E-02 0.  1.
    10030    2    1    2    0    0  0.00000000000E+00  0.00000000000E+00  0.21743442448E+04  0.37865310334E+04  0.31000071568E+04 0.  0.
        5    1    3    3  502    0 -0.11919630140E+03 -0.10509458486E+03  0.29704526126E+04  0.29747039253E+04  0.46999998093E+01 0. -1.
       -5    1    3    3    0  502  0.11919630140E+03  0.10509458486E+03 -0.79610836780E+03  0.81182710802E+03  0.46999998093E+01 0.  1.
</event>
<event>
 5   0  0.1830902E-07  0.3095480E+04  0.7818609E-02  0.8216980E-01
       -1   -1    0    0    0  501  0.00000000000E+00  0.00000000000E+00  0.13421736591E+04  0.13421736591E+04  0.50400001928E-02 0.  1.
        1   -1    0    0  501    0  0.00000000000E+00  0.00000000000E+00 -0.17847902422E+04  0.17847902422E+04  0.50400001928E-02 0. -1.
    10030    2    1    2    0    0  0.00000000000E+00  0.00000000000E+00 -0.44261658307E+03  0.31269639013E+04  0.30954795752E+04 0.  0.
        3    1    3    3  502    0 -0.14022646430E+04 -0.64305903576E+03 -0.34758932153E+03  0.15813568222E+04  0.10100000352E+00 0.  1.
       -3    1    3    3    0  502  0.14022646430E+04  0.64305903576E+03 -0.95027261546E+02  0.15456070791E+04  0.10100000352E+00 0. -1.
</event>
<event>
 5   0  0.5248309E-07  0.3100569E+04  0.7818609E-02  0.8215582E-01
       -2   -1    0    0    0  501  0.00000000000E+00  0.00000000000E+00  0.14193094527E+04  0.14193094527E+04  0.25500000920E-02 0. -1.
        2   -1    0    0  501    0  0.00000000000E+00  0.00000000000E+00 -0.16933456883E+04  0.16933456883E+04  0.25500000920E-02 0.  1.
    10030    2    1    2    0    0  0.00000000000E+00  0.00000000000E+00 -0.27403623567E+03  0.31126551410E+04  0.31005686847E+04 0.  0.
        4    1    3    3  502    0 -0.10002003325E+04  0.94211868580E+03  0.58368818618E+03  0.14928770327E+04  0.12699999809E+01 0. -1.
       -4    1    3    3    0  502  0.10002003325E+04 -0.94211868580E+03 -0.85772442185E+03  0.16197781083E+04  0.12699999809E+01 0.  1.
</event>
<event>
 5   0  0.1727000E-07  0.3098337E+04  0.7818609E-02  0.8216195E-01
        3   -1    0    0  501    0  0.00000000000E+00  0.00000000000E+00  0.23446823241E+04  0.23446823263E+04  0.10100000352E+00 0.  1.
       -3   -1    0    0    0  501  0.00000000000E+00  0.00000000000E+00 -0.10235598223E+04  0.10235598273E+04  0.10100000352E+00 0. -1.
    10030    2    1    2    0    0  0.00000000000E+00  0.00000000000E+00  0.13211225018E+04  0.33682421536E+04  0.30983367378E+04 0.  0.
        5    1    3    3  502    0  0.10947679259E+04  0.25806577052E+03 -0.49750027913E+03  0.12298956749E+04  0.46999998093E+01 0. -1.
       -5    1    3    3    0  502 -0.10947679259E+04 -0.25806577052E+03  0.18186227809E+04  0.21383464787E+04  0.46999998093E+01 0.  1.
</event>
<event>
 5   0  0.5376678E-07  0.3104235E+04  0.7818609E-02  0.8214577E-01
        2   -1    0    0  501    0  0.00000000000E+00  0.00000000000E+00  0.18973488006E+04  0.18973488006E+04  0.25500000920E-02 0. -1.
       -2   -1    0    0    0  501  0.00000000000E+00  0.00000000000E+00 -0.12697029276E+04  0.12697029276E+04  0.25500000920E-02 0.  1.
    10030    2    1    2    0    0  0.00000000000E+00  0.00000000000E+00  0.62764587299E+03  0.31670517283E+04  0.31042353821E+04 0.  0.
        5    1    3    3  502    0 -0.10628803289E+04 -0.11304082071E+04  0.35346705377E+03  0.15913825298E+04  0.46999998093E+01 0.  1.
       -5    1    3    3    0  502  0.10628803289E+04  0.11304082071E+04  0.27417881922E+03  0.15756691985E+04  0.46999998093E+01 0. -1.
</event>
<event>
 5   0  0.1840359E-07  0.3102588E+04  0.7818609E-02  0.8215028E-01
        1   -1    0    0  501    0  0.00000000000E+00  0.00000000000E+00  0.21679703171E+04  0.21679703171E+04  0.50400001928E-02 0.  1.
       -1   -1    0    0    0  501  0.00000000000E+00  0.00000000000E+00 -0.11100303040E+04  0.11100303041E+04  0.50400001928E-02 0. -1.
    10030    2    1    2    0    0  0.00000000000E+00  0.00000000000E+00  0.10579400131E+04  0.32780006211E+04  0.31025877910E+04 0.  0.
        1    1    3    3  502    0  0.12603289860E+03  0.94855386375E+03  0.18190166902E+04  0.20553492266E+04  0.50400001928E-02 0.  1.
       -1    1    3    3    0  502 -0.12603289860E+03 -0.94855386375E+03 -0.76107667719E+03  0.12226513945E+04  0.50400001928E-02 0. -1.
</event>
<event>
 5   0  0.1840359E-07  0.3106378E+04  0.7818609E-02  0.8213990E-01
        1   -1    0    0  501    0  0.00000000000E+00  0.00000000000E+00  0.19391536270E+04  0.19391536270E+04  0.50400001928E-02 0.  1.
       -1   -1    0    0    0  501  0.00000000000E+00  0.00000000000E+00 -0.12440458386E+04  0.12440458386E+04  0.50400001928E-02 0. -1.
    10030    2    1    2    0    0  0.00000000000E+00  0.00000000000E+00  0.69510778841E+03  0.31831994657E+04  0.31063779552E+04 0.  0.
        1    1    3    3  502    0  0.12243112906E+04 -0.92752949258E+03  0.11131655427E+03  0.15400131400E+04  0.50400001928E-02 0. -1.
       -1    1    3    3    0  502 -0.12243112906E+04  0.92752949258E+03  0.58379123414E+03  0.16431863257E+04  0.50400001928E-02 0.  1.
</event>
<event>
 5   0  0.1830902E-07  0.3103370E+04  0.7818609E-02  0.8214814E-01
        1   -1    0    0  501    0  0.00000000000E+00  0.00000000000E+00  0.15652877883E+04  0.15652877883E+04  0.50400001928E-02 0.  1.
       -1   -1    0    0    0  501  0.00000000000E+00  0.00000000000E+00 -0.15382004512E+04  0.15382004512E+04  0.50400001928E-02 0. -1.
    10030    2    1    2    0    0  0.00000000000E+00  0.00000000000E+00  0.27087337085E+02  0.31034882395E+04  0.31033700277E+04 0.  0.
        3    1    3    3  502    0  0.14997569487E+04 -0.36665438288E+02  0.40993120835E+03  0.15552038019E+04  0.10100000352E+00 0. -1.
       -3    1    3    3    0  502 -0.14997569487E+04  0.36665438288E+02 -0.38284387127E+03  0.15482844376E+04  0.10100000352E+00 0.  1.
</event>
<event>
 5   0  0.5248309E-07  0.3111055E+04  0.7818609E-02  0.8212710E-01
        2   -1    0    0  501    0  0.00000000000E+00  0.00000000000E+00  0.20607018340E+04  0.20607018340E+04  0.25500000920E-02 0.  1.
       -2   -1    0    0    0  501  0.00000000000E+00  0.00000000000E+00 -0.11741950611E+04  0.11741950611E+04  0.25500000920E-02 0. -1.
    10030    2    1    2    0    0  0.00000000000E+00  0.00000000000E+00  0.88650677294E+03  0.32348968951E+04  0.31110550724E+04 0.  0.
        4    1    3    3  502    0 -0.45747660908E+02 -0.13819175353E+04 -0.29776899294E+03  0.14143750948E+04  0.12699999809E+01 0. -1.
       -4    1    3    3    0  502  0.45747660908E+02  0.13819175353E+04  0.11842757659E+04  0.18205218003E+04  0.12699999809E+01 0.  1.
</event>
<event>
 5   0  0.5154105E-07  0.3100729E+04  0.7818609E-02  0.8215538E-01
       -2   -1    0    0    0  501  0.00000000000E+00  0.00000000000E+00  0.10371075297E+04  0.10371075297E+04  0.25500000920E-02 0. -1.
        2   -1    0    0  501    0  0.00000000000E+00  0.00000000000E+00 -0.23176287864E+04  0.23176287864E+04  0.25500000920E-02 0.  1.
    10030    2    1    2    0    0  0.00000000000E+00  0.00000000000E+00 -0.12805212567E+04  0.33547363160E+04  0.31007291177E+04 0.  0.
        1    1    3    3  502    0 -0.19118747351E+03 -0.15385055183E+04 -0.64983946323E+03  0.16810244518E+04  0.50400001928E-02 0.  1.
       -1    1    3    3    0  502  0.19118747351E+03  0.15385055183E+04 -0.63068179347E+03  0.16737118642E+04  0.50400001928E-02 0. -1.
</event>
<event>
 5   0  0.5376678E-07  0.3099839E+04  0.7818609E-02  0.8215782E-01
       -2   -1    0    0    0  501  0.00000000000E+00  0.00000000000E+00  0.11355419450E+04  0.11355419450E+04  0.25500000920E-02 0. -1.
        2   -1    0    0  501    0  0.00000000000E+00  0.00000000000E+00 -0.21155097844E+04  0.21155097844E+04  0.25500000920E-02 0.  1.
    10030    2    1    2    0    0  0.00000000000E+00  0.00000000000E+00 -0.97996783942E+03  0.32510517294E+04  0.30998387669E+04 0.  0.
        5    1    3    3  502    0  0.15638368223E+03  0.23208967433E+03  0.11088159453E+04  0.11435979903E+04  0.46999998093E+01 0. -1.
       -5    1    3    3    0  502 -0.15638368223E+03 -0.23208967433E+03 -0.20887837847E+04  0.21074537390E+04  0.46999998093E+01 0.  1.
</event>
<event>
 5   0  0.1845123E-07  0.3097980E+04  0.7818609E-02  0.8216293E-01
       -1   -1    0    0    0  501  0.00000000000E+00  0.00000000000E+00  0.10477571409E+04  0.10477571410E+04  0.50400001928E-02 0. -1.
        1   -1    0    0  501    0  0.00000000000E+00  0.00000000000E+00 -0.22900057058E+04  0.22900057058E+04  0.50400001928E-02 0.  1.
    10030    2    1    2    0    0  0.00000000000E+00  0.00000000000E+00 -0.12422485649E+04  0.33377628468E+04  0.30979798780E+04 0.  0.
        2    1    3    3  502    0 -0.80128540301E+03  0.57790206275E+03  0.66425508263E+03  0.11904889357E+04  0.25500000920E-02 0. -1.
       -2    1    3    3    0  502  0.80128540301E+03 -0.57790206275E+03 -0.19065036475E+04  0.21472739111E+04  0.25500000920E-02 0.  1.
</event>
<event>
 5   0  0.1814075E-07  0.3100931E+04  0.7818609E-02  0.8215482E-01
        1   -1    0    0  501    0  0.00000000000E+00  0.00000000000E+00  0.13287858544E+04  0.13287858544E+04  0.50400001928E-02 0.  1.
       -1   -1    0    0    0  501  0.00000000000E+00  0.00000000000E+00 -0.18091278697E+04  0.18091278697E+04  0.50400001928E-02 0. -1.
    10030    2    1    2    0    0  0.00000000000E+00  0.00000000000E+00 -0.48034201532E+03  0.31379137241E+04  0.31009311647E+04 0.  0.
        5    1    3    3  502    0  0.84215552511E+02  0.14775844307E+04 -0.70782266416E+03  0.16405435145E+04  0.46999998093E+01 0.  1.
       -5    1    3    3    0  502 -0.84215552511E+02 -0.14775844307E+04  0.22748064884E+03  0.14973702096E+04  0.46999998093E+01 0. -1.
</event>
<event>
 5   0  0.5248309E-07  0.3100079E+04  0.7818609E-02  0.8215716E-01
       -2   -1    0    0    0  501  0.00000000000E+00  0.00000000000E+00  0.13857957352E+04  0.13857957352E+04  0.25500000920E-02 0. -1.
        2   -1    0    0  501    0  0.00000000000E+00  0.00000000000E+00 -0.17337496326E+04  0.17337496326E+04  0.25500000920E-02 0.  1.
    10030    2    1    2    0    0  0.00000000000E+00  0.00000000000E+00 -0.34795389734E+03  0.31195453678E+04  0.31000792550E+04 0.  0.
        4    1    3    3  502    0  0.84436268454E+03  0.22927812956E+03  0.11135511061E+04  0.14161618843E+04  0.12699999809E+01 0. -1.
       -4    1    3    3    0  502 -0.84436268454E+03 -0.22927812956E+03 -0.14615050035E+04  0.17033834835E+04  0.12699999809E+01 0.  1.
</event>
<event>
 5   0  0.1830902E-07  0.3099366E+04  0.7818609E-02  0.8215912E-01
        1   -1    0    0  501    0  0.00000000000E+00  0.00000000000E+00  0.25263745214E+04  0.25263745214E+04  0.50400001928E-02 0. -1.
       -1   -1    0    0    0  501  0.00000000000E+00  0.00000000000E+00 -0.95057875863E+03  0.95057875864E+03  0.50400001928E-02 0.  1.
    10030    2    1    2    0    0  0.00000000000E+00  0.00000000000E+00  0.15757957628E+04  0.34769532801E+04  0.30993663588E+04 0.  0.
        3    1    3    3  502    0 -0.10277493223E+03  0.51654481117E+03  0.24228956843E+04  0.24794767060E+04  0.10100000352E+00 0. -1.
       -3    1    3    3    0  502  0.10277493223E+03 -0.51654481117E+03 -0.84709992147E+03  0.99747657406E+03  0.10100000352E+00 0.  1.
</event>
<event>
 5   0  0.5248309E-07  0.3091099E+04  0.7818609E-02  0.8218185E-01
        2   -1    0    0  501    0  0.00000000000E+00  0.00000000000E+00  0.14785043170E+04  0.14785043170E+04  0.25500000920E-02 0. -1.
       -2   -1    0    0    0  501  0.00000000000E+00  0.00000000000E+00 -0.16156344946E+04  0.16156344946E+04  0.25500000920E-02 0.  1.
    10030    2    1    2    0    0  0.00000000000E+00  0.00000000000E+00 -0.13713017761E+03  0.30941388117E+04  0.30910985588E+04 0.  0.
        4    1    3    3  502    0  0.90809640748E+03  0.95277933533E+03 -0.87948126570E+03  0.15830086723E+04  0.12699999809E+01 0.  1.
       -4    1    3    3    0  502 -0.90809640748E+03 -0.95277933533E+03  0.74235108809E+03  0.15111301393E+04  0.12699999809E+01 0. -1.
</event>
<event>
 5   0  0.1830902E-07  0.3100833E+04  0.7818609E-02  0.8215509E-01
        1   -1    0    0  501    0  0.00000000000E+00  0.00000000000E+00  0.16141012482E+04  0.16141012482E+04  0.50400001928E-02 0.  1.
       -1   -1    0    0    0  501  0.00000000000E+00  0.00000000000E+00 -0.14892442259E+04  0.14892442259E+04  0.50400001928E-02 0. -1.
    10030    2    1    2    0    0  0.00000000000E+00  0.00000000000E+00  0.12485702227E+03  0.31033454741E+04  0.31008327681E+04 0.  0.
        3    1    3    3  502    0 -0.11329040914E+04  0.10211991593E+04 -0.21613415151E+03  0.15404653144E+04  0.10100000352E+00 0.  1.
       -3    1    3    3    0  502  0.11329040914E+04 -0.10211991593E+04  0.34099117378E+03  0.15628801598E+04  0.10100000352E+00 0. -1.
</event>
<event>
 5   0  0.1840359E-07  0.3100880E+04  0.7818609E-02  0.8215496E-01
       -1   -1    0    0    0  501  0.00000000000E+00  0.00000000000E+00  0.95694903640E+03  0.95694903642E+03  0.50400001928E-02 0. -1.
        1   -1    0    0  501    0  0.00000000000E+00  0.00000000000E+00 -0.25120090769E+04  0.25120090769E+04  0.50400001928E-02 0.  1.
    10030    2    1    2    0    0  0.00000000000E+00  0.00000000000E+00 -0.15550600405E+04  0.34689581133E+04  0.31008803044E+04 0.  0.
        1    1    3    3  502    0 -0.12883904035E+04 -0.84040189503E+03 -0.56049195492E+03  0.16371855144E+04  0.50400001928E-02 0. -1.
       -1    1    3    3    0  502  0.12883904035E+04  0.84040189503E+03 -0.99456808558E+03  0.18317725989E+04  0.50400001928E-02 0.  1.
</event>
<event>
 5   0  0.5248309E-07  0.3101906E+04  0.7818609E-02  0.8215215E-01
       -2   -1    0    0    0  501  0.00000000000E+00  0.00000000000E+00  0.97032847323E+03  0.97032847324E+03  0.25500000920E-02 0.  1.
        2   -1    0    0  501    0  0.00000000000E+00  0.00000000000E+00 -0.24790110933E+04  0.24790110933E+04  0.25500000920E-02 0. -1.
    10030    2    1    2    0    0  0.00000000000E+00  0.00000000000E+00 -0.15086826200E+04  0.34493395665E+04  0.31019058975E+04 0.  0.
        4    1    3    3  502    0 -0.10719354641E+04 -0.29914970238E+03  0.44689198747E+03  0.11992707138E+04  0.12699999809E+01 0.  1.
       -4    1    3    3    0  502  0.10719354641E+04  0.29914970238E+03 -0.19555746075E+04  0.22500688527E+04  0.12699999809E+01 0. -1.
</event>
<event>
 5   0  0.5154105E-07  0.3088580E+04  0.7818609E-02  0.8218879E-01
       -2   -1    0    0    0  501  0.00000000000E+00  0.00000000000E+00  0.13848565654E+04  0.13848565654E+04  0.25500000920E-02 0.  1.
        2   -1    0    0  501    0  0.00000000000E+00  0.00000000000E+00 -0.17220783289E+04  0.17220783289E+04  0.25500000920E-02 0. -1.
    10030    2    1    2    0    0  0.00000000000E+00  0.00000000000E+00 -0.33722176355E+03  0.31069348943E+04  0.30885799196E+04 0.  0.
        1    1    3    3  502    0 -0.20133378553E+03 -0.63747003192E+03 -0.15689787727E+04  0.17054611470E+04  0.50400001928E-02 0.  1.
       -1    1    3    3    0  502  0.20133378553E+03  0.63747003192E+03  0.12317570091E+04  0.14014737473E+04  0.50400001928E-02 0. -1.
</event>
<event>
 5   0  0.5055900E-07  0.3083301E+04  0.7818609E-02  0.8220336E-01
       -2   -1    0    0    0  501  0.00000000000E+00  0.00000000000E+00  0.10268894486E+04  0.10268894486E+04  0.25500000920E-02 0. -1.
        2   -1    0    0  501    0  0.00000000000E+00  0.00000000000E+00 -0.23144521820E+04  0.23144521820E+04  0.25500000920E-02 0.  1.
    10030    2    1    2    0    0  0.00000000000E+00  0.00000000000E+00 -0.12875627334E+04  0.33413416306E+04  0.30833011692E+04 0.  0.
        2    1    3    3  502    0  0.14197512865E+04 -0.48383293180E+03 -0.10298221466E+04  0.18194289421E+04  0.25500000920E-02 0.  1.
       -2    1    3    3    0  502 -0.14197512865E+04  0.48383293180E+03 -0.25774058675E+03  0.15219126886E+04  0.25500000920E-02 0. -1.
</event>
<event>
 5   0  0.5248309E-07  0.3097530E+04  0.7818609E-02  0.8216416E-01
       -2   -1    0    0    0  501  0.00000000000E+00  0.00000000000E+00  0.17755434236E+04  0.17755434236E+04  0.25500000920E-02 0.  1.
        2   -1    0    0  501    0  0.00000000000E+00  0.00000000000E+00 -0.13509511309E+04  0.13509511309E+04  0.25500000920E-02 0. -1.
    10030    2    1    2    0    0  0.00000000000E+00  0.00000000000E+00  0.42459229273E+03  0.31264945545E+04  0.30975295938E+04 0.  0.
        4    1    3    3  502    0 -0.48231398050E+03  0.10922823146E+04 -0.78331661261E+03  0.14280385006E+04  0.12699999809E+01 0. -1.
       -4    1    3    3    0  502  0.48231398050E+03 -0.10922823146E+04  0.12079089053E+04  0.16984560539E+04  0.12699999809E+01 0.  1.
</event>
<event>
 5   0  0.1840359E-07  0.3097192E+04  0.7818609E-02  0.8216509E-01
        1   -1    0    0  501    0  0.00000000000E+00  0.00000000000E+00  0.15191145057E+04  0.15191145057E+04  0.50400001928E-02 0.  1.
       -1   -1    0    0    0  501  0.00000000000E+00  0.00000000000E+00 -0.15786501243E+04  0.15786501243E+04  0.50400001928E-02 0. -1.
    10030    2    1    2    0    0  0.00000000000E+00  0.00000000000E+00 -0.59535618579E+02  0.30977646300E+04  0.30971924727E+04 0.  0.
        1    1    3    3  502    0 -0.55641976497E+03  0.13725304199E+04  0.42276200732E+03  0.15401851912E+04  0.50400001928E-02 0.  1.
       -1    1    3    3    0  502  0.55641976497E+03 -0.13725304199E+04 -0.48229762590E+03  0.15575794388E+04  0.50400001928E-02 0. -1.
</event>
<event>
 5   0  0.1830902E-07  0.3095469E+04  0.7818609E-02  0.8216983E-01
        1   -1    0    0  501    0  0.00000000000E+00  0.00000000000E+00  0.12972062615E+04  0.12972062616E+04  0.50400001928E-02 0. -1.
       -1   -1    0    0    0  501  0.00000000000E+00  0.00000000000E+00 -0.18466467582E+04  0.18466467582E+04  0.50400001928E-02 0.  1.
    10030    2    1    2    0    0  0.00000000000E+00  0.00000000000E+00 -0.54944049664E+03  0.31438530197E+04  0.30954687772E+04 0.  0.
        3    1    3    3  502    0  0.13389095925E+04  0.62510762847E+03 -0.74239946020E+03  0.16536612147E+04  0.10100000352E+00 0.  1.
       -3    1    3    3    0  502 -0.13389095925E+04 -0.62510762847E+03  0.19295896355E+03  0.14901918051E+04  0.10100000352E+00 0. -1.
</event>
<event>
 5   0  0.5055900E-07  0.3103510E+04  0.7818609E-02  0.8214775E-01
        2   -1    0    0  501    0  0.00000000000E+00  0.00000000000E+00  0.18028121890E+04  0.18028121890E+04  0.25500000920E-02 0. -1.
       -2   -1    0    0    0  501  0.00000000000E+00  0.00000000000E+00 -0.13356598810E+04  0.13356598810E+04  0.25500000920E-02 0.  1.
    10030    2    1    2    0    0  0.00000000000E+00  0.00000000000E+00  0.46715230796E+03  0.31384720700E+04  0.31035102152E+04 0.  0.
        2    1    3    3  502    0  0.85292510869E+02 -0.62111330122E+03  0.16690341078E+04  0.17828997163E+04  0.25500000920E-02 0. -1.
       -2    1    3    3    0  502 -0.85292510869E+02  0.62111330122E+03 -0.12018817999E+04  0.13555723537E+04  0.25500000920E-02 0.  1.
</event>
<event>
 5   0  0.1845123E-07  0.3101197E+04  0.7818609E-02  0.8215409E-01
       -1   -1    0    0    0  501  0.00000000000E+00  0.00000000000E+00  0.84569458931E+03  0.84569458933E+03  0.50400001928E-02 0. -1.
        1   -1    0    0  501    0  0.00000000000E+00  0.00000000000E+00 -0.28430545083E+04  0.28430545083E+04  0.50400001928E-02 0.  1.
    10030    2    1    2    0    0  0.00000000000E+00  0.00000000000E+00 -0.19973599190E+04  0.36887490977E+04  0.31011970688E+04 0.  0.
        2    1    3    3  502    0  0.20903490571E+03  0.34603727311E+03 -0.27792652262E+04  0.28085143019E+04  0.25500000920E-02 0.  1.
       -2    1    3    3    0  502 -0.20903490571E+03 -0.34603727311E+03  0.78190530723E+03  0.88023479576E+03  0.25500000920E-02 0. -1.
</event>
<event>
 5   0  0.1875284E-07  0.3096686E+04  0.7818609E-02  0.8216648E-01
        1   -1    0    0  501    0  0.00000000000E+00  0.00000000000E+00  0.21661740362E+04  0.21661740362E+04  0.50400001928E-02 0.  1.
       -1   -1    0    0    0  501  0.00000000000E+00  0.00000000000E+00 -0.11067284293E+04  0.11067284293E+04  0.50400001928E-02 0. -1.
    10030    2    1    2    0    0  0.00000000000E+00  0.00000000000E+00  0.10594456069E+04  0.32729024655E+04  0.30966862215E+04 0.  0.
        4    1    3    3  502    0 -0.93681183524E+03 -0.21129102597E+03  0.18133746505E+04  0.20519721120E+04  0.12699999809E+01 0.  1.
       -4    1    3    3    0  502  0.93681183524E+03  0.21129102597E+03 -0.75392904361E+03  0.12209303535E+04  0.12699999809E+01 0. -1.
</event>
<event>
 5   0  0.1875284E-07  0.3100493E+04  0.7818609E-02  0.8215603E-01
       -1   -1    0    0    0  501  0.00000000000E+00  0.00000000000E+00  0.10538933812E+04  0.10538933812E+04  0.50400001928E-02 0.  1.
        1   -1    0    0  501    0  0.00000000000E+00  0.00000000000E+00 -0.22803669956E+04  0.22803669957E+04  0.50400001928E-02 0. -1.
    10030    2    1    2    0    0  0.00000000000E+00  0.00000000000E+00 -0.12264736144E+04  0.33342603769E+04  0.31004926599E+04 0.  0.
        4    1    3    3  502    0  0.12612769046E+04 -0.50382886422E+03 -0.14169829949E+04  0.19627800119E+04  0.12699999809E+01 0. -1.
       -4    1    3    3    0  502 -0.12612769046E+04  0.50382886422E+03  0.19050938048E+03  0.13714803649E+04  0.12699999809E+01 0.  1.
</event>
<event>
 5   0  0.5055900E-07  0.3098126E+04  0.7818609E-02  0.8216252E-01
       -2   -1    0    0    0  501  0.00000000000E+00  0.00000000000E+00  0.21465733889E+04  0.21465733889E+04  0.25500000920E-02 0. -1.
        2   -1    0    0  501    0  0.00000000000E+00  0.00000000000E+00 -0.11178726570E+04  0.11178726570E+04  0.25500000920E-02 0.  1.
    10030    2    1    2    0    0  0.00000000000E+00  0.00000000000E+00  0.10287007319E+04  0.32644460459E+04  0.30981256900E+04 0.  0.
        2    1    3    3  502    0 -0.13882549598E+04 -0.30418911651E+03 -0.13502421789E+03  0.14275904145E+04  0.25500000920E-02 0. -1.
       -2    1    3    3    0  502  0.13882549598E+04  0.30418911651E+03  0.11637249498E+04  0.18368556314E+04  0.25500000920E-02 0.  1.
</event>
<event>
 5   0  0.1840359E-07  0.3104082E+04  0.7818609E-02  0.8214619E-01
        1   -1    0    0  501    0  0.00000000000E+00  0.00000000000E+00  0.15238258358E+04  0.15238258359E+04  0.50400001928E-02 0. -1.
       -1   -1    0    0    0  501  0.00000000000E+00  0.00000000000E+00 -0.15807786027E+04  0.15807786027E+04  0.50400001928E-02 0.  1.
    10030    2    1    2    0    0  0.00000000000E+00  0.00000000000E+00 -0.56952766897E+02  0.31046044386E+04  0.31040820064E+04 0.  0.
        1    1    3    3  502    0 -0.15167824220E+03 -0.11112454248E+04 -0.11014843279E+04  0.15719861348E+04  0.50400001928E-02 0.  1.
       -1    1    3    3    0  502  0.15167824220E+03  0.11112454248E+04  0.10445315610E+04  0.15326183038E+04  0.50400001928E-02 0. -1.
</event>
<event>
 5   0  0.5055900E-07  0.3109983E+04  0.7818609E-02  0.8213003E-01
        2   -1    0    0  501    0  0.00000000000E+00  0.00000000000E+00  0.17849033489E+04  0.17849033489E+04  0.25500000920E-02 0. -1.
       -2   -1    0    0    0  501  0.00000000000E+00  0.00000000000E+00 -0.13546948302E+04  0.13546948302E+04  0.25500000920E-02 0.  1.
    10030    2    1    2    0    0  0.00000000000E+00  0.00000000000E+00  0.43020851866E+03  0.31395981791E+04  0.31099834978E+04 0.  0.
        2    1    3    3  502    0 -0.12189283418E+04  0.66258918193E+03  0.92406551873E+03  0.16669456528E+04  0.25500000920E-02 0. -1.
       -2    1    3    3    0  502  0.12189283418E+04 -0.66258918193E+03 -0.49385700008E+03  0.14726525262E+04  0.25500000920E-02 0.  1.
</event>
<event>
 5   0  0.5055900E-07  0.3105878E+04  0.7818609E-02  0.8214127E-01
       -2   -1    0    0    0  501  0.00000000000E+00  0.00000000000E+00  0.96869700336E+03  0.96869700336E+03  0.25500000920E-02 0. -1.
        2   -1    0    0  501    0  0.00000000000E+00  0.00000000000E+00 -0.24895504390E+04  0.24895504391E+04  0.25500000920E-02 0.  1.
    10030    2    1    2    0    0  0.00000000000E+00  0.00000000000E+00 -0.15208534357E+04  0.34582474424E+04  0.31058783299E+04 0.  0.
        2    1    3    3  502    0  0.62831313579E+03 -0.14199840832E+04 -0.73583335902E+03  0.17183081579E+04  0.25500000920E-02 0.  1.
       -2    1    3    3    0  502 -0.62831313579E+03  0.14199840832E+04 -0.78502007667E+03  0.17399392845E+04  0.25500000920E-02 0. -1.
</event>
<event>
 5   0  0.5055900E-07  0.3102263E+04  0.7818609E-02  0.8215117E-01
       -2   -1    0    0    0  501  0.00000000000E+00  0.00000000000E+00  0.95017347374E+03  0.95017347375E+03  0.25500000920E-02 0.  1.
        2   -1    0    0  501    0  0.00000000000E+00  0.00000000000E+00 -0.25321791300E+04  0.25321791300E+04  0.25500000920E-02 0. -1.
    10030    2    1    2    0    0  0.00000000000E+00  0.00000000000E+00 -0.15820056563E+04  0.34823526037E+04  0.31022633287E+04 0.  0.
        2    1    3    3  502    0 -0.99478143010E+03 -0.10031072249E+04 -0.72068215037E+02  0.14145699085E+04  0.25500000920E-02 0.  1.
       -2    1    3    3    0  502  0.99478143010E+03  0.10031072249E+04 -0.15099374412E+04  0.20677826953E+04  0.25500000920E-02 0. -1.
</event>
<event>
 5   0  0.5154105E-07  0.3098351E+04  0.7818609E-02  0.8216191E-01
        2   -1    0    0  501    0  0.00000000000E+00  0.00000000000E+00  0.15609132390E+04  0.15609132390E+04  0.25500000920E-02 0. -1.
       -2   -1    0    0    0  501  0.00000000000E+00  0.00000000000E+00 -0.15375261215E+04  0.15375261215E+04  0.25500000920E-02 0.  1.
    10030    2    1    2    0    0  0.00000000000E+00  0.00000000000E+00  0.23387117539E+02  0.30984393605E+04  0.30983510959E+04 0.  0.
        1    1    3    3  502    0  0.12376586605E+03 -0.87716758326E+03  0.12826364951E+04  0.15588127974E+04  0.50400001928E-02 0. -1.
       -1    1    3    3    0  502 -0.12376586605E+03  0.87716758326E+03 -0.12592493776E+04  0.15396265631E+04  0.50400001928E-02 0.  1.
</event>
<event>
 5   0  0.1845123E-07  0.3128353E+04  0.7818609E-02  0.8207999E-01
       -1   -1    0    0    0  501  0.00000000000E+00  0.00000000000E+00  0.12054263249E+04  0.12054263249E+04  0.50400001928E-02 0. -1.
        1   -1    0    0  501    0  0.00000000000E+00  0.00000000000E+00 -0.20296957810E+04  0.20296957810E+04  0.50400001928E-02 0.  1.
    10030    2    1    2    0    0  0.00000000000E+00  0.00000000000E+00 -0.82426945614E+03  0.32351221059E+04  0.31283533853E+04 0.  0.
        2    1    3    3  502    0 -0.20483423518E+03 -0.11597976825E+03  0.11870052732E+04  0.12101197830E+04  0.25500000920E-02 0. -1.
       -2    1    3    3    0  502  0.20483423518E+03  0.11597976825E+03 -0.20112747294E+04  0.20250023229E+04  0.25500000920E-02 0.  1.
</event>
<event>
 5   0  0.5248309E-07  0.3104386E+04  0.7818609E-02  0.8214535E-01
       -2   -1    0    0    0  501  0.00000000000E+00  0.00000000000E+00  0.16253327527E+04  0.16253327527E+04  0.25500000920E-02 0. -1.
        2   -1    0    0  501    0  0.00000000000E+00  0.00000000000E+00 -0.14823442620E+04  0.14823442620E+04  0.25500000920E-02 0.  1.
    10030    2    1    2    0    0  0.00000000000E+00  0.00000000000E+00  0.14298849077E+03  0.31076770147E+04  0.31043857233E+04 0.  0.
        4    1    3    3  502    0  0.10589856173E+04  0.26216461594E+03 -0.10338141520E+04  0.15029817488E+04  0.12699999809E+01 0.  1.
       -4    1    3    3    0  502 -0.10589856173E+04 -0.26216461594E+03  0.11768026428E+04  0.16046952659E+04  0.12699999809E+01 0. -1.
</event>
<event>
 5   0  0.5376678E-07  0.3110129E+04  0.7818609E-02  0.8212964E-01
        2   -1    0    0  501    0  0.00000000000E+00  0.00000000000E+00  0.21554983059E+04  0.21554983059E+04  0.25500000920E-02 0.  1.
       -2   -1    0    0    0  501  0.00000000000E+00  0.00000000000E+00 -0.11218868826E+04  0.11218868826E+04  0.25500000920E-02 0. -1.
    10030    2    1    2    0    0  0.00000000000E+00  0.00000000000E+00  0.10336114233E+04  0.32773851885E+04  0.31101287914E+04 0.  0.
        5    1    3    3  502    0  0.64232790885E+03  0.10507633897E+03  0.20050510023E+04  0.21080507089E+04  0.46999998093E+01 0.  1.
       -5    1    3    3    0  502 -0.64232790885E+03 -0.10507633897E+03 -0.97143957897E+03  0.11693344796E+04  0.46999998093E+01 0. -1.
</event>
<event>
 5   0  0.1830902E-07  0.3096463E+04  0.7818609E-02  0.8216709E-01
        1   -1    0    0  501    0  0.00000000000E+00  0.00000000000E+00  0.22051870306E+04  0.22051870306E+04  0.50400001928E-02 0.  1.
       -1   -1    0    0    0  501  0.00000000000E+00  0.00000000000E+00 -0.10869920238E+04  0.10869920238E+04  0.50400001928E-02 0. -1.
    10030    2    1    2    0    0  0.00000000000E+00  0.00000000000E+00  0.11181950068E+04  0.32921790544E+04  0.30964629584E+04 0.  0.
        3    1    3    3  502    0 -0.21958201892E+03  0.14762681290E+04  0.99674202316E+03  0.17947363379E+04  0.10100000352E+00 0.  1.
       -3    1    3    3    0  502  0.21958201892E+03 -0.14762681290E+04  0.12145298368E+03  0.14974427165E+04  0.10100000352E+00 0. -1.
</event>
<event>
 5   0  0.5376678E-07  0.3099454E+04  0.7818609E-02  0.8215888E-01
       -2   -1    0    0    0  501  0.00000000000E+00  0.00000000000E+00  0.84200325568E+03  0.84200325569E+03  0.25500000920E-02 0.  1.
        2   -1    0    0  501    0  0.00000000000E+00  0.00000000000E+00 -0.28523088889E+04  0.28523088889E+04  0.25500000920E-02 0. -1.
    10030    2    1    2    0    0  0.00000000000E+00  0.00000000000E+00 -0.20103056332E+04  0.36943121446E+04  0.30994537394E+04 0.  0.
        5    1    3    3  502    0 -0.14281362700E+04 -0.53912070054E+03 -0.68664605491E+03  0.16738366796E+04  0.46999998093E+01 0. -1.
       -5    1    3    3    0  502  0.14281362700E+04  0.53912070054E+03 -0.13236595783E+04  0.20204754650E+04  0.46999998093E+01 0.  1.
</event>
<event>
 5   0  0.1814075E-07  0.3103187E+04  0.7818609E-02  0.8214864E-01
        1   -1    0    0  501    0  0.00000000000E+00  0.00000000000E+00  0.13795758357E+04  0.13795758357E+04  0.50400001928E-02 0. -1.
       -1   -1    0    0    0  501  0.00000000000E+00  0.00000000000E+00 -0.17450603098E+04  0.17450603098E+04  0.50400001928E-02 0.  1.
    10030    2    1    2    0    0  0.00000000000E+00  0.00000000000E+00 -0.36548447415E+03  0.31246361455E+04  0.31031874163E+04 0.  0.
        5    1    3    3  502    0  0.11061984637E+04 -0.10480463923E+04 -0.47689953833E+03  0.15967252554E+04  0.46999998093E+01 0. -1.
       -5    1    3    3    0  502 -0.11061984637E+04  0.10480463923E+04  0.11141506418E+03  0.15279108901E+04  0.46999998093E+01 0.  1.
</event>
<event>
 5   0  0.5376678E-07  0.3084237E+04  0.7818609E-02  0.8220077E-01
        2   -1    0    0  501    0  0.00000000000E+00  0.00000000000E+00  0.22986918773E+04  0.22986918773E+04  0.25500000920E-02 0.  1.
       -2   -1    0    0    0  501  0.00000000000E+00  0.00000000000E+00 -0.10345579296E+04  0.10345579296E+04  0.25500000920E-02 0. -1.
    10030    2    1    2    0    0  0.00000000000E+00  0.00000000000E+00  0.12641339477E+04  0.33332498069E+04  0.30842372862E+04 0.  0.
        5    1    3    3  502    0  0.11780643209E+04 -0.10493101913E+03  0.17015391162E+04  0.20722218793E+04  0.46999998093E+01 0.  1.
       -5    1    3    3    0  502 -0.11780643209E+04  0.10493101913E+03 -0.43740516850E+03  0.12610279276E+04  0.46999998093E+01 0. -1.
</event>
<event>
 5   0  0.5055900E-07  0.3096138E+04  0.7818609E-02  0.8216798E-01
       -2   -1    0    0    0  501  0.00000000000E+00  0.00000000000E+00  0.18503488745E+04  0.18503488745E+04  0.25500000920E-02 0. -1.
        2   -1    0    0  501    0  0.00000000000E+00  0.00000000000E+00 -0.12951709900E+04  0.12951709900E+04  0.25500000920E-02 0.  1.
    10030    2    1    2    0    0  0.00000000000E+00  0.00000000000E+00  0.55517788456E+03  0.31455198645E+04  0.30961383584E+04 0.  0.
        2    1    3    3  502    0  0.53002033080E+03  0.66555712768E+03  0.15915184249E+04  0.18046658245E+04  0.25500000920E-02 0. -1.
       -2    1    3    3    0  502 -0.53002033080E+03 -0.66555712768E+03 -0.10363405403E+04  0.13408540401E+04  0.25500000920E-02 0.  1.
</event>
<event>
 5   0  0.1840359E-07  0.3092979E+04  0.7818609E-02  0.8217667E-01
        1   -1    0    0  501    0  0.00000000000E+00  0.00000000000E+00  0.25433987119E+04  0.25433987119E+04  0.50400001928E-02 0. -1.
       -1   -1    0    0    0  501  0.00000000000E+00  0.00000000000E+00 -0.94032846277E+03  0.94032846278E+03  0.50400001928E-02 0.  1.
    10030    2    1    2    0    0  0.00000000000E+00  0.00000000000E+00  0.16030702492E+04  0.34837271747E+04  0.30929792764E+04 0.  0.
        1    1    3    3  502    0  0.58981446969E+03  0.10661515372E+03  0.24072551671E+04  0.24807509627E+04  0.50400001928E-02 0. -1.
       -1    1    3    3    0  502 -0.58981446969E+03 -0.10661515372E+03 -0.80418491789E+03  0.10029762120E+04  0.50400001928E-02 0.  1.
</event>
<event>
 5   0  0.1830902E-07  0.3100980E+04  0.7818609E-02  0.8215469E-01
       -1   -1    0    0    0  501  0.00000000000E+00  0.00000000000E+00  0.12235548125E+04  0.12235548125E+04  0.50400001928E-02 0. -1.
        1   -1    0    0  501    0  0.00000000000E+00  0.00000000000E+00 -0.19647831703E+04  0.19647831703E+04  0.50400001928E-02 0.  1.
    10030    2    1    2    0    0  0.00000000000E+00  0.00000000000E+00 -0.74122835778E+03  0.31883379828E+04  0.31009804279E+04 0.  0.
        3    1    3    3  502    0 -0.54091100021E+03  0.37755992334E+03  0.10720835835E+04  0.12587690122E+04  0.10100000352E+00 0. -1.
       -3    1    3    3    0  502  0.54091100021E+03 -0.37755992334E+03 -0.18133119413E+04  0.19295689706E+04  0.10100000352E+00 0.  1.
</event>
<event>
 5   0  0.5248309E-07  0.3097417E+04  0.7818609E-02  0.8216447E-01
        2   -1    0    0  501    0  0.00000000000E+00  0.00000000000E+00  0.24425041519E+04  0.24425041519E+04  0.25500000920E-02 0.  1.
       -2   -1    0    0    0  501  0.00000000000E+00  0.00000000000E+00 -0.98198305504E+03  0.98198305504E+03  0.25500000920E-02 0. -1.
    10030    2    1    2    0    0  0.00000000000E+00  0.00000000000E+00  0.14605210968E+04  0.34244872069E+04  0.30974167876E+04 0.  0.
        4    1    3    3  502    0 -0.11023397512E+04 -0.10871904249E+04  0.77103479370E+03  0.17296335488E+04  0.12699999809E+01 0. -1.
       -4    1    3    3    0  502  0.11023397512E+04  0.10871904249E+04  0.68948630312E+03  0.16948536581E+04  0.12699999809E+01 0.  1.
</event>
<event>
 5   0  0.5248309E-07  0.3058682E+04  0.7818609E-02  0.8227170E-01
        2   -1    0    0  501    0  0.00000000000E+00  0.00000000000E+00  0.18859631316E+04  0.18859631316E+04  0.25500000920E-02 0.  1.
       -2   -1    0    0    0  501  0.00000000000E+00  0.00000000000E+00 -0.12401535047E+04  0.12401535047E+04  0.25500000920E-02 0. -1.
    10030    2    1    2    0    0  0.00000000000E+00  0.00000000000E+00  0.64580962696E+03  0.31261166363E+04  0.30586819301E+04 0.  0.
        4    1    3    3  502    0 -0.12699476508E+04  0.85204422174E+03  0.31099531525E+03  0.15605979913E+04  0.12699999809E+01 0. -1.
       -4    1    3    3    0  502  0.12699476508E+04 -0.85204422174E+03  0.33481431171E+03  0.15655186450E+04  0.12699999809E+01 0.  1.
</event>
<event>
 5   0  0.5154105E-07  0.3097052E+04  0.7818609E-02  0.8216548E-01
        2   -1    0    0  501    0  0.00000000000E+00  0.00000000000E+00  0.13180516764E+04  0.13180516764E+04  0.25500000920E-02 0. -1.
       -2   -1    0    0    0  501  0.00000000000E+00  0.00000000000E+00 -0.18193005918E+04  0.18193005918E+04  0.25500000920E-02 0.  1.
    10030    2    1    2    0    0  0.00000000000E+00  0.00000000000E+00 -0.50124891539E+03  0.31373522682E+04  0.30970516269E+04 0.  0.
        1    1    3    3  502    0  0.61007603033E+03  0.22409515836E+02 -0.16922510769E+04  0.17990021280E+04  0.50400001928E-02 0.  1.
       -1    1    3    3    0  502 -0.61007603033E+03 -0.22409515836E+02  0.11910021615E+04  0.13383501402E+04  0.50400001928E-02 0. -1.
</event>
<event>
 5   0  0.5376678E-07  0.3103390E+04  0.7818609E-02  0.8214808E-01
        2   -1    0    0  501    0  0.00000000000E+00  0.00000000000E+00  0.16438811726E+04  0.16438811726E+04  0.25500000920E-02 0.  1.
       -2   -1    0    0    0  501  0.00000000000E+00  0.00000000000E+00 -0.14646787070E+04  0.14646787070E+04  0.25500000920E-02 0. -1.
    10030    2    1    2    0    0  0.00000000000E+00  0.00000000000E+00  0.17920246564E+03  0.31085598796E+04  0.31033902431E+04 0.  0.
        5    1    3    3  502    0  0.11841648209E+03  0.19894286346E+03 -0.14472736860E+04  0.14656820728E+04  0.46999998093E+01 0. -1.
       -5    1    3    3    0  502 -0.11841648209E+03 -0.19894286346E+03  0.16264761517E+04  0.16428778068E+04  0.46999998093E+01 0.  1.
</event>
<event>
 5   0  0.1830902E-07  0.3099134E+04  0.7818609E-02  0.8215976E-01
        1   -1    0    0  501    0  0.00000000000E+00  0.00000000000E+00  0.23477990105E+04  0.23477990105E+04  0.50400001928E-02 0.  1.
       -1   -1    0    0    0  501  0.00000000000E+00  0.00000000000E+00 -0.10227274409E+04  0.10227274409E+04  0.50400001928E-02 0. -1.
    10030    2    1    2    0    0  0.00000000000E+00  0.00000000000E+00  0.13250715696E+04  0.33705264514E+04  0.30991343783E+04 0.  0.
        3    1    3    3  502    0 -0.35410064979E+03  0.14131109530E+04  0.12368806398E+04  0.19110582312E+04  0.10100000352E+00 0.  1.
       -3    1    3    3    0  502  0.35410064979E+03 -0.14131109530E+04  0.88190929740E+02  0.14594682202E+04  0.10100000352E+00 0. -1.
</event>
<event>
 5   0  0.1840359E-07  0.3073883E+04  0.7818609E-02  0.8222942E-01
        1   -1    0    0  501    0  0.00000000000E+00  0.00000000000E+00  0.32964254899E+04  0.32964254899E+04  0.50400001928E-02 0. -1.
       -1   -1    0    0    0  501  0.00000000000E+00  0.00000000000E+00 -0.71659132112E+03  0.71659132114E+03  0.50400001928E-02 0.  1.
    10030    2    1    2    0    0  0.00000000000E+00  0.00000000000E+00  0.25798341688E+04  0.40130168110E+04  0.30738834700E+04 0.  0.
        1    1    3    3  502    0 -0.14115080197E+04 -0.27974760911E+03  0.58496487399E+03  0.15533182283E+04  0.50400001928E-02 0.  1.
       -1    1    3    3    0  502  0.14115080197E+04  0.27974760911E+03  0.19948692948E+04  0.24596985827E+04  0.50400001928E-02 0. -1.
</event>
<event>
 5   0  0.5055900E-07  0.3100539E+04  0.7818609E-02  0.8215590E-01
        2   -1    0    0  501    0  0.00000000000E+00  0.00000000000E+00  0.10758280342E+04  0.10758280342E+04  0.25500000920E-02 0. -1.
       -2   -1    0    0    0  501  0.00000000000E+00  0.00000000000E+00 -0.22339396483E+04  0.22339396483E+04  0.25500000920E-02 0.  1.
    10030    2    1    2    0    0  0.00000000000E+00  0.00000000000E+00 -0.11581116140E+04  0.33097676825E+04  0.31005385986E+04 0.  0.
        2    1    3    3  502    0 -0.12786479995E+04 -0.81886324743E+03 -0.91298678366E+03  0.17717287015E+04  0.25500000920E-02 0.  1.
       -2    1    3    3    0  502  0.12786479995E+04  0.81886324743E+03 -0.24512483036E+03  0.15380389810E+04  0.25500000920E-02 0. -1.
</event>
<event>
 5   0  0.1814075E-07  0.3097987E+04  0.7818609E-02  0.8216291E-01
       -1   -1    0    0    0  501  0.00000000000E+00  0.00000000000E+00  0.15220412899E+04  0.15220412899E+04  0.50400001928E-02 0.  1.
        1   -1    0    0  501    0  0.00000000000E+00  0.00000000000E+00 -0.15764227208E+04  0.15764227209E+04  0.50400001928E-02 0. -1.
    10030    2    1    2    0    0  0.00000000000E+00  0.00000000000E+00 -0.54381430924E+02  0.30984640108E+04  0.30979867472E+04 0.  0.
        5    1    3    3  502    0 -0.15505975391E+03 -0.14828370717E+04 -0.44738526776E+03  0.15566068792E+04  0.46999998093E+01 0. -1.
       -5    1    3    3    0  502  0.15505975391E+03  0.14828370717E+04  0.39300383684E+03  0.15418571316E+04  0.46999998093E+01 0.  1.
</event>
<event>
 5   0  0.1830902E-07  0.3100234E+04  0.7818609E-02  0.8215674E-01
       -1   -1    0    0    0  501  0.00000000000E+00  0.00000000000E+00  0.15117707499E+04  0.15117707499E+04  0.50400001928E-02 0. -1.
        1   -1    0    0  501    0  0.00000000000E+00  0.00000000000E+00 -0.15894363840E+04  0.15894363840E+04  0.50400001928E-02 0.  1.
    10030    2    1    2    0    0  0.00000000000E+00  0.00000000000E+00 -0.77665634076E+02  0.31012071340E+04  0.31002344648E+04 0.  0.
        3    1    3    3  502    0 -0.50074909022E+02 -0.81059398442E+03  0.12819197620E+04  0.15175270642E+04  0.10100000352E+00 0. -1.
       -3    1    3    3    0  502  0.50074909022E+02  0.81059398442E+03 -0.13595853961E+04  0.15836800698E+04  0.10100000352E+00 0.  1.
</event>
<event>
 5   0  0.1845123E-07  0.3096256E+04  0.7818609E-02  0.8216766E-01
       -1   -1    0    0    0  501  0.00000000000E+00  0.00000000000E+00  0.18672656402E+04  0.18672656402E+04  0.50400001928E-02 0.  1.
        1   -1    0    0  501    0  0.00000000000E+00  0.00000000000E+00 -0.12835346706E+04  0.12835346706E+04  0.50400001928E-02 0. -1.
    10030    2    1    2    0    0  0.00000000000E+00  0.00000000000E+00  0.58373096959E+03  0.31508003108E+04  0.30962559251E+04 0.  0.
        2    1    3    3  502    0  0.69586549347E+03 -0.85311594262E+03 -0.81573141897E+03  0.13702019356E+04  0.25500000920E-02 0. -1.
       -2    1    3    3    0  502 -0.69586549347E+03  0.85311594262E+03  0.13994623886E+04  0.17805983751E+04  0.25500000920E-02 0.  1.
</event>
<event>
 5   0  0.5055900E-07  0.3099619E+04  0.7818609E-02  0.8215843E-01
       -2   -1    0    0    0  501  0.00000000000E+00  0.00000000000E+00  0.15619028463E+04  0.15619028463E+04  0.25500000920E-02 0. -1.
        2   -1    0    0  501    0  0.00000000000E+00  0.00000000000E+00 -0.15378092965E+04  0.15378092965E+04  0.25500000920E-02 0.  1.
    10030    2    1    2    0    0  0.00000000000E+00  0.00000000000E+00  0.24093549752E+02  0.30997121428E+04  0.30996185037E+04 0.  0.
        2    1    3    3  502    0  0.78864123340E+03  0.10754704703E+03  0.13418942104E+04  0.15601927555E+04  0.25500000920E-02 0. -1.
       -2    1    3    3    0  502 -0.78864123340E+03 -0.10754704703E+03 -0.13178006607E+04  0.15395193872E+04  0.25500000920E-02 0.  1.
</event>
<event>
 5   0  0.5342534E-07  0.3101604E+04  0.7818609E-02  0.8215298E-01
       -2   -1    0    0    0  501  0.00000000000E+00  0.00000000000E+00  0.28473669268E+04  0.28473669268E+04  0.25500000920E-02 0. -1.
        2   -1    0    0  501    0  0.00000000000E+00  0.00000000000E+00 -0.84463513657E+03  0.84463513658E+03  0.25500000920E-02 0.  1.
    10030    2    1    2    0    0  0.00000000000E+00  0.00000000000E+00  0.20027317902E+04  0.36920020633E+04  0.31016035550E+04 0.  0.
        3    1    3    3  502    0 -0.31541154510E+03  0.36933608678E+02  0.28082481618E+04  0.28261468969E+04  0.10100000352E+00 0. -1.
       -3    1    3    3    0  502  0.31541154510E+03 -0.36933608678E+02 -0.80551637159E+03  0.86585516649E+03  0.10100000352E+00 0.  1.
</event>
<event>
 5   0  0.1814075E-07  0.3089017E+04  0.7818609E-02  0.8218759E-01
       -1   -1    0    0    0  501  0.00000000000E+00  0.00000000000E+00  0.16106746098E+04  0.16106746099E+04  0.50400001928E-02 0. -1.
        1   -1    0    0  501    0  0.00000000000E+00  0.00000000000E+00 -0.14810602709E+04  0.14810602709E+04  0.50400001928E-02 0.  1.
    10030    2    1    2    0    0  0.00000000000E+00  0.00000000000E+00  0.12961433892E+03  0.30917348808E+04  0.30890167847E+04 0.  0.
        5    1    3    3  502    0 -0.88379808103E+02 -0.14387000219E+04 -0.49049210681E+03  0.15225877119E+04  0.46999998093E+01 0.  1.
       -5    1    3    3    0  502  0.88379808103E+02  0.14387000219E+04  0.62010644573E+03  0.15691471689E+04  0.46999998093E+01 0. -1.
</event>
<event>
 5   0  0.1840359E-07  0.3097772E+04  0.7818609E-02  0.8216350E-01
        1   -1    0    0  501    0  0.00000000000E+00  0.00000000000E+00  0.87249075436E+03  0.87249075437E+03  0.50400001928E-02 0. -1.
       -1   -1    0    0    0  501  0.00000000000E+00  0.00000000000E+00 -0.27496542541E+04  0.27496542541E+04  0.50400001928E-02 0.  1.
    10030    2    1    2    0    0  0.00000000000E+00  0.00000000000E+00 -0.18771634997E+04  0.36221450085E+04  0.30977720474E+04 0.  0.
        1    1    3    3  502    0 -0.66857266667E+03 -0.11148866178E+03  0.68987296597E+03  0.96713176017E+03  0.50400001928E-02 0. -1.
       -1    1    3    3    0  502  0.66857266667E+03  0.11148866178E+03 -0.25670364657E+04  0.26550132483E+04  0.50400001928E-02 0.  1.
</event>
<event>
 5   0  0.1830902E-07  0.3122421E+04  0.7818609E-02  0.8209611E-01
       -1   -1    0    0    0  501  0.00000000000E+00  0.00000000000E+00  0.13814054227E+04  0.13814054227E+04  0.50400001928E-02 0. -1.
        1   -1    0    0  501    0  0.00000000000E+00  0.00000000000E+00 -0.17644192308E+04  0.17644192308E+04  0.50400001928E-02 0.  1.
    10030    2    1    2    0    0  0.00000000000E+00  0.00000000000E+00 -0.38301380806E+03  0.31458246535E+04  0.31224210436E+04 0.  0.
        3    1    3    3  502    0 -0.69882930687E+03  0.13885186563E+04 -0.33761743436E+03  0.15907017323E+04  0.10100000352E+00 0. -1.
       -3    1    3    3    0  502  0.69882930687E+03 -0.13885186563E+04 -0.45396373702E+02  0.15551229212E+04  0.10100000352E+00 0.  1.
</event>
<event>
 5   0  0.5376678E-07  0.3088778E+04  0.7818609E-02  0.8218825E-01
        2   -1    0    0  501    0  0.00000000000E+00  0.00000000000E+00  0.70322873471E+03  0.70322873472E+03  0.25500000920E-02 0.  1.
       -2   -1    0    0    0  501  0.00000000000E+00  0.00000000000E+00 -0.33916944208E+04  0.33916944208E+04  0.25500000920E-02 0. -1.
    10030    2    1    2    0    0  0.00000000000E+00  0.00000000000E+00 -0.26884656861E+04  0.40949231555E+04  0.30887777363E+04 0.  0.
        5    1    3    3  502    0  0.13844470617E+04 -0.67984343500E+03 -0.12395569217E+04  0.19787380360E+04  0.46999998093E+01 0.  1.
       -5    1    3    3    0  502 -0.13844470617E+04  0.67984343500E+03 -0.14489087644E+04  0.21161851196E+04  0.46999998093E+01 0. -1.
</event>
<event>
 5   0  0.1727000E-07  0.3100038E+04  0.7818609E-02  0.8215727E-01
       -3   -1    0    0    0  501  0.00000000000E+00  0.00000000000E+00  0.11913495818E+04  0.11913495861E+04  0.10100000352E+00 0. -1.
        3   -1    0    0  501    0  0.00000000000E+00  0.00000000000E+00 -0.20166699170E+04  0.20166699195E+04  0.10100000352E+00 0.  1.
    10030    2    1    2    0    0  0.00000000000E+00  0.00000000000E+00 -0.82532033519E+03  0.32080195056E+04  0.31000379825E+04 0.  0.
        4    1    3    3  502    0 -0.41834516012E+03 -0.17406964082E+03 -0.19466029604E+04  0.19986439431E+04  0.12699999809E+01 0.  1.
       -4    1    3    3    0  502  0.41834516012E+03  0.17406964082E+03  0.11212826252E+04  0.12093755626E+04  0.12699999809E+01 0. -1.
</event>
<event>
 5   0  0.5055900E-07  0.3119093E+04  0.7818609E-02  0.8210517E-01
       -2   -1    0    0    0  501  0.00000000000E+00  0.00000000000E+00  0.11446745440E+04  0.11446745440E+04  0.25500000920E-02 0. -1.
        2   -1    0    0  501    0  0.00000000000E+00  0.00000000000E+00 -0.21247835329E+04  0.21247835329E+04  0.25500000920E-02 0.  1.
    10030    2    1    2    0    0  0.00000000000E+00  0.00000000000E+00 -0.98010898888E+03  0.32694580768E+04  0.31190932154E+04 0.  0.
        2    1    3    3  502    0  0.12989001999E+03  0.98494262324E+02  0.11357200060E+04  0.11473589103E+04  0.25500000920E-02 0. -1.
       -2    1    3    3    0  502 -0.12989001999E+03 -0.98494262324E+02 -0.21158289949E+04  0.21220991665E+04  0.25500000920E-02 0.  1.
</event>
<event>
 5   0  0.5055900E-07  0.3101723E+04  0.7818609E-02  0.8215265E-01
       -2   -1    0    0    0  501  0.00000000000E+00  0.00000000000E+00  0.12457387736E+04  0.12457387736E+04  0.25500000920E-02 0. -1.
        2   -1    0    0  501    0  0.00000000000E+00  0.00000000000E+00 -0.19307193984E+04  0.19307193984E+04  0.25500000920E-02 0.  1.
    10030    2    1    2    0    0  0.00000000000E+00  0.00000000000E+00 -0.68498062483E+03  0.31764581720E+04  0.31017234020E+04 0.  0.
        2    1    3    3  502    0 -0.78508407154E+03 -0.14491403078E+03 -0.17041183141E+04  0.18818544854E+04  0.25500000920E-02 0.  1.
       -2    1    3    3    0  502  0.78508407154E+03  0.14491403078E+03  0.10191376893E+04  0.12946036866E+04  0.25500000920E-02 0. -1.
</event>
<event>
 5   0  0.5376678E-07  0.3092331E+04  0.7818609E-02  0.8217846E-01
       -2   -1    0    0    0  501  0.00000000000E+00  0.00000000000E+00  0.10327441260E+04  0.10327441260E+04  0.25500000920E-02 0.  1.
        2   -1    0    0  501    0  0.00000000000E+00  0.00000000000E+00 -0.23148307686E+04  0.23148307686E+04  0.25500000920E-02 0. -1.
    10030    2    1    2    0    0  0.00000000000E+00  0.00000000000E+00 -0.12820866427E+04  0.33475748946E+04  0.30923310812E+04 0.  0.
        5    1    3    3  502    0  0.82732842497E+03 -0.41547136574E+03  0.69952395974E+03  0.11603640113E+04  0.46999998093E+01 0.  1.
       -5    1    3    3    0  502 -0.82732842497E+03  0.41547136574E+03 -0.19816106024E+04  0.21872108833E+04  0.46999998093E+01 0. -1.
</event>
<event>
 5   0  0.5154105E-07  0.3100032E+04  0.7818609E-02  0.8215729E-01
       -2   -1    0    0    0  501  0.00000000000E+00  0.00000000000E+00  0.12985995792E+04  0.12985995792E+04  0.25500000920E-02 0. -1.
        2   -1    0    0  501    0  0.00000000000E+00  0.00000000000E+00 -0.18501079386E+04  0.18501079386E+04  0.25500000920E-02 0.  1.
    10030    2    1    2    0    0  0.00000000000E+00  0.00000000000E+00 -0.55150835943E+03  0.31487075178E+04  0.31000318647E+04 0.  0.
        1    1    3    3  502    0  0.85607390170E+02 -0.83341518908E+03  0.10488079794E+04  0.13423515487E+04  0.50400001928E-02 0. -1.
       -1    1    3    3    0  502 -0.85607390170E+02  0.83341518908E+03 -0.16003163389E+04  0.18063559691E+04  0.50400001928E-02 0.  1.
</event>
<event>
 5   0  0.5055900E-07  0.3086081E+04  0.7818609E-02  0.8219568E-01
       -2   -1    0    0    0  501  0.00000000000E+00  0.00000000000E+00  0.15287697816E+04  0.15287697816E+04  0.25500000920E-02 0.  1.
        2   -1    0    0  501    0  0.00000000000E+00  0.00000000000E+00 -0.15574448382E+04  0.15574448382E+04  0.25500000920E-02 0. -1.
    10030    2    1    2    0    0  0.00000000000E+00  0.00000000000E+00 -0.28675056595E+02  0.30862146198E+04  0.30860814021E+04 0.  0.
        2    1    3    3  502    0 -0.66161890196E+03 -0.12655658413E+04 -0.59880961970E+03  0.15485378364E+04  0.25500000920E-02 0. -1.
       -2    1    3    3    0  502  0.66161890196E+03  0.12655658413E+04  0.57013456311E+03  0.15376767834E+04  0.25500000920E-02 0.  1.
</event>
<event>
 5   0  0.5154105E-07  0.3121623E+04  0.7818609E-02  0.8209829E-01
        2   -1    0    0  501    0  0.00000000000E+00  0.00000000000E+00  0.26534474924E+04  0.26534474924E+04  0.25500000920E-02 0.  1.
       -2   -1    0    0    0  501  0.00000000000E+00  0.00000000000E+00 -0.91810098729E+03  0.91810098729E+03  0.25500000920E-02 0. -1.
    10030    2    1    2    0    0  0.00000000000E+00  0.00000000000E+00  0.17353465051E+04  0.35715484797E+04  0.31216231435E+04 0.  0.
        1    1    3    3  502    0  0.66514050093E+03  0.12308472481E+04  0.16593066146E+04  0.21704136186E+04  0.50400001928E-02 0. -1.
       -1    1    3    3    0  502 -0.66514050093E+03 -0.12308472481E+04  0.76039890494E+02  0.14011348612E+04  0.50400001928E-02 0.  1.
</event>
<event>
 5   0  0.1875284E-07  0.3097929E+04  0.7818609E-02  0.8216306E-01
        1   -1    0    0  501    0  0.00000000000E+00  0.00000000000E+00  0.14487455515E+04  0.14487455515E+04  0.50400001928E-02 0. -1.
       -1   -1    0    0    0  501  0.00000000000E+00  0.00000000000E+00 -0.16561163186E+04  0.16561163186E+04  0.50400001928E-02 0.  1.
    10030    2    1    2    0    0  0.00000000000E+00  0.00000000000E+00 -0.20737076717E+03  0.31048618701E+04  0.30979290820E+04 0.  0.
        4    1    3    3  502    0  0.87534557879E+03  0.12313801340E+03  0.11711267978E+04  0.14672874436E+04  0.12699999809E+01 0. -1.
       -4    1    3    3    0  502 -0.87534557879E+03 -0.12313801340E+03 -0.13784975650E+04  0.16375744265E+04  0.12699999809E+01 0.  1.
</event>
<event>
 5   0  0.1875284E-07  0.3109995E+04  0.7818609E-02  0.8213000E-01
       -1   -1    0    0    0  501  0.00000000000E+00  0.00000000000E+00  0.30245676717E+04  0.30245676717E+04  0.50400001928E-02 0.  1.
        1   -1    0    0  501    0  0.00000000000E+00  0.00000000000E+00 -0.79945883482E+03  0.79945883483E+03  0.50400001928E-02 0. -1.
    10030    2    1    2    0    0  0.00000000000E+00  0.00000000000E+00  0.22251088369E+04  0.38240265066E+04  0.31099950783E+04 0.  0.
        4    1    3    3  502    0 -0.56290293077E+03  0.14060396314E+04  0.15459026109E+04  0.21641681196E+04  0.12699999809E+01 0.  1.
       -4    1    3    3    0  502  0.56290293077E+03 -0.14060396314E+04  0.67920622598E+03  0.16598583870E+04  0.12699999809E+01 0. -1.
</event>
<event>
 5   0  0.1875284E-07  0.3095792E+04  0.7818609E-02  0.8216894E-01
        1   -1    0    0  501    0  0.00000000000E+00  0.00000000000E+00  0.20503798794E+04  0.20503798794E+04  0.50400001928E-02 0.  1.
       -1   -1    0    0    0  501  0.00000000000E+00  0.00000000000E+00 -0.11685552169E+04  0.11685552169E+04  0.50400001928E-02 0. -1.
    10030    2    1    2    0    0  0.00000000000E+00  0.00000000000E+00  0.88182466244E+03  0.32189350963E+04  0.30957920503E+04 0.  0.
        4    1    3    3  502    0 -0.29189959196E+03  0.36152473252E+03  0.19761519009E+04  0.20300451848E+04  0.12699999809E+01 0.  1.
       -4    1    3    3    0  502  0.29189959196E+03 -0.36152473252E+03 -0.10943272384E+04  0.11888899115E+04  0.12699999809E+01 0. -1.
</event>
<event>
 5   0  0.5248309E-07  0.3100389E+04  0.7818609E-02  0.8215631E-01
       -2   -1    0    0    0  501  0.00000000000E+00  0.00000000000E+00  0.13109597918E+04  0.13109597918E+04  0.25500000920E-02 0. -1.
        2   -1    0    0  501    0  0.00000000000E+00  0.00000000000E+00 -0.18330863644E+04  0.18330863644E+04  0.25500000920E-02 0.  1.
    10030    2    1    2    0    0  0.00000000000E+00  0.00000000000E+00 -0.52212657263E+03  0.31440461562E+04  0.31003886973E+04 0.  0.
        4    1    3    3  502    0 -0.49131944429E+02 -0.15226235807E+04  0.29863873209E+02  0.15237092834E+04  0.12699999809E+01 0. -1.
       -4    1    3    3    0  502  0.49131944429E+02  0.15226235807E+04 -0.55199044584E+03  0.16203368729E+04  0.12699999809E+01 0.  1.
</event>
<event>
 5   0  0.1814075E-07  0.3124918E+04  0.7818609E-02  0.8208933E-01
       -1   -1    0    0    0  501  0.00000000000E+00  0.00000000000E+00  0.10307576623E+04  0.10307576623E+04  0.50400001928E-02 0.  1.
        1   -1    0    0  501    0  0.00000000000E+00  0.00000000000E+00 -0.23684300133E+04  0.23684300133E+04  0.50400001928E-02 0. -1.
    10030    2    1    2    0    0  0.00000000000E+00  0.00000000000E+00 -0.13376723510E+04  0.33991876756E+04  0.31249175246E+04 0.  0.
        5    1    3    3  502    0  0.84760133880E+03 -0.13081614522E+04 -0.78569352545E+03  0.17455803678E+04  0.46999998093E+01 0.  1.
       -5    1    3    3    0  502 -0.84760133880E+03  0.13081614522E+04 -0.55197882551E+03  0.16536073078E+04  0.46999998093E+01 0. -1.
</event>
<event>
 5   0  0.1845123E-07  0.3097431E+04  0.7818609E-02  0.8216443E-01
        1   -1    0    0  501    0  0.00000000000E+00  0.00000000000E+00  0.21031292000E+04  0.21031292000E+04  0.50400001928E-02 0. -1.
       -1   -1    0    0    0  501  0.00000000000E+00  0.00000000000E+00 -0.11404525506E+04  0.11404525506E+04  0.50400001928E-02 0.  1.
    10030    2    1    2    0    0  0.00000000000E+00  0.00000000000E+00  0.96267664932E+03  0.32435817506E+04  0.30974305871E+04 0.  0.
        2    1    3    3  502    0 -0.10340341433E+04 -0.11455014717E+04  0.34432579187E+03  0.15811263334E+04  0.25500000920E-02 0. -1.
       -2    1    3    3    0  502  0.10340341433E+04  0.11455014717E+04  0.61835085745E+03  0.16624554172E+04  0.25500000920E-02 0.  1.
</event>
<event>
 5   0  0.1875284E-07  0.3102963E+04  0.7818609E-02  0.8214925E-01
       -1   -1    0    0    0  501  0.00000000000E+00  0.00000000000E+00  0.13904983150E+04  0.13904983150E+04  0.50400001928E-02 0. -1.
        1   -1    0    0  501    0  0.00000000000E+00  0.00000000000E+00 -0.17311020692E+04  0.17311020693E+04  0.50400001928E-02 0.  1.
    10030    2    1    2    0    0  0.00000000000E+00  0.00000000000E+00 -0.34060375427E+03  0.31216003842E+04  0.31029627844E+04 0.  0.
        4    1    3    3  502    0  0.13968489395E+04  0.38125642177E+03  0.39031496515E+03  0.14996302223E+04  0.12699999809E+01 0. -1.
       -4    1    3    3    0  502 -0.13968489395E+04 -0.38125642177E+03 -0.73091871942E+03  0.16219701619E+04  0.12699999809E+01 0.  1.
</event>
<event>
 5   0  0.1875284E-07  0.3105295E+04  0.7818609E-02  0.8214286E-01
       -1   -1    0    0    0  501  0.00000000000E+00  0.00000000000E+00  0.14572736559E+04  0.14572736559E+04  0.50400001928E-02 0.  1.
        1   -1    0    0  501    0  0.00000000000E+00  0.00000000000E+00 -0.16542629494E+04  0.16542629494E+04  0.50400001928E-02 0. -1.
    10030    2    1    2    0    0  0.00000000000E+00  0.00000000000E+00 -0.19698929352E+03  0.31115366053E+04  0.31052947146E+04 0.  0.
        4    1    3    3  502    0 -0.98567591810E+03  0.10040726641E+04 -0.75631504491E+03  0.15974144704E+04  0.12699999809E+01 0. -1.
       -4    1    3    3    0  502  0.98567591810E+03 -0.10040726641E+04  0.55932575139E+03  0.15141221349E+04  0.12699999809E+01 0.  1.
</event>
<event>
 5   0  0.5342534E-07  0.3108340E+04  0.7818609E-02  0.8213453E-01
       -2   -1    0    0    0  501  0.00000000000E+00  0.00000000000E+00  0.11568749933E+04  0.11568749933E+04  0.25500000920E-02 0. -1.
        2   -1    0    0  501    0  0.00000000000E+00  0.00000000000E+00 -0.20879048914E+04  0.20879048914E+04  0.25500000920E-02 0.  1.
    10030    2    1    2    0    0  0.00000000000E+00  0.00000000000E+00 -0.93102989809E+03  0.32447798846E+04  0.31083403656E+04 0.  0.
        3    1    3    3  502    0  0.96500939318E+03  0.12178103406E+04 -0.50075768074E+03  0.16325021959E+04  0.10100000352E+00 0. -1.
       -3    1    3    3    0  502 -0.96500939318E+03 -0.12178103406E+04 -0.43027221735E+03  0.16122776888E+04  0.10100000352E+00 0.  1.
</event>
<event>
 5   0  0.1845123E-07  0.3148028E+04  0.7818609E-02  0.8202679E-01
        1   -1    0    0  501    0  0.00000000000E+00  0.00000000000E+00  0.16150388346E+04  0.16150388346E+04  0.50400001928E-02 0.  1.
       -1   -1    0    0    0  501  0.00000000000E+00  0.00000000000E+00 -0.15340314739E+04  0.15340314739E+04  0.50400001928E-02 0. -1.
    10030    2    1    2    0    0  0.00000000000E+00  0.00000000000E+00  0.81007360712E+02  0.31490703086E+04  0.31480282108E+04 0.  0.
        2    1    3    3  502    0 -0.70784995333E+03  0.10986761200E+04 -0.83692956127E+03  0.15519638732E+04  0.25500000920E-02 0. -1.
       -2    1    3    3    0  502  0.70784995333E+03 -0.10986761200E+04  0.91793692198E+03  0.15971064354E+04  0.25500000920E-02 0.  1.
</event>
<event>
 5   0  0.5342534E-07  0.3102282E+04  0.7818609E-02  0.8215112E-01
       -2   -1    0    0    0  501  0.00000000000E+00  0.00000000000E+00  0.87193697118E+03  0.87193697118E+03  0.25500000920E-02 0. -1.
        2   -1    0    0  501    0  0.00000000000E+00  0.00000000000E+00 -0.27594184357E+04  0.27594184357E+04  0.25500000920E-02 0.  1.
    10030    2    1    2    0    0  0.00000000000E+00  0.00000000000E+00 -0.18874814646E+04  0.36313554069E+04  0.31022823554E+04 0.  0.
        3    1    3    3  502    0 -0.10880819782E+03 -0.14869345988E+04 -0.14447895673E+04  0.20761094935E+04  0.10100000352E+00 0.  1.
       -3    1    3    3    0  502  0.10880819782E+03  0.14869345988E+04 -0.44269189729E+03  0.15552459134E+04  0.10100000352E+00 0. -1.
</event>
<event>
 5   0  0.1814075E-07  0.3104545E+04  0.7818609E-02  0.8214492E-01
        1   -1    0    0  501    0  0.00000000000E+00  0.00000000000E+00  0.94270125465E+03  0.94270125467E+03  0.50400001928E-02 0.  1.
       -1   -1    0    0    0  501  0.00000000000E+00  0.00000000000E+00 -0.25560050721E+04  0.25560050721E+04  0.50400001928E-02 0. -1.
    10030    2    1    2    0    0  0.00000000000E+00  0.00000000000E+00 -0.16133038175E+04  0.34987063268E+04  0.31045445324E+04 0.  0.
        5    1    3    3  502    0  0.28358873487E+03  0.68671739047E+03  0.72929705244E+03  0.10411050022E+04  0.46999998093E+01 0.  1.
       -5    1    3    3    0  502 -0.28358873487E+03 -0.68671739047E+03 -0.23426008699E+04  0.24576013246E+04  0.46999998093E+01 0. -1.
</event>
<event>
 5   0  0.5342534E-07  0.3101496E+04  0.7818609E-02  0.8215327E-01
       -2   -1    0    0    0  501  0.00000000000E+00  0.00000000000E+00  0.25532567513E+04  0.25532567513E+04  0.25500000920E-02 0.  1.
        2   -1    0    0  501    0  0.00000000000E+00  0.00000000000E+00 -0.94186365797E+03  0.94186365797E+03  0.25500000920E-02 0. -1.
    10030    2    1    2    0    0  0.00000000000E+00  0.00000000000E+00  0.16113930933E+04  0.34951204093E+04  0.31014962476E+04 0.  0.
        3    1    3    3  502    0  0.64549755328E+03  0.56242179912E+03 -0.65139723780E+03  0.10757805274E+04  0.10100000352E+00 0. -1.
       -3    1    3    3    0  502 -0.64549755328E+03 -0.56242179912E+03  0.22627903311E+04  0.24193398819E+04  0.10100000352E+00 0.  1.
</event>
<event>
 5   0  0.1830902E-07  0.3099927E+04  0.7818609E-02  0.8215758E-01
       -1   -1    0    0    0  501  0.00000000000E+00  0.00000000000E+00  0.13957452811E+04  0.13957452812E+04  0.50400001928E-02 0. -1.
        1   -1    0    0  501    0  0.00000000000E+00  0.00000000000E+00 -0.17212213762E+04  0.17212213762E+04  0.50400001928E-02 0.  1.
    10030    2    1    2    0    0  0.00000000000E+00  0.00000000000E+00 -0.32547609506E+03  0.31169666574E+04  0.30999268467E+04 0.  0.
        3    1    3    3  502    0  0.46604646387E+03 -0.12341680502E+04 -0.98085449736E+03  0.16439116879E+04  0.10100000352E+00 0.  1.
       -3    1    3    3    0  502 -0.46604646387E+03  0.12341680502E+04  0.65537840230E+03  0.14730549694E+04  0.10100000352E+00 0. -1.
</event>
<event>
 5   0  0.1814075E-07  0.3099627E+04  0.7818609E-02  0.8215840E-01
       -1   -1    0    0    0  501  0.00000000000E+00  0.00000000000E+00  0.91902659934E+03  0.91902659936E+03  0.50400001928E-02 0. -1.
        1   -1    0    0  501    0  0.00000000000E+00  0.00000000000E+00 -0.26135504918E+04  0.26135504918E+04  0.50400001928E-02 0.  1.
    10030    2    1    2    0    0  0.00000000000E+00  0.00000000000E+00 -0.16945238925E+04  0.35325770912E+04  0.30996273458E+04 0.  0.
        5    1    3    3  502    0  0.46416232293E+03 -0.44063121236E+03 -0.24559035353E+04  0.25379296271E+04  0.46999998093E+01 0.  1.
       -5    1    3    3    0  502 -0.46416232293E+03  0.44063121236E+03  0.76137964282E+03  0.99464746410E+03  0.46999998093E+01 0. -1.
</event>
<event>
 5   0  0.5342534E-07  0.3084230E+04  0.7818609E-02  0.8220079E-01
       -2   -1    0    0    0  501  0.00000000000E+00  0.00000000000E+00  0.13064110881E+04  0.13064110881E+04  0.25500000920E-02 0. -1.
        2   -1    0    0  501    0  0.00000000000E+00  0.00000000000E+00 -0.18203450711E+04  0.18203450711E+04  0.25500000920E-02 0.  1.
    10030    2    1    2    0    0  0.00000000000E+00  0.00000000000E+00 -0.51393398299E+03  0.31267561591E+04  0.30842302021E+04 0.  0.
        3    1    3    3  502    0 -0.15984891909E+02  0.12823279593E+04 -0.11252210706E+04  0.17060899683E+04  0.10100000352E+00 0.  1.
       -3    1    3    3    0  502  0.15984891909E+02 -0.12823279593E+04  0.61128708761E+03  0.14206661908E+04  0.10100000352E+00 0. -1.
</event>
<event>
 5   0  0.1830902E-07  0.3108758E+04  0.7818609E-02  0.8213339E-01
       -1   -1    0    0    0  501  0.00000000000E+00  0.00000000000E+00  0.10600849817E+04  0.10600849817E+04  0.50400001928E-02 0.  1.
        1   -1    0    0  501    0  0.00000000000E+00  0.00000000000E+00 -0.22791507730E+04  0.22791507730E+04  0.50400001928E-02 0. -1.
    10030    2    1    2    0    0  0.00000000000E+00  0.00000000000E+00 -0.12190657913E+04  0.33392357547E+04  0.31087576331E+04 0.  0.
        3    1    3    3  502    0 -0.51598230887E+03 -0.87448459635E+03 -0.18737040256E+04  0.21311329940E+04  0.10100000352E+00 0. -1.
       -3    1    3    3    0  502  0.51598230887E+03  0.87448459635E+03  0.65463823428E+03  0.12081027607E+04  0.10100000352E+00 0.  1.
</event>
<event>
 5   0  0.1845123E-07  0.3102495E+04  0.7818609E-02  0.8215053E-01
        1   -1    0    0  501    0  0.00000000000E+00  0.00000000000E+00  0.12875880044E+04  0.12875880044E+04  0.50400001928E-02 0. -1.
       -1   -1    0    0    0  501  0.00000000000E+00  0.00000000000E+00 -0.18688971160E+04  0.18688971160E+04  0.50400001928E-02 0.  1.
    10030    2    1    2    0    0  0.00000000000E+00  0.00000000000E+00 -0.58130911165E+03  0.31564851204E+04  0.31024954524E+04 0.  0.
        2    1    3    3  502    0 -0.10137724309E+04 -0.99103030254E+03 -0.93128983496E+03  0.16962241476E+04  0.25500000920E-02 0.  1.
       -2    1    3    3    0  502  0.10137724309E+04  0.99103030254E+03  0.34998072331E+03  0.14602609729E+04  0.25500000920E-02 0. -1.
</event>
<event>
 5   0  0.5055900E-07  0.3090741E+04  0.7818609E-02  0.8218283E-01
       -2   -1    0    0    0  501  0.00000000000E+00  0.00000000000E+00  0.15131915818E+04  0.15131915818E+04  0.25500000920E-02 0. -1.
        2   -1    0    0  501    0  0.00000000000E+00  0.00000000000E+00 -0.15782341471E+04  0.15782341471E+04  0.25500000920E-02 0.  1.
    10030    2    1    2    0    0  0.00000000000E+00  0.00000000000E+00 -0.65042565259E+02  0.30914257289E+04  0.30907414163E+04 0.  0.
        2    1    3    3  502    0  0.30180306656E+03  0.92674234487E+02 -0.15456341379E+04  0.15775482538E+04  0.25500000920E-02 0.  1.
       -2    1    3    3    0  502 -0.30180306656E+03 -0.92674234487E+02  0.14805915727E+04  0.15138774752E+04  0.25500000920E-02 0. -1.
</event>
<event>
 5   0  0.5055900E-07  0.3101138E+04  0.7818609E-02  0.8215426E-01
        2   -1    0    0  501    0  0.00000000000E+00  0.00000000000E+00  0.14016326076E+04  0.14016326076E+04  0.25500000920E-02 0.  1.
       -2   -1    0    0    0  501  0.00000000000E+00  0.00000000000E+00 -0.17153310900E+04  0.17153310900E+04  0.25500000920E-02 0. -1.
    10030    2    1    2    0    0  0.00000000000E+00  0.00000000000E+00 -0.31369848238E+03  0.31169636976E+04  0.31011378483E+04 0.  0.
        2    1    3    3  502    0 -0.29807640591E+03 -0.99812945905E+03  0.99755548858E+03  0.14422998695E+04  0.25500000920E-02 0.  1.
       -2    1    3    3    0  502  0.29807640591E+03  0.99812945905E+03 -0.13112539710E+04  0.16746638281E+04  0.25500000920E-02 0. -1.
</event>
<event>
 5   0  0.5248309E-07  0.3101443E+04  0.7818609E-02  0.8215342E-01
        2   -1    0    0  501    0  0.00000000000E+00  0.00000000000E+00  0.21754584502E+04  0.21754584502E+04  0.25500000920E-02 0. -1.
       -2   -1    0    0    0  501  0.00000000000E+00  0.00000000000E+00 -0.11053930957E+04  0.11053930957E+04  0.25500000920E-02 0.  1.
    10030    2    1    2    0    0  0.00000000000E+00  0.00000000000E+00  0.10700653545E+04  0.32808515459E+04  0.31014427293E+04 0.  0.
        4    1    3    3  502    0  0.13760946717E+04 -0.40726583095E+03  0.11565869408E+04  0.18431486557E+04  0.12699999809E+01 0. -1.
       -4    1    3    3    0  502 -0.13760946717E+04  0.40726583095E+03 -0.86521586312E+02  0.14377028902E+04  0.12699999809E+01 0.  1.
</event>
<event>
 5   0  0.5154105E-07  0.3077446E+04  0.7818609E-02  0.8221955E-01
       -2   -1    0    0    0  501  0.00000000000E+00  0.00000000000E+00  0.91532915539E+03  0.91532915539E+03  0.25500000920E-02 0. -1.
        2   -1    0    0  501    0  0.00000000000E+00  0.00000000000E+00 -0.25866860782E+04  0.25866860782E+04  0.25500000920E-02 0.  1.
    10030    2    1    2    0    0  0.00000000000E+00  0.00000000000E+00 -0.16713569228E+04  0.35020152336E+04  0.30774464630E+04 0.  0.
        1    1    3    3  502    0  0.10547896089E+04  0.94902645056E+03 -0.15819770335E+03  0.14276760264E+04  0.50400001928E-02 0. -1.
       -1    1    3    3    0  502 -0.10547896089E+04 -0.94902645056E+03 -0.15131592195E+04  0.20743392072E+04  0.50400001928E-02 0.  1.
</event>
<event>
 5   0  0.5376678E-07  0.3099234E+04  0.7818609E-02  0.8215948E-01
        2   -1    0    0  501    0  0.00000000000E+00  0.00000000000E+00  0.15474033095E+04  0.15474033095E+04  0.25500000920E-02 0.  1.
       -2   -1    0    0    0  501  0.00000000000E+00  0.00000000000E+00 -0.15518340929E+04  0.15518340929E+04  0.25500000920E-02 0. -1.
    10030    2    1    2    0    0  0.00000000000E+00  0.00000000000E+00 -0.44307834085E+01  0.30992374024E+04  0.30992342352E+04 0.  0.
        5    1    3    3  502    0 -0.97737095375E+03  0.11872566143E+04  0.18872686713E+03  0.15493457231E+04  0.46999998093E+01 0.  1.
       -5    1    3    3    0  502  0.97737095375E+03 -0.11872566143E+04 -0.19315765054E+03  0.15498916793E+04  0.46999998093E+01 0. -1.
</event>
<event>
 5   0  0.5055900E-07  0.3167058E+04  0.7818609E-02  0.8197572E-01
       -2   -1    0    0    0  501  0.00000000000E+00  0.00000000000E+00  0.21749925680E+04  0.21749925680E+04  0.25500000920E-02 0. -1.
        2   -1    0    0  501    0  0.00000000000E+00  0.00000000000E+00 -0.11529071801E+04  0.11529071801E+04  0.25500000920E-02 0.  1.
    10030    2    1    2    0    0  0.00000000000E+00  0.00000000000E+00  0.10220853879E+04  0.33278997481E+04  0.31670582870E+04 0.  0.
        2    1    3    3  502    0 -0.10960276439E+04  0.76003758897E+03  0.14079920984E+04  0.19394265859E+04  0.25500000920E-02 0. -1.
       -2    1    3    3    0  502  0.10960276439E+04 -0.76003758897E+03 -0.38590671050E+03  0.13884731622E+04  0.25500000920E-02 0.  1.
</event>
<event>
 5   0  0.5154105E-07  0.3098892E+04  0.7818609E-02  0.8216042E-01
        2   -1    0    0  501    0  0.00000000000E+00  0.00000000000E+00  0.15834582091E+04  0.15834582091E+04  0.25500000920E-02 0.  1.
       -2   -1    0    0    0  501  0.00000000000E+00  0.00000000000E+00 -0.15161646284E+04  0.15161646284E+04  0.25500000920E-02 0. -1.
    10030    2    1    2    0    0  0.00000000000E+00  0.00000000000E+00  0.67293580679E+02  0.30996228375E+04  0.30988922713E+04 0.  0.
        1    1    3    3  502    0 -0.12252769835E+04  0.88159261483E+03 -0.31611278660E+03  0.15422180516E+04  0.50400001928E-02 0. -1.
       -1    1    3    3    0  502  0.12252769835E+04 -0.88159261483E+03  0.38340636728E+03  0.15574047859E+04  0.50400001928E-02 0.  1.
</event>
<event>
 5   0  0.1727000E-07  0.3088997E+04  0.7818609E-02  0.8218764E-01
        3   -1    0    0  501    0  0.00000000000E+00  0.00000000000E+00  0.23050064761E+04  0.23050064783E+04  0.10100000352E+00 0. -1.
       -3   -1    0    0    0  501  0.00000000000E+00  0.00000000000E+00 -0.10349108789E+04  0.10349108839E+04  0.10100000352E+00 0.  1.
    10030    2    1    2    0    0  0.00000000000E+00  0.00000000000E+00  0.12700955971E+04  0.33399173622E+04  0.30889974361E+04 0.  0.
        1    1    3    3  502    0 -0.87265265507E+03  0.12330896361E+04  0.98280005034E+03  0.18022010560E+04  0.50400001928E-02 0. -1.
       -1    1    3    3    0  502  0.87265265507E+03 -0.12330896361E+04  0.28729554680E+03  0.15377163062E+04  0.50400001928E-02 0.  1.
</event>
<event>
 5   0  0.1727000E-07  0.3097075E+04  0.7818609E-02  0.8216541E-01
        3   -1    0    0  501    0  0.00000000000E+00  0.00000000000E+00  0.22732367818E+04  0.22732367841E+04  0.10100000352E+00 0. -1.
       -3   -1    0    0    0  501  0.00000000000E+00  0.00000000000E+00 -0.10548695901E+04  0.10548695949E+04  0.10100000352E+00 0.  1.
    10030    2    1    2    0    0  0.00000000000E+00  0.00000000000E+00  0.12183671918E+04  0.33281063790E+04  0.30970749839E+04 0.  0.
        1    1    3    3  502    0  0.12207260427E+04  0.21448586554E+02  0.16327820246E+04  0.20387764108E+04  0.50400001928E-02 0. -1.
       -1    1    3    3    0  502 -0.12207260427E+04 -0.21448586554E+02 -0.41441483284E+03  0.12893299682E+04  0.50400001928E-02 0.  1.
</event>
<event>
 5   0  0.1830902E-07  0.3091340E+04  0.7818609E-02  0.8218118E-01
       -1   -1    0    0    0  501  0.00000000000E+00  0.00000000000E+00  0.14364959573E+04  0.14364959573E+04  0.50400001928E-02 0.  1.
        1   -1    0    0  501    0  0.00000000000E+00  0.00000000000E+00 -0.16631417571E+04  0.16631417571E+04  0.50400001928E-02 0. -1.
    10030    2    1    2    0    0  0.00000000000E+00  0.00000000000E+00 -0.22664579981E+03  0.30996377144E+04  0.30913404280E+04 0.  0.
        3    1    3    3  502    0  0.58287332986E+03 -0.93175183934E+03 -0.12030672949E+04  0.16295010693E+04  0.10100000352E+00 0. -1.
       -3    1    3    3    0  502 -0.58287332986E+03  0.93175183934E+03  0.97642149507E+03  0.14701366450E+04  0.10100000352E+00 0.  1.
</event>
<event>
 5   0  0.5376678E-07  0.3099839E+04  0.7818609E-02  0.8215782E-01
        2   -1    0    0  501    0  0.00000000000E+00  0.00000000000E+00  0.17688174161E+04  0.17688174161E+04  0.25500000920E-02 0. -1.
       -2   -1    0    0    0  501  0.00000000000E+00  0.00000000000E+00 -0.13581113661E+04  0.13581113661E+04  0.25500000920E-02 0.  1.
    10030    2    1    2    0    0  0.00000000000E+00  0.00000000000E+00  0.41070605009E+03  0.31269287822E+04  0.30998393748E+04 0.  0.
        5    1    3    3  502    0 -0.98581151252E+03 -0.30447556430E+03 -0.96134386364E+03  0.14102247415E+04  0.46999998093E+01 0.  1.
       -5    1    3    3    0  502  0.98581151252E+03  0.30447556430E+03  0.13720499137E+04  0.17167040407E+04  0.46999998093E+01 0. -1.
</event>
<event>
 5   0  0.1875284E-07  0.3104221E+04  0.7818609E-02  0.8214580E-01
        1   -1    0    0  501    0  0.00000000000E+00  0.00000000000E+00  0.19020940306E+04  0.19020940306E+04  0.50400001928E-02 0.  1.
       -1   -1    0    0    0  501  0.00000000000E+00  0.00000000000E+00 -0.12665236198E+04  0.12665236198E+04  0.50400001928E-02 0. -1.
    10030    2    1    2    0    0  0.00000000000E+00  0.00000000000E+00  0.63557041080E+03  0.31686176504E+04  0.31042210081E+04 0.  0.
        4    1    3    3  502    0 -0.25517277657E+03  0.15292730946E+04  0.24378253998E+03  0.15694651584E+04  0.12699999809E+01 0.  1.
       -4    1    3    3    0  502  0.25517277657E+03 -0.15292730946E+04  0.39178787082E+03  0.15991524919E+04  0.12699999809E+01 0. -1.
</event>
<event>
 5   0  0.5154105E-07  0.3104466E+04  0.7818609E-02  0.8214513E-01
       -2   -1    0    0    0  501  0.00000000000E+00  0.00000000000E+00  0.21810336140E+04  0.21810336140E+04  0.25500000920E-02 0.  1.
        2   -1    0    0  501    0  0.00000000000E+00  0.00000000000E+00 -0.11047179302E+04  0.11047179302E+04  0.25500000920E-02 0. -1.
    10030    2    1    2    0    0  0.00000000000E+00  0.00000000000E+00  0.10763156838E+04  0.32857515442E+04  0.31044657767E+04 0.  0.
        1    1    3    3  502    0 -0.14059063631E+04  0.16559375531E+03 -0.13576063351E+03  0.14221198766E+04  0.50400001928E-02 0. -1.
       -1    1    3    3    0  502  0.14059063631E+04 -0.16559375531E+03  0.12120763173E+04  0.18636316677E+04  0.50400001928E-02 0.  1.
</event>
<event>
 5   0  0.5055900E-07  0.3099704E+04  0.7818609E-02  0.8215819E-01
       -2   -1    0    0    0  501  0.00000000000E+00  0.00000000000E+00  0.12496186433E+04  0.12496186433E+04  0.25500000920E-02 0. -1.
        2   -1    0    0  501    0  0.00000000000E+00  0.00000000000E+00 -0.19222194312E+04  0.19222194312E+04  0.25500000920E-02 0.  1.
    10030    2    1    2    0    0  0.00000000000E+00  0.00000000000E+00 -0.67260078797E+03  0.31718380745E+04  0.30997040102E+04 0.  0.
        2    1    3    3  502    0  0.13046878504E+04 -0.72411568899E+03 -0.76496107847E+03  0.16768182280E+04  0.25500000920E-02 0.  1.
       -2    1    3    3    0  502 -0.13046878504E+04  0.72411568899E+03  0.92360290501E+02  0.14950198465E+04  0.25500000920E-02 0. -1.
</event>
<event>
 5   0  0.1814075E-07  0.3125778E+04  0.7818609E-02  0.8208699E-01
       -1   -1    0    0    0  501  0.00000000000E+00  0.00000000000E+00  0.19892533838E+04  0.19892533838E+04  0.50400001928E-02 0.  1.
        1   -1    0    0  501    0  0.00000000000E+00  0.00000000000E+00 -0.12279086075E+04  0.12279086075E+04  0.50400001928E-02 0. -1.
    10030    2    1    2    0    0  0.00000000000E+00  0.00000000000E+00  0.76134477629E+03  0.32171619913E+04  0.31257775688E+04 0.  0.
        5    1    3    3  502    0  0.23783412359E+03 -0.14709083126E+04  0.86612146926E+03  0.17234630324E+04  0.46999998093E+01 0. -1.
       -5    1    3    3    0  502 -0.23783412359E+03  0.14709083126E+04 -0.10477669297E+03  0.14936989589E+04  0.46999998093E+01 0.  1.
</event>
<event>
 5   0  0.5055900E-07  0.3088646E+04  0.7818609E-02  0.8218861E-01
       -2   -1    0    0    0  501  0.00000000000E+00  0.00000000000E+00  0.12066702685E+04  0.12066702685E+04  0.25500000920E-02 0.  1.
        2   -1    0    0  501    0  0.00000000000E+00  0.00000000000E+00 -0.19764583205E+04  0.19764583205E+04  0.25500000920E-02 0. -1.
    10030    2    1    2    0    0  0.00000000000E+00  0.00000000000E+00 -0.76978805209E+03  0.31831285890E+04  0.30886459766E+04 0.  0.
        2    1    3    3  502    0  0.11646325159E+04  0.44764954318E+03  0.55298532347E+03  0.13647533764E+04  0.25500000920E-02 0.  1.
       -2    1    3    3    0  502 -0.11646325159E+04 -0.44764954318E+03 -0.13227733756E+04  0.18183752126E+04  0.25500000920E-02 0. -1.
</event>
<event>
 5   0  0.5376678E-07  0.3103687E+04  0.7818609E-02  0.8214727E-01
       -2   -1    0    0    0  501  0.00000000000E+00  0.00000000000E+00  0.16109890930E+04  0.16109890930E+04  0.25500000920E-02 0.  1.
        2   -1    0    0  501    0  0.00000000000E+00  0.00000000000E+00 -0.14948693530E+04  0.14948693530E+04  0.25500000920E-02 0. -1.
    10030    2    1    2    0    0  0.00000000000E+00  0.00000000000E+00  0.11611974003E+03  0.31058584460E+04  0.31036869837E+04 0.  0.
        5    1    3    3  502    0 -0.97078113835E+03 -0.58032233010E+03  0.11213502608E+04  0.15926828067E+04  0.46999998093E+01 0.  1.
       -5    1    3    3    0  502  0.97078113835E+03  0.58032233010E+03 -0.10052305208E+04  0.15131756393E+04  0.46999998093E+01 0. -1.
</event>
<event>
 5   0  0.1875284E-07  0.3092761E+04  0.7818609E-02  0.8217728E-01
        1   -1    0    0  501    0  0.00000000000E+00  0.00000000000E+00  0.20156751743E+04  0.20156751743E+04  0.50400001928E-02 0. -1.
       -1   -1    0    0    0  501  0.00000000000E+00  0.00000000000E+00 -0.11863479131E+04  0.11863479131E+04  0.50400001928E-02 0.  1.
    10030    2    1    2    0    0  0.00000000000E+00  0.00000000000E+00  0.82932726129E+03  0.32020230874E+04  0.30927606028E+04 0.  0.
        4    1    3    3  502    0  0.78116301294E+03 -0.24236137697E+03 -0.94407855868E+03  0.12490959241E+04  0.12699999809E+01 0.  1.
       -4    1    3    3    0  502 -0.78116301294E+03  0.24236137697E+03  0.17734058200E+04  0.19529271633E+04  0.12699999809E+01 0. -1.
</event>
<event>
 5   0  0.5154105E-07  0.3105654E+04  0.7818609E-02  0.8214188E-01
       -2   -1    0    0    0  501  0.00000000000E+00  0.00000000000E+00  0.13499469862E+04  0.13499469862E+04  0.25500000920E-02 0. -1.
        2   -1    0    0  501    0  0.00000000000E+00  0.00000000000E+00 -0.17861973113E+04  0.17861973113E+04  0.25500000920E-02 0.  1.
    10030    2    1    2    0    0  0.00000000000E+00  0.00000000000E+00 -0.43625032508E+03  0.31361442975E+04  0.31056539905E+04 0.  0.
        1    1    3    3  502    0 -0.10702175865E+03 -0.93049518349E+03  0.10325807018E+04  0.13940939168E+04  0.50400001928E-02 0. -1.
       -1    1    3    3    0  502  0.10702175865E+03  0.93049518349E+03 -0.14688310268E+04  0.17420503807E+04  0.50400001928E-02 0.  1.
</event>
<event>
 5   0  0.1814075E-07  0.3092757E+04  0.7818609E-02  0.8217729E-01
        1   -1    0    0  501    0  0.00000000000E+00  0.00000000000E+00  0.14926851103E+04  0.14926851103E+04  0.50400001928E-02 0.  1.
       -1   -1    0    0    0  501  0.00000000000E+00  0.00000000000E+00 -0.16020030752E+04  0.16020030753E+04  0.50400001928E-02 0. -1.
    10030    2    1    2    0    0  0.00000000000E+00  0.00000000000E+00 -0.10931796494E+03  0.30946881856E+04  0.30927567878E+04 0.  0.
        5    1    3    3  502    0  0.75440376896E+03  0.51931295630E+03  0.11920938576E+04  0.15033033122E+04  0.46999998093E+01 0.  1.
       -5    1    3    3    0  502 -0.75440376896E+03 -0.51931295630E+03 -0.13014118226E+04  0.15913848733E+04  0.46999998093E+01 0. -1.
</event>
<event>
 5   0  0.1830902E-07  0.3098300E+04  0.7818609E-02  0.8216205E-01
       -1   -1    0    0    0  501  0.00000000000E+00  0.00000000000E+00  0.92044429182E+03  0.92044429183E+03  0.50400001928E-02 0. -1.
        1   -1    0    0  501    0  0.00000000000E+00  0.00000000000E+00 -0.26072910975E+04  0.26072910975E+04  0.50400001928E-02 0.  1.
    10030    2    1    2    0    0  0.00000000000E+00  0.00000000000E+00 -0.16868468057E+04  0.35277353893E+04  0.30983003133E+04 0.  0.
        3    1    3    3  502    0  0.86846756398E+03  0.12816500136E+04 -0.78102283789E+03  0.17340298009E+04  0.10100000352E+00 0. -1.
       -3    1    3    3    0  502 -0.86846756398E+03 -0.12816500136E+04 -0.90582396780E+03  0.17937055884E+04  0.10100000352E+00 0.  1.
</event>
<event>
 5   0  0.1830902E-07  0.3097568E+04  0.7818609E-02  0.8216406E-01
        1   -1    0    0  501    0  0.00000000000E+00  0.00000000000E+00  0.19609164358E+04  0.19609164358E+04  0.50400001928E-02 0. -1.
       -1   -1    0    0    0  501  0.00000000000E+00  0.00000000000E+00 -0.12232708303E+04  0.12232708303E+04  0.50400001928E-02 0.  1.
    10030    2    1    2    0    0  0.00000000000E+00  0.00000000000E+00  0.73764560552E+03  0.31841872661E+04  0.30975679986E+04 0.  0.
        3    1    3    3  502    0 -0.65914547559E+03 -0.13942432604E+04  0.22219886357E+03  0.15581268794E+04  0.10100000352E+00 0.  1.
       -3    1    3    3    0  502  0.65914547559E+03  0.13942432604E+04  0.51544674195E+03  0.16260603867E+04  0.10100000352E+00 0. -1.
</event>
<event>
 5   0  0.1840359E-07  0.3096851E+04  0.7818609E-02  0.8216603E-01
       -1   -1    0    0    0  501  0.00000000000E+00  0.00000000000E+00  0.22536016548E+04  0.22536016548E+04  0.50400001928E-02 0.  1.
        1   -1    0    0  501    0  0.00000000000E+00  0.00000000000E+00 -0.10639063164E+04  0.10639063164E+04  0.50400001928E-02 0. -1.
    10030    2    1    2    0    0  0.00000000000E+00  0.00000000000E+00  0.11896953384E+04  0.33175079711E+04  0.30968506810E+04 0.  0.
        1    1    3    3  502    0 -0.70986645339E+02  0.76925233861E+03 -0.84272034732E+03  0.11432260704E+04  0.50400001928E-02 0. -1.
       -1    1    3    3    0  502  0.70986645339E+02 -0.76925233861E+03  0.20324156857E+04  0.21742819007E+04  0.50400001928E-02 0.  1.
</event>
<event>
 5   0  0.5342534E-07  0.3101179E+04  0.7818609E-02  0.8215414E-01
        2   -1    0    0  501    0  0.00000000000E+00  0.00000000000E+00  0.19855067168E+04  0.19855067168E+04  0.25500000920E-02 0.  1.
       -2   -1    0    0    0  501  0.00000000000E+00  0.00000000000E+00 -0.12109395251E+04  0.12109395251E+04  0.25500000920E-02 0. -1.
    10030    2    1    2    0    0  0.00000000000E+00  0.00000000000E+00  0.77456719177E+03  0.31964462419E+04  0.31011794922E+04 0.  0.
        3    1    3    3  502    0 -0.89842825309E+03 -0.10383047492E+04 -0.35531993601E+03  0.14182744252E+04  0.10100000352E+00 0. -1.
       -3    1    3    3    0  502  0.89842825309E+03  0.10383047492E+04  0.11298871278E+04  0.17781718167E+04  0.10100000352E+00 0.  1.
</event>
<event>
 5   0  0.1727000E-07  0.3097976E+04  0.7818609E-02  0.8216294E-01
       -3   -1    0    0    0  501  0.00000000000E+00  0.00000000000E+00  0.11836584228E+04  0.11836584272E+04  0.10100000352E+00 0. -1.
        3   -1    0    0  501    0  0.00000000000E+00  0.00000000000E+00 -0.20270746312E+04  0.20270746338E+04  0.10100000352E+00 0.  1.
    10030    2    1    2    0    0  0.00000000000E+00  0.00000000000E+00 -0.84341620840E+03  0.32107330609E+04  0.30979760954E+04 0.  0.
        2    1    3    3  502    0 -0.14185625756E+03 -0.67104541989E+03 -0.18611209170E+04  0.19834808345E+04  0.25500000920E-02 0.  1.
       -2    1    3    3    0  502  0.14185625756E+03  0.67104541989E+03  0.10177047086E+04  0.12272522264E+04  0.25500000920E-02 0. -1.
</event>
<event>
 5   0  0.5342534E-07  0.3076074E+04  0.7818609E-02  0.8222335E-01
       -2   -1    0    0    0  501  0.00000000000E+00  0.00000000000E+00  0.15360332268E+04  0.15360332268E+04  0.25500000920E-02 0. -1.
        2   -1    0    0  501    0  0.00000000000E+00  0.00000000000E+00 -0.15400435546E+04  0.15400435546E+04  0.25500000920E-02 0.  1.
    10030    2    1    2    0    0  0.00000000000E+00  0.00000000000E+00 -0.40103277331E+01  0.30760767814E+04  0.30760741672E+04 0.  0.
        3    1    3    3  502    0  0.76063407000E+02 -0.17410582415E+03 -0.15282631826E+04  0.15400281963E+04  0.10100000352E+00 0.  1.
       -3    1    3    3    0  502 -0.76063407000E+02  0.17410582415E+03  0.15242528549E+04  0.15360485851E+04  0.10100000352E+00 0. -1.
</event>
<event>
 5   0  0.5376678E-07  0.3097956E+04  0.7818609E-02  0.8216299E-01
       -2   -1    0    0    0  501  0.00000000000E+00  0.00000000000E+00  0.19654455120E+04  0.19654455120E+04  0.25500000920E-02 0. -1.
        2   -1    0    0  501    0  0.00000000000E+00  0.00000000000E+00 -0.12207575317E+04  0.12207575317E+04  0.25500000920E-02 0.  1.
    10030    2    1    2    0    0  0.00000000000E+00  0.00000000000E+00  0.74468798032E+03  0.31862030438E+04  0.30979557208E+04 0.  0.
        5    1    3    3  502    0 -0.11335768360E+04  0.67446628528E+03 -0.46282760104E+03  0.13979029621E+04  0.46999998093E+01 0.  1.
       -5    1    3    3    0  502  0.11335768360E+04 -0.67446628528E+03  0.12075155814E+04  0.17883000817E+04  0.46999998093E+01 0. -1.
</event>
<event>
 5   0  0.1845123E-07  0.3035975E+04  0.7818609E-02  0.8233532E-01
        1   -1    0    0  501    0  0.00000000000E+00  0.00000000000E+00  0.82237562597E+03  0.82237562599E+03  0.50400001928E-02 0.  1.
       -1   -1    0    0    0  501  0.00000000000E+00  0.00000000000E+00 -0.28019878955E+04  0.28019878955E+04  0.50400001928E-02 0. -1.
    10030    2    1    2    0    0  0.00000000000E+00  0.00000000000E+00 -0.19796122695E+04  0.36243635215E+04  0.30359753290E+04 0.  0.
        2    1    3    3  502    0  0.64104764035E+03  0.13742524161E+04 -0.10722977310E+04  0.18572383272E+04  0.25500000920E-02 0. -1.
       -2    1    3    3    0  502 -0.64104764035E+03 -0.13742524161E+04 -0.90731453856E+03  0.17671251943E+04  0.25500000920E-02 0.  1.
</event>
<event>
 5   0  0.1875284E-07  0.3094987E+04  0.7818609E-02  0.8217115E-01
       -1   -1    0    0    0  501  0.00000000000E+00  0.00000000000E+00  0.14645598022E+04  0.14645598022E+04  0.50400001928E-02 0. -1.
        1   -1    0    0  501    0  0.00000000000E+00  0.00000000000E+00 -0.16351231879E+04  0.16351231879E+04  0.50400001928E-02 0.  1.
    10030    2    1    2    0    0  0.00000000000E+00  0.00000000000E+00 -0.17056338569E+03  0.30996829900E+04  0.30949867157E+04 0.  0.
        4    1    3    3  502    0  0.15447970652E+02 -0.56345848476E+03  0.13580886648E+04  0.14704184909E+04  0.12699999809E+01 0. -1.
       -4    1    3    3    0  502 -0.15447970652E+02  0.56345848476E+03 -0.15286520505E+04  0.16292644992E+04  0.12699999809E+01 0.  1.
</event>
<event>
 5   0  0.5055900E-07  0.3097297E+04  0.7818609E-02  0.8216480E-01
       -2   -1    0    0    0  501  0.00000000000E+00  0.00000000000E+00  0.10673375237E+04  0.10673375237E+04  0.25500000920E-02 0. -1.
        2   -1    0    0  501    0  0.00000000000E+00  0.00000000000E+00 -0.22470039115E+04  0.22470039115E+04  0.25500000920E-02 0.  1.
    10030    2    1    2    0    0  0.00000000000E+00  0.00000000000E+00 -0.11796663877E+04  0.33143414352E+04  0.30972966217E+04 0.  0.
        2    1    3    3  502    0 -0.13447109677E+03  0.27320796485E+02 -0.22404859534E+04  0.22446839887E+04  0.25500000920E-02 0.  1.
       -2    1    3    3    0  502  0.13447109677E+03 -0.27320796485E+02  0.10608195657E+04  0.10696574465E+04  0.25500000920E-02 0. -1.
</event>
<event>
 5   0  0.5342534E-07  0.3098622E+04  0.7818609E-02  0.8216116E-01
       -2   -1    0    0    0  501  0.00000000000E+00  0.00000000000E+00  0.92616220325E+03  0.92616220326E+03  0.25500000920E-02 0. -1.
        2   -1    0    0  501    0  0.00000000000E+00  0.00000000000E+00 -0.25917316309E+04  0.25917316309E+04  0.25500000920E-02 0.  1.
    10030    2    1    2    0    0  0.00000000000E+00  0.00000000000E+00 -0.16655694277E+04  0.35178938342E+04  0.30986215500E+04 0.  0.
        3    1    3    3  502    0  0.40975111110E+03  0.14712861946E+04 -0.53720104112E+03  0.16190009290E+04  0.10100000352E+00 0. -1.
       -3    1    3    3    0  502 -0.40975111110E+03 -0.14712861946E+04 -0.11283683866E+04  0.18988929052E+04  0.10100000352E+00 0.  1.
</event>
<event>
 5   0  0.1840359E-07  0.3107612E+04  0.7818609E-02  0.8213652E-01
       -1   -1    0    0    0  501  0.00000000000E+00  0.00000000000E+00  0.12331643965E+04  0.12331643965E+04  0.50400001928E-02 0.  1.
        1   -1    0    0  501    0  0.00000000000E+00  0.00000000000E+00 -0.19578192314E+04  0.19578192314E+04  0.50400001928E-02 0. -1.
    10030    2    1    2    0    0  0.00000000000E+00  0.00000000000E+00 -0.72465483498E+03  0.31909836279E+04  0.31076119262E+04 0.  0.
        1    1    3    3  502    0 -0.99714137129E+03 -0.52384819081E+03 -0.14613719023E+04  0.18450787729E+04  0.50400001928E-02 0. -1.
       -1    1    3    3    0  502  0.99714137129E+03  0.52384819081E+03  0.73671706734E+03  0.13459048550E+04  0.50400001928E-02 0.  1.
</event>
<event>
 5   0  0.5376678E-07  0.3102521E+04  0.7818609E-02  0.8215046E-01
       -2   -1    0    0    0  501  0.00000000000E+00  0.00000000000E+00  0.13548307033E+04  0.13548307033E+04  0.25500000920E-02 0. -1.
        2   -1    0    0  501    0  0.00000000000E+00  0.00000000000E+00 -0.17761700268E+04  0.17761700268E+04  0.25500000920E-02 0.  1.
    10030    2    1    2    0    0  0.00000000000E+00  0.00000000000E+00 -0.42133932348E+03  0.31310007301E+04  0.31025213531E+04 0.  0.
        5    1    3    3  502    0 -0.17987742651E+03 -0.12476439610E+04 -0.11230796365E+04  0.16882835371E+04  0.46999998093E+01 0.  1.
       -5    1    3    3    0  502  0.17987742651E+03  0.12476439610E+04  0.70174031299E+03  0.14427171929E+04  0.46999998093E+01 0. -1.
</event>
<event>
 5   0  0.1875284E-07  0.3095530E+04  0.7818609E-02  0.8216966E-01
        1   -1    0    0  501    0  0.00000000000E+00  0.00000000000E+00  0.15763924946E+04  0.15763924946E+04  0.50400001928E-02 0.  1.
       -1   -1    0    0    0  501  0.00000000000E+00  0.00000000000E+00 -0.15196577794E+04  0.15196577794E+04  0.50400001928E-02 0. -1.
    10030    2    1    2    0    0  0.00000000000E+00  0.00000000000E+00  0.56734715150E+02  0.30960502740E+04  0.30955304023E+04 0.  0.
        4    1    3    3  502    0  0.52273911243E+03 -0.73775392613E+03  0.12847783390E+04  0.15710487034E+04  0.12699999809E+01 0.  1.
       -4    1    3    3    0  502 -0.52273911243E+03  0.73775392613E+03 -0.12280436239E+04  0.15250015706E+04  0.12699999809E+01 0. -1.
</event>
<event>
 5   0  0.1814075E-07  0.3131907E+04  0.7818609E-02  0.8207035E-01
       -1   -1    0    0    0  501  0.00000000000E+00  0.00000000000E+00  0.12281120750E+04  0.12281120750E+04  0.50400001928E-02 0.  1.
        1   -1    0    0  501    0  0.00000000000E+00  0.00000000000E+00 -0.19967319743E+04  0.19967319743E+04  0.50400001928E-02 0. -1.
    10030    2    1    2    0    0  0.00000000000E+00  0.00000000000E+00 -0.76861989934E+03  0.32248440493E+04  0.31319071813E+04 0.  0.
        5    1    3    3  502    0  0.30420711744E+03  0.27544809706E+03 -0.19403704756E+04  0.19832985900E+04  0.46999998093E+01 0. -1.
       -5    1    3    3    0  502 -0.30420711744E+03 -0.27544809706E+03  0.11717505763E+04  0.12415454593E+04  0.46999998093E+01 0.  1.
</event>
<event>
 5   0  0.5055900E-07  0.3104976E+04  0.7818609E-02  0.8214374E-01
        2   -1    0    0  501    0  0.00000000000E+00  0.00000000000E+00  0.73551607274E+03  0.73551607275E+03  0.25500000920E-02 0. -1.
       -2   -1    0    0    0  501  0.00000000000E+00  0.00000000000E+00 -0.32769080299E+04  0.32769080299E+04  0.25500000920E-02 0.  1.
    10030    2    1    2    0    0  0.00000000000E+00  0.00000000000E+00 -0.25413919571E+04  0.40124241026E+04  0.31049757003E+04 0.  0.
        2    1    3    3  502    0  0.77019815057E+03 -0.56688908298E+03 -0.28510836285E+04  0.30071990756E+04  0.25500000920E-02 0.  1.
       -2    1    3    3    0  502 -0.77019815057E+03  0.56688908298E+03  0.30969167141E+03  0.10052250270E+04  0.25500000920E-02 0. -1.
</event>
<event>
 5   0  0.1840359E-07  0.3099840E+04  0.7818609E-02  0.8215782E-01
       -1   -1    0    0    0  501  0.00000000000E+00  0.00000000000E+00  0.97173012952E+03  0.97173012954E+03  0.50400001928E-02 0.  1.
        1   -1    0    0  501    0  0.00000000000E+00  0.00000000000E+00 -0.24721392477E+04  0.24721392477E+04  0.50400001928E-02 0. -1.
    10030    2    1    2    0    0  0.00000000000E+00  0.00000000000E+00 -0.15004091182E+04  0.34438693772E+04  0.30998401193E+04 0.  0.
        1    1    3    3  502    0  0.10805508412E+04  0.64476978744E+03  0.25517910652E+03  0.12839137726E+04  0.50400001928E-02 0.  1.
       -1    1    3    3    0  502 -0.10805508412E+04 -0.64476978744E+03 -0.17555882247E+04  0.21599556046E+04  0.50400001928E-02 0. -1.
</event>
<event>
 5   0  0.1845123E-07  0.3097349E+04  0.7818609E-02  0.8216466E-01
        1   -1    0    0  501    0  0.00000000000E+00  0.00000000000E+00  0.24325871081E+04  0.24325871081E+04  0.50400001928E-02 0. -1.
       -1   -1    0    0    0  501  0.00000000000E+00  0.00000000000E+00 -0.98594346566E+03  0.98594346567E+03  0.50400001928E-02 0.  1.
    10030    2    1    2    0    0  0.00000000000E+00  0.00000000000E+00  0.14466436424E+04  0.34185305738E+04  0.30973494242E+04 0.  0.
        2    1    3    3  502    0  0.31440864285E+03  0.11973797422E+04 -0.30366212554E+03  0.12746692623E+04  0.25500000920E-02 0.  1.
       -2    1    3    3    0  502 -0.31440864285E+03 -0.11973797422E+04  0.17503057680E+04  0.21438613115E+04  0.25500000920E-02 0. -1.
</event>
<event>
 5   0  0.5376678E-07  0.3108085E+04  0.7818609E-02  0.8213523E-01
       -2   -1    0    0    0  501  0.00000000000E+00  0.00000000000E+00  0.80155617002E+03  0.80155617003E+03  0.25500000920E-02 0.  1.
        2   -1    0    0  501    0  0.00000000000E+00  0.00000000000E+00 -0.30129494856E+04  0.30129494856E+04  0.25500000920E-02 0. -1.
    10030    2    1    2    0    0  0.00000000000E+00  0.00000000000E+00 -0.22113933156E+04  0.38145056556E+04  0.31080851019E+04 0.  0.
        5    1    3    3  502    0 -0.78186207239E+03 -0.95066708599E+02  0.53844371918E+03  0.95409103760E+03  0.46999998093E+01 0.  1.
       -5    1    3    3    0  502  0.78186207239E+03  0.95066708599E+02 -0.27498370348E+04  0.28604146180E+04  0.46999998093E+01 0. -1.
</event>
<event>
 5   0  0.5248309E-07  0.3101143E+04  0.7818609E-02  0.8215424E-01
       -2   -1    0    0    0  501  0.00000000000E+00  0.00000000000E+00  0.12320187344E+04  0.12320187344E+04  0.25500000920E-02 0.  1.
        2   -1    0    0  501    0  0.00000000000E+00  0.00000000000E+00 -0.19514892379E+04  0.19514892379E+04  0.25500000920E-02 0. -1.
    10030    2    1    2    0    0  0.00000000000E+00  0.00000000000E+00 -0.71947050353E+03  0.31835079723E+04  0.31011425643E+04 0.  0.
        4    1    3    3  502    0  0.58931621323E+03  0.84705909985E+02 -0.18294737154E+04  0.19239138179E+04  0.12699999809E+01 0. -1.
       -4    1    3    3    0  502 -0.58931621323E+03 -0.84705909985E+02  0.11100032119E+04  0.12595941544E+04  0.12699999809E+01 0.  1.
</event>
<event>
 5   0  0.1845123E-07  0.3097098E+04  0.7818609E-02  0.8216535E-01
        1   -1    0    0  501    0  0.00000000000E+00  0.00000000000E+00  0.17078977607E+04  0.17078977607E+04  0.50400001928E-02 0. -1.
       -1   -1    0    0    0  501  0.00000000000E+00  0.00000000000E+00 -0.14040674728E+04  0.14040674728E+04  0.50400001928E-02 0.  1.
    10030    2    1    2    0    0  0.00000000000E+00  0.00000000000E+00  0.30383028792E+03  0.31119652335E+04  0.30970977981E+04 0.  0.
        2    1    3    3  502    0  0.13264686000E+04 -0.48239577285E+03  0.79198096248E+03  0.16184741189E+04  0.25500000920E-02 0. -1.
       -2    1    3    3    0  502 -0.13264686000E+04  0.48239577285E+03 -0.48815067456E+03  0.14934911147E+04  0.25500000920E-02 0.  1.
</event>
<event>
 5   0  0.1830902E-07  0.3105711E+04  0.7818609E-02  0.8214172E-01
       -1   -1    0    0    0  501  0.00000000000E+00  0.00000000000E+00  0.74020280666E+03  0.74020280668E+03  0.50400001928E-02 0. -1.
        1   -1    0    0  501    0  0.00000000000E+00  0.00000000000E+00 -0.32577015627E+04  0.32577015627E+04  0.50400001928E-02 0.  1.
    10030    2    1    2    0    0  0.00000000000E+00  0.00000000000E+00 -0.25174987561E+04  0.39979043694E+04  0.31057107657E+04 0.  0.
        3    1    3    3  502    0  0.82258242321E+03  0.13146277307E+04 -0.13623083775E+04  0.20641637627E+04  0.10100000352E+00 0.  1.
       -3    1    3    3    0  502 -0.82258242321E+03 -0.13146277307E+04 -0.11551903785E+04  0.19337406067E+04  0.10100000352E+00 0. -1.
</event>
<event>
 5   0  0.1845123E-07  0.3098812E+04  0.7818609E-02  0.8216064E-01
       -1   -1    0    0    0  501  0.00000000000E+00  0.00000000000E+00  0.24936606180E+04  0.24936606180E+04  0.50400001928E-02 0. -1.
        1   -1    0    0  501    0  0.00000000000E+00  0.00000000000E+00 -0.96270464757E+03  0.96270464759E+03  0.50400001928E-02 0.  1.
    10030    2    1    2    0    0  0.00000000000E+00  0.00000000000E+00  0.15309559704E+04  0.34563652656E+04  0.30988118152E+04 0.  0.
        2    1    3    3  502    0 -0.10000640070E+04  0.11801714274E+04  0.66743800903E+03  0.16847569890E+04  0.25500000920E-02 0.  1.
       -2    1    3    3    0  502  0.10000640070E+04 -0.11801714274E+04  0.86351796138E+03  0.17716082766E+04  0.25500000920E-02 0. -1.
</event>
<event>
 5   0  0.5342534E-07  0.3015283E+04  0.7818609E-02  0.8239380E-01
       -2   -1    0    0    0  501  0.00000000000E+00  0.00000000000E+00  0.13640285062E+04  0.13640285062E+04  0.25500000920E-02 0.  1.
        2   -1    0    0  501    0  0.00000000000E+00  0.00000000000E+00 -0.16663747614E+04  0.16663747614E+04  0.25500000920E-02 0. -1.
    10030    2    1    2    0    0  0.00000000000E+00  0.00000000000E+00 -0.30234625519E+03  0.30304032675E+04  0.30152828567E+04 0.  0.
        3    1    3    3  502    0 -0.60675949494E+03 -0.11824555127E+04 -0.86651801754E+03  0.15865722830E+04  0.10100000352E+00 0. -1.
       -3    1    3    3    0  502  0.60675949494E+03  0.11824555127E+04  0.56417176235E+03  0.14438309845E+04  0.10100000352E+00 0.  1.
</event>
<event>
 5   0  0.1814075E-07  0.3097053E+04  0.7818609E-02  0.8216547E-01
        1   -1    0    0  501    0  0.00000000000E+00  0.00000000000E+00  0.17946867206E+04  0.17946867206E+04  0.50400001928E-02 0. -1.
       -1   -1    0    0    0  501  0.00000000000E+00  0.00000000000E+00 -0.13361295922E+04  0.13361295922E+04  0.50400001928E-02 0.  1.
    10030    2    1    2    0    0  0.00000000000E+00  0.00000000000E+00  0.45855712841E+03  0.31308163129E+04  0.30970528160E+04 0.  0.
        5    1    3    3  502    0  0.91249072534E+02 -0.13533646091E+04  0.98440922018E+03  0.16760088786E+04  0.46999998093E+01 0. -1.
       -5    1    3    3    0  502 -0.91249072534E+02  0.13533646091E+04 -0.52585209177E+03  0.14548074343E+04  0.46999998093E+01 0.  1.
</event>
<event>
 5   0  0.1875284E-07  0.3093013E+04  0.7818609E-02  0.8217658E-01
       -1   -1    0    0    0  501  0.00000000000E+00  0.00000000000E+00  0.13639863062E+04  0.13639863062E+04  0.50400001928E-02 0. -1.
        1   -1    0    0  501    0  0.00000000000E+00  0.00000000000E+00 -0.17534507975E+04  0.17534507975E+04  0.50400001928E-02 0.  1.
    10030    2    1    2    0    0  0.00000000000E+00  0.00000000000E+00 -0.38946449139E+03  0.31174371037E+04  0.30930133374E+04 0.  0.
        4    1    3    3  502    0 -0.91010791408E+03  0.12157311228E+04  0.99778273775E+02  0.15219250622E+04  0.12699999809E+01 0. -1.
       -4    1    3    3    0  502  0.91010791408E+03 -0.12157311228E+04 -0.48924276516E+03  0.15955120415E+04  0.12699999809E+01 0.  1.
</event>
<event>
 5   0  0.1830902E-07  0.3097787E+04  0.7818609E-02  0.8216346E-01
       -1   -1    0    0    0  501  0.00000000000E+00  0.00000000000E+00  0.11859158369E+04  0.11859158369E+04  0.50400001928E-02 0.  1.
        1   -1    0    0  501    0  0.00000000000E+00  0.00000000000E+00 -0.20229687599E+04  0.20229687599E+04  0.50400001928E-02 0. -1.
    10030    2    1    2    0    0  0.00000000000E+00  0.00000000000E+00 -0.83705292298E+03  0.32088845969E+04  0.30977867519E+04 0.  0.
        3    1    3    3  502    0  0.11125538750E+04  0.99844101436E+03 -0.83854341611E+03  0.17140057336E+04  0.10100000352E+00 0. -1.
       -3    1    3    3    0  502 -0.11125538750E+04 -0.99844101436E+03  0.14904931319E+01  0.14948788632E+04  0.10100000352E+00 0.  1.
</event>
<event>
 5   0  0.5154105E-07  0.3098409E+04  0.7818609E-02  0.8216175E-01
       -2   -1    0    0    0  501  0.00000000000E+00  0.00000000000E+00  0.13826323146E+04  0.13826323146E+04  0.25500000920E-02 0.  1.
        2   -1    0    0  501    0  0.00000000000E+00  0.00000000000E+00 -0.17358445380E+04  0.17358445380E+04  0.25500000920E-02 0. -1.
    10030    2    1    2    0    0  0.00000000000E+00  0.00000000000E+00 -0.35321222332E+03  0.31184768526E+04  0.30984091088E+04 0.  0.
        1    1    3    3  502    0 -0.48315581530E+03  0.26390647724E+03  0.12808572788E+04  0.13941597969E+04  0.50400001928E-02 0.  1.
       -1    1    3    3    0  502  0.48315581530E+03 -0.26390647724E+03 -0.16340695022E+04  0.17243170557E+04  0.50400001928E-02 0. -1.
</event>
<event>
 5   0  0.1840359E-07  0.3100870E+04  0.7818609E-02  0.8215499E-01
        1   -1    0    0  501    0  0.00000000000E+00  0.00000000000E+00  0.16866231005E+04  0.16866231005E+04  0.50400001928E-02 0.  1.
       -1   -1    0    0    0  501  0.00000000000E+00  0.00000000000E+00 -0.14252437776E+04  0.14252437776E+04  0.50400001928E-02 0. -1.
    10030    2    1    2    0    0  0.00000000000E+00  0.00000000000E+00  0.26137932288E+03  0.31118668781E+04  0.31008702515E+04 0.  0.
        1    1    3    3  502    0 -0.10666614525E+04 -0.31852280565E+03 -0.95231565962E+03  0.14649670807E+04  0.50400001928E-02 0. -1.
       -1    1    3    3    0  502  0.10666614525E+04  0.31852280565E+03  0.12136949825E+04  0.16468997974E+04  0.50400001928E-02 0.  1.
</event>
<event>
 5   0  0.5342534E-07  0.3093382E+04  0.7818609E-02  0.8217557E-01
        2   -1    0    0  501    0  0.00000000000E+00  0.00000000000E+00  0.26899537248E+04  0.26899537248E+04  0.25500000920E-02 0.  1.
       -2   -1    0    0    0  501  0.00000000000E+00  0.00000000000E+00 -0.88932853665E+03  0.88932853666E+03  0.25500000920E-02 0. -1.
    10030    2    1    2    0    0  0.00000000000E+00  0.00000000000E+00  0.18006251882E+04  0.35792822615E+04  0.30933817157E+04 0.  0.
        3    1    3    3  502    0  0.31537976498E+03 -0.15848492575E+03 -0.84210573656E+03  0.91308485345E+03  0.10100000352E+00 0. -1.
       -3    1    3    3    0  502 -0.31537976498E+03  0.15848492575E+03  0.26427309247E+04  0.26661974080E+04  0.10100000352E+00 0.  1.
</event>
<event>
 5   0  0.5342534E-07  0.3088457E+04  0.7818609E-02  0.8218913E-01
        2   -1    0    0  501    0  0.00000000000E+00  0.00000000000E+00  0.25737496535E+04  0.25737496535E+04  0.25500000920E-02 0.  1.
       -2   -1    0    0    0  501  0.00000000000E+00  0.00000000000E+00 -0.92652441792E+03  0.92652441792E+03  0.25500000920E-02 0. -1.
    10030    2    1    2    0    0  0.00000000000E+00  0.00000000000E+00  0.16472252356E+04  0.35002740714E+04  0.30884571550E+04 0.  0.
        3    1    3    3  502    0  0.43268890025E+03 -0.28011793187E+03  0.24733752205E+04  0.25265135527E+04  0.10100000352E+00 0.  1.
       -3    1    3    3    0  502 -0.43268890025E+03  0.28011793187E+03 -0.82614998491E+03  0.97376051878E+03  0.10100000352E+00 0. -1.
</event>
<event>
 5   0  0.5248309E-07  0.3104453E+04  0.7818609E-02  0.8214517E-01
        2   -1    0    0  501    0  0.00000000000E+00  0.00000000000E+00  0.79076062458E+03  0.79076062459E+03  0.25500000920E-02 0.  1.
       -2   -1    0    0    0  501  0.00000000000E+00  0.00000000000E+00 -0.30469481581E+04  0.30469481581E+04  0.25500000920E-02 0. -1.
    10030    2    1    2    0    0  0.00000000000E+00  0.00000000000E+00 -0.22561875335E+04  0.38377087827E+04  0.31044526916E+04 0.  0.
        4    1    3    3  502    0 -0.11936847793E+04  0.98133472201E+03 -0.13093716605E+04  0.20254275961E+04  0.12699999809E+01 0. -1.
       -4    1    3    3    0  502  0.11936847793E+04 -0.98133472201E+03 -0.94681587305E+03  0.18122811866E+04  0.12699999809E+01 0.  1.
</event>
<event>
 5   0  0.1830902E-07  0.3089965E+04  0.7818609E-02  0.8218497E-01
       -1   -1    0    0    0  501  0.00000000000E+00  0.00000000000E+00  0.77046123648E+03  0.77046123650E+03  0.50400001928E-02 0. -1.
        1   -1    0    0  501    0  0.00000000000E+00  0.00000000000E+00 -0.30981058994E+04  0.30981058994E+04  0.50400001928E-02 0.  1.
    10030    2    1    2    0    0  0.00000000000E+00  0.00000000000E+00 -0.23276446629E+04  0.38685671359E+04  0.30899647260E+04 0.  0.
        3    1    3    3  502    0  0.85522331439E+03 -0.26952169087E+03 -0.27389883117E+04  0.28820315476E+04  0.10100000352E+00 0.  1.
       -3    1    3    3    0  502 -0.85522331439E+03  0.26952169087E+03  0.41134364884E+03  0.98653558829E+03  0.10100000352E+00 0. -1.
</event>
<event>
 5   0  0.5248309E-07  0.3103566E+04  0.7818609E-02  0.8214760E-01
        2   -1    0    0  501    0  0.00000000000E+00  0.00000000000E+00  0.14839227359E+04  0.14839227359E+04  0.25500000920E-02 0.  1.
       -2   -1    0    0    0  501  0.00000000000E+00  0.00000000000E+00 -0.16227462287E+04  0.16227462287E+04  0.25500000920E-02 0. -1.
    10030    2    1    2    0    0  0.00000000000E+00  0.00000000000E+00 -0.13882349280E+03  0.31066689646E+04  0.31035657063E+04 0.  0.
        4    1    3    3  502    0  0.13153560644E+02  0.87368279941E+03  0.12142642822E+04  0.14959725967E+04  0.12699999809E+01 0.  1.
       -4    1    3    3    0  502 -0.13153560644E+02 -0.87368279941E+03 -0.13530877750E+04  0.16106963680E+04  0.12699999809E+01 0. -1.
</event>
<event>
 5   0  0.1814075E-07  0.3102224E+04  0.7818609E-02  0.8215128E-01
       -1   -1    0    0    0  501  0.00000000000E+00  0.00000000000E+00  0.11409033260E+04  0.11409033260E+04  0.50400001928E-02 0. -1.
        1   -1    0    0  501    0  0.00000000000E+00  0.00000000000E+00 -0.21088095504E+04  0.21088095504E+04  0.50400001928E-02 0.  1.
    10030    2    1    2    0    0  0.00000000000E+00  0.00000000000E+00 -0.96790622444E+03  0.32497128765E+04  0.31022236090E+04 0.  0.
        5    1    3    3  502    0  0.17915452487E+01 -0.14871161661E+04 -0.94583294737E+03  0.17624243971E+04  0.46999998093E+01 0. -1.
       -5    1    3    3    0  502 -0.17915452487E+01  0.14871161661E+04 -0.22073277067E+02  0.14872884793E+04  0.46999998093E+01 0.  1.
</event>
<event>
 5   0  0.5154105E-07  0.3100520E+04  0.7818609E-02  0.8215595E-01
       -2   -1    0    0    0  501  0.00000000000E+00  0.00000000000E+00  0.10210440492E+04  0.10210440492E+04  0.25500000920E-02 0.  1.
        2   -1    0    0  501    0  0.00000000000E+00  0.00000000000E+00 -0.23537736871E+04  0.23537736871E+04  0.25500000920E-02 0. -1.
    10030    2    1    2    0    0  0.00000000000E+00  0.00000000000E+00 -0.13327296379E+04  0.33748177364E+04  0.31005203541E+04 0.  0.
        1    1    3    3  502    0 -0.16713475728E+03  0.67880586733E+03 -0.21724662363E+04  0.22821746165E+04  0.50400001928E-02 0. -1.
       -1    1    3    3    0  502  0.16713475728E+03 -0.67880586733E+03  0.83973659838E+03  0.10926431198E+04  0.50400001928E-02 0.  1.
</event>
<event>
 5   0  0.1845123E-07  0.3098929E+04  0.7818609E-02  0.8216032E-01
        1   -1    0    0  501    0  0.00000000000E+00  0.00000000000E+00  0.20341243654E+04  0.20341243654E+04  0.50400001928E-02 0. -1.
       -1   -1    0    0    0  501  0.00000000000E+00  0.00000000000E+00 -0.11802816762E+04  0.11802816763E+04  0.50400001928E-02 0.  1.
    10030    2    1    2    0    0  0.00000000000E+00  0.00000000000E+00  0.85384268918E+03  0.32144060417E+04  0.30989286637E+04 0.  0.
        2    1    3    3  502    0 -0.10418815067E+04 -0.11103249477E+04  0.72485472445E+03  0.16863430657E+04  0.25500000920E-02 0. -1.
       -2    1    3    3    0  502  0.10418815067E+04  0.11103249477E+04  0.12898796473E+03  0.15280629760E+04  0.25500000920E-02 0.  1.
</event>
<event>
 5   0  0.5376678E-07  0.3102165E+04  0.7818609E-02  0.8215144E-01
        2   -1    0    0  501    0  0.00000000000E+00  0.00000000000E+00  0.19389797770E+04  0.19389797770E+04  0.25500000920E-02 0. -1.
       -2   -1    0    0    0  501  0.00000000000E+00  0.00000000000E+00 -0.12407848685E+04  0.12407848685E+04  0.25500000920E-02 0.  1.
    10030    2    1    2    0    0  0.00000000000E+00  0.00000000000E+00  0.69819490841E+03  0.31797646455E+04  0.31021649006E+04 0.  0.
        5    1    3    3  502    0  0.27083314334E+03 -0.16739389242E+03  0.19051168326E+04  0.19315443413E+04  0.46999998093E+01 0. -1.
       -5    1    3    3    0  502 -0.27083314334E+03  0.16739389242E+03 -0.12069219242E+04  0.12482203042E+04  0.46999998093E+01 0.  1.
</event>
<event>
 5   0  0.1830902E-07  0.3100086E+04  0.7818609E-02  0.8215714E-01
       -1   -1    0    0    0  501  0.00000000000E+00  0.00000000000E+00  0.14268294288E+04  0.14268294289E+04  0.50400001928E-02 0. -1.
        1   -1    0    0  501    0  0.00000000000E+00  0.00000000000E+00 -0.16838969202E+04  0.16838969202E+04  0.50400001928E-02 0.  1.
    10030    2    1    2    0    0  0.00000000000E+00  0.00000000000E+00 -0.25706749137E+03  0.31107263491E+04  0.31000862446E+04 0.  0.
        3    1    3    3  502    0 -0.16061011522E+03 -0.10752218819E+04 -0.12371950815E+04  0.16469819016E+04  0.10100000352E+00 0.  1.
       -3    1    3    3    0  502  0.16061011522E+03  0.10752218819E+04  0.98012759010E+03  0.14637444475E+04  0.10100000352E+00 0. -1.
</event>
<event>
 5   0  0.1830902E-07  0.3106904E+04  0.7818609E-02  0.8213846E-01
        1   -1    0    0  501    0  0.00000000000E+00  0.00000000000E+00  0.17073348089E+04  0.17073348090E+04  0.50400001928E-02 0.  1.
       -1   -1    0    0    0  501  0.00000000000E+00  0.00000000000E+00 -0.14134385687E+04  0.14134385687E+04  0.50400001928E-02 0. -1.
    10030    2    1    2    0    0  0.00000000000E+00  0.00000000000E+00  0.29389624022E+03  0.31207733777E+04  0.31069038406E+04 0.  0.
        3    1    3    3  502    0 -0.12274394977E+03  0.45564192043E+03 -0.13397053164E+04  0.14203823365E+04  0.10100000352E+00 0. -1.
       -3    1    3    3    0  502  0.12274394977E+03 -0.45564192043E+03  0.16336015566E+04  0.17003910412E+04  0.10100000352E+00 0.  1.
</event>
<event>
 5   0  0.1727000E-07  0.3097078E+04  0.7818609E-02  0.8216540E-01
       -3   -1    0    0    0  501  0.00000000000E+00  0.00000000000E+00  0.19844812479E+04  0.19844812504E+04  0.10100000352E+00 0. -1.
        3   -1    0    0  501    0  0.00000000000E+00  0.00000000000E+00 -0.12083627354E+04  0.12083627396E+04  0.10100000352E+00 0.  1.
    10030    2    1    2    0    0  0.00000000000E+00  0.00000000000E+00  0.77611851249E+03  0.31928439901E+04  0.30970781068E+04 0.  0.
        4    1    3    3  502    0 -0.87209023847E+03 -0.11740689140E+04 -0.13658997432E+03  0.14688899322E+04  0.12699999809E+01 0.  1.
       -4    1    3    3    0  502  0.87209023847E+03  0.11740689140E+04  0.91270848680E+03  0.17239540579E+04  0.12699999809E+01 0. -1.
</event>
<event>
 5   0  0.1840359E-07  0.3092473E+04  0.7818609E-02  0.8217807E-01
       -1   -1    0    0    0  501  0.00000000000E+00  0.00000000000E+00  0.15210791500E+04  0.15210791501E+04  0.50400001928E-02 0. -1.
        1   -1    0    0  501    0  0.00000000000E+00  0.00000000000E+00 -0.15718100945E+04  0.15718100945E+04  0.50400001928E-02 0.  1.
    10030    2    1    2    0    0  0.00000000000E+00  0.00000000000E+00 -0.50730944458E+02  0.30928892446E+04  0.30924731608E+04 0.  0.
        1    1    3    3  502    0 -0.12562380919E+04 -0.42042362893E+03 -0.82294213645E+03  0.15595268293E+04  0.50400001928E-02 0. -1.
       -1    1    3    3    0  502  0.12562380919E+04  0.42042362893E+03  0.77221119200E+03  0.15333624152E+04  0.50400001928E-02 0.  1.
</event>
<event>
 5   0  0.1845123E-07  0.3090329E+04  0.7818609E-02  0.8218397E-01
        1   -1    0    0  501    0  0.00000000000E+00  0.00000000000E+00  0.25446953967E+04  0.25446953967E+04  0.50400001928E-02 0. -1.
       -1   -1    0    0    0  501  0.00000000000E+00  0.00000000000E+00 -0.93823910304E+03  0.93823910305E+03  0.50400001928E-02 0.  1.
    10030    2    1    2    0    0  0.00000000000E+00  0.00000000000E+00  0.16064562937E+04  0.34829344998E+04  0.30903286081E+04 0.  0.
        2    1    3    3  502    0  0.83304660087E+03  0.33443039038E+03 -0.61421542122E+03  0.10876906311E+04  0.25500000920E-02 0.  1.
       -2    1    3    3    0  502 -0.83304660087E+03 -0.33443039038E+03  0.22206717149E+04  0.23952438687E+04  0.25500000920E-02 0. -1.
</event>
<event>
 5   0  0.1814075E-07  0.3109687E+04  0.7818609E-02  0.8213084E-01
       -1   -1    0    0    0  501  0.00000000000E+00  0.00000000000E+00  0.74702611449E+03  0.74702611451E+03  0.50400001928E-02 0. -1.
        1   -1    0    0  501    0  0.00000000000E+00  0.00000000000E+00 -0.32362168297E+04  0.32362168297E+04  0.50400001928E-02 0.  1.
    10030    2    1    2    0    0  0.00000000000E+00  0.00000000000E+00 -0.24891907152E+04  0.39832429442E+04  0.31096871122E+04 0.  0.
        5    1    3    3  502    0 -0.77679142934E+03  0.10146475351E+04 -0.10999016884E+03  0.12825889725E+04  0.46999998093E+01 0. -1.
       -5    1    3    3    0  502  0.77679142934E+03 -0.10146475351E+04 -0.23792005464E+04  0.27006539717E+04  0.46999998093E+01 0.  1.
</event>
<event>
 5   0  0.5376678E-07  0.3099743E+04  0.7818609E-02  0.8215808E-01
       -2   -1    0    0    0  501  0.00000000000E+00  0.00000000000E+00  0.25484104677E+04  0.25484104677E+04  0.25500000920E-02 0. -1.
        2   -1    0    0  501    0  0.00000000000E+00  0.00000000000E+00 -0.94258849478E+03  0.94258849478E+03  0.25500000920E-02 0.  1.
    10030    2    1    2    0    0  0.00000000000E+00  0.00000000000E+00  0.16058219729E+04  0.34909989625E+04  0.30997434648E+04 0.  0.
        5    1    3    3  502    0 -0.76691196587E+03  0.34885880385E+03 -0.66214045774E+03  0.10715915753E+04  0.46999998093E+01 0.  1.
       -5    1    3    3    0  502  0.76691196587E+03 -0.34885880385E+03  0.22679624307E+04  0.24194073872E+04  0.46999998093E+01 0. -1.
</event>
<event>
 5   0  0.1814075E-07  0.3103436E+04  0.7818609E-02  0.8214796E-01
        1   -1    0    0  501    0  0.00000000000E+00  0.00000000000E+00  0.17968791987E+04  0.17968791987E+04  0.50400001928E-02 0.  1.
       -1   -1    0    0    0  501  0.00000000000E+00  0.00000000000E+00 -0.13400061190E+04  0.13400061190E+04  0.50400001928E-02 0. -1.
    10030    2    1    2    0    0  0.00000000000E+00  0.00000000000E+00  0.45687307970E+03  0.31368853177E+04  0.31034362383E+04 0.  0.
        5    1    3    3  502    0 -0.37950567641E+03 -0.12486110650E+04  0.10769803007E+04  0.16920291984E+04  0.46999998093E+01 0.  1.
       -5    1    3    3    0  502  0.37950567641E+03  0.12486110650E+04 -0.62010722098E+03  0.14448561193E+04  0.46999998093E+01 0. -1.
</event>
<event>
 5   0  0.5154105E-07  0.3116096E+04  0.7818609E-02  0.8211334E-01
       -2   -1    0    0    0  501  0.00000000000E+00  0.00000000000E+00  0.10164367447E+04  0.10164367447E+04  0.25500000920E-02 0.  1.
        2   -1    0    0  501    0  0.00000000000E+00  0.00000000000E+00 -0.23882584587E+04  0.23882584587E+04  0.25500000920E-02 0. -1.
    10030    2    1    2    0    0  0.00000000000E+00  0.00000000000E+00 -0.13718217140E+04  0.34046952035E+04  0.31160960533E+04 0.  0.
        1    1    3    3  502    0  0.12244734867E+04  0.93715216137E+03 -0.44177993753E+03  0.16039822338E+04  0.50400001928E-02 0.  1.
       -1    1    3    3    0  502 -0.12244734867E+04 -0.93715216137E+03 -0.93004177649E+03  0.18007129697E+04  0.50400001928E-02 0. -1.
</event>
<event>
 5   0  0.1840359E-07  0.3153894E+04  0.7818609E-02  0.8201101E-01
        1   -1    0    0  501    0  0.00000000000E+00  0.00000000000E+00  0.16816390351E+04  0.16816390351E+04  0.50400001928E-02 0.  1.
       -1   -1    0    0    0  501  0.00000000000E+00  0.00000000000E+00 -0.14787726459E+04  0.14787726459E+04  0.50400001928E-02 0. -1.
    10030    2    1    2    0    0  0.00000000000E+00  0.00000000000E+00  0.20286638917E+03  0.31604116810E+04  0.31538939776E+04 0.  0.
        1    1    3    3  502    0 -0.10410741566E+04  0.64190599213E+03 -0.89605503527E+03  0.15161772088E+04  0.50400001928E-02 0. -1.
       -1    1    3    3    0  502  0.10410741566E+04 -0.64190599213E+03  0.10989214244E+04  0.16442344722E+04  0.50400001928E-02 0.  1.
</event>
<event>
 5   0  0.5248309E-07  0.3093674E+04  0.7818609E-02  0.8217476E-01
       -2   -1    0    0    0  501  0.00000000000E+00  0.00000000000E+00  0.18412638417E+04  0.18412638417E+04  0.25500000920E-02 0.  1.
        2   -1    0    0  501    0  0.00000000000E+00  0.00000000000E+00 -0.12994903517E+04  0.12994903517E+04  0.25500000920E-02 0. -1.
    10030    2    1    2    0    0  0.00000000000E+00  0.00000000000E+00  0.54177349004E+03  0.31407541934E+04  0.30936739306E+04 0.  0.
        4    1    3    3  502    0  0.12437685733E+04 -0.90430735332E+03  0.10109644663E+03  0.15410886275E+04  0.12699999809E+01 0. -1.
       -4    1    3    3    0  502 -0.12437685733E+04  0.90430735332E+03  0.44067704341E+03  0.15996655659E+04  0.12699999809E+01 0.  1.
</event>
<event>
 5   0  0.5342534E-07  0.3093453E+04  0.7818609E-02  0.8217537E-01
        2   -1    0    0  501    0  0.00000000000E+00  0.00000000000E+00  0.15927526959E+04  0.15927526959E+04  0.25500000920E-02 0. -1.
       -2   -1    0    0    0  501  0.00000000000E+00  0.00000000000E+00 -0.15020305535E+04  0.15020305535E+04  0.25500000920E-02 0.  1.
    10030    2    1    2    0    0  0.00000000000E+00  0.00000000000E+00  0.90722142387E+02  0.30947832494E+04  0.30934532248E+04 0.  0.
        3    1    3    3  502    0  0.33208518379E+03  0.91630358981E+03 -0.11561841868E+04  0.15121688801E+04  0.10100000352E+00 0.  1.
       -3    1    3    3    0  502 -0.33208518379E+03 -0.91630358981E+03  0.12469063292E+04  0.15826143693E+04  0.10100000352E+00 0. -1.
</event>
<event>
 5   0  0.1830902E-07  0.3092994E+04  0.7818609E-02  0.8217663E-01
       -1   -1    0    0    0  501  0.00000000000E+00  0.00000000000E+00  0.11393073963E+04  0.11393073963E+04  0.50400001928E-02 0.  1.
        1   -1    0    0  501    0  0.00000000000E+00  0.00000000000E+00 -0.20992162258E+04  0.20992162258E+04  0.50400001928E-02 0. -1.
    10030    2    1    2    0    0  0.00000000000E+00  0.00000000000E+00 -0.95990882948E+03  0.32385236222E+04  0.30929937424E+04 0.  0.
        3    1    3    3  502    0 -0.13148893103E+04  0.20408368981E+03  0.34520485586E+03  0.13746819463E+04  0.10100000352E+00 0.  1.
       -3    1    3    3    0  502  0.13148893103E+04 -0.20408368981E+03 -0.13051136853E+04  0.18638416759E+04  0.10100000352E+00 0. -1.
</event>
<event>
 5   0  0.1814075E-07  0.3099231E+04  0.7818609E-02  0.8215949E-01
       -1   -1    0    0    0  501  0.00000000000E+00  0.00000000000E+00  0.15934614261E+04  0.15934614261E+04  0.50400001928E-02 0. -1.
        1   -1    0    0  501    0  0.00000000000E+00  0.00000000000E+00 -0.15069764565E+04  0.15069764565E+04  0.50400001928E-02 0.  1.
    10030    2    1    2    0    0  0.00000000000E+00  0.00000000000E+00  0.86484969568E+02  0.31004378827E+04  0.30992314232E+04 0.  0.
        5    1    3    3  502    0  0.64299415129E+03 -0.11281364176E+04  0.88923917643E+03  0.15738175429E+04  0.46999998093E+01 0. -1.
       -5    1    3    3    0  502 -0.64299415129E+03  0.11281364176E+04 -0.80275420686E+03  0.15266203398E+04  0.46999998093E+01 0.  1.
</event>
<event>
 5   0  0.1727000E-07  0.3095032E+04  0.7818609E-02  0.8217103E-01
        3   -1    0    0  501    0  0.00000000000E+00  0.00000000000E+00  0.16829565069E+04  0.16829565099E+04  0.10100000352E+00 0. -1.
       -3   -1    0    0    0  501  0.00000000000E+00  0.00000000000E+00 -0.14229756116E+04  0.14229756152E+04  0.10100000352E+00 0.  1.
    10030    2    1    2    0    0  0.00000000000E+00  0.00000000000E+00  0.25998089523E+03  0.31059321251E+04  0.30950321969E+04 0.  0.
        3    1    3    3  502    0 -0.94282109790E+03  0.32514783437E+03  0.13174468946E+04  0.16523616635E+04  0.10100000352E+00 0. -1.
       -3    1    3    3    0  502  0.94282109790E+03 -0.32514783437E+03 -0.10574659993E+04  0.14535704616E+04  0.10100000352E+00 0.  1.
</event>
<event>
 5   0  0.1875284E-07  0.3108479E+04  0.7818609E-02  0.8213415E-01
       -1   -1    0    0    0  501  0.00000000000E+00  0.00000000000E+00  0.18065345898E+04  0.18065345898E+04  0.50400001928E-02 0. -1.
        1   -1    0    0  501    0  0.00000000000E+00  0.00000000000E+00 -0.13371795450E+04  0.13371795450E+04  0.50400001928E-02 0.  1.
    10030    2    1    2    0    0  0.00000000000E+00  0.00000000000E+00  0.46935504486E+03  0.31437141348E+04  0.31084794358E+04 0.  0.
        4    1    3    3  502    0  0.39055636797E+03 -0.13998168995E+04 -0.32260190320E+03  0.14886555107E+04  0.12699999809E+01 0.  1.
       -4    1    3    3    0  502 -0.39055636797E+03  0.13998168995E+04  0.79195694806E+03  0.16550586241E+04  0.12699999809E+01 0. -1.
</event>
<event>
 5   0  0.5342534E-07  0.3106244E+04  0.7818609E-02  0.8214026E-01
       -2   -1    0    0    0  501  0.00000000000E+00  0.00000000000E+00  0.25349675089E+04  0.25349675089E+04  0.25500000920E-02 0.  1.
        2   -1    0    0  501    0  0.00000000000E+00  0.00000000000E+00 -0.95156580558E+03  0.95156580559E+03  0.25500000920E-02 0. -1.
    10030    2    1    2    0    0  0.00000000000E+00  0.00000000000E+00  0.15834017033E+04  0.34865333144E+04  0.31062442916E+04 0.  0.
        3    1    3    3  502    0 -0.87837505391E+03  0.75844810271E+03  0.19502514121E+04  0.22694199348E+04  0.10100000352E+00 0.  1.
       -3    1    3    3    0  502  0.87837505391E+03 -0.75844810271E+03 -0.36684970884E+03  0.12171133796E+04  0.10100000352E+00 0. -1.
</event>
<event>
 5   0  0.5055900E-07  0.3097008E+04  0.7818609E-02  0.8216559E-01
       -2   -1    0    0    0  501  0.00000000000E+00  0.00000000000E+00  0.15661338368E+04  0.15661338368E+04  0.25500000920E-02 0. -1.
        2   -1    0    0  501    0  0.00000000000E+00  0.00000000000E+00 -0.15310728247E+04  0.15310728247E+04  0.25500000920E-02 0.  1.
    10030    2    1    2    0    0  0.00000000000E+00  0.00000000000E+00  0.35061012140E+02  0.30972066615E+04  0.30970082062E+04 0.  0.
        2    1    3    3  502    0  0.10676549869E+04  0.24281323907E+03  0.11125981695E+04  0.15609997204E+04  0.25500000920E-02 0. -1.
       -2    1    3    3    0  502 -0.10676549869E+04 -0.24281323907E+03 -0.10775371574E+04  0.15362069411E+04  0.25500000920E-02 0.  1.
</event>
<event>
 5   0  0.5342534E-07  0.3169505E+04  0.7818609E-02  0.8196918E-01
       -2   -1    0    0    0  501  0.00000000000E+00  0.00000000000E+00  0.14090234831E+04  0.14090234831E+04  0.25500000920E-02 0. -1.
        2   -1    0    0  501    0  0.00000000000E+00  0.00000000000E+00 -0.17823980488E+04  0.17823980488E+04  0.25500000920E-02 0.  1.
    10030    2    1    2    0    0  0.00000000000E+00  0.00000000000E+00 -0.37337456578E+03  0.31914215319E+04  0.31695051393E+04 0.  0.
        3    1    3    3  502    0 -0.69545714158E+03 -0.67072858860E+03 -0.14515194206E+04  0.17436875047E+04  0.10100000352E+00 0.  1.
       -3    1    3    3    0  502  0.69545714158E+03  0.67072858860E+03  0.10781448548E+04  0.14477340272E+04  0.10100000352E+00 0. -1.
</event>
<event>
 5   0  0.5055900E-07  0.3100832E+04  0.7818609E-02  0.8215510E-01
        2   -1    0    0  501    0  0.00000000000E+00  0.00000000000E+00  0.13920185521E+04  0.13920185521E+04  0.25500000920E-02 0. -1.
       -2   -1    0    0    0  501  0.00000000000E+00  0.00000000000E+00 -0.17268370248E+04  0.17268370248E+04  0.25500000920E-02 0.  1.
    10030    2    1    2    0    0  0.00000000000E+00  0.00000000000E+00 -0.33481847270E+03  0.31188555769E+04  0.31008316142E+04 0.  0.
        2    1    3    3  502    0 -0.35713043051E+03 -0.28831007247E+02  0.13498069470E+04  0.13965500941E+04  0.25500000920E-02 0. -1.
       -2    1    3    3    0  502  0.35713043051E+03  0.28831007247E+02 -0.16846254197E+04  0.17223054828E+04  0.25500000920E-02 0.  1.
</event>
<event>
 5   0  0.5342534E-07  0.3103741E+04  0.7818609E-02  0.8214712E-01
        2   -1    0    0  501    0  0.00000000000E+00  0.00000000000E+00  0.16862754234E+04  0.16862754234E+04  0.25500000920E-02 0.  1.
       -2   -1    0    0    0  501  0.00000000000E+00  0.00000000000E+00 -0.14281785129E+04  0.14281785129E+04  0.25500000920E-02 0. -1.
    10030    2    1    2    0    0  0.00000000000E+00  0.00000000000E+00  0.25809691056E+03  0.31144539363E+04  0.31037411790E+04 0.  0.
        3    1    3    3  502    0  0.61982024158E+03  0.28671286156E+03  0.15273865324E+04  0.16731081932E+04  0.10100000352E+00 0.  1.
       -3    1    3    3    0  502 -0.61982024158E+03 -0.28671286156E+03 -0.12692896218E+04  0.14413457431E+04  0.10100000352E+00 0. -1.
</event>
<event>
 5   0  0.5376678E-07  0.3096913E+04  0.7818609E-02  0.8216586E-01
        2   -1    0    0  501    0  0.00000000000E+00  0.00000000000E+00  0.24612615292E+04  0.24612615292E+04  0.25500000920E-02 0. -1.
       -2   -1    0    0    0  501  0.00000000000E+00  0.00000000000E+00 -0.97418220333E+03  0.97418220334E+03  0.25500000920E-02 0.  1.
    10030    2    1    2    0    0  0.00000000000E+00  0.00000000000E+00  0.14870793259E+04  0.34354437325E+04  0.30969127721E+04 0.  0.
        5    1    3    3  502    0 -0.38713866156E+03  0.88422973212E+03 -0.59957908865E+03  0.11363343416E+04  0.46999998093E+01 0.  1.
       -5    1    3    3    0  502  0.38713866156E+03 -0.88422973212E+03  0.20866584145E+04  0.22991093909E+04  0.46999998093E+01 0. -1.
</event>
<event>
 5   0  0.5248309E-07  0.3098078E+04  0.7818609E-02  0.8216266E-01
        2   -1    0    0  501    0  0.00000000000E+00  0.00000000000E+00  0.17290576353E+04  0.17290576353E+04  0.25500000920E-02 0.  1.
       -2   -1    0    0    0  501  0.00000000000E+00  0.00000000000E+00 -0.13877626210E+04  0.13877626210E+04  0.25500000920E-02 0. -1.
    10030    2    1    2    0    0  0.00000000000E+00  0.00000000000E+00  0.34129501427E+03  0.31168202563E+04  0.30980778272E+04 0.  0.
        4    1    3    3  502    0 -0.26920715770E+03 -0.11709634844E+04  0.11542595565E+04  0.16661166562E+04  0.12699999809E+01 0.  1.
       -4    1    3    3    0  502  0.26920715770E+03  0.11709634844E+04 -0.81296454219E+03  0.14507036001E+04  0.12699999809E+01 0. -1.
</event>
<event>
 5   0  0.5248309E-07  0.3097834E+04  0.7818609E-02  0.8216333E-01
       -2   -1    0    0    0  501  0.00000000000E+00  0.00000000000E+00  0.18182778127E+04  0.18182778127E+04  0.25500000920E-02 0.  1.
        2   -1    0    0  501    0  0.00000000000E+00  0.00000000000E+00 -0.13194594334E+04  0.13194594334E+04  0.25500000920E-02 0. -1.
    10030    2    1    2    0    0  0.00000000000E+00  0.00000000000E+00  0.49881837933E+03  0.31377372461E+04  0.30978339610E+04 0.  0.
        4    1    3    3  502    0 -0.74791388640E+01  0.80203876159E+03 -0.10927327360E+04  0.13555030645E+04  0.12699999809E+01 0. -1.
       -4    1    3    3    0  502  0.74791388640E+01 -0.80203876159E+03  0.15915511153E+04  0.17822341816E+04  0.12699999809E+01 0.  1.
</event>
<event>
 5   0  0.1840359E-07  0.3103110E+04  0.7818609E-02  0.8214885E-01
       -1   -1    0    0    0  501  0.00000000000E+00  0.00000000000E+00  0.22927836694E+04  0.22927836694E+04  0.50400001928E-02 0.  1.
        1   -1    0    0  501    0  0.00000000000E+00  0.00000000000E+00 -0.10499565251E+04  0.10499565251E+04  0.50400001928E-02 0. -1.
    10030    2    1    2    0    0  0.00000000000E+00  0.00000000000E+00  0.12428271444E+04  0.33427401945E+04  0.31031101652E+04 0.  0.
        1    1    3    3  502    0 -0.85085648720E+03  0.70048287929E+03  0.17978521177E+04  0.21087686604E+04  0.50400001928E-02 0. -1.
       -1    1    3    3    0  502  0.85085648720E+03 -0.70048287929E+03 -0.55502497330E+03  0.12339715341E+04  0.50400001928E-02 0.  1.
</event>
<event>
 5   0  0.5055900E-07  0.3103535E+04  0.7818609E-02  0.8214768E-01
        2   -1    0    0  501    0  0.00000000000E+00  0.00000000000E+00  0.19353011279E+04  0.19353011279E+04  0.25500000920E-02 0. -1.
       -2   -1    0    0    0  501  0.00000000000E+00  0.00000000000E+00 -0.12442415690E+04  0.12442415690E+04  0.25500000920E-02 0.  1.
    10030    2    1    2    0    0  0.00000000000E+00  0.00000000000E+00  0.69105955884E+03  0.31795426969E+04  0.31035348311E+04 0.  0.
        2    1    3    3  502    0  0.81742720532E+03  0.81632652463E+03  0.14069565153E+04  0.18204677604E+04  0.25500000920E-02 0. -1.
       -2    1    3    3    0  502 -0.81742720532E+03 -0.81632652463E+03 -0.71589695644E+03  0.13590749365E+04  0.25500000920E-02 0.  1.
</event>
<event>
 5   0  0.1814075E-07  0.3095640E+04  0.7818609E-02  0.8216935E-01
       -1   -1    0    0    0  501  0.00000000000E+00  0.00000000000E+00  0.13853564882E+04  0.13853564882E+04  0.50400001928E-02 0.  1.
        1   -1    0    0  501    0  0.00000000000E+00  0.00000000000E+00 -0.17293364046E+04  0.17293364046E+04  0.50400001928E-02 0. -1.
    10030    2    1    2    0    0  0.00000000000E+00  0.00000000000E+00 -0.34397991636E+03  0.31146928928E+04  0.30956404238E+04 0.  0.
        5    1    3    3  502    0  0.12653666090E+03  0.13013766398E+04 -0.10054192504E+04  0.16493885668E+04  0.46999998093E+01 0. -1.
       -5    1    3    3    0  502 -0.12653666090E+03 -0.13013766398E+04  0.66143933409E+03  0.14653043260E+04  0.46999998093E+01 0.  1.
</event>
<event>
 5   0  0.1875284E-07  0.3120747E+04  0.7818609E-02  0.8210067E-01
       -1   -1    0    0    0  501  0.00000000000E+00  0.00000000000E+00  0.12577521306E+04  0.12577521306E+04  0.50400001928E-02 0.  1.
        1   -1    0    0  501    0  0.00000000000E+00  0.00000000000E+00 -0.19358075645E+04  0.19358075645E+04  0.50400001928E-02 0. -1.
    10030    2    1    2    0    0  0.00000000000E+00  0.00000000000E+00 -0.67805543388E+03  0.31935596952E+04  0.31207474033E+04 0.  0.
        4    1    3    3  502    0  0.13837721473E+04 -0.11171643813E+03  0.38995412580E+03  0.14420026877E+04  0.12699999809E+01 0.  1.
       -4    1    3    3    0  502 -0.13837721473E+04  0.11171643813E+03 -0.10680095597E+04  0.17515570075E+04  0.12699999809E+01 0. -1.
</event>
<event>
 5   0  0.1814075E-07  0.3106786E+04  0.7818609E-02  0.8213878E-01
       -1   -1    0    0    0  501  0.00000000000E+00  0.00000000000E+00  0.12848446961E+04  0.12848446961E+04  0.50400001928E-02 0.  1.
        1   -1    0    0  501    0  0.00000000000E+00  0.00000000000E+00 -0.18780716853E+04  0.18780716853E+04  0.50400001928E-02 0. -1.
    10030    2    1    2    0    0  0.00000000000E+00  0.00000000000E+00 -0.59322698920E+03  0.31629163814E+04  0.31067864064E+04 0.  0.
        5    1    3    3  502    0  0.58974420663E+03  0.10837567919E+04  0.66419645418E+03  0.14012515951E+04  0.46999998093E+01 0.  1.
       -5    1    3    3    0  502 -0.58974420663E+03 -0.10837567919E+04 -0.12574234434E+04  0.17616647863E+04  0.46999998093E+01 0. -1.
</event>
<event>
 5   0  0.5154105E-07  0.3089345E+04  0.7818609E-02  0.8218668E-01
       -2   -1    0    0    0  501  0.00000000000E+00  0.00000000000E+00  0.10624573380E+04  0.10624573380E+04  0.25500000920E-02 0. -1.
        2   -1    0    0  501    0  0.00000000000E+00  0.00000000000E+00 -0.22457498398E+04  0.22457498398E+04  0.25500000920E-02 0.  1.
    10030    2    1    2    0    0  0.00000000000E+00  0.00000000000E+00 -0.11832925019E+04  0.33082071778E+04  0.30893451711E+04 0.  0.
        1    1    3    3  502    0  0.17101954728E+03 -0.28654395930E+03 -0.22066902010E+04  0.22317788352E+04  0.50400001928E-02 0.  1.
       -1    1    3    3    0  502 -0.17101954728E+03  0.28654395930E+03  0.10233976991E+04  0.10764283426E+04  0.50400001928E-02 0. -1.
</event>
<event>
 5   0  0.5342534E-07  0.3142006E+04  0.7818609E-02  0.8204303E-01
       -2   -1    0    0    0  501  0.00000000000E+00  0.00000000000E+00  0.15362491392E+04  0.15362491392E+04  0.25500000920E-02 0.  1.
        2   -1    0    0  501    0  0.00000000000E+00  0.00000000000E+00 -0.16065426848E+04  0.16065426848E+04  0.25500000920E-02 0. -1.
    10030    2    1    2    0    0  0.00000000000E+00  0.00000000000E+00 -0.70293545616E+02  0.31427918240E+04  0.31420056121E+04 0.  0.
        3    1    3    3  502    0 -0.17902442932E+03 -0.86008904701E+03 -0.13378731018E+04  0.16005334616E+04  0.10100000352E+00 0. -1.
       -3    1    3    3    0  502  0.17902442932E+03  0.86008904701E+03  0.12675795562E+04  0.15422583624E+04  0.10100000352E+00 0.  1.
</event>
<event>
 5   0  0.5376678E-07  0.3101118E+04  0.7818609E-02  0.8215431E-01
       -2   -1    0    0    0  501  0.00000000000E+00  0.00000000000E+00  0.10080965094E+04  0.10080965094E+04  0.25500000920E-02 0.  1.
        2   -1    0    0  501    0  0.00000000000E+00  0.00000000000E+00 -0.23849232844E+04  0.23849232844E+04  0.25500000920E-02 0. -1.
    10030    2    1    2    0    0  0.00000000000E+00  0.00000000000E+00 -0.13768267750E+04  0.33930197938E+04  0.31011177586E+04 0.  0.
        5    1    3    3  502    0  0.13538080209E+04  0.67260043978E+02  0.13537903454E+03  0.13622296591E+04  0.46999998093E+01 0.  1.
       -5    1    3    3    0  502 -0.13538080209E+04 -0.67260043978E+02 -0.15122058096E+04  0.20307901348E+04  0.46999998093E+01 0. -1.
</event>
<event>
 5   0  0.1814075E-07  0.3100623E+04  0.7818609E-02  0.8215567E-01
        1   -1    0    0  501    0  0.00000000000E+00  0.00000000000E+00  0.18170975287E+04  0.18170975287E+04  0.50400001928E-02 0.  1.
       -1   -1    0    0    0  501  0.00000000000E+00  0.00000000000E+00 -0.13226945414E+04  0.13226945414E+04  0.50400001928E-02 0. -1.
    10030    2    1    2    0    0  0.00000000000E+00  0.00000000000E+00  0.49440298737E+03  0.31397920701E+04  0.31006225068E+04 0.  0.
        5    1    3    3  502    0 -0.65587071626E+03 -0.14396601762E+03 -0.11677876454E+04  0.13470867401E+04  0.46999998093E+01 0. -1.
       -5    1    3    3    0  502  0.65587071626E+03  0.14396601762E+03  0.16621906327E+04  0.17927053300E+04  0.46999998093E+01 0.  1.
</event>
<event>
 5   0  0.5342534E-07  0.3103702E+04  0.7818609E-02  0.8214723E-01
       -2   -1    0    0    0  501  0.00000000000E+00  0.00000000000E+00  0.11399423874E+04  0.11399423874E+04  0.25500000920E-02 0. -1.
        2   -1    0    0  501    0  0.00000000000E+00  0.00000000000E+00 -0.21125993391E+04  0.21125993391E+04  0.25500000920E-02 0.  1.
    10030    2    1    2    0    0  0.00000000000E+00  0.00000000000E+00 -0.97265695165E+03  0.32525417265E+04  0.31037020052E+04 0.  0.
        3    1    3    3  502    0 -0.14191991581E+03  0.82661771847E+03  0.88196738298E+03  0.12170885711E+04  0.10100000352E+00 0. -1.
       -3    1    3    3    0  502  0.14191991581E+03 -0.82661771847E+03 -0.18546243346E+04  0.20354531554E+04  0.10100000352E+00 0.  1.
</event>
<event>
 5   0  0.5248309E-07  0.3100769E+04  0.7818609E-02  0.8215527E-01
       -2   -1    0    0    0  501  0.00000000000E+00  0.00000000000E+00  0.15330025235E+04  0.15330025235E+04  0.25500000920E-02 0.  1.
        2   -1    0    0  501    0  0.00000000000E+00  0.00000000000E+00 -0.15679631118E+04  0.15679631118E+04  0.25500000920E-02 0. -1.
    10030    2    1    2    0    0  0.00000000000E+00  0.00000000000E+00 -0.34960588336E+02  0.31009656353E+04  0.31007685545E+04 0.  0.
        4    1    3    3  502    0 -0.11504247110E+04  0.10011733573E+04 -0.29654047651E+03  0.15536289693E+04  0.12699999809E+01 0. -1.
       -4    1    3    3    0  502  0.11504247110E+04 -0.10011733573E+04  0.26157988817E+03  0.15473366660E+04  0.12699999809E+01 0.  1.
</event>
<event>
 5   0  0.5376678E-07  0.3081372E+04  0.7818609E-02  0.8220869E-01
        2   -1    0    0  501    0  0.00000000000E+00  0.00000000000E+00  0.16476296973E+04  0.16476296973E+04  0.25500000920E-02 0.  1.
       -2   -1    0    0    0  501  0.00000000000E+00  0.00000000000E+00 -0.14406837674E+04  0.14406837674E+04  0.25500000920E-02 0. -1.
    10030    2    1    2    0    0  0.00000000000E+00  0.00000000000E+00  0.20694592988E+03  0.30883134647E+04  0.30813720058E+04 0.  0.
        5    1    3    3  502    0 -0.45200122098E+03 -0.14151943222E+04  0.51257282739E+03  0.15715702551E+04  0.46999998093E+01 0.  1.
       -5    1    3    3    0  502  0.45200122098E+03  0.14151943222E+04 -0.30562689752E+03  0.15167432096E+04  0.46999998093E+01 0. -1.
</event>
<event>
 5   0  0.1814075E-07  0.3098754E+04  0.7818609E-02  0.8216080E-01
        1   -1    0    0  501    0  0.00000000000E+00  0.00000000000E+00  0.13254940039E+04  0.13254940039E+04  0.50400001928E-02 0. -1.
       -1   -1    0    0    0  501  0.00000000000E+00  0.00000000000E+00 -0.18110752723E+04  0.18110752723E+04  0.50400001928E-02 0.  1.
    10030    2    1    2    0    0  0.00000000000E+00  0.00000000000E+00 -0.48558126839E+03  0.31365692762E+04  0.30987542103E+04 0.  0.
        5    1    3    3  502    0 -0.12101051766E+04 -0.95885949583E+03 -0.11166731206E+03  0.15479850612E+04  0.46999998093E+01 0.  1.
       -5    1    3    3    0  502  0.12101051766E+04  0.95885949583E+03 -0.37391395633E+03  0.15885842149E+04  0.46999998093E+01 0. -1.
</event>
<event>
 5   0  0.5342534E-07  0.3097762E+04  0.7818609E-02  0.8216352E-01
        2   -1    0    0  501    0  0.00000000000E+00  0.00000000000E+00  0.25937444092E+04  0.25937444092E+04  0.25500000920E-02 0.  1.
       -2   -1    0    0    0  501  0.00000000000E+00  0.00000000000E+00 -0.92493010812E+03  0.92493010813E+03  0.25500000920E-02 0. -1.
    10030    2    1    2    0    0  0.00000000000E+00  0.00000000000E+00  0.16688143010E+04  0.35186745173E+04  0.30977619643E+04 0.  0.
        3    1    3    3  502    0  0.38415714394E+03 -0.10716558214E+04  0.20273527921E+04  0.23251198388E+04  0.10100000352E+00 0.  1.
       -3    1    3    3    0  502 -0.38415714394E+03  0.10716558214E+04 -0.35853849104E+03  0.11935546785E+04  0.10100000352E+00 0. -1.
</event>
<event>
 5   0  0.5154105E-07  0.3099604E+04  0.7818609E-02  0.8215847E-01
        2   -1    0    0  501    0  0.00000000000E+00  0.00000000000E+00  0.13406657652E+04  0.13406657652E+04  0.25500000920E-02 0. -1.
       -2   -1    0    0    0  501  0.00000000000E+00  0.00000000000E+00 -0.17915619717E+04  0.17915619717E+04  0.25500000920E-02 0.  1.
    10030    2    1    2    0    0  0.00000000000E+00  0.00000000000E+00 -0.45089620658E+03  0.31322277369E+04  0.30996037177E+04 0.  0.
        1    1    3    3  502    0  0.49789493602E+03  0.46928292405E+02 -0.17077836119E+04  0.17795017552E+04  0.50400001928E-02 0.  1.
       -1    1    3    3    0  502 -0.49789493602E+03 -0.46928292405E+02  0.12568874053E+04  0.13527259817E+04  0.50400001928E-02 0. -1.
</event>
<event>
 5   0  0.5248309E-07  0.3090503E+04  0.7818609E-02  0.8218349E-01
        2   -1    0    0  501    0  0.00000000000E+00  0.00000000000E+00  0.18395480975E+04  0.18395480975E+04  0.25500000920E-02 0. -1.
       -2   -1    0    0    0  501  0.00000000000E+00  0.00000000000E+00 -0.12980374449E+04  0.12980374449E+04  0.25500000920E-02 0.  1.
    10030    2    1    2    0    0  0.00000000000E+00  0.00000000000E+00  0.54151065261E+03  0.31375855424E+04  0.30905030738E+04 0.  0.
        4    1    3    3  502    0 -0.13945305999E+04 -0.53455024920E+03  0.67346080343E+03  0.16382950374E+04  0.12699999809E+01 0. -1.
       -4    1    3    3    0  502  0.13945305999E+04  0.53455024920E+03 -0.13195015082E+03  0.14992905050E+04  0.12699999809E+01 0.  1.
</event>
<event>
 5   0  0.5154105E-07  0.3102674E+04  0.7818609E-02  0.8215005E-01
        2   -1    0    0  501    0  0.00000000000E+00  0.00000000000E+00  0.15081531879E+04  0.15081531879E+04  0.25500000920E-02 0. -1.
       -2   -1    0    0    0  501  0.00000000000E+00  0.00000000000E+00 -0.15957570313E+04  0.15957570313E+04  0.25500000920E-02 0.  1.
    10030    2    1    2    0    0  0.00000000000E+00  0.00000000000E+00 -0.87603843374E+02  0.31039102192E+04  0.31026737205E+04 0.  0.
        1    1    3    3  502    0 -0.15013098081E+04  0.55979458715E+02 -0.43071336161E+03  0.15628751836E+04  0.50400001928E-02 0.  1.
       -1    1    3    3    0  502  0.15013098081E+04 -0.55979458715E+02  0.34310951823E+03  0.15410350356E+04  0.50400001928E-02 0. -1.
</event>
<event>
 5   0  0.5342534E-07  0.3096017E+04  0.7818609E-02  0.8216832E-01
       -2   -1    0    0    0  501  0.00000000000E+00  0.00000000000E+00  0.15325448751E+04  0.15325448751E+04  0.25500000920E-02 0.  1.
        2   -1    0    0  501    0  0.00000000000E+00  0.00000000000E+00 -0.15636278543E+04  0.15636278544E+04  0.25500000920E-02 0. -1.
    10030    2    1    2    0    0  0.00000000000E+00  0.00000000000E+00 -0.31082979217E+02  0.30961727295E+04  0.30960167020E+04 0.  0.
        3    1    3    3  502    0  0.17582504355E+03  0.47995852203E+03  0.14457149624E+04  0.15334165747E+04  0.10100000352E+00 0.  1.
       -3    1    3    3    0  502 -0.17582504355E+03 -0.47995852203E+03 -0.14767979416E+04  0.15627561548E+04  0.10100000352E+00 0. -1.
</event>
<event>
 5   0  0.5055900E-07  0.3102357E+04  0.7818609E-02  0.8215091E-01
       -2   -1    0    0    0  501  0.00000000000E+00  0.00000000000E+00  0.11545523066E+04  0.11545523066E+04  0.25500000920E-02 0.  1.
        2   -1    0    0  501    0  0.00000000000E+00  0.00000000000E+00 -0.20840586420E+04  0.20840586420E+04  0.25500000920E-02 0. -1.
    10030    2    1    2    0    0  0.00000000000E+00  0.00000000000E+00 -0.92950633538E+03  0.32386109487E+04  0.31023569829E+04 0.  0.
        2    1    3    3  502    0 -0.14310981933E+04  0.96732388289E+02  0.15173898681E+03  0.14423674684E+04  0.25500000920E-02 0.  1.
       -2    1    3    3    0  502  0.14310981933E+04 -0.96732388289E+02 -0.10812453222E+04  0.17962434803E+04  0.25500000920E-02 0. -1.
</event>
<event>
 5   0  0.5154105E-07  0.3100219E+04  0.7818609E-02  0.8215678E-01
        2   -1    0    0  501    0  0.00000000000E+00  0.00000000000E+00  0.20130296835E+04  0.20130296835E+04  0.25500000920E-02 0. -1.
       -2   -1    0    0    0  501  0.00000000000E+00  0.00000000000E+00 -0.11936436254E+04  0.11936436254E+04  0.25500000920E-02 0.  1.
    10030    2    1    2    0    0  0.00000000000E+00  0.00000000000E+00  0.81938605811E+03  0.32066733089E+04  0.31002193790E+04 0.  0.
        1    1    3    3  502    0 -0.10249634823E+04 -0.26761984513E+03  0.15802183916E+04  0.19024354620E+04  0.50400001928E-02 0. -1.
       -1    1    3    3    0  502  0.10249634823E+04  0.26761984513E+03 -0.76083233352E+03  0.13042378469E+04  0.50400001928E-02 0.  1.
</event>
<event>
 5   0  0.5055900E-07  0.3092631E+04  0.7818609E-02  0.8217763E-01
        2   -1    0    0  501    0  0.00000000000E+00  0.00000000000E+00  0.19063931042E+04  0.19063931042E+04  0.25500000920E-02 0.  1.
       -2   -1    0    0    0  501  0.00000000000E+00  0.00000000000E+00 -0.12542487581E+04  0.12542487581E+04  0.25500000920E-02 0. -1.
    10030    2    1    2    0    0  0.00000000000E+00  0.00000000000E+00  0.65214434612E+03  0.31606418623E+04  0.30926307141E+04 0.  0.
        2    1    3    3  502    0 -0.14326935814E+04  0.65024195104E+02 -0.26478746083E+03  0.14584071597E+04  0.25500000920E-02 0. -1.
       -2    1    3    3    0  502  0.14326935814E+04 -0.65024195104E+02  0.91693180696E+03  0.17022347026E+04  0.25500000920E-02 0.  1.
</event>
<event>
 5   0  0.1840359E-07  0.3105600E+04  0.7818609E-02  0.8214203E-01
        1   -1    0    0  501    0  0.00000000000E+00  0.00000000000E+00  0.13075538233E+04  0.13075538233E+04  0.50400001928E-02 0. -1.
       -1   -1    0    0    0  501  0.00000000000E+00  0.00000000000E+00 -0.18440450956E+04  0.18440450956E+04  0.50400001928E-02 0.  1.
    10030    2    1    2    0    0  0.00000000000E+00  0.00000000000E+00 -0.53649127230E+03  0.31515989188E+04  0.31056002415E+04 0.  0.
        1    1    3    3  502    0 -0.41876986001E+03  0.51628972017E+03  0.11558444594E+04  0.13333790478E+04  0.50400001928E-02 0. -1.
       -1    1    3    3    0  502  0.41876986001E+03 -0.51628972017E+03 -0.16923357317E+04  0.18182198710E+04  0.50400001928E-02 0.  1.
</event>
<event>
 5   0  0.1845123E-07  0.3102173E+04  0.7818609E-02  0.8215142E-01
       -1   -1    0    0    0  501  0.00000000000E+00  0.00000000000E+00  0.12543909061E+04  0.12543909061E+04  0.50400001928E-02 0.  1.
        1   -1    0    0  501    0  0.00000000000E+00  0.00000000000E+00 -0.19179584124E+04  0.19179584124E+04  0.50400001928E-02 0. -1.
    10030    2    1    2    0    0  0.00000000000E+00  0.00000000000E+00 -0.66356750636E+03  0.31723493185E+04  0.31021731678E+04 0.  0.
        2    1    3    3  502    0  0.14435791255E+04  0.56738846068E+03 -0.33626861167E+03  0.15871127673E+04  0.25500000920E-02 0. -1.
       -2    1    3    3    0  502 -0.14435791255E+04 -0.56738846068E+03 -0.32729889469E+03  0.15852365512E+04  0.25500000920E-02 0.  1.
</event>
<event>
 5   0  0.1875284E-07  0.3117737E+04  0.7818609E-02  0.8210887E-01
        1   -1    0    0  501    0  0.00000000000E+00  0.00000000000E+00  0.13656134024E+04  0.13656134024E+04  0.50400001928E-02 0. -1.
       -1   -1    0    0    0  501  0.00000000000E+00  0.00000000000E+00 -0.17794718608E+04  0.17794718608E+04  0.50400001928E-02 0.  1.
    10030    2    1    2    0    0  0.00000000000E+00  0.00000000000E+00 -0.41385845835E+03  0.31450852632E+04  0.31177367575E+04 0.  0.
        4    1    3    3  502    0  0.13571560967E+04 -0.47617939318E+03 -0.81340968369E+03  0.16523487560E+04  0.12699999809E+01 0.  1.
       -4    1    3    3    0  502 -0.13571560967E+04  0.47617939318E+03  0.39955122534E+03  0.14927365071E+04  0.12699999809E+01 0. -1.
</event>
<event>
 5   0  0.1814075E-07  0.3099969E+04  0.7818609E-02  0.8215746E-01
       -1   -1    0    0    0  501  0.00000000000E+00  0.00000000000E+00  0.28078915330E+04  0.28078915330E+04  0.50400001928E-02 0.  1.
        1   -1    0    0  501    0  0.00000000000E+00  0.00000000000E+00 -0.85560737606E+03  0.85560737607E+03  0.50400001928E-02 0. -1.
    10030    2    1    2    0    0  0.00000000000E+00  0.00000000000E+00  0.19522841570E+04  0.36634989091E+04  0.30999694882E+04 0.  0.
        5    1    3    3  502    0 -0.95567730788E+03  0.79587139143E+03  0.20693416965E+04  0.24143171986E+04  0.46999998093E+01 0.  1.
       -5    1    3    3    0  502  0.95567730788E+03 -0.79587139143E+03 -0.11705753948E+03  0.12491817106E+04  0.46999998093E+01 0. -1.
</event>
<event>
 5   0  0.5342534E-07  0.3093184E+04  0.7818609E-02  0.8217611E-01
        2   -1    0    0  501    0  0.00000000000E+00  0.00000000000E+00  0.10654766605E+04  0.10654766605E+04  0.25500000920E-02 0. -1.
       -2   -1    0    0    0  501  0.00000000000E+00  0.00000000000E+00 -0.22449547035E+04  0.22449547035E+04  0.25500000920E-02 0.  1.
    10030    2    1    2    0    0  0.00000000000E+00  0.00000000000E+00 -0.11794780430E+04  0.33104313640E+04  0.30931840168E+04 0.  0.
        3    1    3    3  502    0  0.51092375228E+03  0.74942481625E+03  0.75094718165E+03  0.11775407915E+04  0.10100000352E+00 0. -1.
       -3    1    3    3    0  502 -0.51092375228E+03 -0.74942481625E+03 -0.19304252246E+04  0.21328905724E+04  0.10100000352E+00 0.  1.
</event>
<event>
 5   0  0.5342534E-07  0.3042602E+04  0.7818609E-02  0.8231669E-01
       -2   -1    0    0    0  501  0.00000000000E+00  0.00000000000E+00  0.18677643107E+04  0.18677643107E+04  0.25500000920E-02 0.  1.
        2   -1    0    0  501    0  0.00000000000E+00  0.00000000000E+00 -0.12391052453E+04  0.12391052453E+04  0.25500000920E-02 0. -1.
    10030    2    1    2    0    0  0.00000000000E+00  0.00000000000E+00  0.62865906542E+03  0.31068695559E+04  0.30426018828E+04 0.  0.
        3    1    3    3  502    0 -0.58118371745E+03  0.41783052736E+03  0.16850700328E+04  0.18307970638E+04  0.10100000352E+00 0.  1.
       -3    1    3    3    0  502  0.58118371745E+03 -0.41783052736E+03 -0.10564109674E+04  0.12760724922E+04  0.10100000352E+00 0. -1.
</event>
<event>
 5   0  0.1830902E-07  0.3116320E+04  0.7818609E-02  0.8211273E-01
       -1   -1    0    0    0  501  0.00000000000E+00  0.00000000000E+00  0.14315248632E+04  0.14315248632E+04  0.50400001928E-02 0. -1.
        1   -1    0    0  501    0  0.00000000000E+00  0.00000000000E+00 -0.16959977838E+04  0.16959977838E+04  0.50400001928E-02 0.  1.
    10030    2    1    2    0    0  0.00000000000E+00  0.00000000000E+00 -0.26447292065E+03  0.31275226470E+04  0.31163202631E+04 0.  0.
        3    1    3    3  502    0  0.43615509832E+03  0.58907420086E+03  0.12477056974E+04  0.14470691764E+04  0.10100000352E+00 0. -1.
       -3    1    3    3    0  502 -0.43615509832E+03 -0.58907420086E+03 -0.15121786180E+04  0.16804534706E+04  0.10100000352E+00 0.  1.
</event>
<event>
 5   0  0.1875284E-07  0.3094484E+04  0.7818609E-02  0.8217253E-01
       -1   -1    0    0    0  501  0.00000000000E+00  0.00000000000E+00  0.27253022998E+04  0.27253022998E+04  0.50400001928E-02 0.  1.
        1   -1    0    0  501    0  0.00000000000E+00  0.00000000000E+00 -0.87841920283E+03  0.87841920284E+03  0.50400001928E-02 0. -1.
    10030    2    1    2    0    0  0.00000000000E+00  0.00000000000E+00  0.18468830969E+04  0.36037215026E+04  0.30944840434E+04 0.  0.
        4    1    3    3  502    0 -0.21635581509E+03 -0.24716222145E+03 -0.83734424456E+03  0.89946984343E+03  0.12699999809E+01 0. -1.
       -4    1    3    3    0  502  0.21635581509E+03  0.24716222145E+03  0.26842273415E+04  0.27042516592E+04  0.12699999809E+01 0.  1.
</event>
<event>
 5   0  0.1814075E-07  0.3094837E+04  0.7818609E-02  0.8217156E-01
        1   -1    0    0  501    0  0.00000000000E+00  0.00000000000E+00  0.17336649476E+04  0.17336649476E+04  0.50400001928E-02 0. -1.
       -1   -1    0    0    0  501  0.00000000000E+00  0.00000000000E+00 -0.13811804431E+04  0.13811804431E+04  0.50400001928E-02 0.  1.
    10030    2    1    2    0    0  0.00000000000E+00  0.00000000000E+00  0.35248450443E+03  0.31148453907E+04  0.30948370687E+04 0.  0.
        5    1    3    3  502    0  0.28360755947E+03  0.15044197737E+04  0.40302080286E+03  0.15830855823E+04  0.46999998093E+01 0. -1.
       -5    1    3    3    0  502 -0.28360755947E+03 -0.15044197737E+04 -0.50536298426E+02  0.15317598084E+04  0.46999998093E+01 0.  1.
</event>
<event>
 5   0  0.5248309E-07  0.3103084E+04  0.7818609E-02  0.8214892E-01
       -2   -1    0    0    0  501  0.00000000000E+00  0.00000000000E+00  0.15744512629E+04  0.15744512629E+04  0.25500000920E-02 0. -1.
        2   -1    0    0  501    0  0.00000000000E+00  0.00000000000E+00 -0.15289657377E+04  0.15289657377E+04  0.25500000920E-02 0.  1.
    10030    2    1    2    0    0  0.00000000000E+00  0.00000000000E+00  0.45485525193E+02  0.31034170007E+04  0.31030836513E+04 0.  0.
        4    1    3    3  502    0  0.10425803123E+04  0.37681671845E+03  0.11083619648E+04  0.15676199810E+04  0.12699999809E+01 0. -1.
       -4    1    3    3    0  502 -0.10425803123E+04 -0.37681671845E+03 -0.10628764396E+04  0.15357970197E+04  0.12699999809E+01 0.  1.
</event>
<event>
 5   0  0.5248309E-07  0.3099842E+04  0.7818609E-02  0.8215781E-01
        2   -1    0    0  501    0  0.00000000000E+00  0.00000000000E+00  0.81054874404E+03  0.81054874404E+03  0.25500000920E-02 0. -1.
       -2   -1    0    0    0  501  0.00000000000E+00  0.00000000000E+00 -0.29637394564E+04  0.29637394564E+04  0.25500000920E-02 0.  1.
    10030    2    1    2    0    0  0.00000000000E+00  0.00000000000E+00 -0.21531907124E+04  0.37742882005E+04  0.30998421212E+04 0.  0.
        4    1    3    3  502    0  0.80422669320E+03  0.43731117479E+03 -0.25994065944E+04  0.27558914880E+04  0.12699999809E+01 0.  1.
       -4    1    3    3    0  502 -0.80422669320E+03 -0.43731117479E+03  0.44621588204E+03  0.10183967125E+04  0.12699999809E+01 0. -1.
</event>
<event>
 5   0  0.5342534E-07  0.3098295E+04  0.7818609E-02  0.8216206E-01
        2   -1    0    0  501    0  0.00000000000E+00  0.00000000000E+00  0.12314895080E+04  0.12314895080E+04  0.25500000920E-02 0.  1.
       -2   -1    0    0    0  501  0.00000000000E+00  0.00000000000E+00 -0.19487437678E+04  0.19487437678E+04  0.25500000920E-02 0. -1.
    10030    2    1    2    0    0  0.00000000000E+00  0.00000000000E+00 -0.71725425972E+03  0.31802332758E+04  0.30982946947E+04 0.  0.
        3    1    3    3  502    0 -0.10992086665E+04  0.14585638463E+03  0.75179793699E+03  0.13396767990E+04  0.10100000352E+00 0.  1.
       -3    1    3    3    0  502  0.10992086665E+04 -0.14585638463E+03 -0.14690521967E+04  0.18405564768E+04  0.10100000352E+00 0. -1.
</event>
<event>
 5   0  0.1840359E-07  0.3106030E+04  0.7818609E-02  0.8214085E-01
       -1   -1    0    0    0  501  0.00000000000E+00  0.00000000000E+00  0.15538950763E+04  0.15538950763E+04  0.50400001928E-02 0.  1.
        1   -1    0    0  501    0  0.00000000000E+00  0.00000000000E+00 -0.15521353257E+04  0.15521353257E+04  0.50400001928E-02 0. -1.
    10030    2    1    2    0    0  0.00000000000E+00  0.00000000000E+00  0.17597506050E+01  0.31060304020E+04  0.31060299035E+04 0.  0.
        1    1    3    3  502    0  0.22139305480E+02  0.14981176015E+04  0.40954721826E+03  0.15532467353E+04  0.50400001928E-02 0.  1.
       -1    1    3    3    0  502 -0.22139305480E+02 -0.14981176015E+04 -0.40778746765E+03  0.15527836667E+04  0.50400001928E-02 0. -1.
</event>
<event>
 5   0  0.5248309E-07  0.3104350E+04  0.7818609E-02  0.8214545E-01
       -2   -1    0    0    0  501  0.00000000000E+00  0.00000000000E+00  0.94103328810E+03  0.94103328810E+03  0.25500000920E-02 0.  1.
        2   -1    0    0  501    0  0.00000000000E+00  0.00000000000E+00 -0.25602147270E+04  0.25602147270E+04  0.25500000920E-02 0. -1.
    10030    2    1    2    0    0  0.00000000000E+00  0.00000000000E+00 -0.16191814389E+04  0.35012480151E+04  0.31043500336E+04 0.  0.
        4    1    3    3  502    0  0.13141601505E+04 -0.59607650387E+02 -0.17387353892E+04  0.21803147341E+04  0.12699999809E+01 0. -1.
       -4    1    3    3    0  502 -0.13141601505E+04  0.59607650387E+02  0.11955395026E+03  0.13209332811E+04  0.12699999809E+01 0.  1.
</event>
<event>
 5   0  0.1875284E-07  0.3095485E+04  0.7818609E-02  0.8216978E-01
       -1   -1    0    0    0  501  0.00000000000E+00  0.00000000000E+00  0.15660499627E+04  0.15660499627E+04  0.50400001928E-02 0.  1.
        1   -1    0    0  501    0  0.00000000000E+00  0.00000000000E+00 -0.15296491253E+04  0.15296491253E+04  0.50400001928E-02 0. -1.
    10030    2    1    2    0    0  0.00000000000E+00  0.00000000000E+00  0.36400837413E+02  0.30956990880E+04  0.30954850706E+04 0.  0.
        4    1    3    3  502    0  0.83494028843E+03  0.54678662941E+02  0.13203619844E+04  0.15631610359E+04  0.12699999809E+01 0.  1.
       -4    1    3    3    0  502 -0.83494028843E+03 -0.54678662941E+02 -0.12839611470E+04  0.15325380521E+04  0.12699999809E+01 0. -1.
</event>
<event>
 5   0  0.5154105E-07  0.3106153E+04  0.7818609E-02  0.8214051E-01
       -2   -1    0    0    0  501  0.00000000000E+00  0.00000000000E+00  0.12465201032E+04  0.12465201032E+04  0.25500000920E-02 0. -1.
        2   -1    0    0  501    0  0.00000000000E+00  0.00000000000E+00 -0.19350238988E+04  0.19350238988E+04  0.25500000920E-02 0.  1.
    10030    2    1    2    0    0  0.00000000000E+00  0.00000000000E+00 -0.68850379554E+03  0.31815440020E+04  0.31061527265E+04 0.  0.
        1    1    3    3  502    0  0.23509690301E+02  0.10500157984E+04 -0.15161190122E+04  0.18443705543E+04  0.50400001928E-02 0.  1.
       -1    1    3    3    0  502 -0.23509690301E+02 -0.10500157984E+04  0.82761521665E+03  0.13371734477E+04  0.50400001928E-02 0. -1.
</event>
<event>
 5   0  0.5376678E-07  0.3105569E+04  0.7818609E-02  0.8214211E-01
        2   -1    0    0  501    0  0.00000000000E+00  0.00000000000E+00  0.21370158385E+04  0.21370158385E+04  0.25500000920E-02 0.  1.
       -2   -1    0    0    0  501  0.00000000000E+00  0.00000000000E+00 -0.11282738530E+04  0.11282738530E+04  0.25500000920E-02 0. -1.
    10030    2    1    2    0    0  0.00000000000E+00  0.00000000000E+00  0.10087419855E+04  0.32652896916E+04  0.31055686076E+04 0.  0.
        5    1    3    3  502    0 -0.85925007169E+02  0.15447730047E+04  0.36563688884E+03  0.15897858873E+04  0.46999998093E+01 0. -1.
       -5    1    3    3    0  502  0.85925007169E+02 -0.15447730047E+04  0.64310509669E+03  0.16755038043E+04  0.46999998093E+01 0.  1.
</event>
<event>
 5   0  0.1840359E-07  0.3094291E+04  0.7818609E-02  0.8217306E-01
        1   -1    0    0  501    0  0.00000000000E+00  0.00000000000E+00  0.15157180016E+04  0.15157180017E+04  0.50400001928E-02 0. -1.
       -1   -1    0    0    0  501  0.00000000000E+00  0.00000000000E+00 -0.15792247841E+04  0.15792247841E+04  0.50400001928E-02 0.  1.
    10030    2    1    2    0    0  0.00000000000E+00  0.00000000000E+00 -0.63506782448E+02  0.30949427858E+04  0.30942911524E+04 0.  0.
        1    1    3    3  502    0 -0.11260555395E+04 -0.70560505139E+03  0.76073907313E+03  0.15312098171E+04  0.50400001928E-02 0.  1.
       -1    1    3    3    0  502  0.11260555395E+04  0.70560505139E+03 -0.82424585558E+03  0.15637329686E+04  0.50400001928E-02 0. -1.
</event>
<event>
 5   0  0.1840359E-07  0.3096047E+04  0.7818609E-02  0.8216824E-01
       -1   -1    0    0    0  501  0.00000000000E+00  0.00000000000E+00  0.97316930199E+03  0.97316930200E+03  0.50400001928E-02 0.  1.
        1   -1    0    0  501    0  0.00000000000E+00  0.00000000000E+00 -0.24624461955E+04  0.24624461955E+04  0.50400001928E-02 0. -1.
    10030    2    1    2    0    0  0.00000000000E+00  0.00000000000E+00 -0.14892768935E+04  0.34356154975E+04  0.30960471865E+04 0.  0.
        1    1    3    3  502    0 -0.90838975233E+03 -0.11512693287E+04 -0.12947792000E+04  0.19562837693E+04  0.50400001928E-02 0. -1.
       -1    1    3    3    0  502  0.90838975233E+03  0.11512693287E+04 -0.19449769353E+03  0.14793317282E+04  0.50400001928E-02 0.  1.
</event>
<event>
 5   0  0.1875284E-07  0.3099646E+04  0.7818609E-02  0.8215835E-01
       -1   -1    0    0    0  501  0.00000000000E+00  0.00000000000E+00  0.17511100673E+04  0.17511100673E+04  0.50400001928E-02 0.  1.
        1   -1    0    0  501    0  0.00000000000E+00  0.00000000000E+00 -0.13716737361E+04  0.13716737361E+04  0.50400001928E-02 0. -1.
    10030    2    1    2    0    0  0.00000000000E+00  0.00000000000E+00  0.37943633121E+03  0.31227838034E+04  0.30996462304E+04 0.  0.
        4    1    3    3  502    0  0.62530955827E+03 -0.12281486754E+04  0.90394509164E+03  0.16481746128E+04  0.12699999809E+01 0.  1.
       -4    1    3    3    0  502 -0.62530955827E+03  0.12281486754E+04 -0.52450876043E+03  0.14746091907E+04  0.12699999809E+01 0. -1.
</event>
<event>
 5   0  0.5248309E-07  0.3115194E+04  0.7818609E-02  0.8211580E-01
       -2   -1    0    0    0  501  0.00000000000E+00  0.00000000000E+00  0.94823265923E+03  0.94823265924E+03  0.25500000920E-02 0.  1.
        2   -1    0    0  501    0  0.00000000000E+00  0.00000000000E+00 -0.25585586186E+04  0.25585586186E+04  0.25500000920E-02 0. -1.
    10030    2    1    2    0    0  0.00000000000E+00  0.00000000000E+00 -0.16103259593E+04  0.35067912778E+04  0.31151942750E+04 0.  0.
        4    1    3    3  502    0  0.84045535596E+02  0.13763665693E+04  0.10222922210E+02  0.13789687111E+04  0.12699999809E+01 0.  1.
       -4    1    3    3    0  502 -0.84045535596E+02 -0.13763665693E+04 -0.16205488815E+04  0.21278225667E+04  0.12699999809E+01 0. -1.
</event>
<event>
 5   0  0.1840359E-07  0.3098752E+04  0.7818609E-02  0.8216081E-01
        1   -1    0    0  501    0  0.00000000000E+00  0.00000000000E+00  0.18749310051E+04  0.18749310051E+04  0.50400001928E-02 0.  1.
       -1   -1    0    0    0  501  0.00000000000E+00  0.00000000000E+00 -0.12803488809E+04  0.12803488809E+04  0.50400001928E-02 0. -1.
    10030    2    1    2    0    0  0.00000000000E+00  0.00000000000E+00  0.59458212415E+03  0.31552798860E+04  0.30987518869E+04 0.  0.
        1    1    3    3  502    0  0.22547327554E+03 -0.44419042502E+03 -0.11965859508E+04  0.12961331989E+04  0.50400001928E-02 0. -1.
       -1    1    3    3    0  502 -0.22547327554E+03  0.44419042502E+03  0.17911680749E+04  0.18591466871E+04  0.50400001928E-02 0.  1.
</event>
<event>
 5   0  0.5154105E-07  0.3118843E+04  0.7818609E-02  0.8210586E-01
       -2   -1    0    0    0  501  0.00000000000E+00  0.00000000000E+00  0.12649843160E+04  0.12649843160E+04  0.25500000920E-02 0. -1.
        2   -1    0    0  501    0  0.00000000000E+00  0.00000000000E+00 -0.19223914455E+04  0.19223914455E+04  0.25500000920E-02 0.  1.
    10030    2    1    2    0    0  0.00000000000E+00  0.00000000000E+00 -0.65740712946E+03  0.31873757615E+04  0.31188427519E+04 0.  0.
        1    1    3    3  502    0  0.35931903779E+03 -0.53188541943E+03 -0.17811232189E+04  0.18932543916E+04  0.50400001928E-02 0.  1.
       -1    1    3    3    0  502 -0.35931903779E+03  0.53188541943E+03  0.11237160895E+04  0.12941213699E+04  0.50400001928E-02 0. -1.
</event>
<event>
 5   0  0.1727000E-07  0.3096313E+04  0.7818609E-02  0.8216751E-01
        3   -1    0    0  501    0  0.00000000000E+00  0.00000000000E+00  0.15720921613E+04  0.15720921645E+04  0.10100000352E+00 0. -1.
       -3   -1    0    0    0  501  0.00000000000E+00  0.00000000000E+00 -0.15245847692E+04  0.15245847725E+04  0.10100000352E+00 0.  1.
    10030    2    1    2    0    0  0.00000000000E+00  0.00000000000E+00  0.47507392117E+02  0.30966769370E+04  0.30963125004E+04 0.  0.
        1    1    3    3  502    0  0.93824898260E+03 -0.75005544584E+03  0.10005433407E+04  0.15633237994E+04  0.50400001928E-02 0. -1.
       -1    1    3    3    0  502 -0.93824898260E+03  0.75005544584E+03 -0.95303594860E+03  0.15333531376E+04  0.50400001928E-02 0.  1.
</event>
<event>
 5   0  0.1814075E-07  0.3097931E+04  0.7818609E-02  0.8216306E-01
       -1   -1    0    0    0  501  0.00000000000E+00  0.00000000000E+00  0.27318984935E+04  0.27318984935E+04  0.50400001928E-02 0. -1.
        1   -1    0    0  501    0  0.00000000000E+00  0.00000000000E+00 -0.87825157273E+03  0.87825157274E+03  0.50400001928E-02 0.  1.
    10030    2    1    2    0    0  0.00000000000E+00  0.00000000000E+00  0.18536469208E+04  0.36101500662E+04  0.30979310183E+04 0.  0.
        5    1    3    3  502    0 -0.44037837683E+03 -0.29018557357E+03  0.26240401188E+04  0.26765181519E+04  0.46999998093E+01 0. -1.
       -5    1    3    3    0  502  0.44037837683E+03  0.29018557357E+03 -0.77039319809E+03  0.93363191438E+03  0.46999998093E+01 0.  1.
</event>
<event>
 5   0  0.5342534E-07  0.3096047E+04  0.7818609E-02  0.8216824E-01
       -2   -1    0    0    0  501  0.00000000000E+00  0.00000000000E+00  0.11308766725E+04  0.11308766725E+04  0.25500000920E-02 0. -1.
        2   -1    0    0  501    0  0.00000000000E+00  0.00000000000E+00 -0.21190428961E+04  0.21190428961E+04  0.25500000920E-02 0.  1.
    10030    2    1    2    0    0  0.00000000000E+00  0.00000000000E+00 -0.98816622360E+03  0.32499195687E+04  0.30960466271E+04 0.  0.
        3    1    3    3  502    0  0.14667145947E+04 -0.33658228119E+03 -0.11294401192E+03  0.15090711363E+04  0.10100000352E+00 0. -1.
       -3    1    3    3    0  502 -0.14667145947E+04  0.33658228119E+03 -0.87522221168E+03  0.17408484324E+04  0.10100000352E+00 0.  1.
</event>
<event>
 5   0  0.1840359E-07  0.3109301E+04  0.7818609E-02  0.8213190E-01
        1   -1    0    0  501    0  0.00000000000E+00  0.00000000000E+00  0.19167468211E+04  0.19167468211E+04  0.50400001928E-02 0. -1.
       -1   -1    0    0    0  501  0.00000000000E+00  0.00000000000E+00 -0.12609585604E+04  0.12609585604E+04  0.50400001928E-02 0.  1.
    10030    2    1    2    0    0  0.00000000000E+00  0.00000000000E+00  0.65578826066E+03  0.31777053815E+04  0.31093010869E+04 0.  0.
        1    1    3    3  502    0  0.61907912649E+03 -0.42221791285E+03  0.17199958147E+04  0.18761429939E+04  0.50400001928E-02 0. -1.
       -1    1    3    3    0  502 -0.61907912649E+03  0.42221791285E+03 -0.10642075541E+04  0.13015623876E+04  0.50400001928E-02 0.  1.
</event>
<event>
 5   0  0.1814075E-07  0.3096108E+04  0.7818609E-02  0.8216807E-01
       -1   -1    0    0    0  501  0.00000000000E+00  0.00000000000E+00  0.10949806863E+04  0.10949806864E+04  0.50400001928E-02 0. -1.
        1   -1    0    0  501    0  0.00000000000E+00  0.00000000000E+00 -0.21885967414E+04  0.21885967414E+04  0.50400001928E-02 0.  1.
    10030    2    1    2    0    0  0.00000000000E+00  0.00000000000E+00 -0.10936160550E+04  0.32835774277E+04  0.30961079839E+04 0.  0.
        5    1    3    3  502    0  0.53415090226E+01  0.27701968260E+03 -0.21620785247E+04  0.21797646830E+04  0.46999998093E+01 0.  1.
       -5    1    3    3    0  502 -0.53415090226E+01 -0.27701968260E+03  0.10684624697E+04  0.11038127447E+04  0.46999998093E+01 0. -1.
</event>
<event>
 5   0  0.5376678E-07  0.3097062E+04  0.7818609E-02  0.8216545E-01
        2   -1    0    0  501    0  0.00000000000E+00  0.00000000000E+00  0.20396609182E+04  0.20396609182E+04  0.25500000920E-02 0. -1.
       -2   -1    0    0    0  501  0.00000000000E+00  0.00000000000E+00 -0.11756604554E+04  0.11756604554E+04  0.25500000920E-02 0.  1.
    10030    2    1    2    0    0  0.00000000000E+00  0.00000000000E+00  0.86400046277E+03  0.32153213735E+04  0.30970622750E+04 0.  0.
        5    1    3    3  502    0 -0.13533862256E+04 -0.73250581380E+03  0.25306004935E+03  0.15595770329E+04  0.46999998093E+01 0. -1.
       -5    1    3    3    0  502  0.13533862256E+04  0.73250581380E+03  0.61094041342E+03  0.16557443407E+04  0.46999998093E+01 0.  1.
</event>
<event>
 5   0  0.1840359E-07  0.3094243E+04  0.7818609E-02  0.8217320E-01
        1   -1    0    0  501    0  0.00000000000E+00  0.00000000000E+00  0.17248005788E+04  0.17248005788E+04  0.50400001928E-02 0. -1.
       -1   -1    0    0    0  501  0.00000000000E+00  0.00000000000E+00 -0.13877457664E+04  0.13877457664E+04  0.50400001928E-02 0.  1.
    10030    2    1    2    0    0  0.00000000000E+00  0.00000000000E+00  0.33705481240E+03  0.31125463452E+04  0.30942428483E+04 0.  0.
        1    1    3    3  502    0  0.34326782698E+02 -0.16108049252E+03  0.17159572351E+04  0.17238429411E+04  0.50400001928E-02 0. -1.
       -1    1    3    3    0  502 -0.34326782698E+02  0.16108049252E+03 -0.13789024227E+04  0.13887034040E+04  0.50400001928E-02 0.  1.
</event>
<event>
 5   0  0.1814075E-07  0.3089898E+04  0.7818609E-02  0.8218516E-01
        1   -1    0    0  501    0  0.00000000000E+00  0.00000000000E+00  0.28791741084E+04  0.28791741084E+04  0.50400001928E-02 0.  1.
       -1   -1    0    0    0  501  0.00000000000E+00  0.00000000000E+00 -0.82901089263E+03  0.82901089265E+03  0.50400001928E-02 0. -1.
    10030    2    1    2    0    0  0.00000000000E+00  0.00000000000E+00  0.20501632157E+04  0.37081850010E+04  0.30898975372E+04 0.  0.
        5    1    3    3  502    0 -0.20175743121E+03 -0.35052425483E+03 -0.76434357500E+03  0.86476384344E+03  0.46999998093E+01 0. -1.
       -5    1    3    3    0  502  0.20175743121E+03  0.35052425483E+03  0.28145067907E+04  0.28434211576E+04  0.46999998093E+01 0.  1.
</event>
<event>
 5   0  0.1830902E-07  0.3099906E+04  0.7818609E-02  0.8215764E-01
       -1   -1    0    0    0  501  0.00000000000E+00  0.00000000000E+00  0.12484409427E+04  0.12484409427E+04  0.50400001928E-02 0. -1.
        1   -1    0    0  501    0  0.00000000000E+00  0.00000000000E+00 -0.19242833515E+04  0.19242833515E+04  0.50400001928E-02 0.  1.
    10030    2    1    2    0    0  0.00000000000E+00  0.00000000000E+00 -0.67584240880E+03  0.31727242942E+04  0.30999058834E+04 0.  0.
        3    1    3    3  502    0  0.20657851582E+03  0.14157623896E+04 -0.94799048702E+03  0.17163169290E+04  0.10100000352E+00 0.  1.
       -3    1    3    3    0  502 -0.20657851582E+03 -0.14157623896E+04  0.27214807821E+03  0.14564073653E+04  0.10100000352E+00 0. -1.
</event>
<event>
 5   0  0.5248309E-07  0.3099269E+04  0.7818609E-02  0.8215939E-01
        2   -1    0    0  501    0  0.00000000000E+00  0.00000000000E+00  0.20273841316E+04  0.20273841316E+04  0.25500000920E-02 0. -1.
       -2   -1    0    0    0  501  0.00000000000E+00  0.00000000000E+00 -0.11844657908E+04  0.11844657908E+04  0.25500000920E-02 0.  1.
    10030    2    1    2    0    0  0.00000000000E+00  0.00000000000E+00  0.84291834081E+03  0.32118499224E+04  0.30992690420E+04 0.  0.
        4    1    3    3  502    0  0.54010168100E+03 -0.16960684630E+03  0.19163877577E+04  0.19982542278E+04  0.12699999809E+01 0. -1.
       -4    1    3    3    0  502 -0.54010168100E+03  0.16960684630E+03 -0.10734694169E+04  0.12135956946E+04  0.12699999809E+01 0.  1.
</event>
<event>
 5   0  0.1845123E-07  0.3092056E+04  0.7818609E-02  0.8217921E-01
        1   -1    0    0  501    0  0.00000000000E+00  0.00000000000E+00  0.17840504194E+04  0.17840504194E+04  0.50400001928E-02 0.  1.
       -1   -1    0    0    0  501  0.00000000000E+00  0.00000000000E+00 -0.13397621037E+04  0.13397621038E+04  0.50400001928E-02 0. -1.
    10030    2    1    2    0    0  0.00000000000E+00  0.00000000000E+00  0.44428831561E+03  0.31238125231E+04  0.30920563663E+04 0.  0.
        2    1    3    3  502    0  0.20462607064E+03 -0.12982548969E+04  0.10446713787E+04  0.16788912697E+04  0.25500000920E-02 0.  1.
       -2    1    3    3    0  502 -0.20462607064E+03  0.12982548969E+04 -0.60038306306E+03  0.14449212534E+04  0.25500000920E-02 0. -1.
</event>
<event>
 5   0  0.1727000E-07  0.3098887E+04  0.7818609E-02  0.8216043E-01
       -3   -1    0    0    0  501  0.00000000000E+00  0.00000000000E+00  0.16933516742E+04  0.16933516772E+04  0.10100000352E+00 0. -1.
        3   -1    0    0  501    0  0.00000000000E+00  0.00000000000E+00 -0.14177653857E+04  0.14177653893E+04  0.10100000352E+00 0.  1.
    10030    2    1    2    0    0  0.00000000000E+00  0.00000000000E+00  0.27558628844E+03  0.31111170665E+04  0.30988871550E+04 0.  0.
        4    1    3    3  502    0  0.48703337728E+03  0.10661197761E+04 -0.87959704567E+03  0.14654369530E+04  0.12699999809E+01 0.  1.
       -4    1    3    3    0  502 -0.48703337728E+03 -0.10661197761E+04  0.11551833341E+04  0.16456801135E+04  0.12699999809E+01 0. -1.
</event>
<event>
 5   0  0.5154105E-07  0.3098525E+04  0.7818609E-02  0.8216143E-01
        2   -1    0    0  501    0  0.00000000000E+00  0.00000000000E+00  0.74190278557E+03  0.74190278558E+03  0.25500000920E-02 0. -1.
       -2   -1    0    0    0  501  0.00000000000E+00  0.00000000000E+00 -0.32352138700E+04  0.32352138700E+04  0.25500000920E-02 0.  1.
    10030    2    1    2    0    0  0.00000000000E+00  0.00000000000E+00 -0.24933110844E+04  0.39771166556E+04  0.30985249278E+04 0.  0.
        1    1    3    3  502    0 -0.10855828343E+03 -0.15042998940E+04 -0.17013863942E+04  0.22736355764E+04  0.50400001928E-02 0.  1.
       -1    1    3    3    0  502  0.10855828343E+03  0.15042998940E+04 -0.79192469017E+03  0.17034810791E+04  0.50400001928E-02 0. -1.
</event>
<event>
 5   0  0.5248309E-07  0.3100729E+04  0.7818609E-02  0.8215538E-01
        2   -1    0    0  501    0  0.00000000000E+00  0.00000000000E+00  0.94377685979E+03  0.94377685979E+03  0.25500000920E-02 0. -1.
       -2   -1    0    0    0  501  0.00000000000E+00  0.00000000000E+00 -0.25468201918E+04  0.25468201918E+04  0.25500000920E-02 0.  1.
    10030    2    1    2    0    0  0.00000000000E+00  0.00000000000E+00 -0.16030433320E+04  0.34905970516E+04  0.31007289227E+04 0.  0.
        4    1    3    3  502    0 -0.18251283290E+03  0.28439413836E+03  0.90181424595E+03  0.96304802954E+03  0.12699999809E+01 0. -1.
       -4    1    3    3    0  502  0.18251283290E+03 -0.28439413836E+03 -0.25048575779E+04  0.25275490220E+04  0.12699999809E+01 0.  1.
</event>
<event>
 5   0  0.5248309E-07  0.3108601E+04  0.7818609E-02  0.8213381E-01
        2   -1    0    0  501    0  0.00000000000E+00  0.00000000000E+00  0.14880855618E+04  0.14880855618E+04  0.25500000920E-02 0. -1.
       -2   -1    0    0    0  501  0.00000000000E+00  0.00000000000E+00 -0.16234618161E+04  0.16234618161E+04  0.25500000920E-02 0.  1.
    10030    2    1    2    0    0  0.00000000000E+00  0.00000000000E+00 -0.13537625425E+03  0.31115473779E+04  0.31086010286E+04 0.  0.
        4    1    3    3  502    0  0.12196424851E+04  0.38657049348E+03  0.81569236771E+03  0.15173398398E+04  0.12699999809E+01 0. -1.
       -4    1    3    3    0  502 -0.12196424851E+04 -0.38657049348E+03 -0.95106862196E+03  0.15942075381E+04  0.12699999809E+01 0.  1.
</event>
<event>
 5   0  0.5055900E-07  0.3099541E+04  0.7818609E-02  0.8215864E-01
       -2   -1    0    0    0  501  0.00000000000E+00  0.00000000000E+00  0.13062011060E+04  0.13062011060E+04  0.25500000920E-02 0.  1.
        2   -1    0    0  501    0  0.00000000000E+00  0.00000000000E+00 -0.18387582234E+04  0.18387582234E+04  0.25500000920E-02 0. -1.
    10030    2    1    2    0    0  0.00000000000E+00  0.00000000000E+00 -0.53255711738E+03  0.31449593293E+04  0.30995406272E+04 0.  0.
        2    1    3    3  502    0  0.14848962042E+03  0.25987161795E+03  0.12765970900E+04  0.13112141531E+04  0.25500000920E-02 0.  1.
       -2    1    3    3    0  502 -0.14848962042E+03 -0.25987161795E+03 -0.18091542074E+04  0.18337451762E+04  0.25500000920E-02 0. -1.
</event>
<event>
 5   0  0.5342534E-07  0.3100075E+04  0.7818609E-02  0.8215717E-01
       -2   -1    0    0    0  501  0.00000000000E+00  0.00000000000E+00  0.14368247896E+04  0.14368247896E+04  0.25500000920E-02 0. -1.
        2   -1    0    0  501    0  0.00000000000E+00  0.00000000000E+00 -0.16721704157E+04  0.16721704157E+04  0.25500000920E-02 0.  1.
    10030    2    1    2    0    0  0.00000000000E+00  0.00000000000E+00 -0.23534562609E+03  0.31089952053E+04  0.31000747770E+04 0.  0.
        3    1    3    3  502    0  0.11239892768E+03 -0.15459358485E+04 -0.12574138587E+03  0.15551083798E+04  0.10100000352E+00 0. -1.
       -3    1    3    3    0  502 -0.11239892768E+03  0.15459358485E+04 -0.10960424023E+03  0.15538868255E+04  0.10100000352E+00 0.  1.
</event>
<event>
 5   0  0.1830902E-07  0.3093261E+04  0.7818609E-02  0.8217590E-01
       -1   -1    0    0    0  501  0.00000000000E+00  0.00000000000E+00  0.12703071912E+04  0.12703071912E+04  0.50400001928E-02 0. -1.
        1   -1    0    0  501    0  0.00000000000E+00  0.00000000000E+00 -0.18830607059E+04  0.18830607059E+04  0.50400001928E-02 0.  1.
    10030    2    1    2    0    0  0.00000000000E+00  0.00000000000E+00 -0.61275351473E+03  0.31533678971E+04  0.30932607754E+04 0.  0.
        3    1    3    3  502    0 -0.10341860867E+03  0.30838250723E+03  0.12350464776E+04  0.12771589531E+04  0.10100000352E+00 0. -1.
       -3    1    3    3    0  502  0.10341860867E+03 -0.30838250723E+03 -0.18477999924E+04  0.18762089440E+04  0.10100000352E+00 0.  1.
</event>
<event>
 5   0  0.1875284E-07  0.3101967E+04  0.7818609E-02  0.8215198E-01
        1   -1    0    0  501    0  0.00000000000E+00  0.00000000000E+00  0.11891762977E+04  0.11891762977E+04  0.50400001928E-02 0. -1.
       -1   -1    0    0    0  501  0.00000000000E+00  0.00000000000E+00 -0.20228710763E+04  0.20228710763E+04  0.50400001928E-02 0.  1.
    10030    2    1    2    0    0  0.00000000000E+00  0.00000000000E+00 -0.83369477857E+03  0.32120473741E+04  0.31019673353E+04 0.  0.
        4    1    3    3  502    0  0.11148780883E+04 -0.47920663830E+02  0.69855023438E+03  0.13165194965E+04  0.12699999809E+01 0. -1.
       -4    1    3    3    0  502 -0.11148780883E+04  0.47920663830E+02 -0.15322450129E+04  0.18955278775E+04  0.12699999809E+01 0.  1.
</event>
<event>
 5   0  0.5342534E-07  0.3101606E+04  0.7818609E-02  0.8215297E-01
       -2   -1    0    0    0  501  0.00000000000E+00  0.00000000000E+00  0.14392711111E+04  0.14392711111E+04  0.25500000920E-02 0. -1.
        2   -1    0    0  501    0  0.00000000000E+00  0.00000000000E+00 -0.16709772029E+04  0.16709772029E+04  0.25500000920E-02 0.  1.
    10030    2    1    2    0    0  0.00000000000E+00  0.00000000000E+00 -0.23170609185E+03  0.31102483140E+04  0.31016055296E+04 0.  0.
        3    1    3    3  502    0  0.12183713563E+04 -0.58887168355E+03 -0.87545348908E+03  0.16117125809E+04  0.10100000352E+00 0.  1.
       -3    1    3    3    0  502 -0.12183713563E+04  0.58887168355E+03  0.64374739723E+03  0.14985357331E+04  0.10100000352E+00 0. -1.
</event>
<event>
 5   0  0.5055900E-07  0.3100952E+04  0.7818609E-02  0.8215477E-01
       -2   -1    0    0    0  501  0.00000000000E+00  0.00000000000E+00  0.14490013988E+04  0.14490013988E+04  0.25500000920E-02 0. -1.
        2   -1    0    0  501    0  0.00000000000E+00  0.00000000000E+00 -0.16590570767E+04  0.16590570767E+04  0.25500000920E-02 0.  1.
    10030    2    1    2    0    0  0.00000000000E+00  0.00000000000E+00 -0.21005567793E+03  0.31080584754E+04  0.31009521278E+04 0.  0.
        2    1    3    3  502    0 -0.80004574944E+03  0.79963764357E+02  0.12237208568E+04  0.14642268063E+04  0.25500000920E-02 0. -1.
       -2    1    3    3    0  502  0.80004574944E+03 -0.79963764357E+02 -0.14337765348E+04  0.16438316691E+04  0.25500000920E-02 0.  1.
</event>
<event>
 5   0  0.1840359E-07  0.3102006E+04  0.7818609E-02  0.8215188E-01
       -1   -1    0    0    0  501  0.00000000000E+00  0.00000000000E+00  0.26176554153E+04  0.26176554153E+04  0.50400001928E-02 0. -1.
        1   -1    0    0  501    0  0.00000000000E+00  0.00000000000E+00 -0.91899433199E+03  0.91899433200E+03  0.50400001928E-02 0.  1.
    10030    2    1    2    0    0  0.00000000000E+00  0.00000000000E+00  0.16986610833E+04  0.35366497473E+04  0.31020061185E+04 0.  0.
        1    1    3    3  502    0  0.82437006986E+03 -0.51258002740E+03  0.22284885921E+04  0.24307376867E+04  0.50400001928E-02 0. -1.
       -1    1    3    3    0  502 -0.82437006986E+03  0.51258002740E+03 -0.52982750880E+03  0.11059120606E+04  0.50400001928E-02 0.  1.
</event>
<event>
 5   0  0.5154105E-07  0.3095835E+04  0.7818609E-02  0.8216882E-01
        2   -1    0    0  501    0  0.00000000000E+00  0.00000000000E+00  0.19906679221E+04  0.19906679221E+04  0.25500000920E-02 0. -1.
       -2   -1    0    0    0  501  0.00000000000E+00  0.00000000000E+00 -0.12036407353E+04  0.12036407353E+04  0.25500000920E-02 0.  1.
    10030    2    1    2    0    0  0.00000000000E+00  0.00000000000E+00  0.78702718678E+03  0.31943086574E+04  0.30958352679E+04 0.  0.
        1    1    3    3  502    0  0.10030470870E+04  0.23628401257E+03  0.15852926113E+04  0.18907898500E+04  0.50400001928E-02 0. -1.
       -1    1    3    3    0  502 -0.10030470870E+04 -0.23628401257E+03 -0.79826542451E+03  0.13035188074E+04  0.50400001928E-02 0.  1.
</event>
<event>
 5   0  0.1845123E-07  0.3096340E+04  0.7818609E-02  0.8216743E-01
       -1   -1    0    0    0  501  0.00000000000E+00  0.00000000000E+00  0.12936046951E+04  0.12936046951E+04  0.50400001928E-02 0. -1.
        1   -1    0    0  501    0  0.00000000000E+00  0.00000000000E+00 -0.18528302267E+04  0.18528302268E+04  0.50400001928E-02 0.  1.
    10030    2    1    2    0    0  0.00000000000E+00  0.00000000000E+00 -0.55922553168E+03  0.31464349218E+04  0.30963396975E+04 0.  0.
        2    1    3    3  502    0 -0.58413949897E+03  0.14173076055E+04 -0.59662085401E+02  0.15341249517E+04  0.25500000920E-02 0. -1.
       -2    1    3    3    0  502  0.58413949897E+03 -0.14173076055E+04 -0.49956344628E+03  0.16123099701E+04  0.25500000920E-02 0.  1.
</event>
<event>
 5   0  0.5376678E-07  0.3090029E+04  0.7818609E-02  0.8218480E-01
       -2   -1    0    0    0  501  0.00000000000E+00  0.00000000000E+00  0.15937323168E+04  0.15937323168E+04  0.25500000920E-02 0.  1.
        2   -1    0    0  501    0  0.00000000000E+00  0.00000000000E+00 -0.14977857679E+04  0.14977857679E+04  0.25500000920E-02 0. -1.
    10030    2    1    2    0    0  0.00000000000E+00  0.00000000000E+00  0.95946548965E+02  0.30915180847E+04  0.30900288555E+04 0.  0.
        5    1    3    3  502    0  0.15422683091E+04  0.91349851270E+02  0.58521575481E+02  0.15460864133E+04  0.46999998093E+01 0.  1.
       -5    1    3    3    0  502 -0.15422683091E+04 -0.91349851270E+02  0.37424973484E+02  0.15454316714E+04  0.46999998093E+01 0. -1.
</event>
<event>
 5   0  0.1845123E-07  0.3095420E+04  0.7818609E-02  0.8216996E-01
       -1   -1    0    0    0  501  0.00000000000E+00  0.00000000000E+00  0.82570067090E+03  0.82570067091E+03  0.50400001928E-02 0.  1.
        1   -1    0    0  501    0  0.00000000000E+00  0.00000000000E+00 -0.29010592829E+04  0.29010592829E+04  0.50400001928E-02 0. -1.
    10030    2    1    2    0    0  0.00000000000E+00  0.00000000000E+00 -0.20753586120E+04  0.37267599538E+04  0.30954202275E+04 0.  0.
        2    1    3    3  502    0 -0.88370453367E+03  0.26546871584E+03  0.45833362348E+03  0.10302800844E+04  0.25500000920E-02 0.  1.
       -2    1    3    3    0  502  0.88370453367E+03 -0.26546871584E+03 -0.25336922355E+04  0.26964798694E+04  0.25500000920E-02 0. -1.
</event>
<event>
 5   0  0.1830902E-07  0.3099321E+04  0.7818609E-02  0.8215924E-01
        1   -1    0    0  501    0  0.00000000000E+00  0.00000000000E+00  0.13990802384E+04  0.13990802384E+04  0.50400001928E-02 0.  1.
       -1   -1    0    0    0  501  0.00000000000E+00  0.00000000000E+00 -0.17164473832E+04  0.17164473832E+04  0.50400001928E-02 0. -1.
    10030    2    1    2    0    0  0.00000000000E+00  0.00000000000E+00 -0.31736714479E+03  0.31155276215E+04  0.30993209669E+04 0.  0.
        3    1    3    3  502    0  0.42415375704E+03 -0.40863451901E+03 -0.15995521250E+04  0.17045397005E+04  0.10100000352E+00 0. -1.
       -3    1    3    3    0  502 -0.42415375704E+03  0.40863451901E+03  0.12821849802E+04  0.14109879211E+04  0.10100000352E+00 0.  1.
</event>
<event>
 5   0  0.1814075E-07  0.3095894E+04  0.7818609E-02  0.8216866E-01
       -1   -1    0    0    0  501  0.00000000000E+00  0.00000000000E+00  0.11174244448E+04  0.11174244448E+04  0.50400001928E-02 0.  1.
        1   -1    0    0  501    0  0.00000000000E+00  0.00000000000E+00 -0.21443412512E+04  0.21443412512E+04  0.50400001928E-02 0. -1.
    10030    2    1    2    0    0  0.00000000000E+00  0.00000000000E+00 -0.10269168063E+04  0.32617656960E+04  0.30958936236E+04 0.  0.
        5    1    3    3  502    0 -0.30698142963E+03  0.60154165392E+03  0.95401638955E+03  0.11688709600E+04  0.46999998093E+01 0.  1.
       -5    1    3    3    0  502  0.30698142963E+03 -0.60154165392E+03 -0.19809331959E+04  0.20928947360E+04  0.46999998093E+01 0. -1.
</event>
<event>
 5   0  0.5154105E-07  0.3104883E+04  0.7818609E-02  0.8214399E-01
        2   -1    0    0  501    0  0.00000000000E+00  0.00000000000E+00  0.13840517946E+04  0.13840517946E+04  0.25500000920E-02 0.  1.
       -2   -1    0    0    0  501  0.00000000000E+00  0.00000000000E+00 -0.17413185346E+04  0.17413185346E+04  0.25500000920E-02 0. -1.
    10030    2    1    2    0    0  0.00000000000E+00  0.00000000000E+00 -0.35726673997E+03  0.31253703292E+04  0.31048832782E+04 0.  0.
        1    1    3    3  502    0  0.56240215469E+03  0.37654758280E+02  0.12774106749E+04  0.13962421340E+04  0.50400001928E-02 0.  1.
       -1    1    3    3    0  502 -0.56240215469E+03 -0.37654758280E+02 -0.16346774149E+04  0.17291281951E+04  0.50400001928E-02 0. -1.
</event>
<event>
 5   0  0.1830902E-07  0.3096507E+04  0.7818609E-02  0.8216697E-01
        1   -1    0    0  501    0  0.00000000000E+00  0.00000000000E+00  0.21603870547E+04  0.21603870547E+04  0.50400001928E-02 0. -1.
       -1   -1    0    0    0  501  0.00000000000E+00  0.00000000000E+00 -0.11095648696E+04  0.11095648696E+04  0.50400001928E-02 0.  1.
    10030    2    1    2    0    0  0.00000000000E+00  0.00000000000E+00  0.10508221851E+04  0.32699519243E+04  0.30965074395E+04 0.  0.
        3    1    3    3  502    0 -0.34576391814E+03  0.52431926206E+03  0.20198191005E+04  0.21152145481E+04  0.10100000352E+00 0. -1.
       -3    1    3    3    0  502  0.34576391814E+03 -0.52431926206E+03 -0.96899691540E+03  0.11547373762E+04  0.10100000352E+00 0.  1.
</event>
<event>
 5   0  0.5055900E-07  0.3095848E+04  0.7818609E-02  0.8216878E-01
       -2   -1    0    0    0  501  0.00000000000E+00  0.00000000000E+00  0.13234630068E+04  0.13234630068E+04  0.25500000920E-02 0.  1.
        2   -1    0    0  501    0  0.00000000000E+00  0.00000000000E+00 -0.18104539414E+04  0.18104539414E+04  0.25500000920E-02 0. -1.
    10030    2    1    2    0    0  0.00000000000E+00  0.00000000000E+00 -0.48699093463E+03  0.31339169482E+04  0.30958480692E+04 0.  0.
        2    1    3    3  502    0  0.10503083052E+04  0.63615394803E+03 -0.11975439045E+04  0.17152115860E+04  0.25500000920E-02 0. -1.
       -2    1    3    3    0  502 -0.10503083052E+04 -0.63615394803E+03  0.71055296988E+03  0.14187053621E+04  0.25500000920E-02 0.  1.
</event>
<event>
 5   0  0.1875284E-07  0.3098588E+04  0.7818609E-02  0.8216125E-01
       -1   -1    0    0    0  501  0.00000000000E+00  0.00000000000E+00  0.86200582247E+03  0.86200582248E+03  0.50400001928E-02 0. -1.
        1   -1    0    0  501    0  0.00000000000E+00  0.00000000000E+00 -0.27845660007E+04  0.27845660007E+04  0.50400001928E-02 0.  1.
    10030    2    1    2    0    0  0.00000000000E+00  0.00000000000E+00 -0.19225601783E+04  0.36465718232E+04  0.30985881338E+04 0.  0.
        4    1    3    3  502    0 -0.82398853601E+03  0.79731525003E+03 -0.21874882218E+04  0.24697722666E+04  0.12699999809E+01 0.  1.
       -4    1    3    3    0  502  0.82398853601E+03 -0.79731525003E+03  0.26492804352E+03  0.11767995567E+04  0.12699999809E+01 0. -1.
</event>
<event>
 5   0  0.1814075E-07  0.3104348E+04  0.7818609E-02  0.8214546E-01
        1   -1    0    0  501    0  0.00000000000E+00  0.00000000000E+00  0.10919613033E+04  0.10919613033E+04  0.50400001928E-02 0. -1.
       -1   -1    0    0    0  501  0.00000000000E+00  0.00000000000E+00 -0.22063454747E+04  0.22063454747E+04  0.50400001928E-02 0.  1.
    10030    2    1    2    0    0  0.00000000000E+00  0.00000000000E+00 -0.11143841714E+04  0.32983067780E+04  0.31043478413E+04 0.  0.
        5    1    3    3  502    0  0.59189904433E+03  0.80877500398E+03  0.70208639679E+03  0.12236865956E+04  0.46999998093E+01 0. -1.
       -5    1    3    3    0  502 -0.59189904433E+03 -0.80877500398E+03 -0.18164705682E+04  0.20746201823E+04  0.46999998093E+01 0.  1.
</event>
<event>
 5   0  0.5376678E-07  0.3101910E+04  0.7818609E-02  0.8215214E-01
        2   -1    0    0  501    0  0.00000000000E+00  0.00000000000E+00  0.11606149651E+04  0.11606149651E+04  0.25500000920E-02 0. -1.
       -2   -1    0    0    0  501  0.00000000000E+00  0.00000000000E+00 -0.20725753860E+04  0.20725753860E+04  0.25500000920E-02 0.  1.
    10030    2    1    2    0    0  0.00000000000E+00  0.00000000000E+00 -0.91196042088E+03  0.32331903511E+04  0.31019103851E+04 0.  0.
        5    1    3    3  502    0  0.11637547738E+04 -0.48398585690E+03  0.48608105673E+03  0.13508754077E+04  0.46999998093E+01 0. -1.
       -5    1    3    3    0  502 -0.11637547738E+04  0.48398585690E+03 -0.13980414776E+04  0.18823149435E+04  0.46999998093E+01 0.  1.
</event>
<event>
 5   0  0.1814075E-07  0.3097701E+04  0.7818609E-02  0.8216369E-01
       -1   -1    0    0    0  501  0.00000000000E+00  0.00000000000E+00  0.17849129790E+04  0.17849129790E+04  0.50400001928E-02 0. -1.
        1   -1    0    0  501    0  0.00000000000E+00  0.00000000000E+00 -0.13440082195E+04  0.13440082195E+04  0.50400001928E-02 0.  1.
    10030    2    1    2    0    0  0.00000000000E+00  0.00000000000E+00  0.44090475957E+03  0.31289211985E+04  0.30977008990E+04 0.  0.
        5    1    3    3  502    0  0.36201912318E+03  0.40959819644E+03 -0.12433208393E+04  0.13581963509E+04  0.46999998093E+01 0.  1.
       -5    1    3    3    0  502 -0.36201912318E+03 -0.40959819644E+03  0.16842255989E+04  0.17707248476E+04  0.46999998093E+01 0. -1.
</event>
<event>
 5   0  0.1845123E-07  0.3097172E+04  0.7818609E-02  0.8216515E-01
        1   -1    0    0  501    0  0.00000000000E+00  0.00000000000E+00  0.15422496804E+04  0.15422496804E+04  0.50400001928E-02 0. -1.
       -1   -1    0    0    0  501  0.00000000000E+00  0.00000000000E+00 -0.15549481160E+04  0.15549481160E+04  0.50400001928E-02 0.  1.
    10030    2    1    2    0    0  0.00000000000E+00  0.00000000000E+00 -0.12698435557E+02  0.30971977964E+04  0.30971717646E+04 0.  0.
        2    1    3    3  502    0  0.53669170516E+03  0.86825283656E+03 -0.11709264194E+04  0.15533736364E+04  0.25500000920E-02 0.  1.
       -2    1    3    3    0  502 -0.53669170516E+03 -0.86825283656E+03  0.11582279838E+04  0.15438241600E+04  0.25500000920E-02 0. -1.
</event>
<event>
 5   0  0.5154105E-07  0.3100123E+04  0.7818609E-02  0.8215704E-01
        2   -1    0    0  501    0  0.00000000000E+00  0.00000000000E+00  0.11056264498E+04  0.11056264499E+04  0.25500000920E-02 0. -1.
       -2   -1    0    0    0  501  0.00000000000E+00  0.00000000000E+00 -0.21731492771E+04  0.21731492771E+04  0.25500000920E-02 0.  1.
    10030    2    1    2    0    0  0.00000000000E+00  0.00000000000E+00 -0.10675228272E+04  0.32787757269E+04  0.31001234299E+04 0.  0.
        1    1    3    3  502    0  0.13704562708E+03 -0.29149439419E+03  0.10698407115E+04  0.11172777782E+04  0.50400001928E-02 0. -1.
       -1    1    3    3    0  502 -0.13704562708E+03  0.29149439419E+03 -0.21373635387E+04  0.21614979487E+04  0.50400001928E-02 0.  1.
</event>
<event>
 5   0  0.1875284E-07  0.3105957E+04  0.7818609E-02  0.8214105E-01
        1   -1    0    0  501    0  0.00000000000E+00  0.00000000000E+00  0.16207769149E+04  0.16207769149E+04  0.50400001928E-02 0.  1.
       -1   -1    0    0    0  501  0.00000000000E+00  0.00000000000E+00 -0.14880165481E+04  0.14880165482E+04  0.50400001928E-02 0. -1.
    10030    2    1    2    0    0  0.00000000000E+00  0.00000000000E+00  0.13276036673E+03  0.31087934630E+04  0.31059574177E+04 0.  0.
        4    1    3    3  502    0  0.51078557981E+03  0.65845164880E+03  0.13780273539E+04  0.16104103463E+04  0.12699999809E+01 0.  1.
       -4    1    3    3    0  502 -0.51078557981E+03 -0.65845164880E+03 -0.12452669872E+04  0.14983831168E+04  0.12699999809E+01 0. -1.
</event>
<event>
 5   0  0.5154105E-07  0.3089102E+04  0.7818609E-02  0.8218735E-01
        2   -1    0    0  501    0  0.00000000000E+00  0.00000000000E+00  0.25686273765E+04  0.25686273765E+04  0.25500000920E-02 0.  1.
       -2   -1    0    0    0  501  0.00000000000E+00  0.00000000000E+00 -0.92875959135E+03  0.92875959136E+03  0.25500000920E-02 0. -1.
    10030    2    1    2    0    0  0.00000000000E+00  0.00000000000E+00  0.16398677851E+04  0.34973869679E+04  0.30891016898E+04 0.  0.
        1    1    3    3  502    0 -0.50862563075E+03  0.22766384340E+03 -0.81098240656E+03  0.98398339500E+03  0.50400001928E-02 0. -1.
       -1    1    3    3    0  502  0.50862563075E+03 -0.22766384340E+03  0.24508501917E+04  0.25134035729E+04  0.50400001928E-02 0.  1.
</event>
<event>
 5   0  0.5154105E-07  0.3121287E+04  0.7818609E-02  0.8209920E-01
       -2   -1    0    0    0  501  0.00000000000E+00  0.00000000000E+00  0.11298111025E+04  0.11298111025E+04  0.25500000920E-02 0.  1.
        2   -1    0    0  501    0  0.00000000000E+00  0.00000000000E+00 -0.21557651631E+04  0.21557651631E+04  0.25500000920E-02 0. -1.
    10030    2    1    2    0    0  0.00000000000E+00  0.00000000000E+00 -0.10259540606E+04  0.32855762657E+04  0.31212865397E+04 0.  0.
        1    1    3    3  502    0  0.19316457635E+03  0.14539038643E+04  0.48442228357E+02  0.14674793524E+04  0.50400001928E-02 0.  1.
       -1    1    3    3    0  502 -0.19316457635E+03 -0.14539038643E+04 -0.10743962890E+04  0.18180969133E+04  0.50400001928E-02 0. -1.
</event>
<event>
 5   0  0.1875284E-07  0.3100460E+04  0.7818609E-02  0.8215612E-01
       -1   -1    0    0    0  501  0.00000000000E+00  0.00000000000E+00  0.13304927092E+04  0.13304927092E+04  0.50400001928E-02 0. -1.
        1   -1    0    0  501    0  0.00000000000E+00  0.00000000000E+00 -0.18062576177E+04  0.18062576178E+04  0.50400001928E-02 0.  1.
    10030    2    1    2    0    0  0.00000000000E+00  0.00000000000E+00 -0.47576490854E+03  0.31367503270E+04  0.31004597023E+04 0.  0.
        4    1    3    3  502    0  0.44785400465E+03  0.88801229180E+03 -0.14409488964E+04  0.17508496151E+04  0.12699999809E+01 0.  1.
       -4    1    3    3    0  502 -0.44785400465E+03 -0.88801229180E+03  0.96518398783E+03  0.13859007119E+04  0.12699999809E+01 0. -1.
</event>
<event>
 5   0  0.1830902E-07  0.3067972E+04  0.7818609E-02  0.8224583E-01
        1   -1    0    0  501    0  0.00000000000E+00  0.00000000000E+00  0.13933194797E+04  0.13933194797E+04  0.50400001928E-02 0. -1.
       -1   -1    0    0    0  501  0.00000000000E+00  0.00000000000E+00 -0.16888534479E+04  0.16888534479E+04  0.50400001928E-02 0.  1.
    10030    2    1    2    0    0  0.00000000000E+00  0.00000000000E+00 -0.29553396821E+03  0.30821729277E+04  0.30679715823E+04 0.  0.
        3    1    3    3  502    0  0.45405553981E+03 -0.25124891539E+03  0.13024592742E+04  0.14020316051E+04  0.10100000352E+00 0. -1.
       -3    1    3    3    0  502 -0.45405553981E+03  0.25124891539E+03 -0.15979932424E+04  0.16801413225E+04  0.10100000352E+00 0.  1.
</event>
<event>
 5   0  0.5248309E-07  0.3101928E+04  0.7818609E-02  0.8215209E-01
        2   -1    0    0  501    0  0.00000000000E+00  0.00000000000E+00  0.14362539883E+04  0.14362539883E+04  0.25500000920E-02 0.  1.
       -2   -1    0    0    0  501  0.00000000000E+00  0.00000000000E+00 -0.16748354908E+04  0.16748354908E+04  0.25500000920E-02 0. -1.
    10030    2    1    2    0    0  0.00000000000E+00  0.00000000000E+00 -0.23858150251E+03  0.31110894790E+04  0.31019278865E+04 0.  0.
        4    1    3    3  502    0  0.13195701128E+04 -0.70874460964E+03 -0.52285130015E+03  0.15864927668E+04  0.12699999809E+01 0. -1.
       -4    1    3    3    0  502 -0.13195701128E+04  0.70874460964E+03  0.28426979763E+03  0.15245967122E+04  0.12699999809E+01 0.  1.
</event>
<event>
 5   0  0.1875284E-07  0.3104775E+04  0.7818609E-02  0.8214429E-01
        1   -1    0    0  501    0  0.00000000000E+00  0.00000000000E+00  0.17821198178E+04  0.17821198179E+04  0.50400001928E-02 0. -1.
       -1   -1    0    0    0  501  0.00000000000E+00  0.00000000000E+00 -0.13522702174E+04  0.13522702174E+04  0.50400001928E-02 0.  1.
    10030    2    1    2    0    0  0.00000000000E+00  0.00000000000E+00  0.42984960044E+03  0.31343900353E+04  0.31047753887E+04 0.  0.
        4    1    3    3  502    0 -0.41444391042E+03  0.88864012759E+03 -0.10000750947E+04  0.14005701836E+04  0.12699999809E+01 0.  1.
       -4    1    3    3    0  502  0.41444391042E+03 -0.88864012759E+03  0.14299246952E+04  0.17338198517E+04  0.12699999809E+01 0. -1.
</event>
<event>
 5   0  0.1840359E-07  0.3098429E+04  0.7818609E-02  0.8216169E-01
        1   -1    0    0  501    0  0.00000000000E+00  0.00000000000E+00  0.19988401189E+04  0.19988401189E+04  0.50400001928E-02 0.  1.
       -1   -1    0    0    0  501  0.00000000000E+00  0.00000000000E+00 -0.12007287534E+04  0.12007287534E+04  0.50400001928E-02 0. -1.
    10030    2    1    2    0    0  0.00000000000E+00  0.00000000000E+00  0.79811136554E+03  0.31995688723E+04  0.30984285077E+04 0.  0.
        1    1    3    3  502    0  0.29945132481E+02  0.14098325698E+04 -0.26339892482E+03  0.14345395008E+04  0.50400001928E-02 0.  1.
       -1    1    3    3    0  502 -0.29945132481E+02 -0.14098325698E+04  0.10615102904E+04  0.17650293715E+04  0.50400001928E-02 0. -1.
</event>
<event>
 5   0  0.1814075E-07  0.3102317E+04  0.7818609E-02  0.8215102E-01
        1   -1    0    0  501    0  0.00000000000E+00  0.00000000000E+00  0.17242945975E+04  0.17242945976E+04  0.50400001928E-02 0.  1.
       -1   -1    0    0    0  501  0.00000000000E+00  0.00000000000E+00 -0.13954068963E+04  0.13954068963E+04  0.50400001928E-02 0. -1.
    10030    2    1    2    0    0  0.00000000000E+00  0.00000000000E+00  0.32888770123E+03  0.31197014939E+04  0.31023169230E+04 0.  0.
        5    1    3    3  502    0  0.11760192944E+04  0.57562357549E+03 -0.67190572176E+03  0.14716804240E+04  0.46999998093E+01 0. -1.
       -5    1    3    3    0  502 -0.11760192944E+04 -0.57562357549E+03  0.10007934230E+04  0.16480210699E+04  0.46999998093E+01 0.  1.
</event>
<event>
 5   0  0.5248309E-07  0.3099124E+04  0.7818609E-02  0.8215978E-01
        2   -1    0    0  501    0  0.00000000000E+00  0.00000000000E+00  0.15663322956E+04  0.15663322956E+04  0.25500000920E-02 0.  1.
       -2   -1    0    0    0  501  0.00000000000E+00  0.00000000000E+00 -0.15329715988E+04  0.15329715988E+04  0.25500000920E-02 0. -1.
    10030    2    1    2    0    0  0.00000000000E+00  0.00000000000E+00  0.33360696836E+02  0.30993038944E+04  0.30991243431E+04 0.  0.
        4    1    3    3  502    0 -0.59400237859E+03  0.14298385035E+04  0.78847755261E+02  0.15503211130E+04  0.12699999809E+01 0.  1.
       -4    1    3    3    0  502  0.59400237859E+03 -0.14298385035E+04 -0.45487058426E+02  0.15489827815E+04  0.12699999809E+01 0. -1.
</event>
<event>
 5   0  0.5055900E-07  0.3097486E+04  0.7818609E-02  0.8216428E-01
       -2   -1    0    0    0  501  0.00000000000E+00  0.00000000000E+00  0.13233363435E+04  0.13233363435E+04  0.25500000920E-02 0. -1.
        2   -1    0    0  501    0  0.00000000000E+00  0.00000000000E+00 -0.18125434680E+04  0.18125434680E+04  0.25500000920E-02 0.  1.
    10030    2    1    2    0    0  0.00000000000E+00  0.00000000000E+00 -0.48920712447E+03  0.31358798115E+04  0.30974858485E+04 0.  0.
        2    1    3    3  502    0  0.17167975092E+02  0.11314848107E+04  0.82588266819E+03  0.14009406832E+04  0.25500000920E-02 0. -1.
       -2    1    3    3    0  502 -0.17167975092E+02 -0.11314848107E+04 -0.13150897927E+04  0.17349391283E+04  0.25500000920E-02 0.  1.
</event>
<event>
 5   0  0.1814075E-07  0.3108457E+04  0.7818609E-02  0.8213421E-01
        1   -1    0    0  501    0  0.00000000000E+00  0.00000000000E+00  0.15070244157E+04  0.15070244157E+04  0.50400001928E-02 0.  1.
       -1   -1    0    0    0  501  0.00000000000E+00  0.00000000000E+00 -0.16029106659E+04  0.16029106659E+04  0.50400001928E-02 0. -1.
    10030    2    1    2    0    0  0.00000000000E+00  0.00000000000E+00 -0.95886250178E+02  0.31099350817E+04  0.31084565365E+04 0.  0.
        5    1    3    3  502    0 -0.12192245261E+04 -0.46857230162E+02 -0.10111571971E+04  0.15846655837E+04  0.46999998093E+01 0. -1.
       -5    1    3    3    0  502  0.12192245261E+04  0.46857230162E+02  0.91527094691E+03  0.15252694979E+04  0.46999998093E+01 0.  1.
</event>
<event>
 5   0  0.1840359E-07  0.3094633E+04  0.7818609E-02  0.8217212E-01
       -1   -1    0    0    0  501  0.00000000000E+00  0.00000000000E+00  0.80006558216E+03  0.80006558218E+03  0.50400001928E-02 0. -1.
        1   -1    0    0  501    0  0.00000000000E+00  0.00000000000E+00 -0.29924905007E+04  0.29924905007E+04  0.50400001928E-02 0.  1.
    10030    2    1    2    0    0  0.00000000000E+00  0.00000000000E+00 -0.21924249185E+04  0.37925560828E+04  0.30946331961E+04 0.  0.
        1    1    3    3  502    0  0.55568395047E+03  0.14323389790E+04 -0.13215529944E+04  0.20265443298E+04  0.50400001928E-02 0.  1.
       -1    1    3    3    0  502 -0.55568395047E+03 -0.14323389790E+04 -0.87087192409E+03  0.17660117530E+04  0.50400001928E-02 0. -1.
</event>
<event>
 5   0  0.5342534E-07  0.3103405E+04  0.7818609E-02  0.8214804E-01
        2   -1    0    0  501    0  0.00000000000E+00  0.00000000000E+00  0.22030099908E+04  0.22030099908E+04  0.25500000920E-02 0. -1.
       -2   -1    0    0    0  501  0.00000000000E+00  0.00000000000E+00 -0.10929504264E+04  0.10929504264E+04  0.25500000920E-02 0.  1.
    10030    2    1    2    0    0  0.00000000000E+00  0.00000000000E+00  0.11100595644E+04  0.32959604172E+04  0.31034050388E+04 0.  0.
        3    1    3    3  502    0 -0.11822128984E+04  0.65953859327E+03  0.13604799876E+04  0.19192509737E+04  0.10100000352E+00 0. -1.
       -3    1    3    3    0  502  0.11822128984E+04 -0.65953859327E+03 -0.25042042320E+03  0.13767094435E+04  0.10100000352E+00 0.  1.
</event>
<event>
 5   0  0.5248309E-07  0.3078712E+04  0.7818609E-02  0.8221605E-01
        2   -1    0    0  501    0  0.00000000000E+00  0.00000000000E+00  0.20416252315E+04  0.20416252315E+04  0.25500000920E-02 0.  1.
       -2   -1    0    0    0  501  0.00000000000E+00  0.00000000000E+00 -0.11606521385E+04  0.11606521385E+04  0.25500000920E-02 0. -1.
    10030    2    1    2    0    0  0.00000000000E+00  0.00000000000E+00  0.88097309308E+03  0.32022773700E+04  0.30787118676E+04 0.  0.
        4    1    3    3  502    0  0.99968588981E+03  0.11255919513E+04  0.10620643103E+03  0.15091754497E+04  0.12699999809E+01 0. -1.
       -4    1    3    3    0  502 -0.99968588981E+03 -0.11255919513E+04  0.77476666205E+03  0.16931019203E+04  0.12699999809E+01 0.  1.
</event>
<event>
 5   0  0.5248309E-07  0.3090828E+04  0.7818609E-02  0.8218260E-01
        2   -1    0    0  501    0  0.00000000000E+00  0.00000000000E+00  0.12128140340E+04  0.12128140340E+04  0.25500000920E-02 0.  1.
       -2   -1    0    0    0  501  0.00000000000E+00  0.00000000000E+00 -0.19692255999E+04  0.19692255999E+04  0.25500000920E-02 0. -1.
    10030    2    1    2    0    0  0.00000000000E+00  0.00000000000E+00 -0.75641156585E+03  0.31820396339E+04  0.30908280079E+04 0.  0.
        4    1    3    3  502    0  0.10284621083E+04  0.10582888893E+04  0.94240966633E+02  0.14787131751E+04  0.12699999809E+01 0. -1.
       -4    1    3    3    0  502 -0.10284621083E+04 -0.10582888893E+04 -0.85065253248E+03  0.17033264588E+04  0.12699999809E+01 0.  1.
</event>
<event>
 5   0  0.1830902E-07  0.3095441E+04  0.7818609E-02  0.8216990E-01
        1   -1    0    0  501    0  0.00000000000E+00  0.00000000000E+00  0.15542201347E+04  0.15542201347E+04  0.50400001928E-02 0.  1.
       -1   -1    0    0    0  501  0.00000000000E+00  0.00000000000E+00 -0.15412484568E+04  0.15412484568E+04  0.50400001928E-02 0. -1.
    10030    2    1    2    0    0  0.00000000000E+00  0.00000000000E+00  0.12971677819E+02  0.30954685915E+04  0.30954414122E+04 0.  0.
        3    1    3    3  502    0 -0.61205865584E+03 -0.64358625206E+03 -0.12610505612E+04  0.15424226367E+04  0.10100000352E+00 0. -1.
       -3    1    3    3    0  502  0.61205865584E+03  0.64358625206E+03  0.12740222390E+04  0.15530459548E+04  0.10100000352E+00 0.  1.
</event>
<event>
 5   0  0.1830902E-07  0.3099772E+04  0.7818609E-02  0.8215801E-01
        1   -1    0    0  501    0  0.00000000000E+00  0.00000000000E+00  0.14894934426E+04  0.14894934426E+04  0.50400001928E-02 0.  1.
       -1   -1    0    0    0  501  0.00000000000E+00  0.00000000000E+00 -0.16127269865E+04  0.16127269865E+04  0.50400001928E-02 0. -1.
    10030    2    1    2    0    0  0.00000000000E+00  0.00000000000E+00 -0.12323354388E+03  0.31022204292E+04  0.30997717795E+04 0.  0.
        3    1    3    3  502    0  0.13676947934E+04  0.18185865416E+02  0.66781183893E+03  0.15221341715E+04  0.10100000352E+00 0.  1.
       -3    1    3    3    0  502 -0.13676947934E+04 -0.18185865416E+02 -0.79104538281E+03  0.15800862576E+04  0.10100000352E+00 0. -1.
</event>
<event>
 5   0  0.1840359E-07  0.3098755E+04  0.7818609E-02  0.8216080E-01
        1   -1    0    0  501    0  0.00000000000E+00  0.00000000000E+00  0.23003165036E+04  0.23003165036E+04  0.50400001928E-02 0. -1.
       -1   -1    0    0    0  501  0.00000000000E+00  0.00000000000E+00 -0.10435825002E+04  0.10435825002E+04  0.50400001928E-02 0.  1.
    10030    2    1    2    0    0  0.00000000000E+00  0.00000000000E+00  0.12567340034E+04  0.33438990039E+04  0.30987546197E+04 0.  0.
        1    1    3    3  502    0  0.40338651371E+03 -0.15701301447E+03  0.22337399136E+04  0.22752950947E+04  0.50400001928E-02 0. -1.
       -1    1    3    3    0  502 -0.40338651371E+03  0.15701301447E+03 -0.97700591022E+03  0.10686039092E+04  0.50400001928E-02 0.  1.
</event>
<event>
 5   0  0.1845123E-07  0.3109426E+04  0.7818609E-02  0.8213156E-01
       -1   -1    0    0    0  501  0.00000000000E+00  0.00000000000E+00  0.12921633462E+04  0.12921633462E+04  0.50400001928E-02 0.  1.
        1   -1    0    0  501    0  0.00000000000E+00  0.00000000000E+00 -0.18706094135E+04  0.18706094135E+04  0.50400001928E-02 0. -1.
    10030    2    1    2    0    0  0.00000000000E+00  0.00000000000E+00 -0.57844606727E+03  0.31627727597E+04  0.31094262617E+04 0.  0.
        2    1    3    3  502    0  0.78254133061E+03 -0.58132699533E+03 -0.15211253548E+04  0.18066915494E+04  0.25500000920E-02 0. -1.
       -2    1    3    3    0  502 -0.78254133061E+03  0.58132699533E+03  0.94267928758E+03  0.13560812103E+04  0.25500000920E-02 0.  1.
</event>
<event>
 5   0  0.5342534E-07  0.3099500E+04  0.7818609E-02  0.8215875E-01
       -2   -1    0    0    0  501  0.00000000000E+00  0.00000000000E+00  0.14867054461E+04  0.14867054461E+04  0.25500000920E-02 0. -1.
        2   -1    0    0  501    0  0.00000000000E+00  0.00000000000E+00 -0.16154677012E+04  0.16154677012E+04  0.25500000920E-02 0.  1.
    10030    2    1    2    0    0  0.00000000000E+00  0.00000000000E+00 -0.12876225503E+03  0.31021731473E+04  0.30994997205E+04 0.  0.
        3    1    3    3  502    0 -0.21462492282E+03 -0.22687810861E+02  0.14715910625E+04  0.14873328006E+04  0.10100000352E+00 0. -1.
       -3    1    3    3    0  502  0.21462492282E+03  0.22687810861E+02 -0.16003533175E+04  0.16148403467E+04  0.10100000352E+00 0.  1.
</event>
<event>
 5   0  0.5342534E-07  0.3094695E+04  0.7818609E-02  0.8217195E-01
       -2   -1    0    0    0  501  0.00000000000E+00  0.00000000000E+00  0.17212533227E+04  0.17212533227E+04  0.25500000920E-02 0.  1.
        2   -1    0    0  501    0  0.00000000000E+00  0.00000000000E+00 -0.13910120437E+04  0.13910120437E+04  0.25500000920E-02 0. -1.
    10030    2    1    2    0    0  0.00000000000E+00  0.00000000000E+00  0.33024127900E+03  0.31122653664E+04  0.30946948813E+04 0.  0.
        3    1    3    3  502    0 -0.80472146884E+03 -0.47722584384E+03 -0.10743389525E+04  0.14246141034E+04  0.10100000352E+00 0. -1.
       -3    1    3    3    0  502  0.80472146884E+03  0.47722584384E+03  0.14045802315E+04  0.16876512630E+04  0.10100000352E+00 0.  1.
</event>
<event>
 5   0  0.1830902E-07  0.3091412E+04  0.7818609E-02  0.8218099E-01
        1   -1    0    0  501    0  0.00000000000E+00  0.00000000000E+00  0.15860277646E+04  0.15860277646E+04  0.50400001928E-02 0. -1.
       -1   -1    0    0    0  501  0.00000000000E+00  0.00000000000E+00 -0.15064091462E+04  0.15064091462E+04  0.50400001928E-02 0.  1.
    10030    2    1    2    0    0  0.00000000000E+00  0.00000000000E+00  0.79618618388E+02  0.30924369109E+04  0.30914118010E+04 0.  0.
        3    1    3    3  502    0 -0.77291146238E+02  0.36422336751E+03  0.15404981386E+04  0.15848555480E+04  0.10100000352E+00 0. -1.
       -3    1    3    3    0  502  0.77291146238E+02 -0.36422336751E+03 -0.14608795202E+04  0.15075813628E+04  0.10100000352E+00 0.  1.
</event>
<event>
 5   0  0.5055900E-07  0.3064423E+04  0.7818609E-02  0.8225570E-01
        2   -1    0    0  501    0  0.00000000000E+00  0.00000000000E+00  0.29436038829E+04  0.29436038829E+04  0.25500000920E-02 0.  1.
       -2   -1    0    0    0  501  0.00000000000E+00  0.00000000000E+00 -0.79755035836E+03  0.79755035837E+03  0.25500000920E-02 0. -1.
    10030    2    1    2    0    0  0.00000000000E+00  0.00000000000E+00  0.21460535245E+04  0.37411542413E+04  0.30644231638E+04 0.  0.
        2    1    3    3  502    0  0.46289767733E+03 -0.13589783666E+04  0.17265735554E+04  0.22454738259E+04  0.25500000920E-02 0.  1.
       -2    1    3    3    0  502 -0.46289767733E+03  0.13589783666E+04  0.41947996913E+03  0.14956804154E+04  0.25500000920E-02 0. -1.
</event>
<event>
 5   0  0.5154105E-07  0.3087010E+04  0.7818609E-02  0.8219312E-01
       -2   -1    0    0    0  501  0.00000000000E+00  0.00000000000E+00  0.88190537531E+03  0.88190537532E+03  0.25500000920E-02 0. -1.
        2   -1    0    0  501    0  0.00000000000E+00  0.00000000000E+00 -0.27014322274E+04  0.27014322274E+04  0.25500000920E-02 0.  1.
    10030    2    1    2    0    0  0.00000000000E+00  0.00000000000E+00 -0.18195268521E+04  0.35833376027E+04  0.30870099465E+04 0.  0.
        1    1    3    3  502    0 -0.14516293843E+03 -0.20543730263E+03 -0.26774787373E+04  0.26892692600E+04  0.50400001928E-02 0.  1.
       -1    1    3    3    0  502  0.14516293843E+03  0.20543730263E+03  0.85795188524E+03  0.89406834270E+03  0.50400001928E-02 0. -1.
</event>
<event>
 5   0  0.5248309E-07  0.3092164E+04  0.7818609E-02  0.8217892E-01
       -2   -1    0    0    0  501  0.00000000000E+00  0.00000000000E+00  0.92343945856E+03  0.92343945856E+03  0.25500000920E-02 0.  1.
        2   -1    0    0  501    0  0.00000000000E+00  0.00000000000E+00 -0.25885508975E+04  0.25885508975E+04  0.25500000920E-02 0. -1.
    10030    2    1    2    0    0  0.00000000000E+00  0.00000000000E+00 -0.16651114390E+04  0.35119903561E+04  0.30921643160E+04 0.  0.
        4    1    3    3  502    0  0.51949383261E+03  0.89851871345E+03 -0.21340712635E+04  0.23730721631E+04  0.12699999809E+01 0. -1.
       -4    1    3    3    0  502 -0.51949383261E+03 -0.89851871345E+03  0.46895982451E+03  0.11389181930E+04  0.12699999809E+01 0.  1.
</event>
<event>
 5   0  0.1814075E-07  0.3101428E+04  0.7818609E-02  0.8215346E-01
       -1   -1    0    0    0  501  0.00000000000E+00  0.00000000000E+00  0.14913584893E+04  0.14913584893E+04  0.50400001928E-02 0.  1.
        1   -1    0    0  501    0  0.00000000000E+00  0.00000000000E+00 -0.16124318823E+04  0.16124318823E+04  0.50400001928E-02 0. -1.
    10030    2    1    2    0    0  0.00000000000E+00  0.00000000000E+00 -0.12107339302E+03  0.31037903716E+04  0.31014280428E+04 0.  0.
        5    1    3    3  502    0 -0.90913119251E+03  0.18801180400E+03  0.11825140373E+04  0.15034059672E+04  0.46999998093E+01 0.  1.
       -5    1    3    3    0  502  0.90913119251E+03 -0.18801180400E+03 -0.13035874303E+04  0.16003844045E+04  0.46999998093E+01 0. -1.
</event>
<event>
 5   0  0.5154105E-07  0.3099760E+04  0.7818609E-02  0.8215804E-01
       -2   -1    0    0    0  501  0.00000000000E+00  0.00000000000E+00  0.12057197306E+04  0.12057197306E+04  0.25500000920E-02 0.  1.
        2   -1    0    0  501    0  0.00000000000E+00  0.00000000000E+00 -0.19922777079E+04  0.19922777079E+04  0.25500000920E-02 0. -1.
    10030    2    1    2    0    0  0.00000000000E+00  0.00000000000E+00 -0.78655797729E+03  0.31979974384E+04  0.30997603399E+04 0.  0.
        1    1    3    3  502    0 -0.10681412818E+04  0.12267165177E+03  0.75841187978E+03  0.13157365661E+04  0.50400001928E-02 0.  1.
       -1    1    3    3    0  502  0.10681412818E+04 -0.12267165177E+03 -0.15449698571E+04  0.18822608723E+04  0.50400001928E-02 0. -1.
</event>
<event>
 5   0  0.5342534E-07  0.3101734E+04  0.7818609E-02  0.8215262E-01
       -2   -1    0    0    0  501  0.00000000000E+00  0.00000000000E+00  0.16811670750E+04  0.16811670750E+04  0.25500000920E-02 0. -1.
        2   -1    0    0  501    0  0.00000000000E+00  0.00000000000E+00 -0.14306663054E+04  0.14306663054E+04  0.25500000920E-02 0.  1.
    10030    2    1    2    0    0  0.00000000000E+00  0.00000000000E+00  0.25050076961E+03  0.31118333804E+04  0.31017344103E+04 0.  0.
        3    1    3    3  502    0 -0.11033021055E+04  0.52912674703E+03  0.10812108365E+04  0.16328709482E+04  0.10100000352E+00 0. -1.
       -3    1    3    3    0  502  0.11033021055E+04 -0.52912674703E+03 -0.83071006688E+03  0.14789624322E+04  0.10100000352E+00 0.  1.
</event>
<event>
 5   0  0.1875284E-07  0.3101412E+04  0.7818609E-02  0.8215351E-01
       -1   -1    0    0    0  501  0.00000000000E+00  0.00000000000E+00  0.15658497528E+04  0.15658497528E+04  0.50400001928E-02 0. -1.
        1   -1    0    0  501    0  0.00000000000E+00  0.00000000000E+00 -0.15357083503E+04  0.15357083503E+04  0.50400001928E-02 0.  1.
    10030    2    1    2    0    0  0.00000000000E+00  0.00000000000E+00  0.30141402481E+02  0.31015581031E+04  0.31014116403E+04 0.  0.
        4    1    3    3  502    0 -0.78537858477E+03  0.46366504702E+03 -0.12391345018E+04  0.15385904990E+04  0.12699999809E+01 0.  1.
       -4    1    3    3    0  502  0.78537858477E+03 -0.46366504702E+03  0.12692759043E+04  0.15629676041E+04  0.12699999809E+01 0. -1.
</event>
<event>
 5   0  0.5376678E-07  0.3089092E+04  0.7818609E-02  0.8218738E-01
        2   -1    0    0  501    0  0.00000000000E+00  0.00000000000E+00  0.12238441860E+04  0.12238441860E+04  0.25500000920E-02 0. -1.
       -2   -1    0    0    0  501  0.00000000000E+00  0.00000000000E+00 -0.19492863343E+04  0.19492863343E+04  0.25500000920E-02 0.  1.
    10030    2    1    2    0    0  0.00000000000E+00  0.00000000000E+00 -0.72544214832E+03  0.31731305203E+04  0.30890922596E+04 0.  0.
        5    1    3    3  502    0 -0.66924483016E+03  0.10341604079E+04  0.59441352720E+03  0.13677448312E+04  0.46999998093E+01 0. -1.
       -5    1    3    3    0  502  0.66924483016E+03 -0.10341604079E+04 -0.13198556755E+04  0.18053856891E+04  0.46999998093E+01 0.  1.
</event>
<event>
 5   0  0.5055900E-07  0.3097108E+04  0.7818609E-02  0.8216532E-01
        2   -1    0    0  501    0  0.00000000000E+00  0.00000000000E+00  0.18201645047E+04  0.18201645047E+04  0.25500000920E-02 0. -1.
       -2   -1    0    0    0  501  0.00000000000E+00  0.00000000000E+00 -0.13174736689E+04  0.13174736689E+04  0.25500000920E-02 0.  1.
    10030    2    1    2    0    0  0.00000000000E+00  0.00000000000E+00  0.50269083582E+03  0.31376381737E+04  0.30971075591E+04 0.  0.
        2    1    3    3  502    0 -0.44385031235E+03  0.71679045781E+02 -0.12498964167E+04  0.13283004321E+04  0.25500000920E-02 0.  1.
       -2    1    3    3    0  502  0.44385031235E+03 -0.71679045781E+02  0.17525872525E+04  0.18093377416E+04  0.25500000920E-02 0. -1.
</event>
<event>
 5   0  0.5055900E-07  0.3098464E+04  0.7818609E-02  0.8216160E-01
       -2   -1    0    0    0  501  0.00000000000E+00  0.00000000000E+00  0.13952182642E+04  0.13952182642E+04  0.25500000920E-02 0.  1.
        2   -1    0    0  501    0  0.00000000000E+00  0.00000000000E+00 -0.17202465026E+04  0.17202465026E+04  0.25500000920E-02 0. -1.
    10030    2    1    2    0    0  0.00000000000E+00  0.00000000000E+00 -0.32502823837E+03  0.31154647669E+04  0.30984637093E+04 0.  0.
        2    1    3    3  502    0  0.10153721438E+04 -0.11492687714E+04 -0.38353844448E+03  0.15807912695E+04  0.25500000920E-02 0. -1.
       -2    1    3    3    0  502 -0.10153721438E+04  0.11492687714E+04  0.58510206113E+02  0.15346734974E+04  0.25500000920E-02 0.  1.
</event>
<event>
 5   0  0.1830902E-07  0.3107557E+04  0.7818609E-02  0.8213667E-01
       -1   -1    0    0    0  501  0.00000000000E+00  0.00000000000E+00  0.13688619086E+04  0.13688619086E+04  0.50400001928E-02 0. -1.
        1   -1    0    0  501    0  0.00000000000E+00  0.00000000000E+00 -0.17636746171E+04  0.17636746171E+04  0.50400001928E-02 0.  1.
    10030    2    1    2    0    0  0.00000000000E+00  0.00000000000E+00 -0.39481270846E+03  0.31325365257E+04  0.31075565980E+04 0.  0.
        3    1    3    3  502    0  0.13262762295E+04 -0.51188084540E+03 -0.82950060227E+03  0.16459349611E+04  0.10100000352E+00 0. -1.
       -3    1    3    3    0  502 -0.13262762295E+04  0.51188084540E+03  0.43468789381E+03  0.14866015646E+04  0.10100000352E+00 0.  1.
</event>
<event>
 5   0  0.1845123E-07  0.3096417E+04  0.7818609E-02  0.8216722E-01
       -1   -1    0    0    0  501  0.00000000000E+00  0.00000000000E+00  0.11156456544E+04  0.11156456544E+04  0.50400001928E-02 0. -1.
        1   -1    0    0  501    0  0.00000000000E+00  0.00000000000E+00 -0.21484871083E+04  0.21484871083E+04  0.50400001928E-02 0.  1.
    10030    2    1    2    0    0  0.00000000000E+00  0.00000000000E+00 -0.10328414539E+04  0.32641327628E+04  0.30964174822E+04 0.  0.
        2    1    3    3  502    0  0.12572445386E+04  0.70233733715E+03  0.82701513169E+02  0.14424912843E+04  0.25500000920E-02 0. -1.
       -2    1    3    3    0  502 -0.12572445386E+04 -0.70233733715E+03 -0.11155429671E+04  0.18216414785E+04  0.25500000920E-02 0.  1.
</event>
<event>
 5   0  0.5154105E-07  0.3096061E+04  0.7818609E-02  0.8216820E-01
       -2   -1    0    0    0  501  0.00000000000E+00  0.00000000000E+00  0.11014887919E+04  0.11014887919E+04  0.25500000920E-02 0. -1.
        2   -1    0    0  501    0  0.00000000000E+00  0.00000000000E+00 -0.21755991814E+04  0.21755991814E+04  0.25500000920E-02 0.  1.
    10030    2    1    2    0    0  0.00000000000E+00  0.00000000000E+00 -0.10741103895E+04  0.32770879733E+04  0.30960607965E+04 0.  0.
        1    1    3    3  502    0  0.83087835009E+03  0.95803937613E+03 -0.14767715590E+04  0.19465488734E+04  0.50400001928E-02 0.  1.
       -1    1    3    3    0  502 -0.83087835009E+03 -0.95803937613E+03  0.40266116953E+03  0.13305390999E+04  0.50400001928E-02 0. -1.
</event>
<event>
 5   0  0.1845123E-07  0.3092777E+04  0.7818609E-02  0.8217723E-01
       -1   -1    0    0    0  501  0.00000000000E+00  0.00000000000E+00  0.12079091194E+04  0.12079091194E+04  0.50400001928E-02 0. -1.
        1   -1    0    0  501    0  0.00000000000E+00  0.00000000000E+00 -0.19797167479E+04  0.19797167479E+04  0.50400001928E-02 0.  1.
    10030    2    1    2    0    0  0.00000000000E+00  0.00000000000E+00 -0.77180762849E+03  0.31876258673E+04  0.30927773367E+04 0.  0.
        2    1    3    3  502    0 -0.55092752378E+03 -0.72785216945E+02 -0.18732466923E+04  0.19539375616E+04  0.25500000920E-02 0.  1.
       -2    1    3    3    0  502  0.55092752378E+03  0.72785216945E+02  0.11014390639E+04  0.12336883057E+04  0.25500000920E-02 0. -1.
</event>
<event>
 5   0  0.1814075E-07  0.3103666E+04  0.7818609E-02  0.8214733E-01
       -1   -1    0    0    0  501  0.00000000000E+00  0.00000000000E+00  0.13459053579E+04  0.13459053579E+04  0.50400001928E-02 0.  1.
        1   -1    0    0  501    0  0.00000000000E+00  0.00000000000E+00 -0.17892682568E+04  0.17892682568E+04  0.50400001928E-02 0. -1.
    10030    2    1    2    0    0  0.00000000000E+00  0.00000000000E+00 -0.44336289894E+03  0.31351736147E+04  0.31036660474E+04 0.  0.
        5    1    3    3  502    0 -0.38604597423E+03 -0.65272106939E+03 -0.15893415934E+04  0.17609954796E+04  0.46999998093E+01 0. -1.
       -5    1    3    3    0  502  0.38604597423E+03  0.65272106939E+03  0.11459786945E+04  0.13741781351E+04  0.46999998093E+01 0.  1.
</event>
<event>
 5   0  0.5376678E-07  0.3103306E+04  0.7818609E-02  0.8214831E-01
       -2   -1    0    0    0  501  0.00000000000E+00  0.00000000000E+00  0.29655531156E+04  0.29655531156E+04  0.25500000920E-02 0.  1.
        2   -1    0    0  501    0  0.00000000000E+00  0.00000000000E+00 -0.81186465156E+03  0.81186465156E+03  0.25500000920E-02 0. -1.
    10030    2    1    2    0    0  0.00000000000E+00  0.00000000000E+00  0.21536884641E+04  0.37774177672E+04  0.31033064605E+04 0.  0.
        5    1    3    3  502    0  0.93132684952E+02  0.63629664387E+03  0.27956994829E+04  0.28687113491E+04  0.46999998093E+01 0.  1.
       -5    1    3    3    0  502 -0.93132684952E+02 -0.63629664387E+03 -0.64201101880E+03  0.90870641808E+03  0.46999998093E+01 0. -1.
</event>
<event>
 5   0  0.1845123E-07  0.3099810E+04  0.7818609E-02  0.8215790E-01
        1   -1    0    0  501    0  0.00000000000E+00  0.00000000000E+00  0.26962259651E+04  0.26962259651E+04  0.50400001928E-02 0.  1.
       -1   -1    0    0    0  501  0.00000000000E+00  0.00000000000E+00 -0.89095092057E+03  0.89095092059E+03  0.50400001928E-02 0. -1.
    10030    2    1    2    0    0  0.00000000000E+00  0.00000000000E+00  0.18052750446E+04  0.35871768857E+04  0.30998096753E+04 0.  0.
        2    1    3    3  502    0 -0.65069235310E+03 -0.17971194009E+03 -0.71189154811E+03  0.98106396126E+03  0.25500000920E-02 0. -1.
       -2    1    3    3    0  502  0.65069235310E+03  0.17971194009E+03  0.25171665927E+04  0.26061129245E+04  0.25500000920E-02 0.  1.
</event>
<event>
 5   0  0.1830902E-07  0.3107060E+04  0.7818609E-02  0.8213803E-01
       -1   -1    0    0    0  501  0.00000000000E+00  0.00000000000E+00  0.13478530486E+04  0.13478530486E+04  0.50400001928E-02 0. -1.
        1   -1    0    0  501    0  0.00000000000E+00  0.00000000000E+00 -0.17905926566E+04  0.17905926566E+04  0.50400001928E-02 0.  1.
    10030    2    1    2    0    0  0.00000000000E+00  0.00000000000E+00 -0.44273960795E+03  0.31384457052E+04  0.31070601996E+04 0.  0.
        3    1    3    3  502    0 -0.37484156067E+03 -0.43296713994E+03  0.12373400135E+04  0.13634430898E+04  0.10100000352E+00 0. -1.
       -3    1    3    3    0  502  0.37484156067E+03  0.43296713994E+03 -0.16800796215E+04  0.17750026154E+04  0.10100000352E+00 0.  1.
</event>
<event>
 5   0  0.1814075E-07  0.3084122E+04  0.7818609E-02  0.8220109E-01
        1   -1    0    0  501    0  0.00000000000E+00  0.00000000000E+00  0.16699147846E+04  0.16699147846E+04  0.50400001928E-02 0. -1.
       -1   -1    0    0    0  501  0.00000000000E+00  0.00000000000E+00 -0.14239963885E+04  0.14239963885E+04  0.50400001928E-02 0.  1.
    10030    2    1    2    0    0  0.00000000000E+00  0.00000000000E+00  0.24591839608E+03  0.30939111731E+04  0.30841223208E+04 0.  0.
        5    1    3    3  502    0  0.59622215435E+03  0.12403414395E+04 -0.57495201869E+03  0.14914823692E+04  0.46999998093E+01 0.  1.
       -5    1    3    3    0  502 -0.59622215435E+03 -0.12403414395E+04  0.82087041476E+03  0.16024288039E+04  0.46999998093E+01 0. -1.
</event>
<event>
 5   0  0.5055900E-07  0.3098890E+04  0.7818609E-02  0.8216043E-01
        2   -1    0    0  501    0  0.00000000000E+00  0.00000000000E+00  0.17223189094E+04  0.17223189094E+04  0.25500000920E-02 0. -1.
       -2   -1    0    0    0  501  0.00000000000E+00  0.00000000000E+00 -0.13939225866E+04  0.13939225866E+04  0.25500000920E-02 0.  1.
    10030    2    1    2    0    0  0.00000000000E+00  0.00000000000E+00  0.32839632284E+03  0.31162414960E+04  0.30988896264E+04 0.  0.
        2    1    3    3  502    0 -0.12352197668E+04 -0.19794115496E+03  0.10835550746E+04  0.16550045839E+04  0.25500000920E-02 0. -1.
       -2    1    3    3    0  502  0.12352197668E+04  0.19794115496E+03 -0.75515875173E+03  0.14612369121E+04  0.25500000920E-02 0.  1.
</event>
<event>
 5   0  0.5154105E-07  0.3100183E+04  0.7818609E-02  0.8215688E-01
        2   -1    0    0  501    0  0.00000000000E+00  0.00000000000E+00  0.22016854155E+04  0.22016854155E+04  0.25500000920E-02 0. -1.
       -2   -1    0    0    0  501  0.00000000000E+00  0.00000000000E+00 -0.10913383781E+04  0.10913383781E+04  0.25500000920E-02 0.  1.
    10030    2    1    2    0    0  0.00000000000E+00  0.00000000000E+00  0.11103470375E+04  0.32930237936E+04  0.31001830852E+04 0.  0.
        1    1    3    3  502    0  0.18717214003E+02  0.11711403912E+03  0.21968589547E+04  0.22000580217E+04  0.50400001928E-02 0. -1.
       -1    1    3    3    0  502 -0.18717214003E+02 -0.11711403912E+03 -0.10865119172E+04  0.10929657719E+04  0.50400001928E-02 0.  1.
</event>
<event>
 5   0  0.1830902E-07  0.3104945E+04  0.7818609E-02  0.8214382E-01
       -1   -1    0    0    0  501  0.00000000000E+00  0.00000000000E+00  0.16329201092E+04  0.16329201092E+04  0.50400001928E-02 0. -1.
        1   -1    0    0  501    0  0.00000000000E+00  0.00000000000E+00 -0.14759884289E+04  0.14759884289E+04  0.50400001928E-02 0.  1.
    10030    2    1    2    0    0  0.00000000000E+00  0.00000000000E+00  0.15693168027E+03  0.31089085382E+04  0.31049452083E+04 0.  0.
        3    1    3    3  502    0  0.17021905469E+03 -0.13801139049E+03  0.16173562587E+04  0.16321344762E+04  0.10100000352E+00 0. -1.
       -3    1    3    3    0  502 -0.17021905469E+03  0.13801139049E+03 -0.14604245785E+04  0.14767740620E+04  0.10100000352E+00 0.  1.
</event>
<event>
 5   0  0.5154105E-07  0.3095636E+04  0.7818609E-02  0.8216937E-01
       -2   -1    0    0    0  501  0.00000000000E+00  0.00000000000E+00  0.14365372739E+04  0.14365372739E+04  0.25500000920E-02 0. -1.
        2   -1    0    0  501    0  0.00000000000E+00  0.00000000000E+00 -0.16677192504E+04  0.16677192504E+04  0.25500000920E-02 0.  1.
    10030    2    1    2    0    0  0.00000000000E+00  0.00000000000E+00 -0.23118197658E+03  0.31042565243E+04  0.30956361967E+04 0.  0.
        1    1    3    3  502    0 -0.29040434274E+03 -0.63643284751E+03 -0.15001455604E+04  0.16552396063E+04  0.50400001928E-02 0.  1.
       -1    1    3    3    0  502  0.29040434274E+03  0.63643284751E+03  0.12689635838E+04  0.14490169180E+04  0.50400001928E-02 0. -1.
</event>
<event>
 5   0  0.5154105E-07  0.3097519E+04  0.7818609E-02  0.8216419E-01
        2   -1    0    0  501    0  0.00000000000E+00  0.00000000000E+00  0.12725767057E+04  0.12725767057E+04  0.25500000920E-02 0.  1.
       -2   -1    0    0    0  501  0.00000000000E+00  0.00000000000E+00 -0.18848809145E+04  0.18848809145E+04  0.25500000920E-02 0. -1.
    10030    2    1    2    0    0  0.00000000000E+00  0.00000000000E+00 -0.61230420880E+03  0.31574576202E+04  0.30975187133E+04 0.  0.
        1    1    3    3  502    0 -0.22132868959E+03  0.44366804185E+03  0.11894919204E+04  0.12886887711E+04  0.50400001928E-02 0.  1.
       -1    1    3    3    0  502  0.22132868959E+03 -0.44366804185E+03 -0.18017961292E+04  0.18687688491E+04  0.50400001928E-02 0. -1.
</event>
<event>
 5   0  0.5376678E-07  0.3107680E+04  0.7818609E-02  0.8213633E-01
        2   -1    0    0  501    0  0.00000000000E+00  0.00000000000E+00  0.11653721798E+04  0.11653721798E+04  0.25500000920E-02 0. -1.
       -2   -1    0    0    0  501  0.00000000000E+00  0.00000000000E+00 -0.20718008840E+04  0.20718008840E+04  0.25500000920E-02 0.  1.
    10030    2    1    2    0    0  0.00000000000E+00  0.00000000000E+00 -0.90642870414E+03  0.32371730638E+04  0.31076802360E+04 0.  0.
        5    1    3    3  502    0  0.89003602413E+02  0.13663405194E+04  0.31196126495E+03  0.14043325735E+04  0.46999998093E+01 0. -1.
       -5    1    3    3    0  502 -0.89003602413E+02 -0.13663405194E+04 -0.12183899691E+04  0.18328404903E+04  0.46999998093E+01 0.  1.
</event>
<event>
 5   0  0.5154105E-07  0.3116344E+04  0.7818609E-02  0.8211267E-01
       -2   -1    0    0    0  501  0.00000000000E+00  0.00000000000E+00  0.17793525483E+04  0.17793525483E+04  0.25500000920E-02 0. -1.
        2   -1    0    0  501    0  0.00000000000E+00  0.00000000000E+00 -0.13644854676E+04  0.13644854676E+04  0.25500000920E-02 0.  1.
    10030    2    1    2    0    0  0.00000000000E+00  0.00000000000E+00  0.41486708070E+03  0.31438380159E+04  0.31163444572E+04 0.  0.
        1    1    3    3  502    0  0.33636890840E+03  0.65072802753E+03  0.15948154561E+04  0.17550006688E+04  0.50400001928E-02 0.  1.
       -1    1    3    3    0  502 -0.33636890840E+03 -0.65072802753E+03 -0.11799483754E+04  0.13888373472E+04  0.50400001928E-02 0. -1.
</event>
<event>
 5   0  0.1840359E-07  0.3104310E+04  0.7818609E-02  0.8214556E-01
       -1   -1    0    0    0  501  0.00000000000E+00  0.00000000000E+00  0.13133247364E+04  0.13133247364E+04  0.50400001928E-02 0.  1.
        1   -1    0    0  501    0  0.00000000000E+00  0.00000000000E+00 -0.18344164229E+04  0.18344164229E+04  0.50400001928E-02 0. -1.
    10030    2    1    2    0    0  0.00000000000E+00  0.00000000000E+00 -0.52109168653E+03  0.31477411594E+04  0.31043095626E+04 0.  0.
        1    1    3    3  502    0  0.19028063432E+03 -0.46212303251E+03 -0.17506017201E+04  0.18205413479E+04  0.50400001928E-02 0. -1.
       -1    1    3    3    0  502 -0.19028063432E+03  0.46212303251E+03  0.12295100335E+04  0.13271998115E+04  0.50400001928E-02 0.  1.
</event>
<event>
 5   0  0.1840359E-07  0.3099652E+04  0.7818609E-02  0.8215833E-01
        1   -1    0    0  501    0  0.00000000000E+00  0.00000000000E+00  0.18312667139E+04  0.18312667139E+04  0.50400001928E-02 0.  1.
       -1   -1    0    0    0  501  0.00000000000E+00  0.00000000000E+00 -0.13116387154E+04  0.13116387154E+04  0.50400001928E-02 0. -1.
    10030    2    1    2    0    0  0.00000000000E+00  0.00000000000E+00  0.51962799849E+03  0.31429054293E+04  0.30996517999E+04 0.  0.
        1    1    3    3  502    0 -0.10095424081E+04  0.41161244193E+02  0.14514110639E+04  0.17684637962E+04  0.50400001928E-02 0.  1.
       -1    1    3    3    0  502  0.10095424081E+04 -0.41161244193E+02 -0.93178306543E+03  0.13744416331E+04  0.50400001928E-02 0. -1.
</event>
<event>
 5   0  0.1840359E-07  0.3060727E+04  0.7818609E-02  0.8226600E-01
       -1   -1    0    0    0  501  0.00000000000E+00  0.00000000000E+00  0.98289950964E+03  0.98289950966E+03  0.50400001928E-02 0. -1.
        1   -1    0    0  501    0  0.00000000000E+00  0.00000000000E+00 -0.23827582244E+04  0.23827582244E+04  0.50400001928E-02 0.  1.
    10030    2    1    2    0    0  0.00000000000E+00  0.00000000000E+00 -0.13998587147E+04  0.33656577340E+04  0.30607266394E+04 0.  0.
        1    1    3    3  502    0 -0.27782316113E+03 -0.13229088270E+04  0.89001052717E+02  0.13546935671E+04  0.50400001928E-02 0. -1.
       -1    1    3    3    0  502  0.27782316113E+03  0.13229088270E+04 -0.14888597674E+04  0.20109641669E+04  0.50400001928E-02 0.  1.
</event>
<event>
 5   0  0.5376678E-07  0.3096706E+04  0.7818609E-02  0.8216642E-01
        2   -1    0    0  501    0  0.00000000000E+00  0.00000000000E+00  0.19246459214E+04  0.19246459214E+04  0.25500000920E-02 0.  1.
       -2   -1    0    0    0  501  0.00000000000E+00  0.00000000000E+00 -0.12456303726E+04  0.12456303726E+04  0.25500000920E-02 0. -1.
    10030    2    1    2    0    0  0.00000000000E+00  0.00000000000E+00  0.67901554874E+03  0.31702762940E+04  0.30967062607E+04 0.  0.
        5    1    3    3  502    0  0.63852671533E+02  0.11128940258E+04 -0.76062199460E+03  0.13495103501E+04  0.46999998093E+01 0. -1.
       -5    1    3    3    0  502 -0.63852671533E+02 -0.11128940258E+04  0.14396375433E+04  0.18207659439E+04  0.46999998093E+01 0.  1.
</event>
<event>
 5   0  0.5154105E-07  0.3118062E+04  0.7818609E-02  0.8210798E-01
        2   -1    0    0  501    0  0.00000000000E+00  0.00000000000E+00  0.17189935604E+04  0.17189935604E+04  0.25500000920E-02 0. -1.
       -2   -1    0    0    0  501  0.00000000000E+00  0.00000000000E+00 -0.14139539869E+04  0.14139539869E+04  0.25500000920E-02 0.  1.
    10030    2    1    2    0    0  0.00000000000E+00  0.00000000000E+00  0.30503957360E+03  0.31329475473E+04  0.31180620893E+04 0.  0.
        1    1    3    3  502    0  0.47019378585E+03  0.98953279397E+03 -0.96197357632E+03  0.14579610791E+04  0.50400001928E-02 0.  1.
       -1    1    3    3    0  502 -0.47019378585E+03 -0.98953279397E+03  0.12670131499E+04  0.16749864682E+04  0.50400001928E-02 0. -1.
</event>
<event>
 5   0  0.1814075E-07  0.3096723E+04  0.7818609E-02  0.8216638E-01
        1   -1    0    0  501    0  0.00000000000E+00  0.00000000000E+00  0.20262218576E+04  0.20262218576E+04  0.50400001928E-02 0.  1.
       -1   -1    0    0    0  501  0.00000000000E+00  0.00000000000E+00 -0.11831991320E+04  0.11831991320E+04  0.50400001928E-02 0. -1.
    10030    2    1    2    0    0  0.00000000000E+00  0.00000000000E+00  0.84302272559E+03  0.32094209896E+04  0.30967233930E+04 0.  0.
        5    1    3    3  502    0  0.11411910287E+04 -0.90860369160E+03  0.95956202873E+03  0.17460409530E+04  0.46999998093E+01 0.  1.
       -5    1    3    3    0  502 -0.11411910287E+04  0.90860369160E+03 -0.11653930315E+03  0.14633800366E+04  0.46999998093E+01 0. -1.
</event>
<event>
 5   0  0.1830902E-07  0.3101648E+04  0.7818609E-02  0.8215286E-01
       -1   -1    0    0    0  501  0.00000000000E+00  0.00000000000E+00  0.14841451481E+04  0.14841451481E+04  0.50400001928E-02 0.  1.
        1   -1    0    0  501    0  0.00000000000E+00  0.00000000000E+00 -0.16204980559E+04  0.16204980559E+04  0.50400001928E-02 0. -1.
    10030    2    1    2    0    0  0.00000000000E+00  0.00000000000E+00 -0.13635290784E+03  0.31046432040E+04  0.31016475152E+04 0.  0.
        3    1    3    3  502    0 -0.20736949989E+03  0.34211537335E+03 -0.15679591059E+04  0.16181905964E+04  0.10100000352E+00 0. -1.
       -3    1    3    3    0  502  0.20736949989E+03 -0.34211537335E+03  0.14316061981E+04  0.14864526076E+04  0.10100000352E+00 0.  1.
</event>
<event>
 5   0  0.5154105E-07  0.3102114E+04  0.7818609E-02  0.8215158E-01
        2   -1    0    0  501    0  0.00000000000E+00  0.00000000000E+00  0.23690880914E+04  0.23690880914E+04  0.25500000920E-02 0. -1.
       -2   -1    0    0    0  501  0.00000000000E+00  0.00000000000E+00 -0.10154871523E+04  0.10154871523E+04  0.25500000920E-02 0.  1.
    10030    2    1    2    0    0  0.00000000000E+00  0.00000000000E+00  0.13536009391E+04  0.33845752437E+04  0.31021144528E+04 0.  0.
        1    1    3    3  502    0 -0.57801507382E+03  0.14352230811E+04  0.55822238715E+03  0.16448644174E+04  0.50400001928E-02 0.  1.
       -1    1    3    3    0  502  0.57801507382E+03 -0.14352230811E+04  0.79537855200E+03  0.17397108263E+04  0.50400001928E-02 0. -1.
</event>
<event>
 5   0  0.1840359E-07  0.3102102E+04  0.7818609E-02  0.8215161E-01
        1   -1    0    0  501    0  0.00000000000E+00  0.00000000000E+00  0.16737898966E+04  0.16737898966E+04  0.50400001928E-02 0. -1.
       -1   -1    0    0    0  501  0.00000000000E+00  0.00000000000E+00 -0.14373126670E+04  0.14373126670E+04  0.50400001928E-02 0.  1.
    10030    2    1    2    0    0  0.00000000000E+00  0.00000000000E+00  0.23647722964E+03  0.31111025636E+04  0.31021021391E+04 0.  0.
        1    1    3    3  502    0 -0.12614217548E+03  0.15449643269E+04  0.17255107626E+03  0.15596796126E+04  0.50400001928E-02 0. -1.
       -1    1    3    3    0  502  0.12614217548E+03 -0.15449643269E+04  0.63926153382E+02  0.15514229511E+04  0.50400001928E-02 0.  1.
</event>
<event>
 5   0  0.1845123E-07  0.3099557E+04  0.7818609E-02  0.8215860E-01
        1   -1    0    0  501    0  0.00000000000E+00  0.00000000000E+00  0.14029231824E+04  0.14029231824E+04  0.50400001928E-02 0.  1.
       -1   -1    0    0    0  501  0.00000000000E+00  0.00000000000E+00 -0.17120063213E+04  0.17120063213E+04  0.50400001928E-02 0. -1.
    10030    2    1    2    0    0  0.00000000000E+00  0.00000000000E+00 -0.30908313897E+03  0.31149295037E+04  0.30995569726E+04 0.  0.
        2    1    3    3  502    0  0.44647814893E+03  0.87771013459E+03  0.10480955236E+04  0.14381314420E+04  0.25500000920E-02 0.  1.
       -2    1    3    3    0  502 -0.44647814893E+03 -0.87771013459E+03 -0.13571786625E+04  0.16767980617E+04  0.25500000920E-02 0. -1.
</event>
<event>
 5   0  0.1875284E-07  0.3102683E+04  0.7818609E-02  0.8215002E-01
        1   -1    0    0  501    0  0.00000000000E+00  0.00000000000E+00  0.20370101617E+04  0.20370101617E+04  0.50400001928E-02 0.  1.
       -1   -1    0    0    0  501  0.00000000000E+00  0.00000000000E+00 -0.11814671493E+04  0.11814671493E+04  0.50400001928E-02 0. -1.
    10030    2    1    2    0    0  0.00000000000E+00  0.00000000000E+00  0.85554301247E+03  0.32184773110E+04  0.31026830897E+04 0.  0.
        4    1    3    3  502    0 -0.95472232186E+02 -0.13387723443E+04  0.12347727489E+04  0.18237575747E+04  0.12699999809E+01 0.  1.
       -4    1    3    3    0  502  0.95472232186E+02  0.13387723443E+04 -0.37922973643E+03  0.13947197363E+04  0.12699999809E+01 0. -1.
</event>
<event>
 5   0  0.1875284E-07  0.3108947E+04  0.7818609E-02  0.8213287E-01
        1   -1    0    0  501    0  0.00000000000E+00  0.00000000000E+00  0.13172104823E+04  0.13172104823E+04  0.50400001928E-02 0. -1.
       -1   -1    0    0    0  501  0.00000000000E+00  0.00000000000E+00 -0.18344733046E+04  0.18344733046E+04  0.50400001928E-02 0.  1.
    10030    2    1    2    0    0  0.00000000000E+00  0.00000000000E+00 -0.51726282235E+03  0.31516837869E+04  0.31089467454E+04 0.  0.
        4    1    3    3  502    0 -0.10831514975E+04  0.11134917071E+04 -0.31690997771E+03  0.15854067286E+04  0.12699999809E+01 0.  1.
       -4    1    3    3    0  502  0.10831514975E+04 -0.11134917071E+04 -0.20035284464E+03  0.15662770583E+04  0.12699999809E+01 0. -1.
</event>
<event>
 5   0  0.1840359E-07  0.3080478E+04  0.7818609E-02  0.8221116E-01
        1   -1    0    0  501    0  0.00000000000E+00  0.00000000000E+00  0.17984564892E+04  0.17984564892E+04  0.50400001928E-02 0.  1.
       -1   -1    0    0    0  501  0.00000000000E+00  0.00000000000E+00 -0.13190957935E+04  0.13190957936E+04  0.50400001928E-02 0. -1.
    10030    2    1    2    0    0  0.00000000000E+00  0.00000000000E+00  0.47936069561E+03  0.31175522827E+04  0.30804781380E+04 0.  0.
        1    1    3    3  502    0  0.13568482118E+04 -0.23681051338E+03  0.93733904952E+03  0.16660494539E+04  0.50400001928E-02 0.  1.
       -1    1    3    3    0  502 -0.13568482118E+04  0.23681051338E+03 -0.45797835391E+03  0.14515028288E+04  0.50400001928E-02 0. -1.
</event>
<event>
 5   0  0.1830902E-07  0.3103548E+04  0.7818609E-02  0.8214765E-01
        1   -1    0    0  501    0  0.00000000000E+00  0.00000000000E+00  0.25529769275E+04  0.25529769275E+04  0.50400001928E-02 0. -1.
       -1   -1    0    0    0  501  0.00000000000E+00  0.00000000000E+00 -0.94321359163E+03  0.94321359164E+03  0.50400001928E-02 0.  1.
    10030    2    1    2    0    0  0.00000000000E+00  0.00000000000E+00  0.16097633359E+04  0.34961905192E+04  0.31035479936E+04 0.  0.
        3    1    3    3  502    0 -0.90351459104E+03  0.12193494000E+04  0.44010856050E+03  0.15801414907E+04  0.10100000352E+00 0. -1.
       -3    1    3    3    0  502  0.90351459104E+03 -0.12193494000E+04  0.11696547754E+04  0.19160490284E+04  0.10100000352E+00 0.  1.
</event>
<event>
 5   0  0.1875284E-07  0.3099501E+04  0.7818609E-02  0.8215875E-01
       -1   -1    0    0    0  501  0.00000000000E+00  0.00000000000E+00  0.12236967463E+04  0.12236967463E+04  0.50400001928E-02 0. -1.
        1   -1    0    0  501    0  0.00000000000E+00  0.00000000000E+00 -0.19626817127E+04  0.19626817127E+04  0.50400001928E-02 0.  1.
    10030    2    1    2    0    0  0.00000000000E+00  0.00000000000E+00 -0.73898496640E+03  0.31863784591E+04  0.30995013960E+04 0.  0.
        4    1    3    3  502    0  0.11299813875E+04 -0.91775671655E+03  0.17699992818E+03  0.14664466968E+04  0.12699999809E+01 0.  1.
       -4    1    3    3    0  502 -0.11299813875E+04  0.91775671655E+03 -0.91598489459E+03  0.17199317623E+04  0.12699999809E+01 0. -1.
</event>
<event>
 5   0  0.5342534E-07  0.3100856E+04  0.7818609E-02  0.8215503E-01
       -2   -1    0    0    0  501  0.00000000000E+00  0.00000000000E+00  0.17696701161E+04  0.17696701161E+04  0.25500000920E-02 0.  1.
        2   -1    0    0  501    0  0.00000000000E+00  0.00000000000E+00 -0.13583472176E+04  0.13583472176E+04  0.25500000920E-02 0. -1.
    10030    2    1    2    0    0  0.00000000000E+00  0.00000000000E+00  0.41132289855E+03  0.31280173337E+04  0.31008556743E+04 0.  0.
        3    1    3    3  502    0 -0.20530080816E+03  0.70106187481E+03 -0.11738664799E+04  0.13826057634E+04  0.10100000352E+00 0. -1.
       -3    1    3    3    0  502  0.20530080816E+03 -0.70106187481E+03  0.15851893784E+04  0.17454115703E+04  0.10100000352E+00 0.  1.
</event>
<event>
 5   0  0.1845123E-07  0.3097189E+04  0.7818609E-02  0.8216510E-01
       -1   -1    0    0    0  501  0.00000000000E+00  0.00000000000E+00  0.96977147460E+03  0.96977147461E+03  0.50400001928E-02 0. -1.
        1   -1    0    0  501    0  0.00000000000E+00  0.00000000000E+00 -0.24728963885E+04  0.24728963885E+04  0.50400001928E-02 0.  1.
    10030    2    1    2    0    0  0.00000000000E+00  0.00000000000E+00 -0.15031249139E+04  0.34426678631E+04  0.30971886460E+04 0.  0.
        2    1    3    3  502    0 -0.10962986760E+04 -0.51389899065E+03  0.32163018809E+03  0.12527605268E+04  0.25500000920E-02 0. -1.
       -2    1    3    3    0  502  0.10962986760E+04  0.51389899065E+03 -0.18247551020E+04  0.21899073364E+04  0.25500000920E-02 0.  1.
</event>
<event>
 5   0  0.1830902E-07  0.3097434E+04  0.7818609E-02  0.8216442E-01
       -1   -1    0    0    0  501  0.00000000000E+00  0.00000000000E+00  0.76486236527E+03  0.76486236529E+03  0.50400001928E-02 0. -1.
        1   -1    0    0  501    0  0.00000000000E+00  0.00000000000E+00 -0.31358902961E+04  0.31358902961E+04  0.50400001928E-02 0.  1.
    10030    2    1    2    0    0  0.00000000000E+00  0.00000000000E+00 -0.23710279308E+04  0.39007526614E+04  0.30974340795E+04 0.  0.
        3    1    3    3  502    0 -0.37172100858E+03 -0.14117957200E+04 -0.18364659579E+04  0.23460500608E+04  0.10100000352E+00 0.  1.
       -3    1    3    3    0  502  0.37172100858E+03  0.14117957200E+04 -0.53456197294E+03  0.15547026006E+04  0.10100000352E+00 0. -1.
</event>
<event>
 5   0  0.1845123E-07  0.3100276E+04  0.7818609E-02  0.8215662E-01
        1   -1    0    0  501    0  0.00000000000E+00  0.00000000000E+00  0.25333273855E+04  0.25333273855E+04  0.50400001928E-02 0. -1.
       -1   -1    0    0    0  501  0.00000000000E+00  0.00000000000E+00 -0.94852635224E+03  0.94852635225E+03  0.50400001928E-02 0.  1.
    10030    2    1    2    0    0  0.00000000000E+00  0.00000000000E+00  0.15848010332E+04  0.34818537377E+04  0.31002759774E+04 0.  0.
        2    1    3    3  502    0 -0.10851573864E+03  0.15030742063E+04  0.38448937245E+03  0.15552619756E+04  0.25500000920E-02 0.  1.
       -2    1    3    3    0  502  0.10851573864E+03 -0.15030742063E+04  0.12003116608E+04  0.19265917622E+04  0.25500000920E-02 0. -1.
</event>
<event>
 5   0  0.5154105E-07  0.3101922E+04  0.7818609E-02  0.8215211E-01
        2   -1    0    0  501    0  0.00000000000E+00  0.00000000000E+00  0.22101790974E+04  0.22101790974E+04  0.25500000920E-02 0. -1.
       -2   -1    0    0    0  501  0.00000000000E+00  0.00000000000E+00 -0.10883642268E+04  0.10883642268E+04  0.25500000920E-02 0.  1.
    10030    2    1    2    0    0  0.00000000000E+00  0.00000000000E+00  0.11218148706E+04  0.32985433242E+04  0.31019218974E+04 0.  0.
        1    1    3    3  502    0 -0.81927282306E+02 -0.34985759569E+03 -0.10434920621E+04  0.11036249818E+04  0.50400001928E-02 0.  1.
       -1    1    3    3    0  502  0.81927282306E+02  0.34985759569E+03  0.21653069327E+04  0.21949183423E+04  0.50400001928E-02 0. -1.
</event>
<event>
 5   0  0.1840359E-07  0.3102938E+04  0.7818609E-02  0.8214932E-01
       -1   -1    0    0    0  501  0.00000000000E+00  0.00000000000E+00  0.19020206247E+04  0.19020206247E+04  0.50400001928E-02 0.  1.
        1   -1    0    0  501    0  0.00000000000E+00  0.00000000000E+00 -0.12655257129E+04  0.12655257130E+04  0.50400001928E-02 0. -1.
    10030    2    1    2    0    0  0.00000000000E+00  0.00000000000E+00  0.63649491178E+03  0.31675463377E+04  0.31029379673E+04 0.  0.
        1    1    3    3  502    0 -0.72327784369E+03 -0.13625340095E+04  0.48730440523E+03  0.16177439073E+04  0.50400001928E-02 0.  1.
       -1    1    3    3    0  502  0.72327784369E+03  0.13625340095E+04  0.14919050654E+03  0.15498024304E+04  0.50400001928E-02 0. -1.
</event>
<event>
 5   0  0.5055900E-07  0.3102940E+04  0.7818609E-02  0.8214932E-01
       -2   -1    0    0    0  501  0.00000000000E+00  0.00000000000E+00  0.19036640286E+04  0.19036640286E+04  0.25500000920E-02 0.  1.
        2   -1    0    0  501    0  0.00000000000E+00  0.00000000000E+00 -0.12644348156E+04  0.12644348156E+04  0.25500000920E-02 0. -1.
    10030    2    1    2    0    0  0.00000000000E+00  0.00000000000E+00  0.63922921299E+03  0.31680988443E+04  0.31029399447E+04 0.  0.
        2    1    3    3  502    0 -0.29965093785E+03 -0.32501767413E+03  0.18379991557E+04  0.18904147876E+04  0.25500000920E-02 0.  1.
       -2    1    3    3    0  502  0.29965093785E+03  0.32501767413E+03 -0.11987699427E+04  0.12776840566E+04  0.25500000920E-02 0. -1.
</event>
<event>
 5   0  0.1814075E-07  0.3096793E+04  0.7818609E-02  0.8216619E-01
        1   -1    0    0  501    0  0.00000000000E+00  0.00000000000E+00  0.23434707446E+04  0.23434707446E+04  0.50400001928E-02 0. -1.
       -1   -1    0    0    0  501  0.00000000000E+00  0.00000000000E+00 -0.10230685610E+04  0.10230685610E+04  0.50400001928E-02 0.  1.
    10030    2    1    2    0    0  0.00000000000E+00  0.00000000000E+00  0.13204021836E+04  0.33665393055E+04  0.30967926907E+04 0.  0.
        5    1    3    3  502    0 -0.15127617078E+04 -0.14829825929E+03  0.98097779584E+03  0.18090826085E+04  0.46999998093E+01 0. -1.
       -5    1    3    3    0  502  0.15127617078E+04  0.14829825929E+03  0.33942438778E+03  0.15574566971E+04  0.46999998093E+01 0.  1.
</event>
<event>
 5   0  0.1840359E-07  0.3099116E+04  0.7818609E-02  0.8215981E-01
       -1   -1    0    0    0  501  0.00000000000E+00  0.00000000000E+00  0.90628618311E+03  0.90628618313E+03  0.50400001928E-02 0. -1.
        1   -1    0    0  501    0  0.00000000000E+00  0.00000000000E+00 -0.26494172666E+04  0.26494172666E+04  0.50400001928E-02 0.  1.
    10030    2    1    2    0    0  0.00000000000E+00  0.00000000000E+00 -0.17431310835E+04  0.35557034498E+04  0.30991161721E+04 0.  0.
        1    1    3    3  502    0 -0.13431943191E+04 -0.30265296272E+03 -0.55944709961E+02  0.13780056623E+04  0.50400001928E-02 0. -1.
       -1    1    3    3    0  502  0.13431943191E+04  0.30265296272E+03 -0.16871863736E+04  0.21776977875E+04  0.50400001928E-02 0.  1.
</event>
<event>
 5   0  0.1830902E-07  0.3104530E+04  0.7818609E-02  0.8214496E-01
       -1   -1    0    0    0  501  0.00000000000E+00  0.00000000000E+00  0.13970372486E+04  0.13970372486E+04  0.50400001928E-02 0. -1.
        1   -1    0    0  501    0  0.00000000000E+00  0.00000000000E+00 -0.17247409059E+04  0.17247409059E+04  0.50400001928E-02 0.  1.
    10030    2    1    2    0    0  0.00000000000E+00  0.00000000000E+00 -0.32770365733E+03  0.31217781546E+04  0.31045304249E+04 0.  0.
        3    1    3    3  502    0 -0.77982342741E+03  0.61535937044E+03  0.10355596700E+04  0.14349827780E+04  0.10100000352E+00 0. -1.
       -3    1    3    3    0  502  0.77982342741E+03 -0.61535937044E+03 -0.13632633273E+04  0.16867953766E+04  0.10100000352E+00 0.  1.
</event>
<event>
 5   0  0.5342534E-07  0.3093597E+04  0.7818609E-02  0.8217497E-01
       -2   -1    0    0    0  501  0.00000000000E+00  0.00000000000E+00  0.26996895735E+04  0.26996895735E+04  0.25500000920E-02 0.  1.
        2   -1    0    0  501    0  0.00000000000E+00  0.00000000000E+00 -0.88624466051E+03  0.88624466052E+03  0.25500000920E-02 0. -1.
    10030    2    1    2    0    0  0.00000000000E+00  0.00000000000E+00  0.18134449130E+04  0.35859342340E+04  0.30935969159E+04 0.  0.
        3    1    3    3  502    0  0.68561004703E+03  0.88912293437E+03 -0.32654956356E+03  0.11692883976E+04  0.10100000352E+00 0. -1.
       -3    1    3    3    0  502 -0.68561004703E+03 -0.88912293437E+03  0.21399944766E+04  0.24166458365E+04  0.10100000352E+00 0.  1.
</event>
<event>
 5   0  0.5248309E-07  0.3102995E+04  0.7818609E-02  0.8214916E-01
       -2   -1    0    0    0  501  0.00000000000E+00  0.00000000000E+00  0.83810269078E+03  0.83810269078E+03  0.25500000920E-02 0.  1.
        2   -1    0    0  501    0  0.00000000000E+00  0.00000000000E+00 -0.28721356582E+04  0.28721356582E+04  0.25500000920E-02 0. -1.
    10030    2    1    2    0    0  0.00000000000E+00  0.00000000000E+00 -0.20340329674E+04  0.37102383490E+04  0.31029950844E+04 0.  0.
        4    1    3    3  502    0  0.29511250131E+03 -0.76416223953E+03  0.55844958193E+03  0.99141457787E+03  0.12699999809E+01 0.  1.
       -4    1    3    3    0  502 -0.29511250131E+03  0.76416223953E+03 -0.25924825494E+04  0.27188237711E+04  0.12699999809E+01 0. -1.
</event>
<event>
 5   0  0.1840359E-07  0.3098264E+04  0.7818609E-02  0.8216214E-01
       -1   -1    0    0    0  501  0.00000000000E+00  0.00000000000E+00  0.16142011140E+04  0.16142011140E+04  0.50400001928E-02 0. -1.
        1   -1    0    0  501    0  0.00000000000E+00  0.00000000000E+00 -0.14866862432E+04  0.14866862432E+04  0.50400001928E-02 0.  1.
    10030    2    1    2    0    0  0.00000000000E+00  0.00000000000E+00  0.12751487079E+03  0.31008873571E+04  0.30982644108E+04 0.  0.
        1    1    3    3  502    0 -0.54454977040E+03 -0.12896149944E+04 -0.60025679717E+03  0.15231380466E+04  0.50400001928E-02 0.  1.
       -1    1    3    3    0  502  0.54454977040E+03  0.12896149944E+04  0.72777166796E+03  0.15777493106E+04  0.50400001928E-02 0. -1.
</event>
<event>
 5   0  0.1814075E-07  0.3098541E+04  0.7818609E-02  0.8216139E-01
       -1   -1    0    0    0  501  0.00000000000E+00  0.00000000000E+00  0.12638127325E+04  0.12638127325E+04  0.50400001928E-02 0.  1.
        1   -1    0    0  501    0  0.00000000000E+00  0.00000000000E+00 -0.18992041201E+04  0.18992041202E+04  0.50400001928E-02 0. -1.
    10030    2    1    2    0    0  0.00000000000E+00  0.00000000000E+00 -0.63539138769E+03  0.31630168526E+04  0.30985405265E+04 0.  0.
        5    1    3    3  502    0 -0.48722815500E+03  0.12291358842E+04 -0.11419946730E+04  0.17470947942E+04  0.46999998093E+01 0. -1.
       -5    1    3    3    0  502  0.48722815500E+03 -0.12291358842E+04  0.50660328535E+03  0.14159220584E+04  0.46999998093E+01 0.  1.
</event>
<event>
 5   0  0.5342534E-07  0.3102709E+04  0.7818609E-02  0.8214995E-01
        2   -1    0    0  501    0  0.00000000000E+00  0.00000000000E+00  0.23750199745E+04  0.23750199745E+04  0.25500000920E-02 0. -1.
       -2   -1    0    0    0  501  0.00000000000E+00  0.00000000000E+00 -0.10133393179E+04  0.10133393179E+04  0.25500000920E-02 0.  1.
    10030    2    1    2    0    0  0.00000000000E+00  0.00000000000E+00  0.13616806566E+04  0.33883592924E+04  0.31027092168E+04 0.  0.
        3    1    3    3  502    0 -0.12563967379E+04 -0.46360685959E+03  0.15360302314E+04  0.20378549912E+04  0.10100000352E+00 0. -1.
       -3    1    3    3    0  502  0.12563967379E+04  0.46360685959E+03 -0.17434957483E+03  0.13505043012E+04  0.10100000352E+00 0.  1.
</event>
<event>
 5   0  0.1875284E-07  0.3098684E+04  0.7818609E-02  0.8216099E-01
        1   -1    0    0  501    0  0.00000000000E+00  0.00000000000E+00  0.12921208373E+04  0.12921208373E+04  0.50400001928E-02 0. -1.
       -1   -1    0    0    0  501  0.00000000000E+00  0.00000000000E+00 -0.18577679951E+04  0.18577679951E+04  0.50400001928E-02 0.  1.
    10030    2    1    2    0    0  0.00000000000E+00  0.00000000000E+00 -0.56564715781E+03  0.31498888324E+04  0.30986840673E+04 0.  0.
        4    1    3    3  502    0 -0.14078636488E+04 -0.42131631855E+03  0.21607326193E+03  0.14853540862E+04  0.12699999809E+01 0. -1.
       -4    1    3    3    0  502  0.14078636488E+04  0.42131631855E+03 -0.78172041973E+03  0.16645347462E+04  0.12699999809E+01 0.  1.
</event>
<event>
 5   0  0.5342534E-07  0.3104058E+04  0.7818609E-02  0.8214625E-01
        2   -1    0    0  501    0  0.00000000000E+00  0.00000000000E+00  0.18280033139E+04  0.18280033139E+04  0.25500000920E-02 0. -1.
       -2   -1    0    0    0  501  0.00000000000E+00  0.00000000000E+00 -0.13177185717E+04  0.13177185717E+04  0.25500000920E-02 0.  1.
    10030    2    1    2    0    0  0.00000000000E+00  0.00000000000E+00  0.51028474217E+03  0.31457218856E+04  0.31040579350E+04 0.  0.
        3    1    3    3  502    0 -0.61327115946E+03  0.13404515159E+04  0.74733830377E+03  0.16527027355E+04  0.10100000352E+00 0. -1.
       -3    1    3    3    0  502  0.61327115946E+03 -0.13404515159E+04 -0.23705356160E+03  0.14930191501E+04  0.10100000352E+00 0.  1.
</event>
<event>
 5   0  0.1814075E-07  0.3096994E+04  0.7818609E-02  0.8216563E-01
        1   -1    0    0  501    0  0.00000000000E+00  0.00000000000E+00  0.21996478013E+04  0.21996478013E+04  0.50400001928E-02 0.  1.
       -1   -1    0    0    0  501  0.00000000000E+00  0.00000000000E+00 -0.10901028117E+04  0.10901028117E+04  0.50400001928E-02 0. -1.
    10030    2    1    2    0    0  0.00000000000E+00  0.00000000000E+00  0.11095449895E+04  0.32897506130E+04  0.30969935440E+04 0.  0.
        5    1    3    3  502    0  0.51895369569E+03  0.12332650344E+04  0.13827506904E+04  0.19241302308E+04  0.46999998093E+01 0.  1.
       -5    1    3    3    0  502 -0.51895369569E+03 -0.12332650344E+04 -0.27320570087E+03  0.13656203822E+04  0.46999998093E+01 0. -1.
</event>
<event>
 5   0  0.1845123E-07  0.3093564E+04  0.7818609E-02  0.8217506E-01
        1   -1    0    0  501    0  0.00000000000E+00  0.00000000000E+00  0.16455930205E+04  0.16455930205E+04  0.50400001928E-02 0. -1.
       -1   -1    0    0    0  501  0.00000000000E+00  0.00000000000E+00 -0.14539041972E+04  0.14539041972E+04  0.50400001928E-02 0.  1.
    10030    2    1    2    0    0  0.00000000000E+00  0.00000000000E+00  0.19168882338E+03  0.30994972177E+04  0.30935640284E+04 0.  0.
        2    1    3    3  502    0 -0.85810606621E+03  0.72953117725E+03  0.11580535910E+04  0.16154410788E+04  0.25500000920E-02 0. -1.
       -2    1    3    3    0  502  0.85810606621E+03 -0.72953117725E+03 -0.96636476759E+03  0.14840561389E+04  0.25500000920E-02 0.  1.
</event>
<event>
 5   0  0.5376678E-07  0.3100919E+04  0.7818609E-02  0.8215486E-01
       -2   -1    0    0    0  501  0.00000000000E+00  0.00000000000E+00  0.28550023947E+04  0.28550023948E+04  0.25500000920E-02 0. -1.
        2   -1    0    0  501    0  0.00000000000E+00  0.00000000000E+00 -0.84200425325E+03  0.84200425325E+03  0.25500000920E-02 0.  1.
    10030    2    1    2    0    0  0.00000000000E+00  0.00000000000E+00  0.20129981415E+04  0.36970066480E+04  0.31009186764E+04 0.  0.
        5    1    3    3  502    0  0.77003528731E+03  0.11696425373E+03 -0.59182987889E+03  0.97822271283E+03  0.46999998093E+01 0.  1.
       -5    1    3    3    0  502 -0.77003528731E+03 -0.11696425373E+03  0.26048280204E+04  0.27187839352E+04  0.46999998093E+01 0. -1.
</event>
<event>
 5   0  0.1840359E-07  0.3096900E+04  0.7818609E-02  0.8216589E-01
        1   -1    0    0  501    0  0.00000000000E+00  0.00000000000E+00  0.21043531023E+04  0.21043531023E+04  0.50400001928E-02 0. -1.
       -1   -1    0    0    0  501  0.00000000000E+00  0.00000000000E+00 -0.11393987759E+04  0.11393987760E+04  0.50400001928E-02 0.  1.
    10030    2    1    2    0    0  0.00000000000E+00  0.00000000000E+00  0.96495432631E+03  0.32437518782E+04  0.30968999654E+04 0.  0.
        1    1    3    3  502    0 -0.57625141291E+03  0.21207799008E+03  0.19713804535E+04  0.20647962750E+04  0.50400001928E-02 0. -1.
       -1    1    3    3    0  502  0.57625141291E+03 -0.21207799008E+03 -0.10064261272E+04  0.11789556032E+04  0.50400001928E-02 0.  1.
</event>
<event>
 5   0  0.1840359E-07  0.3101728E+04  0.7818609E-02  0.8215264E-01
        1   -1    0    0  501    0  0.00000000000E+00  0.00000000000E+00  0.17412405098E+04  0.17412405098E+04  0.50400001928E-02 0.  1.
       -1   -1    0    0    0  501  0.00000000000E+00  0.00000000000E+00 -0.13813019870E+04  0.13813019870E+04  0.50400001928E-02 0. -1.
    10030    2    1    2    0    0  0.00000000000E+00  0.00000000000E+00  0.35993852277E+03  0.31225424968E+04  0.31017278901E+04 0.  0.
        1    1    3    3  502    0  0.18510880387E+03 -0.61557254472E+02 -0.13689015825E+04  0.13827313938E+04  0.50400001928E-02 0. -1.
       -1    1    3    3    0  502 -0.18510880387E+03  0.61557254472E+02  0.17288401052E+04  0.17398111031E+04  0.50400001928E-02 0.  1.
</event>
<event>
 5   0  0.5342534E-07  0.3105990E+04  0.7818609E-02  0.8214096E-01
        2   -1    0    0  501    0  0.00000000000E+00  0.00000000000E+00  0.20382883166E+04  0.20382883166E+04  0.25500000920E-02 0.  1.
       -2   -1    0    0    0  501  0.00000000000E+00  0.00000000000E+00 -0.11832447990E+04  0.11832447990E+04  0.25500000920E-02 0. -1.
    10030    2    1    2    0    0  0.00000000000E+00  0.00000000000E+00  0.85504351756E+03  0.32215331155E+04  0.31059903731E+04 0.  0.
        3    1    3    3  502    0  0.11034998571E+03 -0.73578655714E+03  0.18414026333E+04  0.19860318843E+04  0.10100000352E+00 0.  1.
       -3    1    3    3    0  502 -0.11034998571E+03  0.73578655714E+03 -0.98635911579E+03  0.12355012313E+04  0.10100000352E+00 0. -1.
</event>
<event>
 5   0  0.1875284E-07  0.3113756E+04  0.7818609E-02  0.8211973E-01
       -1   -1    0    0    0  501  0.00000000000E+00  0.00000000000E+00  0.84009803112E+03  0.84009803113E+03  0.50400001928E-02 0. -1.
        1   -1    0    0  501    0  0.00000000000E+00  0.00000000000E+00 -0.28852210235E+04  0.28852210235E+04  0.50400001928E-02 0.  1.
    10030    2    1    2    0    0  0.00000000000E+00  0.00000000000E+00 -0.20451229923E+04  0.37253190546E+04  0.31137556109E+04 0.  0.
        4    1    3    3  502    0 -0.11759791496E+04 -0.84695986653E+03 -0.17031466596E+04  0.22362866840E+04  0.12699999809E+01 0.  1.
       -4    1    3    3    0  502  0.11759791496E+04  0.84695986653E+03 -0.34197633270E+03  0.14890323706E+04  0.12699999809E+01 0. -1.
</event>
<event>
 5   0  0.1840359E-07  0.3102249E+04  0.7818609E-02  0.8215121E-01
       -1   -1    0    0    0  501  0.00000000000E+00  0.00000000000E+00  0.12878855643E+04  0.12878855643E+04  0.50400001928E-02 0. -1.
        1   -1    0    0  501    0  0.00000000000E+00  0.00000000000E+00 -0.18681680523E+04  0.18681680523E+04  0.50400001928E-02 0.  1.
    10030    2    1    2    0    0  0.00000000000E+00  0.00000000000E+00 -0.58028248803E+03  0.31560536165E+04  0.31022486465E+04 0.  0.
        1    1    3    3  502    0  0.77056628688E+03  0.27138380063E+03 -0.16315565179E+04  0.18246638706E+04  0.50400001928E-02 0.  1.
       -1    1    3    3    0  502 -0.77056628688E+03 -0.27138380063E+03  0.10512740298E+04  0.13313897459E+04  0.50400001928E-02 0. -1.
</event>
<event>
 5   0  0.5376678E-07  0.3093699E+04  0.7818609E-02  0.8217469E-01
        2   -1    0    0  501    0  0.00000000000E+00  0.00000000000E+00  0.24628596113E+04  0.24628596113E+04  0.25500000920E-02 0. -1.
       -2   -1    0    0    0  501  0.00000000000E+00  0.00000000000E+00 -0.97153071573E+03  0.97153071573E+03  0.25500000920E-02 0.  1.
    10030    2    1    2    0    0  0.00000000000E+00  0.00000000000E+00  0.14913288956E+04  0.34343903271E+04  0.30936992491E+04 0.  0.
        5    1    3    3  502    0  0.11165931865E+04  0.95472403204E+03  0.12831793622E+04  0.19506023908E+04  0.46999998093E+01 0. -1.
       -5    1    3    3    0  502 -0.11165931865E+04 -0.95472403204E+03  0.20814953338E+03  0.14837879362E+04  0.46999998093E+01 0.  1.
</event>
<event>
 5   0  0.1814075E-07  0.3100006E+04  0.7818609E-02  0.8215736E-01
        1   -1    0    0  501    0  0.00000000000E+00  0.00000000000E+00  0.92525782326E+03  0.92525782327E+03  0.50400001928E-02 0. -1.
       -1   -1    0    0    0  501  0.00000000000E+00  0.00000000000E+00 -0.25965827761E+04  0.25965827761E+04  0.50400001928E-02 0.  1.
    10030    2    1    2    0    0  0.00000000000E+00  0.00000000000E+00 -0.16713249528E+04  0.35218405994E+04  0.31000055015E+04 0.  0.
        5    1    3    3  502    0  0.37718652933E+03  0.12421174084E+04 -0.17978863843E+04  0.22175533534E+04  0.46999998093E+01 0.  1.
       -5    1    3    3    0  502 -0.37718652933E+03 -0.12421174084E+04  0.12656143143E+03  0.13042872460E+04  0.46999998093E+01 0. -1.
</event>
<event>
 5   0  0.5342534E-07  0.3091590E+04  0.7818609E-02  0.8218050E-01
       -2   -1    0    0    0  501  0.00000000000E+00  0.00000000000E+00  0.12404941780E+04  0.12404941780E+04  0.25500000920E-02 0. -1.
        2   -1    0    0  501    0  0.00000000000E+00  0.00000000000E+00 -0.19262344219E+04  0.19262344219E+04  0.25500000920E-02 0.  1.
    10030    2    1    2    0    0  0.00000000000E+00  0.00000000000E+00 -0.68574024384E+03  0.31667285999E+04  0.30915902612E+04 0.  0.
        3    1    3    3  502    0 -0.10379732528E+04 -0.11307286635E+04 -0.15526080182E+03  0.15427383805E+04  0.10100000352E+00 0. -1.
       -3    1    3    3    0  502  0.10379732528E+04  0.11307286635E+04 -0.53047944202E+03  0.16239902194E+04  0.10100000352E+00 0.  1.
</event>
<event>
 5   0  0.1845123E-07  0.3100674E+04  0.7818609E-02  0.8215553E-01
        1   -1    0    0  501    0  0.00000000000E+00  0.00000000000E+00  0.16168536762E+04  0.16168536762E+04  0.50400001928E-02 0. -1.
       -1   -1    0    0    0  501  0.00000000000E+00  0.00000000000E+00 -0.14865565333E+04  0.14865565333E+04  0.50400001928E-02 0.  1.
    10030    2    1    2    0    0  0.00000000000E+00  0.00000000000E+00  0.13029714282E+03  0.31034102095E+04  0.31006737305E+04 0.  0.
        2    1    3    3  502    0  0.25070568601E+03 -0.19549241485E+03  0.15838781819E+04  0.16154691951E+04  0.25500000920E-02 0. -1.
       -2    1    3    3    0  502 -0.25070568601E+03  0.19549241485E+03 -0.14535810391E+04  0.14879410144E+04  0.25500000920E-02 0.  1.
</event>
<event>
 5   0  0.1875284E-07  0.3095087E+04  0.7818609E-02  0.8217087E-01
        1   -1    0    0  501    0  0.00000000000E+00  0.00000000000E+00  0.24829410977E+04  0.24829410977E+04  0.50400001928E-02 0.  1.
       -1   -1    0    0    0  501  0.00000000000E+00  0.00000000000E+00 -0.96453820242E+03  0.96453820244E+03  0.50400001928E-02 0. -1.
    10030    2    1    2    0    0  0.00000000000E+00  0.00000000000E+00  0.15184028953E+04  0.34474793002E+04  0.30950874257E+04 0.  0.
        4    1    3    3  502    0  0.17084920082E+03  0.12898110875E+04 -0.17410544192E+03  0.13126752868E+04  0.12699999809E+01 0. -1.
       -4    1    3    3    0  502 -0.17084920082E+03 -0.12898110875E+04  0.16925083372E+04  0.21348040133E+04  0.12699999809E+01 0.  1.
</event>
<event>
 5   0  0.1840359E-07  0.3099856E+04  0.7818609E-02  0.8215777E-01
       -1   -1    0    0    0  501  0.00000000000E+00  0.00000000000E+00  0.16509152328E+04  0.16509152328E+04  0.50400001928E-02 0.  1.
        1   -1    0    0  501    0  0.00000000000E+00  0.00000000000E+00 -0.14551181525E+04  0.14551181525E+04  0.50400001928E-02 0. -1.
    10030    2    1    2    0    0  0.00000000000E+00  0.00000000000E+00  0.19579708028E+03  0.31060333853E+04  0.30998559473E+04 0.  0.
        1    1    3    3  502    0  0.33280665426E+03  0.15133914640E+04  0.13206533417E+03  0.15551704874E+04  0.50400001928E-02 0.  1.
       -1    1    3    3    0  502 -0.33280665426E+03 -0.15133914640E+04  0.63731746104E+02  0.15508628979E+04  0.50400001928E-02 0. -1.
</event>
<event>
 5   0  0.1875284E-07  0.3105799E+04  0.7818609E-02  0.8214148E-01
       -1   -1    0    0    0  501  0.00000000000E+00  0.00000000000E+00  0.17215957105E+04  0.17215957105E+04  0.50400001928E-02 0. -1.
        1   -1    0    0  501    0  0.00000000000E+00  0.00000000000E+00 -0.14007332399E+04  0.14007332400E+04  0.50400001928E-02 0.  1.
    10030    2    1    2    0    0  0.00000000000E+00  0.00000000000E+00  0.32086247053E+03  0.31223289504E+04  0.31057986654E+04 0.  0.
        4    1    3    3  502    0 -0.29337105734E+03  0.93440142604E+03 -0.10511061869E+04  0.14366622538E+04  0.12699999809E+01 0.  1.
       -4    1    3    3    0  502  0.29337105734E+03 -0.93440142604E+03  0.13719686575E+04  0.16856666967E+04  0.12699999809E+01 0. -1.
</event>
<event>
 5   0  0.5055900E-07  0.3098224E+04  0.7818609E-02  0.8216225E-01
       -2   -1    0    0    0  501  0.00000000000E+00  0.00000000000E+00  0.26640245010E+04  0.26640245010E+04  0.25500000920E-02 0.  1.
        2   -1    0    0  501    0  0.00000000000E+00  0.00000000000E+00 -0.90079825009E+03  0.90079825009E+03  0.25500000920E-02 0. -1.
    10030    2    1    2    0    0  0.00000000000E+00  0.00000000000E+00  0.17632262510E+04  0.35648227511E+04  0.30982244004E+04 0.  0.
        2    1    3    3  502    0 -0.90601069079E+03  0.55004830538E+03 -0.41828188800E+03  0.11394596298E+04  0.25500000920E-02 0. -1.
       -2    1    3    3    0  502  0.90601069079E+03 -0.55004830538E+03  0.21815081390E+04  0.24253631214E+04  0.25500000920E-02 0.  1.
</event>
<event>
 5   0  0.5154105E-07  0.3097734E+04  0.7818609E-02  0.8216360E-01
        2   -1    0    0  501    0  0.00000000000E+00  0.00000000000E+00  0.22747539986E+04  0.22747539986E+04  0.25500000920E-02 0. -1.
       -2   -1    0    0    0  501  0.00000000000E+00  0.00000000000E+00 -0.10546149221E+04  0.10546149221E+04  0.25500000920E-02 0.  1.
    10030    2    1    2    0    0  0.00000000000E+00  0.00000000000E+00  0.12201390765E+04  0.33293689207E+04  0.30977343404E+04 0.  0.
        1    1    3    3  502    0 -0.12112714325E+04  0.86579882949E+03  0.15129848611E+03  0.14965551538E+04  0.50400001928E-02 0.  1.
       -1    1    3    3    0  502  0.12112714325E+04 -0.86579882949E+03  0.10688405904E+04  0.18328137669E+04  0.50400001928E-02 0. -1.
</event>
<event>
 5   0  0.5342534E-07  0.3098138E+04  0.7818609E-02  0.8216249E-01
       -2   -1    0    0    0  501  0.00000000000E+00  0.00000000000E+00  0.13114011461E+04  0.13114011461E+04  0.25500000920E-02 0. -1.
        2   -1    0    0  501    0  0.00000000000E+00  0.00000000000E+00 -0.18298100962E+04  0.18298100962E+04  0.25500000920E-02 0.  1.
    10030    2    1    2    0    0  0.00000000000E+00  0.00000000000E+00 -0.51840895006E+03  0.31412112422E+04  0.30981381875E+04 0.  0.
        3    1    3    3  502    0  0.29949839691E+03 -0.14142753556E+04  0.30507686545E+03  0.14774796023E+04  0.10100000352E+00 0. -1.
       -3    1    3    3    0  502 -0.29949839691E+03  0.14142753556E+04 -0.82348581551E+03  0.16637316399E+04  0.10100000352E+00 0.  1.
</event>
<event>
 5   0  0.5154105E-07  0.3094898E+04  0.7818609E-02  0.8217139E-01
       -2   -1    0    0    0  501  0.00000000000E+00  0.00000000000E+00  0.12485842671E+04  0.12485842671E+04  0.25500000920E-02 0.  1.
        2   -1    0    0  501    0  0.00000000000E+00  0.00000000000E+00 -0.19178513935E+04  0.19178513935E+04  0.25500000920E-02 0. -1.
    10030    2    1    2    0    0  0.00000000000E+00  0.00000000000E+00 -0.66926712635E+03  0.31664356606E+04  0.30948984323E+04 0.  0.
        1    1    3    3  502    0  0.81022410788E+03 -0.12498611153E+04 -0.76383367631E+03  0.16739348248E+04  0.50400001928E-02 0. -1.
       -1    1    3    3    0  502 -0.81022410788E+03  0.12498611153E+04  0.94566549952E+02  0.14925008358E+04  0.50400001928E-02 0.  1.
</event>
<event>
 5   0  0.5248309E-07  0.3100528E+04  0.7818609E-02  0.8215593E-01
       -2   -1    0    0    0  501  0.00000000000E+00  0.00000000000E+00  0.91678054277E+03  0.91678054278E+03  0.25500000920E-02 0.  1.
        2   -1    0    0  501    0  0.00000000000E+00  0.00000000000E+00 -0.26214759052E+04  0.26214759052E+04  0.25500000920E-02 0. -1.
    10030    2    1    2    0    0  0.00000000000E+00  0.00000000000E+00 -0.17046953624E+04  0.35382564480E+04  0.31005277636E+04 0.  0.
        4    1    3    3  502    0 -0.76004791318E+03  0.12223360173E+04 -0.19526420063E+03  0.14525521989E+04  0.12699999809E+01 0.  1.
       -4    1    3    3    0  502  0.76004791318E+03 -0.12223360173E+04 -0.15094311618E+04  0.20857042491E+04  0.12699999809E+01 0. -1.
</event>
<event>
 5   0  0.1830902E-07  0.3127202E+04  0.7818609E-02  0.8208312E-01
        1   -1    0    0  501    0  0.00000000000E+00  0.00000000000E+00  0.13727188947E+04  0.13727188947E+04  0.50400001928E-02 0.  1.
       -1   -1    0    0    0  501  0.00000000000E+00  0.00000000000E+00 -0.17810258781E+04  0.17810258781E+04  0.50400001928E-02 0. -1.
    10030    2    1    2    0    0  0.00000000000E+00  0.00000000000E+00 -0.40830698342E+03  0.31537447729E+04  0.31272018642E+04 0.  0.
        3    1    3    3  502    0 -0.12600009194E+04  0.90682532181E+03 -0.15716311126E+02  0.15524759237E+04  0.10100000352E+00 0.  1.
       -3    1    3    3    0  502  0.12600009194E+04 -0.90682532181E+03 -0.39259067229E+03  0.16012688491E+04  0.10100000352E+00 0. -1.
</event>
<event>
 5   0  0.1840359E-07  0.3103144E+04  0.7818609E-02  0.8214876E-01
        1   -1    0    0  501    0  0.00000000000E+00  0.00000000000E+00  0.97473460979E+03  0.97473460980E+03  0.50400001928E-02 0. -1.
       -1   -1    0    0    0  501  0.00000000000E+00  0.00000000000E+00 -0.24697756129E+04  0.24697756129E+04  0.50400001928E-02 0.  1.
    10030    2    1    2    0    0  0.00000000000E+00  0.00000000000E+00 -0.14950410031E+04  0.34445102227E+04  0.31031440626E+04 0.  0.
        1    1    3    3  502    0 -0.69164641737E+03 -0.13872049759E+04 -0.82332148707E+03  0.17551554583E+04  0.50400001928E-02 0. -1.
       -1    1    3    3    0  502  0.69164641737E+03  0.13872049759E+04 -0.67171951607E+03  0.16893547644E+04  0.50400001928E-02 0.  1.
</event>
<event>
 5   0  0.1814075E-07  0.3102161E+04  0.7818609E-02  0.8215145E-01
        1   -1    0    0  501    0  0.00000000000E+00  0.00000000000E+00  0.21444853237E+04  0.21444853237E+04  0.50400001928E-02 0.  1.
       -1   -1    0    0    0  501  0.00000000000E+00  0.00000000000E+00 -0.11218781658E+04  0.11218781658E+04  0.50400001928E-02 0. -1.
    10030    2    1    2    0    0  0.00000000000E+00  0.00000000000E+00  0.10226071580E+04  0.32663634895E+04  0.31021613507E+04 0.  0.
        5    1    3    3  502    0 -0.70754295593E+03  0.62187821586E+03 -0.78618819685E+03  0.12269733170E+04  0.46999998093E+01 0. -1.
       -5    1    3    3    0  502  0.70754295593E+03 -0.62187821586E+03  0.18087953548E+04  0.20393901724E+04  0.46999998093E+01 0.  1.
</event>
<event>
 5   0  0.1840359E-07  0.3109896E+04  0.7818609E-02  0.8213027E-01
        1   -1    0    0  501    0  0.00000000000E+00  0.00000000000E+00  0.10069351934E+04  0.10069351934E+04  0.50400001928E-02 0.  1.
       -1   -1    0    0    0  501  0.00000000000E+00  0.00000000000E+00 -0.24012098287E+04  0.24012098287E+04  0.50400001928E-02 0. -1.
    10030    2    1    2    0    0  0.00000000000E+00  0.00000000000E+00 -0.13942746353E+04  0.34081450221E+04  0.31098956145E+04 0.  0.
        1    1    3    3  502    0 -0.15119435165E+04  0.36104010492E+03 -0.65413754401E+03  0.16864812720E+04  0.50400001928E-02 0.  1.
       -1    1    3    3    0  502  0.15119435165E+04 -0.36104010492E+03 -0.74013709133E+03  0.17216637501E+04  0.50400001928E-02 0. -1.
</event>
<event>
 5   0  0.1875284E-07  0.3092846E+04  0.7818609E-02  0.8217704E-01
       -1   -1    0    0    0  501  0.00000000000E+00  0.00000000000E+00  0.20100765053E+04  0.20100765053E+04  0.50400001928E-02 0.  1.
        1   -1    0    0  501    0  0.00000000000E+00  0.00000000000E+00 -0.11897177893E+04  0.11897177893E+04  0.50400001928E-02 0. -1.
    10030    2    1    2    0    0  0.00000000000E+00  0.00000000000E+00  0.82035871604E+03  0.31997942946E+04  0.30928457939E+04 0.  0.
        4    1    3    3  502    0 -0.13348760685E+04  0.45797029798E+03  0.10643340122E+04  0.17676083883E+04  0.12699999809E+01 0.  1.
       -4    1    3    3    0  502  0.13348760685E+04 -0.45797029798E+03 -0.24397529615E+03  0.14321859063E+04  0.12699999809E+01 0. -1.
</event>
<event>
 5   0  0.1830902E-07  0.3109455E+04  0.7818609E-02  0.8213148E-01
       -1   -1    0    0    0  501  0.00000000000E+00  0.00000000000E+00  0.26946486958E+04  0.26946486958E+04  0.50400001928E-02 0.  1.
        1   -1    0    0  501    0  0.00000000000E+00  0.00000000000E+00 -0.89702896285E+03  0.89702896287E+03  0.50400001928E-02 0. -1.
    10030    2    1    2    0    0  0.00000000000E+00  0.00000000000E+00  0.17976197329E+04  0.35916776587E+04  0.31094552094E+04 0.  0.
        3    1    3    3  502    0 -0.11165282243E+03  0.11327555378E+04  0.21220944130E+04  0.24080876581E+04  0.10100000352E+00 0. -1.
       -3    1    3    3    0  502  0.11165282243E+03 -0.11327555378E+04 -0.32447468005E+03  0.11835900006E+04  0.10100000352E+00 0.  1.
</event>
<event>
 5   0  0.5248309E-07  0.3100278E+04  0.7818609E-02  0.8215662E-01
        2   -1    0    0  501    0  0.00000000000E+00  0.00000000000E+00  0.22711508585E+04  0.22711508585E+04  0.25500000920E-02 0. -1.
       -2   -1    0    0    0  501  0.00000000000E+00  0.00000000000E+00 -0.10580234999E+04  0.10580234999E+04  0.25500000920E-02 0.  1.
    10030    2    1    2    0    0  0.00000000000E+00  0.00000000000E+00  0.12131273586E+04  0.33291743584E+04  0.31002780392E+04 0.  0.
        4    1    3    3  502    0 -0.12813292052E+04  0.72319097675E+03  0.82560995552E+02  0.14736443438E+04  0.12699999809E+01 0. -1.
       -4    1    3    3    0  502  0.12813292052E+04 -0.72319097675E+03  0.11305663631E+04  0.18555300146E+04  0.12699999809E+01 0.  1.
</event>
<event>
 5   0  0.1845123E-07  0.3088458E+04  0.7818609E-02  0.8218913E-01
       -1   -1    0    0    0  501  0.00000000000E+00  0.00000000000E+00  0.10925325219E+04  0.10925325219E+04  0.50400001928E-02 0. -1.
        1   -1    0    0  501    0  0.00000000000E+00  0.00000000000E+00 -0.21826749768E+04  0.21826749768E+04  0.50400001928E-02 0.  1.
    10030    2    1    2    0    0  0.00000000000E+00  0.00000000000E+00 -0.10901424550E+04  0.32752074987E+04  0.30884581246E+04 0.  0.
        2    1    3    3  502    0 -0.60507102451E+03 -0.73721525186E+03 -0.18330238948E+04  0.20662947203E+04  0.25500000920E-02 0.  1.
       -2    1    3    3    0  502  0.60507102451E+03  0.73721525186E+03  0.74288143980E+03  0.12089127784E+04  0.25500000920E-02 0. -1.
</event>
<event>
 5   0  0.1830902E-07  0.3091453E+04  0.7818609E-02  0.8218088E-01
       -1   -1    0    0    0  501  0.00000000000E+00  0.00000000000E+00  0.21906078836E+04  0.21906078836E+04  0.50400001928E-02 0.  1.
        1   -1    0    0  501    0  0.00000000000E+00  0.00000000000E+00 -0.10906881141E+04  0.10906881141E+04  0.50400001928E-02 0. -1.
    10030    2    1    2    0    0  0.00000000000E+00  0.00000000000E+00  0.10999197694E+04  0.32812959977E+04  0.30914527209E+04 0.  0.
        3    1    3    3  502    0  0.33087966929E+02 -0.64427101538E+03 -0.94096666781E+03  0.11408760822E+04  0.10100000352E+00 0. -1.
       -3    1    3    3    0  502 -0.33087966929E+02  0.64427101538E+03  0.20408864372E+04  0.21404199155E+04  0.10100000352E+00 0.  1.
</event>
<event>
 5   0  0.5376678E-07  0.3097935E+04  0.7818609E-02  0.8216305E-01
       -2   -1    0    0    0  501  0.00000000000E+00  0.00000000000E+00  0.11092307366E+04  0.11092307366E+04  0.25500000920E-02 0. -1.
        2   -1    0    0  501    0  0.00000000000E+00  0.00000000000E+00 -0.21630312704E+04  0.21630312704E+04  0.25500000920E-02 0.  1.
    10030    2    1    2    0    0  0.00000000000E+00  0.00000000000E+00 -0.10538005339E+04  0.32722620070E+04  0.30979352926E+04 0.  0.
        5    1    3    3  502    0  0.11678591424E+04 -0.92624240530E+03 -0.81936767600E+02  0.14928347845E+04  0.46999998093E+01 0. -1.
       -5    1    3    3    0  502 -0.11678591424E+04  0.92624240530E+03 -0.97186376626E+03  0.17794272225E+04  0.46999998093E+01 0.  1.
</event>
<event>
 5   0  0.1845123E-07  0.3103962E+04  0.7818609E-02  0.8214651E-01
        1   -1    0    0  501    0  0.00000000000E+00  0.00000000000E+00  0.13868189817E+04  0.13868189817E+04  0.50400001928E-02 0. -1.
       -1   -1    0    0    0  501  0.00000000000E+00  0.00000000000E+00 -0.17368130030E+04  0.17368130030E+04  0.50400001928E-02 0.  1.
    10030    2    1    2    0    0  0.00000000000E+00  0.00000000000E+00 -0.34999402130E+03  0.31236319847E+04  0.31039621391E+04 0.  0.
        2    1    3    3  502    0  0.12039709845E+04  0.32505521385E+03 -0.11046684501E+04  0.16659830156E+04  0.25500000920E-02 0.  1.
       -2    1    3    3    0  502 -0.12039709845E+04 -0.32505521385E+03  0.75467442876E+03  0.14576489691E+04  0.25500000920E-02 0. -1.
</event>
<event>
 5   0  0.1814075E-07  0.3101189E+04  0.7818609E-02  0.8215412E-01
       -1   -1    0    0    0  501  0.00000000000E+00  0.00000000000E+00  0.10379933966E+04  0.10379933967E+04  0.50400001928E-02 0. -1.
        1   -1    0    0  501    0  0.00000000000E+00  0.00000000000E+00 -0.23163384667E+04  0.23163384667E+04  0.50400001928E-02 0.  1.
    10030    2    1    2    0    0  0.00000000000E+00  0.00000000000E+00 -0.12783450701E+04  0.33543318634E+04  0.31011894704E+04 0.  0.
        5    1    3    3  502    0  0.84005593251E+03  0.48749739706E+03 -0.19465440228E+04  0.21754087903E+04  0.46999998093E+01 0.  1.
       -5    1    3    3    0  502 -0.84005593251E+03 -0.48749739706E+03  0.66819895277E+03  0.11789230731E+04  0.46999998093E+01 0. -1.
</event>
<event>
 5   0  0.1814075E-07  0.3089914E+04  0.7818609E-02  0.8218511E-01
        1   -1    0    0  501    0  0.00000000000E+00  0.00000000000E+00  0.15647667784E+04  0.15647667784E+04  0.50400001928E-02 0. -1.
       -1   -1    0    0    0  501  0.00000000000E+00  0.00000000000E+00 -0.15253978132E+04  0.15253978132E+04  0.50400001928E-02 0.  1.
    10030    2    1    2    0    0  0.00000000000E+00  0.00000000000E+00  0.39368965164E+02  0.30901645916E+04  0.30899137994E+04 0.  0.
        5    1    3    3  502    0 -0.18437409730E+03  0.48497105063E+03 -0.14356583568E+04  0.15265411017E+04  0.46999998093E+01 0.  1.
       -5    1    3    3    0  502  0.18437409730E+03 -0.48497105063E+03  0.14750273220E+04  0.15636234899E+04  0.46999998093E+01 0. -1.
</event>
<event>
 5   0  0.5055900E-07  0.3102033E+04  0.7818609E-02  0.8215180E-01
        2   -1    0    0  501    0  0.00000000000E+00  0.00000000000E+00  0.20093104087E+04  0.20093104087E+04  0.25500000920E-02 0. -1.
       -2   -1    0    0    0  501  0.00000000000E+00  0.00000000000E+00 -0.11972523185E+04  0.11972523185E+04  0.25500000920E-02 0.  1.
    10030    2    1    2    0    0  0.00000000000E+00  0.00000000000E+00  0.81205809022E+03  0.32065627271E+04  0.31020325887E+04 0.  0.
        2    1    3    3  502    0  0.95079029459E+03  0.45031855199E+03  0.15841095891E+04  0.19016288210E+04  0.25500000920E-02 0. -1.
       -2    1    3    3    0  502 -0.95079029459E+03 -0.45031855199E+03 -0.77205149886E+03  0.13049339062E+04  0.25500000920E-02 0.  1.
</event>
<event>
 5   0  0.5055900E-07  0.3099478E+04  0.7818609E-02  0.8215881E-01
        2   -1    0    0  501    0  0.00000000000E+00  0.00000000000E+00  0.17561853630E+04  0.17561853630E+04  0.25500000920E-02 0.  1.
       -2   -1    0    0    0  501  0.00000000000E+00  0.00000000000E+00 -0.13675611624E+04  0.13675611624E+04  0.25500000920E-02 0. -1.
    10030    2    1    2    0    0  0.00000000000E+00  0.00000000000E+00  0.38862420059E+03  0.31237465255E+04  0.30994779538E+04 0.  0.
        2    1    3    3  502    0 -0.10108076481E+03  0.41200707974E+03  0.16965276823E+04  0.17487633721E+04  0.25500000920E-02 0.  1.
       -2    1    3    3    0  502  0.10108076481E+03 -0.41200707974E+03 -0.13079034817E+04  0.13749831534E+04  0.25500000920E-02 0. -1.
</event>
<event>
 5   0  0.5342534E-07  0.3088890E+04  0.7818609E-02  0.8218793E-01
        2   -1    0    0  501    0  0.00000000000E+00  0.00000000000E+00  0.16922848299E+04  0.16922848299E+04  0.25500000920E-02 0. -1.
       -2   -1    0    0    0  501  0.00000000000E+00  0.00000000000E+00 -0.14095209803E+04  0.14095209803E+04  0.25500000920E-02 0.  1.
    10030    2    1    2    0    0  0.00000000000E+00  0.00000000000E+00  0.28276384956E+03  0.31018058102E+04  0.30888903978E+04 0.  0.
        3    1    3    3  502    0 -0.25390194241E+03  0.12090186750E+04 -0.78938013009E+03  0.14660536664E+04  0.10100000352E+00 0.  1.
       -3    1    3    3    0  502  0.25390194241E+03 -0.12090186750E+04  0.10721439796E+04  0.16357521438E+04  0.10100000352E+00 0. -1.
</event>
<event>
 5   0  0.5248309E-07  0.3101348E+04  0.7818609E-02  0.8215368E-01
       -2   -1    0    0    0  501  0.00000000000E+00  0.00000000000E+00  0.19253844423E+04  0.19253844423E+04  0.25500000920E-02 0.  1.
        2   -1    0    0  501    0  0.00000000000E+00  0.00000000000E+00 -0.12488880600E+04  0.12488880600E+04  0.25500000920E-02 0. -1.
    10030    2    1    2    0    0  0.00000000000E+00  0.00000000000E+00  0.67649638225E+03  0.31742725023E+04  0.31013478624E+04 0.  0.
        4    1    3    3  502    0 -0.13928312660E+04  0.58621301483E+03 -0.17727799047E+02  0.15112711610E+04  0.12699999809E+01 0. -1.
       -4    1    3    3    0  502  0.13928312660E+04 -0.58621301483E+03  0.69422418129E+03  0.16630013413E+04  0.12699999809E+01 0.  1.
</event>
<event>
 5   0  0.1840359E-07  0.3101422E+04  0.7818609E-02  0.8215348E-01
        1   -1    0    0  501    0  0.00000000000E+00  0.00000000000E+00  0.13164486692E+04  0.13164486692E+04  0.50400001928E-02 0.  1.
       -1   -1    0    0    0  501  0.00000000000E+00  0.00000000000E+00 -0.18266609185E+04  0.18266609185E+04  0.50400001928E-02 0. -1.
    10030    2    1    2    0    0  0.00000000000E+00  0.00000000000E+00 -0.51021224933E+03  0.31431095877E+04  0.31014224706E+04 0.  0.
        1    1    3    3  502    0  0.61801246891E+03 -0.32123911531E+03 -0.16592148057E+04  0.17994798561E+04  0.50400001928E-02 0. -1.
       -1    1    3    3    0  502 -0.61801246891E+03  0.32123911531E+03  0.11490025564E+04  0.13436297316E+04  0.50400001928E-02 0.  1.
</event>
<event>
 5   0  0.5248309E-07  0.3095053E+04  0.7818609E-02  0.8217097E-01
       -2   -1    0    0    0  501  0.00000000000E+00  0.00000000000E+00  0.21019272935E+04  0.21019272935E+04  0.25500000920E-02 0.  1.
        2   -1    0    0  501    0  0.00000000000E+00  0.00000000000E+00 -0.11393536774E+04  0.11393536774E+04  0.25500000920E-02 0. -1.
    10030    2    1    2    0    0  0.00000000000E+00  0.00000000000E+00  0.96257361612E+03  0.32412809709E+04  0.30950532089E+04 0.  0.
        4    1    3    3  502    0  0.20256364865E+03 -0.12645024892E+04  0.13911488621E+04  0.18908451408E+04  0.12699999809E+01 0.  1.
       -4    1    3    3    0  502 -0.20256364865E+03  0.12645024892E+04 -0.42857524600E+03  0.13504358301E+04  0.12699999809E+01 0. -1.
</event>
<event>
 5   0  0.1875284E-07  0.3099704E+04  0.7818609E-02  0.8215819E-01
       -1   -1    0    0    0  501  0.00000000000E+00  0.00000000000E+00  0.79131862658E+03  0.79131862660E+03  0.50400001928E-02 0.  1.
        1   -1    0    0  501    0  0.00000000000E+00  0.00000000000E+00 -0.30354915198E+04  0.30354915198E+04  0.50400001928E-02 0. -1.
    10030    2    1    2    0    0  0.00000000000E+00  0.00000000000E+00 -0.22441728933E+04  0.38268101464E+04  0.30997038443E+04 0.  0.
        4    1    3    3  502    0 -0.68935197621E+03 -0.41011033251E+03  0.51512784144E+03  0.95328638817E+03  0.12699999809E+01 0.  1.
       -4    1    3    3    0  502  0.68935197621E+03  0.41011033251E+03 -0.27593007347E+04  0.28735237583E+04  0.12699999809E+01 0. -1.
</event>
<event>
 5   0  0.5154105E-07  0.3109640E+04  0.7818609E-02  0.8213097E-01
       -2   -1    0    0    0  501  0.00000000000E+00  0.00000000000E+00  0.97681666854E+03  0.97681666855E+03  0.25500000920E-02 0.  1.
        2   -1    0    0  501    0  0.00000000000E+00  0.00000000000E+00 -0.24748395105E+04  0.24748395105E+04  0.25500000920E-02 0. -1.
    10030    2    1    2    0    0  0.00000000000E+00  0.00000000000E+00 -0.14980228420E+04  0.34516561791E+04  0.31096395198E+04 0.  0.
        1    1    3    3  502    0 -0.90116791347E+03  0.99888853852E+03  0.11619579618E+03  0.13503271395E+04  0.50400001928E-02 0.  1.
       -1    1    3    3    0  502  0.90116791347E+03 -0.99888853852E+03 -0.16142186382E+04  0.21013290395E+04  0.50400001928E-02 0. -1.
</event>
<event>
 5   0  0.1830902E-07  0.3093757E+04  0.7818609E-02  0.8217453E-01
       -1   -1    0    0    0  501  0.00000000000E+00  0.00000000000E+00  0.12519606701E+04  0.12519606701E+04  0.50400001928E-02 0.  1.
        1   -1    0    0  501    0  0.00000000000E+00  0.00000000000E+00 -0.19112679789E+04  0.19112679790E+04  0.50400001928E-02 0. -1.
    10030    2    1    2    0    0  0.00000000000E+00  0.00000000000E+00 -0.65930730882E+03  0.31632286491E+04  0.30937565126E+04 0.  0.
        3    1    3    3  502    0  0.11696382248E+04  0.91741157556E+03 -0.76720582164E+03  0.16728127088E+04  0.10100000352E+00 0. -1.
       -3    1    3    3    0  502 -0.11696382248E+04 -0.91741157556E+03  0.10789851282E+03  0.14904159403E+04  0.10100000352E+00 0.  1.
</event>
<event>
 5   0  0.5342534E-07  0.3100282E+04  0.7818609E-02  0.8215660E-01
       -2   -1    0    0    0  501  0.00000000000E+00  0.00000000000E+00  0.11217241201E+04  0.11217241201E+04  0.25500000920E-02 0.  1.
        2   -1    0    0  501    0  0.00000000000E+00  0.00000000000E+00 -0.21421822975E+04  0.21421822975E+04  0.25500000920E-02 0. -1.
    10030    2    1    2    0    0  0.00000000000E+00  0.00000000000E+00 -0.10204581774E+04  0.32639064176E+04  0.31002822792E+04 0.  0.
        3    1    3    3  502    0 -0.15112100342E+04 -0.20328799791E+03 -0.80398177632E+03  0.17237947918E+04  0.10100000352E+00 0. -1.
       -3    1    3    3    0  502  0.15112100342E+04  0.20328799791E+03 -0.21647640111E+03  0.15401116258E+04  0.10100000352E+00 0.  1.
</event>
<event>
 5   0  0.1814075E-07  0.3095305E+04  0.7818609E-02  0.8217027E-01
        1   -1    0    0  501    0  0.00000000000E+00  0.00000000000E+00  0.17589033695E+04  0.17589033695E+04  0.50400001928E-02 0.  1.
       -1   -1    0    0    0  501  0.00000000000E+00  0.00000000000E+00 -0.13617739486E+04  0.13617739486E+04  0.50400001928E-02 0. -1.
    10030    2    1    2    0    0  0.00000000000E+00  0.00000000000E+00  0.39712942093E+03  0.31206773181E+04  0.30953053398E+04 0.  0.
        5    1    3    3  502    0  0.31823985319E+02  0.92455575097E+03 -0.10523271937E+04  0.14011533518E+04  0.46999998093E+01 0. -1.
       -5    1    3    3    0  502 -0.31823985319E+02 -0.92455575097E+03  0.14494566147E+04  0.17195239663E+04  0.46999998093E+01 0.  1.
</event>
<event>
 5   0  0.5154105E-07  0.3099459E+04  0.7818609E-02  0.8215886E-01
        2   -1    0    0  501    0  0.00000000000E+00  0.00000000000E+00  0.16145492469E+04  0.16145492469E+04  0.25500000920E-02 0. -1.
       -2   -1    0    0    0  501  0.00000000000E+00  0.00000000000E+00 -0.14875125215E+04  0.14875125215E+04  0.25500000920E-02 0.  1.
    10030    2    1    2    0    0  0.00000000000E+00  0.00000000000E+00  0.12703672532E+03  0.31020617684E+04  0.30994594505E+04 0.  0.
        1    1    3    3  502    0 -0.46437685829E+03  0.22731759241E+03 -0.13986473518E+04  0.14911517593E+04  0.50400001928E-02 0.  1.
       -1    1    3    3    0  502  0.46437685829E+03 -0.22731759241E+03  0.15256840771E+04  0.16109100092E+04  0.50400001928E-02 0. -1.
</event>
<event>
 5   0  0.5342534E-07  0.3100465E+04  0.7818609E-02  0.8215610E-01
        2   -1    0    0  501    0  0.00000000000E+00  0.00000000000E+00  0.18839490941E+04  0.18839490941E+04  0.25500000920E-02 0. -1.
       -2   -1    0    0    0  501  0.00000000000E+00  0.00000000000E+00 -0.12756289962E+04  0.12756289962E+04  0.25500000920E-02 0.  1.
    10030    2    1    2    0    0  0.00000000000E+00  0.00000000000E+00  0.60832009787E+03  0.31595780903E+04  0.31004645405E+04 0.  0.
        3    1    3    3  502    0 -0.12023570183E+04 -0.41714674903E+02 -0.69213926018E+03  0.13879694807E+04  0.10100000352E+00 0.  1.
       -3    1    3    3    0  502  0.12023570183E+04  0.41714674903E+02  0.13004593580E+04  0.17716086096E+04  0.10100000352E+00 0. -1.
</event>
<event>
 5   0  0.1814075E-07  0.3108031E+04  0.7818609E-02  0.8213537E-01
        1   -1    0    0  501    0  0.00000000000E+00  0.00000000000E+00  0.15546344642E+04  0.15546344642E+04  0.50400001928E-02 0.  1.
       -1   -1    0    0    0  501  0.00000000000E+00  0.00000000000E+00 -0.15533965399E+04  0.15533965399E+04  0.50400001928E-02 0. -1.
    10030    2    1    2    0    0  0.00000000000E+00  0.00000000000E+00  0.12379243359E+01  0.31080310041E+04  0.31080307576E+04 0.  0.
        5    1    3    3  502    0  0.91821025835E+03  0.12087108659E+04  0.33355993196E+03  0.15541481120E+04  0.46999998093E+01 0. -1.
       -5    1    3    3    0  502 -0.91821025835E+03 -0.12087108659E+04 -0.33232200763E+03  0.15538828922E+04  0.46999998093E+01 0.  1.
</event>
<event>
 5   0  0.1875284E-07  0.3098594E+04  0.7818609E-02  0.8216124E-01
        1   -1    0    0  501    0  0.00000000000E+00  0.00000000000E+00  0.12791195229E+04  0.12791195229E+04  0.50400001928E-02 0. -1.
       -1   -1    0    0    0  501  0.00000000000E+00  0.00000000000E+00 -0.18765411930E+04  0.18765411930E+04  0.50400001928E-02 0.  1.
    10030    2    1    2    0    0  0.00000000000E+00  0.00000000000E+00 -0.59742167010E+03  0.31556607159E+04  0.30985935361E+04 0.  0.
        4    1    3    3  502    0 -0.14048094993E+02  0.18853779306E+03  0.12673269664E+04  0.12813520597E+04  0.12699999809E+01 0. -1.
       -4    1    3    3    0  502  0.14048094993E+02 -0.18853779306E+03 -0.18647486365E+04  0.18743086562E+04  0.12699999809E+01 0.  1.
</event>
<event>
 5   0  0.1845123E-07  0.3094765E+04  0.7818609E-02  0.8217176E-01
        1   -1    0    0  501    0  0.00000000000E+00  0.00000000000E+00  0.18219343835E+04  0.18219343835E+04  0.50400001928E-02 0. -1.
       -1   -1    0    0    0  501  0.00000000000E+00  0.00000000000E+00 -0.13142038114E+04  0.13142038114E+04  0.50400001928E-02 0.  1.
    10030    2    1    2    0    0  0.00000000000E+00  0.00000000000E+00  0.50773057217E+03  0.31361381949E+04  0.30947653293E+04 0.  0.
        2    1    3    3  502    0  0.28716752238E+03 -0.40312805343E+03 -0.12318229244E+04  0.13275410090E+04  0.25500000920E-02 0.  1.
       -2    1    3    3    0  502 -0.28716752238E+03  0.40312805343E+03  0.17395534966E+04  0.18085971859E+04  0.25500000920E-02 0. -1.
</event>
<event>
 5   0  0.5248309E-07  0.3098624E+04  0.7818609E-02  0.8216116E-01
       -2   -1    0    0    0  501  0.00000000000E+00  0.00000000000E+00  0.15035217211E+04  0.15035217211E+04  0.25500000920E-02 0. -1.
        2   -1    0    0  501    0  0.00000000000E+00  0.00000000000E+00 -0.15964964937E+04  0.15964964937E+04  0.25500000920E-02 0.  1.
    10030    2    1    2    0    0  0.00000000000E+00  0.00000000000E+00 -0.92974772629E+02  0.31000182148E+04  0.30986236660E+04 0.  0.
        4    1    3    3  502    0 -0.14414101821E+04  0.10920793354E+03  0.51123624797E+03  0.15332820353E+04  0.12699999809E+01 0. -1.
       -4    1    3    3    0  502  0.14414101821E+04 -0.10920793354E+03 -0.60421102060E+03  0.15667361795E+04  0.12699999809E+01 0.  1.
</event>
<event>
 5   0  0.5154105E-07  0.3145916E+04  0.7818609E-02  0.8203249E-01
       -2   -1    0    0    0  501  0.00000000000E+00  0.00000000000E+00  0.15340609845E+04  0.15340609845E+04  0.25500000920E-02 0.  1.
        2   -1    0    0  501    0  0.00000000000E+00  0.00000000000E+00 -0.16128409856E+04  0.16128409856E+04  0.25500000920E-02 0. -1.
    10030    2    1    2    0    0  0.00000000000E+00  0.00000000000E+00 -0.78780001025E+02  0.31469019701E+04  0.31459157206E+04 0.  0.
        1    1    3    3  502    0 -0.71234959534E+02  0.13411188943E+04  0.77972086353E+03  0.15529452447E+04  0.50400001928E-02 0.  1.
       -1    1    3    3    0  502  0.71234959534E+02 -0.13411188943E+04 -0.85850086455E+03  0.15939567254E+04  0.50400001928E-02 0. -1.
</event>
<event>
 5   0  0.1840359E-07  0.3113997E+04  0.7818609E-02  0.8211907E-01
       -1   -1    0    0    0  501  0.00000000000E+00  0.00000000000E+00  0.14879762639E+04  0.14879762639E+04  0.50400001928E-02 0.  1.
        1   -1    0    0  501    0  0.00000000000E+00  0.00000000000E+00 -0.16292222414E+04  0.16292222414E+04  0.50400001928E-02 0. -1.
    10030    2    1    2    0    0  0.00000000000E+00  0.00000000000E+00 -0.14124597752E+03  0.31171985052E+04  0.31139968039E+04 0.  0.
        1    1    3    3  502    0 -0.14594853841E+04 -0.31676038488E+03 -0.51131339757E+03  0.15785677427E+04  0.50400001928E-02 0. -1.
       -1    1    3    3    0  502  0.14594853841E+04  0.31676038488E+03  0.37006742005E+03  0.15386307625E+04  0.50400001928E-02 0.  1.
</event>
<event>
 5   0  0.5376678E-07  0.3099424E+04  0.7818609E-02  0.8215896E-01
        2   -1    0    0  501    0  0.00000000000E+00  0.00000000000E+00  0.12191924480E+04  0.12191924480E+04  0.25500000920E-02 0.  1.
       -2   -1    0    0    0  501  0.00000000000E+00  0.00000000000E+00 -0.19698345546E+04  0.19698345546E+04  0.25500000920E-02 0. -1.
    10030    2    1    2    0    0  0.00000000000E+00  0.00000000000E+00 -0.75064210652E+03  0.31890270026E+04  0.30994240838E+04 0.  0.
        5    1    3    3  502    0 -0.44625968009E+03 -0.13903755313E+04  0.15861608665E+03  0.14688338821E+04  0.46999998093E+01 0.  1.
       -5    1    3    3    0  502  0.44625968009E+03  0.13903755313E+04 -0.90925819317E+03  0.17201931205E+04  0.46999998093E+01 0. -1.
</event>
<event>
 5   0  0.1875284E-07  0.3102687E+04  0.7818609E-02  0.8215001E-01
        1   -1    0    0  501    0  0.00000000000E+00  0.00000000000E+00  0.16825144043E+04  0.16825144043E+04  0.50400001928E-02 0. -1.
       -1   -1    0    0    0  501  0.00000000000E+00  0.00000000000E+00 -0.14303986306E+04  0.14303986306E+04  0.50400001928E-02 0.  1.
    10030    2    1    2    0    0  0.00000000000E+00  0.00000000000E+00  0.25211577372E+03  0.31129130350E+04  0.31026867711E+04 0.  0.
        4    1    3    3  502    0  0.11084711379E+04 -0.32073952770E+03 -0.91422143578E+03  0.14722039787E+04  0.12699999809E+01 0.  1.
       -4    1    3    3    0  502 -0.11084711379E+04  0.32073952770E+03  0.11663372095E+04  0.16407090563E+04  0.12699999809E+01 0. -1.
</event>
<event>
 5   0  0.1830902E-07  0.3101418E+04  0.7818609E-02  0.8215349E-01
        1   -1    0    0  501    0  0.00000000000E+00  0.00000000000E+00  0.21409712669E+04  0.21409712669E+04  0.50400001928E-02 0.  1.
       -1   -1    0    0    0  501  0.00000000000E+00  0.00000000000E+00 -0.11231810678E+04  0.11231810678E+04  0.50400001928E-02 0. -1.
    10030    2    1    2    0    0  0.00000000000E+00  0.00000000000E+00  0.10177901991E+04  0.32641523346E+04  0.31014179941E+04 0.  0.
        3    1    3    3  502    0  0.11098740828E+04  0.10107929072E+04  0.99680640539E+02  0.15044796513E+04  0.10100000352E+00 0. -1.
       -3    1    3    3    0  502 -0.11098740828E+04 -0.10107929072E+04  0.91810955857E+03  0.17596726834E+04  0.10100000352E+00 0.  1.
</event>
<event>
 5   0  0.1845123E-07  0.3097881E+04  0.7818609E-02  0.8216320E-01
       -1   -1    0    0    0  501  0.00000000000E+00  0.00000000000E+00  0.12626607680E+04  0.12626607680E+04  0.50400001928E-02 0.  1.
        1   -1    0    0  501    0  0.00000000000E+00  0.00000000000E+00 -0.19001279837E+04  0.19001279837E+04  0.50400001928E-02 0. -1.
    10030    2    1    2    0    0  0.00000000000E+00  0.00000000000E+00 -0.63746721573E+03  0.31627887517E+04  0.30978812496E+04 0.  0.
        2    1    3    3  502    0  0.10460410786E+04 -0.10370293656E+04  0.17045617600E+03  0.14827970701E+04  0.25500000920E-02 0.  1.
       -2    1    3    3    0  502 -0.10460410786E+04  0.10370293656E+04 -0.80792339172E+03  0.16799916816E+04  0.25500000920E-02 0. -1.
</event>
<event>
 5   0  0.5248309E-07  0.3110252E+04  0.7818609E-02  0.8212930E-01
        2   -1    0    0  501    0  0.00000000000E+00  0.00000000000E+00  0.15913840115E+04  0.15913840115E+04  0.25500000920E-02 0.  1.
       -2   -1    0    0    0  501  0.00000000000E+00  0.00000000000E+00 -0.15196944775E+04  0.15196944775E+04  0.25500000920E-02 0. -1.
    10030    2    1    2    0    0  0.00000000000E+00  0.00000000000E+00  0.71689533955E+02  0.31110784890E+04  0.31102523974E+04 0.  0.
        4    1    3    3  502    0 -0.17910771500E+03  0.20597245627E+03 -0.14955457511E+04  0.15202509440E+04  0.12699999809E+01 0. -1.
       -4    1    3    3    0  502  0.17910771500E+03 -0.20597245627E+03  0.15672352850E+04  0.15908275450E+04  0.12699999809E+01 0.  1.
</event>
<event>
 5   0  0.1840359E-07  0.3118548E+04  0.7818609E-02  0.8210666E-01
        1   -1    0    0  501    0  0.00000000000E+00  0.00000000000E+00  0.21156073105E+04  0.21156073105E+04  0.50400001928E-02 0. -1.
       -1   -1    0    0    0  501  0.00000000000E+00  0.00000000000E+00 -0.11492372877E+04  0.11492372877E+04  0.50400001928E-02 0.  1.
    10030    2    1    2    0    0  0.00000000000E+00  0.00000000000E+00  0.96637002279E+03  0.32648445983E+04  0.31185476154E+04 0.  0.
        1    1    3    3  502    0 -0.17698615856E+03  0.15385497169E+04  0.29336318083E+03  0.15762364314E+04  0.50400001928E-02 0.  1.
       -1    1    3    3    0  502  0.17698615856E+03 -0.15385497169E+04  0.67300684196E+03  0.16886081668E+04  0.50400001928E-02 0. -1.
</event>
<event>
 5   0  0.1830902E-07  0.3094893E+04  0.7818609E-02  0.8217141E-01
        1   -1    0    0  501    0  0.00000000000E+00  0.00000000000E+00  0.17962012183E+04  0.17962012183E+04  0.50400001928E-02 0.  1.
       -1   -1    0    0    0  501  0.00000000000E+00  0.00000000000E+00 -0.13331414340E+04  0.13331414340E+04  0.50400001928E-02 0. -1.
    10030    2    1    2    0    0  0.00000000000E+00  0.00000000000E+00  0.46305978433E+03  0.31293426524E+04  0.30948927400E+04 0.  0.
        3    1    3    3  502    0  0.47395653650E+03  0.81559118648E+03  0.14718736657E+04  0.17482093353E+04  0.10100000352E+00 0.  1.
       -3    1    3    3    0  502 -0.47395653650E+03 -0.81559118648E+03 -0.10088138814E+04  0.13811333171E+04  0.10100000352E+00 0. -1.
</event>
<event>
 5   0  0.5055900E-07  0.3099003E+04  0.7818609E-02  0.8216012E-01
       -2   -1    0    0    0  501  0.00000000000E+00  0.00000000000E+00  0.15126934026E+04  0.15126934026E+04  0.25500000920E-02 0. -1.
        2   -1    0    0  501    0  0.00000000000E+00  0.00000000000E+00 -0.15872052989E+04  0.15872052989E+04  0.25500000920E-02 0.  1.
    10030    2    1    2    0    0  0.00000000000E+00  0.00000000000E+00 -0.74511896321E+02  0.30998987015E+04  0.30990030553E+04 0.  0.
        2    1    3    3  502    0 -0.14681707332E+02  0.12651291802E+04  0.85753463183E+03  0.15284413760E+04  0.25500000920E-02 0. -1.
       -2    1    3    3    0  502  0.14681707332E+02 -0.12651291802E+04 -0.93204652815E+03  0.15714573255E+04  0.25500000920E-02 0.  1.
</event>
<event>
 5   0  0.5248309E-07  0.3099284E+04  0.7818609E-02  0.8215934E-01
        2   -1    0    0  501    0  0.00000000000E+00  0.00000000000E+00  0.12087121655E+04  0.12087121655E+04  0.25500000920E-02 0. -1.
       -2   -1    0    0    0  501  0.00000000000E+00  0.00000000000E+00 -0.19867351958E+04  0.19867351958E+04  0.25500000920E-02 0.  1.
    10030    2    1    2    0    0  0.00000000000E+00  0.00000000000E+00 -0.77802303029E+03  0.31954473614E+04  0.30992844341E+04 0.  0.
        4    1    3    3  502    0 -0.23764093149E+03  0.14761989696E+04 -0.80877111834E+03  0.16999261586E+04  0.12699999809E+01 0. -1.
       -4    1    3    3    0  502  0.23764093149E+03 -0.14761989696E+04  0.30748088048E+02  0.14955212027E+04  0.12699999809E+01 0.  1.
</event>
<event>
 5   0  0.1814075E-07  0.3098982E+04  0.7818609E-02  0.8216017E-01
        1   -1    0    0  501    0  0.00000000000E+00  0.00000000000E+00  0.15472829236E+04  0.15472829236E+04  0.50400001928E-02 0.  1.
       -1   -1    0    0    0  501  0.00000000000E+00  0.00000000000E+00 -0.15517020585E+04  0.15517020585E+04  0.50400001928E-02 0. -1.
    10030    2    1    2    0    0  0.00000000000E+00  0.00000000000E+00 -0.44191349499E+01  0.30989849821E+04  0.30989818313E+04 0.  0.
        5    1    3    3  502    0 -0.11196027956E+04 -0.55302729704E+03  0.91515192500E+03  0.15481843388E+04  0.46999998093E+01 0.  1.
       -5    1    3    3    0  502  0.11196027956E+04  0.55302729704E+03 -0.91957105995E+03  0.15508006433E+04  0.46999998093E+01 0. -1.
</event>
<event>
 5   0  0.5248309E-07  0.3110849E+04  0.7818609E-02  0.8212767E-01
       -2   -1    0    0    0  501  0.00000000000E+00  0.00000000000E+00  0.12705469526E+04  0.12705469526E+04  0.25500000920E-02 0. -1.
        2   -1    0    0  501    0  0.00000000000E+00  0.00000000000E+00 -0.19041761943E+04  0.19041761943E+04  0.25500000920E-02 0.  1.
    10030    2    1    2    0    0  0.00000000000E+00  0.00000000000E+00 -0.63362924171E+03  0.31747231470E+04  0.31108489266E+04 0.  0.
        4    1    3    3  502    0  0.84449461356E+03  0.10810456907E+04 -0.10650208280E+04  0.17366928095E+04  0.12699999809E+01 0. -1.
       -4    1    3    3    0  502 -0.84449461356E+03 -0.10810456907E+04  0.43139158633E+03  0.14380303374E+04  0.12699999809E+01 0.  1.
</event>
<event>
 5   0  0.1845123E-07  0.3095279E+04  0.7818609E-02  0.8217035E-01
       -1   -1    0    0    0  501  0.00000000000E+00  0.00000000000E+00  0.11223044306E+04  0.11223044306E+04  0.50400001928E-02 0.  1.
        1   -1    0    0  501    0  0.00000000000E+00  0.00000000000E+00 -0.21341689995E+04  0.21341689995E+04  0.50400001928E-02 0. -1.
    10030    2    1    2    0    0  0.00000000000E+00  0.00000000000E+00 -0.10118645689E+04  0.32564734302E+04  0.30952785490E+04 0.  0.
        2    1    3    3  502    0 -0.13390874021E+04  0.15648859538E+03 -0.13054722529E+04  0.18766730014E+04  0.25500000920E-02 0. -1.
       -2    1    3    3    0  502  0.13390874021E+04 -0.15648859538E+03  0.29360768403E+03  0.13798004288E+04  0.25500000920E-02 0.  1.
</event>
<event>
 5   0  0.5376678E-07  0.3101240E+04  0.7818609E-02  0.8215398E-01
       -2   -1    0    0    0  501  0.00000000000E+00  0.00000000000E+00  0.22257463155E+04  0.22257463155E+04  0.25500000920E-02 0.  1.
        2   -1    0    0  501    0  0.00000000000E+00  0.00000000000E+00 -0.10802768813E+04  0.10802768813E+04  0.25500000920E-02 0. -1.
    10030    2    1    2    0    0  0.00000000000E+00  0.00000000000E+00  0.11454694342E+04  0.33060231969E+04  0.31012399381E+04 0.  0.
        5    1    3    3  502    0 -0.11756170976E+04 -0.68002284561E+03  0.13704047329E+04  0.19293879477E+04  0.46999998093E+01 0.  1.
       -5    1    3    3    0  502  0.11756170976E+04  0.68002284561E+03 -0.22493529872E+03  0.13766352492E+04  0.46999998093E+01 0. -1.
</event>
<event>
 5   0  0.1875284E-07  0.3097422E+04  0.7818609E-02  0.8216446E-01
       -1   -1    0    0    0  501  0.00000000000E+00  0.00000000000E+00  0.14050421699E+04  0.14050421699E+04  0.50400001928E-02 0.  1.
        1   -1    0    0  501    0  0.00000000000E+00  0.00000000000E+00 -0.17070704043E+04  0.17070704043E+04  0.50400001928E-02 0. -1.
    10030    2    1    2    0    0  0.00000000000E+00  0.00000000000E+00 -0.30202823446E+03  0.31121125742E+04  0.30974220926E+04 0.  0.
        4    1    3    3  502    0 -0.64653327009E+03 -0.13804839251E+04  0.12371122156E+03  0.15293943952E+04  0.12699999809E+01 0. -1.
       -4    1    3    3    0  502  0.64653327009E+03  0.13804839251E+04 -0.42573945603E+03  0.15827181790E+04  0.12699999809E+01 0.  1.
</event>
<event>
 5   0  0.5154105E-07  0.3101454E+04  0.7818609E-02  0.8215339E-01
        2   -1    0    0  501    0  0.00000000000E+00  0.00000000000E+00  0.14710803584E+04  0.14710803584E+04  0.25500000920E-02 0.  1.
       -2   -1    0    0    0  501  0.00000000000E+00  0.00000000000E+00 -0.16346857338E+04  0.16346857338E+04  0.25500000920E-02 0. -1.
    10030    2    1    2    0    0  0.00000000000E+00  0.00000000000E+00 -0.16360537539E+03  0.31057660923E+04  0.31014539012E+04 0.  0.
        1    1    3    3  502    0 -0.14517897801E+04 -0.53167217942E+03 -0.20190777791E+03  0.15592099355E+04  0.50400001928E-02 0. -1.
       -1    1    3    3    0  502  0.14517897801E+04  0.53167217942E+03  0.38302402521E+02  0.15465561568E+04  0.50400001928E-02 0.  1.
</event>
<event>
 5   0  0.1727000E-07  0.3154871E+04  0.7818609E-02  0.8200838E-01
        4   -1    0    0  501    0  0.00000000000E+00  0.00000000000E+00  0.14406125204E+04  0.14406130802E+04  0.12699999809E+01 0.  1.
       -4   -1    0    0    0  501  0.00000000000E+00  0.00000000000E+00 -0.17272526067E+04  0.17272530736E+04  0.12699999809E+01 0. -1.
    10030    2    1    2    0    0  0.00000000000E+00  0.00000000000E+00 -0.28664008629E+03  0.31678661537E+04  0.31548713807E+04 0.  0.
        2    1    3    3  502    0  0.14602293750E+04 -0.51817566680E+03  0.15374903388E+03  0.15570531830E+04  0.25500000920E-02 0. -1.
       -2    1    3    3    0  502 -0.14602293750E+04  0.51817566680E+03 -0.44038912017E+03  0.16108129707E+04  0.25500000920E-02 0.  1.
</event>
<event>
 5   0  0.5055900E-07  0.3112132E+04  0.7818609E-02  0.8212416E-01
       -2   -1    0    0    0  501  0.00000000000E+00  0.00000000000E+00  0.16383196061E+04  0.16383196061E+04  0.25500000920E-02 0.  1.
        2   -1    0    0  501    0  0.00000000000E+00  0.00000000000E+00 -0.14779418865E+04  0.14779418865E+04  0.25500000920E-02 0. -1.
    10030    2    1    2    0    0  0.00000000000E+00  0.00000000000E+00  0.16037771954E+03  0.31162614926E+04  0.31121318541E+04 0.  0.
        2    1    3    3  502    0 -0.36956639598E+03  0.73490243360E+03  0.14028050304E+04  0.16261988997E+04  0.25500000920E-02 0.  1.
       -2    1    3    3    0  502  0.36956639598E+03 -0.73490243360E+03 -0.12424273109E+04  0.14900625929E+04  0.25500000920E-02 0. -1.
</event>
<event>
 5   0  0.1727000E-07  0.3114856E+04  0.7818609E-02  0.8211673E-01
       -3   -1    0    0    0  501  0.00000000000E+00  0.00000000000E+00  0.26515266011E+04  0.26515266030E+04  0.10100000352E+00 0. -1.
        3   -1    0    0  501    0  0.00000000000E+00  0.00000000000E+00 -0.91478710416E+03  0.91478710974E+03  0.10100000352E+00 0.  1.
    10030    2    1    2    0    0  0.00000000000E+00  0.00000000000E+00  0.17367394969E+04  0.35663137128E+04  0.31148562435E+04 0.  0.
        4    1    3    3  502    0  0.11929355689E+04 -0.10614700609E+03  0.20082682626E+04  0.23382697633E+04  0.12699999809E+01 0. -1.
       -4    1    3    3    0  502 -0.11929355689E+04  0.10614700609E+03 -0.27152876566E+03  0.12280439495E+04  0.12699999809E+01 0.  1.
</event>
<event>
 5   0  0.5248309E-07  0.3096015E+04  0.7818609E-02  0.8216832E-01
        2   -1    0    0  501    0  0.00000000000E+00  0.00000000000E+00  0.12432637276E+04  0.12432637276E+04  0.25500000920E-02 0.  1.
       -2   -1    0    0    0  501  0.00000000000E+00  0.00000000000E+00 -0.19274487254E+04  0.19274487254E+04  0.25500000920E-02 0. -1.
    10030    2    1    2    0    0  0.00000000000E+00  0.00000000000E+00 -0.68418499775E+03  0.31707124530E+04  0.30960149141E+04 0.  0.
        4    1    3    3  502    0 -0.61950679508E+02 -0.87551325294E+03 -0.16479906129E+04  0.18671464902E+04  0.12699999809E+01 0. -1.
       -4    1    3    3    0  502  0.61950679508E+02  0.87551325294E+03  0.96380561512E+03  0.13035659628E+04  0.12699999809E+01 0.  1.
</event>
<event>
 5   0  0.5376678E-07  0.3099272E+04  0.7818609E-02  0.8215938E-01
       -2   -1    0    0    0  501  0.00000000000E+00  0.00000000000E+00  0.98122431509E+03  0.98122431509E+03  0.25500000920E-02 0. -1.
        2   -1    0    0  501    0  0.00000000000E+00  0.00000000000E+00 -0.24473212390E+04  0.24473212390E+04  0.25500000920E-02 0.  1.
    10030    2    1    2    0    0  0.00000000000E+00  0.00000000000E+00 -0.14660969239E+04  0.34285455540E+04  0.30992715960E+04 0.  0.
        5    1    3    3  502    0  0.12650343628E+03  0.13432045479E+04  0.11027358162E+03  0.13536557648E+04  0.46999998093E+01 0. -1.
       -5    1    3    3    0  502 -0.12650343628E+03 -0.13432045479E+04 -0.15763705055E+04  0.20748897892E+04  0.46999998093E+01 0.  1.
</event>
<event>
 5   0  0.1875284E-07  0.3102794E+04  0.7818609E-02  0.8214972E-01
        1   -1    0    0  501    0  0.00000000000E+00  0.00000000000E+00  0.23115309956E+04  0.23115309956E+04  0.50400001928E-02 0. -1.
       -1   -1    0    0    0  501  0.00000000000E+00  0.00000000000E+00 -0.10412286011E+04  0.10412286011E+04  0.50400001928E-02 0.  1.
    10030    2    1    2    0    0  0.00000000000E+00  0.00000000000E+00  0.12703023945E+04  0.33527595967E+04  0.31027936992E+04 0.  0.
        4    1    3    3  502    0 -0.78370535987E+03 -0.39414288747E+03  0.20178004872E+04  0.22002416063E+04  0.12699999809E+01 0. -1.
       -4    1    3    3    0  502  0.78370535987E+03  0.39414288747E+03 -0.74749809270E+03  0.11525179905E+04  0.12699999809E+01 0.  1.
</event>
<event>
 5   0  0.1845123E-07  0.3095751E+04  0.7818609E-02  0.8216905E-01
        1   -1    0    0  501    0  0.00000000000E+00  0.00000000000E+00  0.18006345731E+04  0.18006345731E+04  0.50400001928E-02 0. -1.
       -1   -1    0    0    0  501  0.00000000000E+00  0.00000000000E+00 -0.13305966486E+04  0.13305966486E+04  0.50400001928E-02 0.  1.
    10030    2    1    2    0    0  0.00000000000E+00  0.00000000000E+00  0.47003792445E+03  0.31312312217E+04  0.30957508481E+04 0.  0.
        2    1    3    3  502    0 -0.46638307636E+03 -0.10540694614E+04 -0.80994445167E+03  0.14087532141E+04  0.25500000920E-02 0.  1.
       -2    1    3    3    0  502  0.46638307636E+03  0.10540694614E+04  0.12799823761E+04  0.17224780076E+04  0.25500000920E-02 0. -1.
</event>
<event>
 5   0  0.5376678E-07  0.3086317E+04  0.7818609E-02  0.8219503E-01
       -2   -1    0    0    0  501  0.00000000000E+00  0.00000000000E+00  0.19981454706E+04  0.19981454706E+04  0.25500000920E-02 0.  1.
        2   -1    0    0  501    0  0.00000000000E+00  0.00000000000E+00 -0.11917742641E+04  0.11917742641E+04  0.25500000920E-02 0. -1.
    10030    2    1    2    0    0  0.00000000000E+00  0.00000000000E+00  0.80637120648E+03  0.31899197347E+04  0.30863171242E+04 0.  0.
        5    1    3    3  502    0 -0.67695086074E+03  0.13847350138E+04  0.48027297782E+03  0.16144465769E+04  0.46999998093E+01 0.  1.
       -5    1    3    3    0  502  0.67695086074E+03 -0.13847350138E+04  0.32609822866E+03  0.15754731578E+04  0.46999998093E+01 0. -1.
</event>
<event>
 5   0  0.1830902E-07  0.3101689E+04  0.7818609E-02  0.8215274E-01
       -1   -1    0    0    0  501  0.00000000000E+00  0.00000000000E+00  0.20931497072E+04  0.20931497072E+04  0.50400001928E-02 0. -1.
        1   -1    0    0  501    0  0.00000000000E+00  0.00000000000E+00 -0.11490431495E+04  0.11490431495E+04  0.50400001928E-02 0.  1.
    10030    2    1    2    0    0  0.00000000000E+00  0.00000000000E+00  0.94410655774E+03  0.32421928567E+04  0.31016894312E+04 0.  0.
        3    1    3    3  502    0  0.10959445189E+04  0.17571342216E+03 -0.66013135482E+03  0.12914112478E+04  0.10100000352E+00 0.  1.
       -3    1    3    3    0  502 -0.10959445189E+04 -0.17571342216E+03  0.16042379126E+04  0.19507816089E+04  0.10100000352E+00 0. -1.
</event>
<event>
 5   0  0.5154105E-07  0.3101131E+04  0.7818609E-02  0.8215427E-01
       -2   -1    0    0    0  501  0.00000000000E+00  0.00000000000E+00  0.10216636026E+04  0.10216636026E+04  0.25500000920E-02 0. -1.
        2   -1    0    0  501    0  0.00000000000E+00  0.00000000000E+00 -0.23532736589E+04  0.23532736589E+04  0.25500000920E-02 0.  1.
    10030    2    1    2    0    0  0.00000000000E+00  0.00000000000E+00 -0.13316100563E+04  0.33749372616E+04  0.31011314351E+04 0.  0.
        1    1    3    3  502    0 -0.12533189775E+04 -0.91289556281E+03 -0.67473143325E+03  0.16909906195E+04  0.50400001928E-02 0.  1.
       -1    1    3    3    0  502  0.12533189775E+04  0.91289556281E+03 -0.65687862303E+03  0.16839466421E+04  0.50400001928E-02 0. -1.
</event>
<event>
 5   0  0.1840359E-07  0.3097994E+04  0.7818609E-02  0.8216289E-01
        1   -1    0    0  501    0  0.00000000000E+00  0.00000000000E+00  0.22228981018E+04  0.22228981018E+04  0.50400001928E-02 0. -1.
       -1   -1    0    0    0  501  0.00000000000E+00  0.00000000000E+00 -0.10793980116E+04  0.10793980116E+04  0.50400001928E-02 0.  1.
    10030    2    1    2    0    0  0.00000000000E+00  0.00000000000E+00  0.11435000902E+04  0.33022961134E+04  0.30979940549E+04 0.  0.
        1    1    3    3  502    0  0.11083809132E+04 -0.70362871925E+03  0.14480269544E+04  0.19545801810E+04  0.50400001928E-02 0. -1.
       -1    1    3    3    0  502 -0.11083809132E+04  0.70362871925E+03 -0.30452686421E+03  0.13477159324E+04  0.50400001928E-02 0.  1.
</event>
<event>
 5   0  0.5154105E-07  0.3097560E+04  0.7818609E-02  0.8216408E-01
       -2   -1    0    0    0  501  0.00000000000E+00  0.00000000000E+00  0.17271104984E+04  0.17271104984E+04  0.25500000920E-02 0. -1.
        2   -1    0    0  501    0  0.00000000000E+00  0.00000000000E+00 -0.13888625828E+04  0.13888625828E+04  0.25500000920E-02 0.  1.
    10030    2    1    2    0    0  0.00000000000E+00  0.00000000000E+00  0.33824791564E+03  0.31159730812E+04  0.30975597799E+04 0.  0.
        1    1    3    3  502    0 -0.11129285765E+04  0.65370635694E+03 -0.69198866179E+03  0.14645102681E+04  0.50400001928E-02 0.  1.
       -1    1    3    3    0  502  0.11129285765E+04 -0.65370635694E+03  0.10302365774E+04  0.16514628131E+04  0.50400001928E-02 0. -1.
</event>
<event>
 5   0  0.5154105E-07  0.3099850E+04  0.7818609E-02  0.8215779E-01
        2   -1    0    0  501    0  0.00000000000E+00  0.00000000000E+00  0.21951866538E+04  0.21951866538E+04  0.25500000920E-02 0. -1.
       -2   -1    0    0    0  501  0.00000000000E+00  0.00000000000E+00 -0.10943339362E+04  0.10943339362E+04  0.25500000920E-02 0.  1.
    10030    2    1    2    0    0  0.00000000000E+00  0.00000000000E+00  0.11008527176E+04  0.32895205900E+04  0.30998498361E+04 0.  0.
        1    1    3    3  502    0  0.21962029136E+03 -0.14827399160E+04  0.13194104771E+03  0.15047123217E+04  0.50400001928E-02 0.  1.
       -1    1    3    3    0  502 -0.21962029136E+03  0.14827399160E+04  0.96891166984E+03  0.17848082684E+04  0.50400001928E-02 0. -1.
</event>
<event>
 5   0  0.5376678E-07  0.3096214E+04  0.7818609E-02  0.8216778E-01
       -2   -1    0    0    0  501  0.00000000000E+00  0.00000000000E+00  0.11622055339E+04  0.11622055339E+04  0.25500000920E-02 0.  1.
        2   -1    0    0  501    0  0.00000000000E+00  0.00000000000E+00 -0.20621434784E+04  0.20621434784E+04  0.25500000920E-02 0. -1.
    10030    2    1    2    0    0  0.00000000000E+00  0.00000000000E+00 -0.89993794456E+03  0.32243490123E+04  0.30962135341E+04 0.  0.
        5    1    3    3  502    0 -0.62548467059E+02  0.69360558915E+03 -0.18897980883E+04  0.20140406969E+04  0.46999998093E+01 0. -1.
       -5    1    3    3    0  502  0.62548467059E+02 -0.69360558915E+03  0.98986014378E+03  0.12103083154E+04  0.46999998093E+01 0.  1.
</event>
<event>
 5   0  0.5342534E-07  0.3072414E+04  0.7818609E-02  0.8223350E-01
       -2   -1    0    0    0  501  0.00000000000E+00  0.00000000000E+00  0.88200327904E+03  0.88200327905E+03  0.25500000920E-02 0. -1.
        2   -1    0    0  501    0  0.00000000000E+00  0.00000000000E+00 -0.26756498126E+04  0.26756498126E+04  0.25500000920E-02 0.  1.
    10030    2    1    2    0    0  0.00000000000E+00  0.00000000000E+00 -0.17936465335E+04  0.35576530916E+04  0.30724139749E+04 0.  0.
        3    1    3    3  502    0  0.30869282408E+03 -0.59296351415E+00 -0.26393661720E+04  0.26573568468E+04  0.10100000352E+00 0.  1.
       -3    1    3    3    0  502 -0.30869282408E+03  0.59296351415E+00  0.84571963849E+03  0.90029624478E+03  0.10100000352E+00 0. -1.
</event>
<event>
 5   0  0.1845123E-07  0.3076858E+04  0.7818609E-02  0.8222118E-01
       -1   -1    0    0    0  501  0.00000000000E+00  0.00000000000E+00  0.10971111446E+04  0.10971111446E+04  0.50400001928E-02 0.  1.
        1   -1    0    0  501    0  0.00000000000E+00  0.00000000000E+00 -0.21572687211E+04  0.21572687211E+04  0.50400001928E-02 0. -1.
    10030    2    1    2    0    0  0.00000000000E+00  0.00000000000E+00 -0.10601575765E+04  0.32543798658E+04  0.30768578491E+04 0.  0.
        2    1    3    3  502    0  0.93908515464E+03  0.10281331267E+02  0.75873868803E+03  0.12073404781E+04  0.25500000920E-02 0.  1.
       -2    1    3    3    0  502 -0.93908515464E+03 -0.10281331267E+02 -0.18188962645E+04  0.20470393876E+04  0.25500000920E-02 0. -1.
</event>
<event>
 5   0  0.1830902E-07  0.3095195E+04  0.7818609E-02  0.8217058E-01
       -1   -1    0    0    0  501  0.00000000000E+00  0.00000000000E+00  0.13900654828E+04  0.13900654828E+04  0.50400001928E-02 0. -1.
        1   -1    0    0  501    0  0.00000000000E+00  0.00000000000E+00 -0.17229826881E+04  0.17229826881E+04  0.50400001928E-02 0.  1.
    10030    2    1    2    0    0  0.00000000000E+00  0.00000000000E+00 -0.33291720535E+03  0.31130481709E+04  0.30951954783E+04 0.  0.
        3    1    3    3  502    0  0.15041130562E+03  0.98307431400E+03  0.10261293890E+04  0.14289857245E+04  0.10100000352E+00 0. -1.
       -3    1    3    3    0  502 -0.15041130562E+03 -0.98307431400E+03 -0.13590465943E+04  0.16840624464E+04  0.10100000352E+00 0.  1.
</event>
<event>
 5   0  0.1727000E-07  0.3100882E+04  0.7818609E-02  0.8215496E-01
       -3   -1    0    0    0  501  0.00000000000E+00  0.00000000000E+00  0.13178191162E+04  0.13178191200E+04  0.10100000352E+00 0. -1.
        3   -1    0    0  501    0  0.00000000000E+00  0.00000000000E+00 -0.18241258660E+04  0.18241258688E+04  0.10100000352E+00 0.  1.
    10030    2    1    2    0    0  0.00000000000E+00  0.00000000000E+00 -0.50630674989E+03  0.31419449889E+04  0.31008824209E+04 0.  0.
        1    1    3    3  502    0 -0.52062168439E+03 -0.59317835999E+03  0.10990450150E+04  0.13530733350E+04  0.50400001928E-02 0. -1.
       -1    1    3    3    0  502  0.52062168439E+03  0.59317835999E+03 -0.16053517648E+04  0.17888716538E+04  0.50400001928E-02 0.  1.
</event>
<event>
 5   0  0.1845123E-07  0.3099579E+04  0.7818609E-02  0.8215854E-01
        1   -1    0    0  501    0  0.00000000000E+00  0.00000000000E+00  0.18389494422E+04  0.18389494422E+04  0.50400001928E-02 0. -1.
       -1   -1    0    0    0  501  0.00000000000E+00  0.00000000000E+00 -0.13060973107E+04  0.13060973107E+04  0.50400001928E-02 0.  1.
    10030    2    1    2    0    0  0.00000000000E+00  0.00000000000E+00  0.53285213142E+03  0.31450467529E+04  0.30995786301E+04 0.  0.
        2    1    3    3  502    0 -0.87115818415E+03 -0.12710267793E+04  0.43444885697E+03  0.16009907760E+04  0.25500000920E-02 0. -1.
       -2    1    3    3    0  502  0.87115818415E+03  0.12710267793E+04  0.98403274450E+02  0.15440559769E+04  0.25500000920E-02 0.  1.
</event>
<event>
 5   0  0.1840359E-07  0.3100026E+04  0.7818609E-02  0.8215731E-01
        1   -1    0    0  501    0  0.00000000000E+00  0.00000000000E+00  0.15277202475E+04  0.15277202475E+04  0.50400001928E-02 0.  1.
       -1   -1    0    0    0  501  0.00000000000E+00  0.00000000000E+00 -0.15726314643E+04  0.15726314643E+04  0.50400001928E-02 0. -1.
    10030    2    1    2    0    0  0.00000000000E+00  0.00000000000E+00 -0.44911216843E+02  0.31003517118E+04  0.31000264063E+04 0.  0.
        1    1    3    3  502    0  0.91028515821E+02  0.12255707594E+03 -0.15650942132E+04  0.15725222809E+04  0.50400001928E-02 0. -1.
       -1    1    3    3    0  502 -0.91028515821E+02 -0.12255707594E+03  0.15201829964E+04  0.15278294310E+04  0.50400001928E-02 0.  1.
</event>
<event>
 5   0  0.5248309E-07  0.3093902E+04  0.7818609E-02  0.8217413E-01
       -2   -1    0    0    0  501  0.00000000000E+00  0.00000000000E+00  0.20243577125E+04  0.20243577125E+04  0.25500000920E-02 0. -1.
        2   -1    0    0  501    0  0.00000000000E+00  0.00000000000E+00 -0.11821319571E+04  0.11821319571E+04  0.25500000920E-02 0.  1.
    10030    2    1    2    0    0  0.00000000000E+00  0.00000000000E+00  0.84222575533E+03  0.32064896696E+04  0.30939023544E+04 0.  0.
        4    1    3    3  502    0  0.60178783844E+02 -0.65532162063E+02 -0.11794775481E+04  0.11828291718E+04  0.12699999809E+01 0.  1.
       -4    1    3    3    0  502 -0.60178783844E+02  0.65532162063E+02  0.20217033034E+04  0.20236604978E+04  0.12699999809E+01 0. -1.
</event>
<event>
 5   0  0.1830902E-07  0.3095470E+04  0.7818609E-02  0.8216982E-01
       -1   -1    0    0    0  501  0.00000000000E+00  0.00000000000E+00  0.16370133564E+04  0.16370133564E+04  0.50400001928E-02 0. -1.
        1   -1    0    0  501    0  0.00000000000E+00  0.00000000000E+00 -0.14633252989E+04  0.14633252989E+04  0.50400001928E-02 0.  1.
    10030    2    1    2    0    0  0.00000000000E+00  0.00000000000E+00  0.17368805754E+03  0.31003386553E+04  0.30954696310E+04 0.  0.
        3    1    3    3  502    0  0.13559296617E+04  0.20494751966E+02 -0.66033057913E+03  0.15083108984E+04  0.10100000352E+00 0.  1.
       -3    1    3    3    0  502 -0.13559296617E+04 -0.20494751966E+02  0.83401863667E+03  0.15920277569E+04  0.10100000352E+00 0. -1.
</event>
<event>
 5   0  0.5055900E-07  0.3100794E+04  0.7818609E-02  0.8215520E-01
        2   -1    0    0  501    0  0.00000000000E+00  0.00000000000E+00  0.19745970033E+04  0.19745970033E+04  0.25500000920E-02 0. -1.
       -2   -1    0    0    0  501  0.00000000000E+00  0.00000000000E+00 -0.12173276214E+04  0.12173276214E+04  0.25500000920E-02 0.  1.
    10030    2    1    2    0    0  0.00000000000E+00  0.00000000000E+00  0.75726938187E+03  0.31919246248E+04  0.31007943972E+04 0.  0.
        2    1    3    3  502    0  0.81236842343E+03 -0.91094878993E+03 -0.60547512737E+03  0.13624868011E+04  0.25500000920E-02 0.  1.
       -2    1    3    3    0  502 -0.81236842343E+03  0.91094878993E+03  0.13627445092E+04  0.18294378237E+04  0.25500000920E-02 0. -1.
</event>
<event>
 5   0  0.1814075E-07  0.3100887E+04  0.7818609E-02  0.8215494E-01
        1   -1    0    0  501    0  0.00000000000E+00  0.00000000000E+00  0.16094586331E+04  0.16094586331E+04  0.50400001928E-02 0.  1.
       -1   -1    0    0    0  501  0.00000000000E+00  0.00000000000E+00 -0.14935926648E+04  0.14935926648E+04  0.50400001928E-02 0. -1.
    10030    2    1    2    0    0  0.00000000000E+00  0.00000000000E+00  0.11586596830E+03  0.31030512979E+04  0.31008873625E+04 0.  0.
        5    1    3    3  502    0  0.59331403030E+03  0.10255420781E+04 -0.94281260508E+03  0.15141584431E+04  0.46999998093E+01 0. -1.
       -5    1    3    3    0  502 -0.59331403030E+03 -0.10255420781E+04  0.10586785734E+04  0.15888928549E+04  0.46999998093E+01 0.  1.
</event>
<event>
 5   0  0.5248309E-07  0.3090865E+04  0.7818609E-02  0.8218249E-01
        2   -1    0    0  501    0  0.00000000000E+00  0.00000000000E+00  0.18919219664E+04  0.18919219664E+04  0.25500000920E-02 0.  1.
       -2   -1    0    0    0  501  0.00000000000E+00  0.00000000000E+00 -0.12623996994E+04  0.12623996994E+04  0.25500000920E-02 0. -1.
    10030    2    1    2    0    0  0.00000000000E+00  0.00000000000E+00  0.62952226699E+03  0.31543216658E+04  0.30908650710E+04 0.  0.
        4    1    3    3  502    0  0.13097731189E+04  0.80933171952E+02 -0.51827193694E+03  0.14109086486E+04  0.12699999809E+01 0. -1.
       -4    1    3    3    0  502 -0.13097731189E+04 -0.80933171952E+02  0.11477942039E+04  0.17434130172E+04  0.12699999809E+01 0.  1.
</event>
<event>
 5   0  0.5154105E-07  0.3093381E+04  0.7818609E-02  0.8217557E-01
       -2   -1    0    0    0  501  0.00000000000E+00  0.00000000000E+00  0.11533009943E+04  0.11533009943E+04  0.25500000920E-02 0. -1.
        2   -1    0    0  501    0  0.00000000000E+00  0.00000000000E+00 -0.20742645806E+04  0.20742645806E+04  0.25500000920E-02 0.  1.
    10030    2    1    2    0    0  0.00000000000E+00  0.00000000000E+00 -0.92096358621E+03  0.32275655749E+04  0.30933809357E+04 0.  0.
        1    1    3    3  502    0  0.38478316501E+03  0.14536670138E+04 -0.83818683241E+03  0.17215583165E+04  0.50400001928E-02 0.  1.
       -1    1    3    3    0  502 -0.38478316501E+03 -0.14536670138E+04 -0.82776753795E+02  0.15060072584E+04  0.50400001928E-02 0. -1.
</event>
<event>
 5   0  0.5154105E-07  0.3099310E+04  0.7818609E-02  0.8215927E-01
        2   -1    0    0  501    0  0.00000000000E+00  0.00000000000E+00  0.33368180542E+04  0.33368180542E+04  0.25500000920E-02 0.  1.
       -2   -1    0    0    0  501  0.00000000000E+00  0.00000000000E+00 -0.71967701801E+03  0.71967701802E+03  0.25500000920E-02 0. -1.
    10030    2    1    2    0    0  0.00000000000E+00  0.00000000000E+00  0.26171410362E+04  0.40564950722E+04  0.30993104181E+04 0.  0.
        1    1    3    3  502    0 -0.12905226547E+04 -0.26117101147E+03  0.23781179752E+04  0.27182906621E+04  0.50400001928E-02 0.  1.
       -1    1    3    3    0  502  0.12905226547E+04  0.26117101147E+03  0.23902306100E+03  0.13382044101E+04  0.50400001928E-02 0. -1.
</event>
<event>
 5   0  0.1875284E-07  0.3116450E+04  0.7818609E-02  0.8211238E-01
       -1   -1    0    0    0  501  0.00000000000E+00  0.00000000000E+00  0.13714063890E+04  0.13714063890E+04  0.50400001928E-02 0.  1.
        1   -1    0    0  501    0  0.00000000000E+00  0.00000000000E+00 -0.17704927302E+04  0.17704927302E+04  0.50400001928E-02 0. -1.
    10030    2    1    2    0    0  0.00000000000E+00  0.00000000000E+00 -0.39908634127E+03  0.31418991192E+04  0.31164499302E+04 0.  0.
        4    1    3    3  502    0  0.44642906161E+03 -0.91174555854E+03 -0.13913492369E+04  0.17223336443E+04  0.12699999809E+01 0. -1.
       -4    1    3    3    0  502 -0.44642906161E+03  0.91174555854E+03  0.99226289561E+03  0.14195654749E+04  0.12699999809E+01 0.  1.
</event>
<event>
 5   0  0.5248309E-07  0.3098870E+04  0.7818609E-02  0.8216048E-01
       -2   -1    0    0    0  501  0.00000000000E+00  0.00000000000E+00  0.93709795131E+03  0.93709795131E+03  0.25500000920E-02 0. -1.
        2   -1    0    0  501    0  0.00000000000E+00  0.00000000000E+00 -0.25618978068E+04  0.25618978068E+04  0.25500000920E-02 0.  1.
    10030    2    1    2    0    0  0.00000000000E+00  0.00000000000E+00 -0.16247998555E+04  0.34989957581E+04  0.30988702369E+04 0.  0.
        4    1    3    3  502    0  0.12180665120E+04 -0.39678999880E+02 -0.18927540791E+04  0.22511730426E+04  0.12699999809E+01 0.  1.
       -4    1    3    3    0  502 -0.12180665120E+04  0.39678999880E+02  0.26795422361E+03  0.12478227156E+04  0.12699999809E+01 0. -1.
</event>
<event>
 5   0  0.5248309E-07  0.3103742E+04  0.7818609E-02  0.8214712E-01
        2   -1    0    0  501    0  0.00000000000E+00  0.00000000000E+00  0.18934168997E+04  0.18934168997E+04  0.25500000920E-02 0. -1.
       -2   -1    0    0    0  501  0.00000000000E+00  0.00000000000E+00 -0.12719352638E+04  0.12719352638E+04  0.25500000920E-02 0.  1.
    10030    2    1    2    0    0  0.00000000000E+00  0.00000000000E+00  0.62148163583E+03  0.31653521635E+04  0.31037420794E+04 0.  0.
        4    1    3    3  502    0  0.10448769725E+04 -0.37352663471E+03 -0.79569663936E+03  0.13654394126E+04  0.12699999809E+01 0.  1.
       -4    1    3    3    0  502 -0.10448769725E+04  0.37352663471E+03  0.14171782752E+04  0.17999127510E+04  0.12699999809E+01 0. -1.
</event>
<event>
 5   0  0.1845123E-07  0.3100023E+04  0.7818609E-02  0.8215732E-01
       -1   -1    0    0    0  501  0.00000000000E+00  0.00000000000E+00  0.12305569539E+04  0.12305569539E+04  0.50400001928E-02 0. -1.
        1   -1    0    0  501    0  0.00000000000E+00  0.00000000000E+00 -0.19523973916E+04  0.19523973916E+04  0.50400001928E-02 0.  1.
    10030    2    1    2    0    0  0.00000000000E+00  0.00000000000E+00 -0.72184043764E+03  0.31829543455E+04  0.31000233464E+04 0.  0.
        2    1    3    3  502    0  0.63897707127E+03  0.13303160311E+04  0.12557350483E+03  0.14811485898E+04  0.25500000920E-02 0.  1.
       -2    1    3    3    0  502 -0.63897707127E+03 -0.13303160311E+04 -0.84741394248E+03  0.17018057557E+04  0.25500000920E-02 0. -1.
</event>
<event>
 5   0  0.5248309E-07  0.3096976E+04  0.7818609E-02  0.8216568E-01
       -2   -1    0    0    0  501  0.00000000000E+00  0.00000000000E+00  0.11840041616E+04  0.11840041616E+04  0.25500000920E-02 0.  1.
        2   -1    0    0  501    0  0.00000000000E+00  0.00000000000E+00 -0.20251746425E+04  0.20251746425E+04  0.25500000920E-02 0. -1.
    10030    2    1    2    0    0  0.00000000000E+00  0.00000000000E+00 -0.84117048094E+03  0.32091788041E+04  0.30969760765E+04 0.  0.
        4    1    3    3  502    0  0.32390147926E+03  0.31717550603E+03  0.11137002134E+04  0.12024318060E+04  0.12699999809E+01 0.  1.
       -4    1    3    3    0  502 -0.32390147926E+03 -0.31717550603E+03 -0.19548706943E+04  0.20067469981E+04  0.12699999809E+01 0. -1.
</event>
<event>
 5   0  0.1814075E-07  0.3105644E+04  0.7818609E-02  0.8214191E-01
        1   -1    0    0  501    0  0.00000000000E+00  0.00000000000E+00  0.32402826800E+04  0.32402826800E+04  0.50400001928E-02 0. -1.
       -1   -1    0    0    0  501  0.00000000000E+00  0.00000000000E+00 -0.74415009172E+03  0.74415009174E+03  0.50400001928E-02 0.  1.
    10030    2    1    2    0    0  0.00000000000E+00  0.00000000000E+00  0.24961325883E+04  0.39844327717E+04  0.31056443155E+04 0.  0.
        5    1    3    3  502    0  0.57151125264E+03 -0.43688589738E+03  0.30135958140E+04  0.30982698752E+04  0.46999998093E+01 0. -1.
       -5    1    3    3    0  502 -0.57151125264E+03  0.43688589738E+03 -0.51746322575E+03  0.88616289655E+03  0.46999998093E+01 0.  1.
</event>
<event>
 5   0  0.1814075E-07  0.3093270E+04  0.7818609E-02  0.8217587E-01
       -1   -1    0    0    0  501  0.00000000000E+00  0.00000000000E+00  0.15762447218E+04  0.15762447218E+04  0.50400001928E-02 0.  1.
        1   -1    0    0  501    0  0.00000000000E+00  0.00000000000E+00 -0.15175813827E+04  0.15175813827E+04  0.50400001928E-02 0. -1.
    10030    2    1    2    0    0  0.00000000000E+00  0.00000000000E+00  0.58663339097E+02  0.30938261045E+04  0.30932698843E+04 0.  0.
        5    1    3    3  502    0  0.37305918846E+03  0.62745809025E+03  0.13930946339E+04  0.15727719359E+04  0.46999998093E+01 0.  1.
       -5    1    3    3    0  502 -0.37305918846E+03 -0.62745809025E+03 -0.13344312948E+04  0.15210541686E+04  0.46999998093E+01 0. -1.
</event>
<event>
 5   0  0.1814075E-07  0.3094697E+04  0.7818609E-02  0.8217195E-01
       -1   -1    0    0    0  501  0.00000000000E+00  0.00000000000E+00  0.17133234698E+04  0.17133234698E+04  0.50400001928E-02 0.  1.
        1   -1    0    0  501    0  0.00000000000E+00  0.00000000000E+00 -0.13974522939E+04  0.13974522939E+04  0.50400001928E-02 0. -1.
    10030    2    1    2    0    0  0.00000000000E+00  0.00000000000E+00  0.31587117595E+03  0.31107757637E+04  0.30946972796E+04 0.  0.
        5    1    3    3  502    0  0.31212976617E+03  0.30407202894E+03 -0.13344940206E+04  0.14038451378E+04  0.46999998093E+01 0. -1.
       -5    1    3    3    0  502 -0.31212976617E+03 -0.30407202894E+03  0.16503651966E+04  0.17069306260E+04  0.46999998093E+01 0.  1.
</event>
<event>
 5   0  0.1845123E-07  0.3100660E+04  0.7818609E-02  0.8215557E-01
        1   -1    0    0  501    0  0.00000000000E+00  0.00000000000E+00  0.23526676135E+04  0.23526676135E+04  0.50400001928E-02 0.  1.
       -1   -1    0    0    0  501  0.00000000000E+00  0.00000000000E+00 -0.10216158079E+04  0.10216158079E+04  0.50400001928E-02 0. -1.
    10030    2    1    2    0    0  0.00000000000E+00  0.00000000000E+00  0.13310518056E+04  0.33742834215E+04  0.31006595587E+04 0.  0.
        2    1    3    3  502    0 -0.14580730233E+04  0.47014835160E+03  0.92421301814E+03  0.17891858810E+04  0.25500000920E-02 0. -1.
       -2    1    3    3    0  502  0.14580730233E+04 -0.47014835160E+03  0.40683878746E+03  0.15850975405E+04  0.25500000920E-02 0.  1.
</event>
<event>
 5   0  0.5342534E-07  0.3098541E+04  0.7818609E-02  0.8216138E-01
        2   -1    0    0  501    0  0.00000000000E+00  0.00000000000E+00  0.14886432197E+04  0.14886432197E+04  0.25500000920E-02 0. -1.
       -2   -1    0    0    0  501  0.00000000000E+00  0.00000000000E+00 -0.16123667259E+04  0.16123667259E+04  0.25500000920E-02 0.  1.
    10030    2    1    2    0    0  0.00000000000E+00  0.00000000000E+00 -0.12372350624E+03  0.31010099457E+04  0.30985408142E+04 0.  0.
        3    1    3    3  502    0  0.10504477269E+04  0.11203019547E+04  0.14256037792E+03  0.15423489774E+04  0.10100000352E+00 0. -1.
       -3    1    3    3    0  502 -0.10504477269E+04 -0.11203019547E+04 -0.26628388416E+03  0.15586609682E+04  0.10100000352E+00 0.  1.
</event>
<event>
 5   0  0.5376678E-07  0.3100191E+04  0.7818609E-02  0.8215686E-01
        2   -1    0    0  501    0  0.00000000000E+00  0.00000000000E+00  0.13355523625E+04  0.13355523625E+04  0.25500000920E-02 0. -1.
       -2   -1    0    0    0  501  0.00000000000E+00  0.00000000000E+00 -0.17991026988E+04  0.17991026988E+04  0.25500000920E-02 0.  1.
    10030    2    1    2    0    0  0.00000000000E+00  0.00000000000E+00 -0.46355033627E+03  0.31346550613E+04  0.31001908714E+04 0.  0.
        5    1    3    3  502    0 -0.12286444667E+04  0.84756615258E+03 -0.65456004097E+03  0.16298486266E+04  0.46999998093E+01 0.  1.
       -5    1    3    3    0  502  0.12286444667E+04 -0.84756615258E+03  0.19100970470E+03  0.15048064347E+04  0.46999998093E+01 0. -1.
</event>
<event>
 5   0  0.5055900E-07  0.3101273E+04  0.7818609E-02  0.8215389E-01
        2   -1    0    0  501    0  0.00000000000E+00  0.00000000000E+00  0.23906211617E+04  0.23906211617E+04  0.25500000920E-02 0. -1.
       -2   -1    0    0    0  501  0.00000000000E+00  0.00000000000E+00 -0.10057944983E+04  0.10057944983E+04  0.25500000920E-02 0.  1.
    10030    2    1    2    0    0  0.00000000000E+00  0.00000000000E+00  0.13848266634E+04  0.33964156600E+04  0.31012730366E+04 0.  0.
        2    1    3    3  502    0  0.11505798614E+04 -0.42237983882E+03 -0.34784363835E+03  0.12740619853E+04  0.25500000920E-02 0.  1.
       -2    1    3    3    0  502 -0.11505798614E+04  0.42237983882E+03  0.17326703017E+04  0.21223536746E+04  0.25500000920E-02 0. -1.
</event>
<event>
 5   0  0.1845123E-07  0.3076852E+04  0.7818609E-02  0.8222120E-01
       -1   -1    0    0    0  501  0.00000000000E+00  0.00000000000E+00  0.11621701512E+04  0.11621701513E+04  0.50400001928E-02 0. -1.
        1   -1    0    0  501    0  0.00000000000E+00  0.00000000000E+00 -0.20364951205E+04  0.20364951205E+04  0.50400001928E-02 0.  1.
    10030    2    1    2    0    0  0.00000000000E+00  0.00000000000E+00 -0.87432496923E+03  0.31986652717E+04  0.30768515351E+04 0.  0.
        2    1    3    3  502    0  0.57698205692E+03  0.13177480946E+03 -0.19134104621E+04  0.20028510906E+04  0.25500000920E-02 0.  1.
       -2    1    3    3    0  502 -0.57698205692E+03 -0.13177480946E+03  0.10390854929E+04  0.11958141812E+04  0.25500000920E-02 0. -1.
</event>
<event>
 5   0  0.5154105E-07  0.3097537E+04  0.7818609E-02  0.8216414E-01
       -2   -1    0    0    0  501  0.00000000000E+00  0.00000000000E+00  0.11214097641E+04  0.11214097641E+04  0.25500000920E-02 0. -1.
        2   -1    0    0  501    0  0.00000000000E+00  0.00000000000E+00 -0.21389899861E+04  0.21389899861E+04  0.25500000920E-02 0.  1.
    10030    2    1    2    0    0  0.00000000000E+00  0.00000000000E+00 -0.10175802220E+04  0.32603997503E+04  0.30975372513E+04 0.  0.
        1    1    3    3  502    0  0.38892594721E+03 -0.18824564793E+03 -0.20742622652E+04  0.21187882766E+04  0.50400001928E-02 0.  1.
       -1    1    3    3    0  502 -0.38892594721E+03  0.18824564793E+03  0.10566820432E+04  0.11416114737E+04  0.50400001928E-02 0. -1.
</event>
<event>
 5   0  0.1727000E-07  0.3100642E+04  0.7818609E-02  0.8215562E-01
        3   -1    0    0  501    0  0.00000000000E+00  0.00000000000E+00  0.11666795329E+04  0.11666795373E+04  0.10100000352E+00 0.  1.
       -3   -1    0    0    0  501  0.00000000000E+00  0.00000000000E+00 -0.20601165593E+04  0.20601165617E+04  0.10100000352E+00 0. -1.
    10030    2    1    2    0    0  0.00000000000E+00  0.00000000000E+00 -0.89343702633E+03  0.32267960990E+04  0.31006424084E+04 0.  0.
        5    1    3    3  502    0 -0.34792933215E+02  0.93785760248E+03  0.83745900601E+03  0.12578342925E+04  0.46999998093E+01 0.  1.
       -5    1    3    3    0  502  0.34792933215E+02 -0.93785760248E+03 -0.17308960323E+04  0.19689618065E+04  0.46999998093E+01 0. -1.
</event>
<event>
 5   0  0.1845123E-07  0.3099436E+04  0.7818609E-02  0.8215893E-01
       -1   -1    0    0    0  501  0.00000000000E+00  0.00000000000E+00  0.13091030857E+04  0.13091030857E+04  0.50400001928E-02 0.  1.
        1   -1    0    0  501    0  0.00000000000E+00  0.00000000000E+00 -0.18345587841E+04  0.18345587842E+04  0.50400001928E-02 0. -1.
    10030    2    1    2    0    0  0.00000000000E+00  0.00000000000E+00 -0.52545569847E+03  0.31436618698E+04  0.30994364425E+04 0.  0.
        2    1    3    3  502    0  0.87650961308E+03 -0.12762707518E+04 -0.33069469732E+03  0.15831914340E+04  0.25500000920E-02 0. -1.
       -2    1    3    3    0  502 -0.87650961308E+03  0.12762707518E+04 -0.19476100115E+03  0.15604704359E+04  0.25500000920E-02 0.  1.
</event>
<event>
 5   0  0.1840359E-07  0.3152329E+04  0.7818609E-02  0.8201522E-01
       -1   -1    0    0    0  501  0.00000000000E+00  0.00000000000E+00  0.28985688530E+04  0.28985688530E+04  0.50400001928E-02 0.  1.
        1   -1    0    0  501    0  0.00000000000E+00  0.00000000000E+00 -0.85707624601E+03  0.85707624602E+03  0.50400001928E-02 0. -1.
    10030    2    1    2    0    0  0.00000000000E+00  0.00000000000E+00  0.20414926070E+04  0.37556450990E+04  0.31523289875E+04 0.  0.
        1    1    3    3  502    0  0.79693417015E+03  0.58987982280E+03  0.24804911493E+04  0.26713102812E+04  0.50400001928E-02 0.  1.
       -1    1    3    3    0  502 -0.79693417015E+03 -0.58987982280E+03 -0.43899854231E+03  0.10843348178E+04  0.50400001928E-02 0. -1.
</event>
<event>
 5   0  0.1830902E-07  0.3099706E+04  0.7818609E-02  0.8215819E-01
       -1   -1    0    0    0  501  0.00000000000E+00  0.00000000000E+00  0.26047809938E+04  0.26047809938E+04  0.50400001928E-02 0. -1.
        1   -1    0    0  501    0  0.00000000000E+00  0.00000000000E+00 -0.92216731567E+03  0.92216731569E+03  0.50400001928E-02 0.  1.
    10030    2    1    2    0    0  0.00000000000E+00  0.00000000000E+00  0.16826136782E+04  0.35269483095E+04  0.30997057261E+04 0.  0.
        3    1    3    3  502    0  0.91873553730E+03 -0.99214304599E+03 -0.20462779189E+02  0.13523466814E+04  0.10100000352E+00 0.  1.
       -3    1    3    3    0  502 -0.91873553730E+03  0.99214304599E+03  0.17030764574E+04  0.21746016281E+04  0.10100000352E+00 0. -1.
</event>
<event>
 5   0  0.1845123E-07  0.3088596E+04  0.7818609E-02  0.8218875E-01
       -1   -1    0    0    0  501  0.00000000000E+00  0.00000000000E+00  0.10587197625E+04  0.10587197625E+04  0.50400001928E-02 0.  1.
        1   -1    0    0  501    0  0.00000000000E+00  0.00000000000E+00 -0.22525853427E+04  0.22525853427E+04  0.50400001928E-02 0. -1.
    10030    2    1    2    0    0  0.00000000000E+00  0.00000000000E+00 -0.11938655802E+04  0.33113051053E+04  0.30885961983E+04 0.  0.
        2    1    3    3  502    0 -0.69420052693E+03  0.11199626046E+04 -0.14603789189E+04  0.19669614115E+04  0.25500000920E-02 0. -1.
       -2    1    3    3    0  502  0.69420052693E+03 -0.11199626046E+04  0.26651333870E+03  0.13443436938E+04  0.25500000920E-02 0.  1.
</event>
<event>
 5   0  0.1830902E-07  0.3103947E+04  0.7818609E-02  0.8214655E-01
        1   -1    0    0  501    0  0.00000000000E+00  0.00000000000E+00  0.14286315105E+04  0.14286315105E+04  0.50400001928E-02 0.  1.
       -1   -1    0    0    0  501  0.00000000000E+00  0.00000000000E+00 -0.16859647459E+04  0.16859647459E+04  0.50400001928E-02 0. -1.
    10030    2    1    2    0    0  0.00000000000E+00  0.00000000000E+00 -0.25733323542E+03  0.31145962564E+04  0.31039473975E+04 0.  0.
        3    1    3    3  502    0 -0.10516226066E+04  0.75952896784E+03 -0.98354485429E+03  0.16279296208E+04  0.10100000352E+00 0.  1.
       -3    1    3    3    0  502  0.10516226066E+04 -0.75952896784E+03  0.72621161887E+03  0.14866666356E+04  0.10100000352E+00 0. -1.
</event>
<event>
 5   0  0.1875284E-07  0.3099113E+04  0.7818609E-02  0.8215981E-01
        1   -1    0    0  501    0  0.00000000000E+00  0.00000000000E+00  0.18402692406E+04  0.18402692406E+04  0.50400001928E-02 0. -1.
       -1   -1    0    0    0  501  0.00000000000E+00  0.00000000000E+00 -0.13047681952E+04  0.13047681952E+04  0.50400001928E-02 0.  1.
    10030    2    1    2    0    0  0.00000000000E+00  0.00000000000E+00  0.53550104540E+03  0.31450374359E+04  0.30991126316E+04 0.  0.
        4    1    3    3  502    0 -0.10523896395E+04 -0.75648944217E+02 -0.88391286235E+03  0.13764266334E+04  0.12699999809E+01 0.  1.
       -4    1    3    3    0  502  0.10523896395E+04  0.75648944217E+02  0.14194139077E+04  0.17686108024E+04  0.12699999809E+01 0. -1.
</event>
<event>
 5   0  0.1845123E-07  0.3037338E+04  0.7818609E-02  0.8233148E-01
        1   -1    0    0  501    0  0.00000000000E+00  0.00000000000E+00  0.14519605443E+04  0.14519605443E+04  0.50400001928E-02 0.  1.
       -1   -1    0    0    0  501  0.00000000000E+00  0.00000000000E+00 -0.15884426135E+04  0.15884426135E+04  0.50400001928E-02 0. -1.
    10030    2    1    2    0    0  0.00000000000E+00  0.00000000000E+00 -0.13648206914E+03  0.30404031578E+04  0.30373383096E+04 0.  0.
        2    1    3    3  502    0  0.70098928131E+03  0.13165559882E+04  0.21779256849E+03  0.15073616837E+04  0.25500000920E-02 0.  1.
       -2    1    3    3    0  502 -0.70098928131E+03 -0.13165559882E+04 -0.35427463763E+03  0.15330414741E+04  0.25500000920E-02 0. -1.
</event>
<event>
 5   0  0.5055900E-07  0.3098227E+04  0.7818609E-02  0.8216225E-01
       -2   -1    0    0    0  501  0.00000000000E+00  0.00000000000E+00  0.13699079993E+04  0.13699079993E+04  0.25500000920E-02 0. -1.
        2   -1    0    0  501    0  0.00000000000E+00  0.00000000000E+00 -0.17517615661E+04  0.17517615661E+04  0.25500000920E-02 0.  1.
    10030    2    1    2    0    0  0.00000000000E+00  0.00000000000E+00 -0.38185356679E+03  0.31216695654E+04  0.30982267072E+04 0.  0.
        2    1    3    3  502    0  0.10908605001E+04  0.21772323795E+03  0.89536459746E+03  0.14279558121E+04  0.25500000920E-02 0. -1.
       -2    1    3    3    0  502 -0.10908605001E+04 -0.21772323795E+03 -0.12772181642E+04  0.16937137533E+04  0.25500000920E-02 0.  1.
</event>
<event>
 5   0  0.1845123E-07  0.3098280E+04  0.7818609E-02  0.8216210E-01
       -1   -1    0    0    0  501  0.00000000000E+00  0.00000000000E+00  0.14003550047E+04  0.14003550048E+04  0.50400001928E-02 0.  1.
        1   -1    0    0  501    0  0.00000000000E+00  0.00000000000E+00 -0.17137329615E+04  0.17137329615E+04  0.50400001928E-02 0. -1.
    10030    2    1    2    0    0  0.00000000000E+00  0.00000000000E+00 -0.31337795674E+03  0.31140879662E+04  0.30982798643E+04 0.  0.
        2    1    3    3  502    0  0.93423779672E+03 -0.87420623840E+03 -0.10345280871E+04  0.16453829861E+04  0.25500000920E-02 0. -1.
       -2    1    3    3    0  502 -0.93423779672E+03  0.87420623840E+03  0.72115013036E+03  0.14687049801E+04  0.25500000920E-02 0.  1.
</event>
<event>
 5   0  0.1814075E-07  0.3109099E+04  0.7818609E-02  0.8213245E-01
       -1   -1    0    0    0  501  0.00000000000E+00  0.00000000000E+00  0.16821997630E+04  0.16821997630E+04  0.50400001928E-02 0. -1.
        1   -1    0    0  501    0  0.00000000000E+00  0.00000000000E+00 -0.14365852603E+04  0.14365852603E+04  0.50400001928E-02 0.  1.
    10030    2    1    2    0    0  0.00000000000E+00  0.00000000000E+00  0.24561450266E+03  0.31187850233E+04  0.31090985089E+04 0.  0.
        5    1    3    3  502    0  0.14212530420E+04 -0.20830856713E+03  0.71900618951E+03  0.16063451245E+04  0.46999998093E+01 0. -1.
       -5    1    3    3    0  502 -0.14212530420E+04  0.20830856713E+03 -0.47339168685E+03  0.15124398988E+04  0.46999998093E+01 0.  1.
</event>
<event>
 5   0  0.1727000E-07  0.3097833E+04  0.7818609E-02  0.8216333E-01
        3   -1    0    0  501    0  0.00000000000E+00  0.00000000000E+00  0.18776797146E+04  0.18776797174E+04  0.10100000352E+00 0.  1.
       -3   -1    0    0    0  501  0.00000000000E+00  0.00000000000E+00 -0.12777162451E+04  0.12777162491E+04  0.10100000352E+00 0. -1.
    10030    2    1    2    0    0  0.00000000000E+00  0.00000000000E+00  0.59996346952E+03  0.31553959665E+04  0.30978327167E+04 0.  0.
        4    1    3    3  502    0 -0.43424721249E+03 -0.14809943557E+04  0.43366588521E+03  0.16031165385E+04  0.12699999809E+01 0.  1.
       -4    1    3    3    0  502  0.43424721249E+03  0.14809943557E+04  0.16629758431E+03  0.15522794280E+04  0.12699999809E+01 0. -1.
</event>
<event>
 5   0  0.5342534E-07  0.3096992E+04  0.7818609E-02  0.8216564E-01
        2   -1    0    0  501    0  0.00000000000E+00  0.00000000000E+00  0.18738940483E+04  0.18738940483E+04  0.25500000920E-02 0.  1.
       -2   -1    0    0    0  501  0.00000000000E+00  0.00000000000E+00 -0.12796024025E+04  0.12796024025E+04  0.25500000920E-02 0. -1.
    10030    2    1    2    0    0  0.00000000000E+00  0.00000000000E+00  0.59429164583E+03  0.31534964508E+04  0.30969916540E+04 0.  0.
        3    1    3    3  502    0 -0.90013301959E+03  0.23466122086E+03 -0.96339631229E+03  0.13391929683E+04  0.10100000352E+00 0. -1.
       -3    1    3    3    0  502  0.90013301959E+03 -0.23466122086E+03  0.15576879581E+04  0.18143034825E+04  0.10100000352E+00 0.  1.
</event>
<event>
 5   0  0.5342534E-07  0.3097579E+04  0.7818609E-02  0.8216403E-01
        2   -1    0    0  501    0  0.00000000000E+00  0.00000000000E+00  0.18091514657E+04  0.18091514657E+04  0.25500000920E-02 0.  1.
       -2   -1    0    0    0  501  0.00000000000E+00  0.00000000000E+00 -0.13258973033E+04  0.13258973033E+04  0.25500000920E-02 0. -1.
    10030    2    1    2    0    0  0.00000000000E+00  0.00000000000E+00  0.48325416244E+03  0.31350487690E+04  0.30975790868E+04 0.  0.
        3    1    3    3  502    0  0.11045597366E+04  0.28142346660E+03  0.13028803780E+04  0.17311119746E+04  0.10100000352E+00 0.  1.
       -3    1    3    3    0  502 -0.11045597366E+04 -0.28142346660E+03 -0.81962621554E+03  0.14039367944E+04  0.10100000352E+00 0. -1.
</event>
<event>
 5   0  0.5248309E-07  0.3106772E+04  0.7818609E-02  0.8213882E-01
        2   -1    0    0  501    0  0.00000000000E+00  0.00000000000E+00  0.20650046126E+04  0.20650046126E+04  0.25500000920E-02 0. -1.
       -2   -1    0    0    0  501  0.00000000000E+00  0.00000000000E+00 -0.11685246672E+04  0.11685246672E+04  0.25500000920E-02 0.  1.
    10030    2    1    2    0    0  0.00000000000E+00  0.00000000000E+00  0.89647994546E+03  0.32335292798E+04  0.31067724910E+04 0.  0.
        4    1    3    3  502    0  0.93800249646E+03 -0.23243419038E+03 -0.81757708049E+03  0.12658231439E+04  0.12699999809E+01 0.  1.
       -4    1    3    3    0  502 -0.93800249646E+03  0.23243419038E+03  0.17140570259E+04  0.19677061359E+04  0.12699999809E+01 0. -1.
</event>
<event>
 5   0  0.5342534E-07  0.3070212E+04  0.7818609E-02  0.8223961E-01
       -2   -1    0    0    0  501  0.00000000000E+00  0.00000000000E+00  0.13703462056E+04  0.13703462056E+04  0.25500000920E-02 0. -1.
        2   -1    0    0  501    0  0.00000000000E+00  0.00000000000E+00 -0.17196749729E+04  0.17196749729E+04  0.25500000920E-02 0.  1.
    10030    2    1    2    0    0  0.00000000000E+00  0.00000000000E+00 -0.34932876735E+03  0.30900211785E+04  0.30702117673E+04 0.  0.
        3    1    3    3  502    0  0.31136082464E+03 -0.69775323424E+03  0.11653709488E+04  0.13935187826E+04  0.10100000352E+00 0. -1.
       -3    1    3    3    0  502 -0.31136082464E+03  0.69775323424E+03 -0.15146997161E+04  0.16965023959E+04  0.10100000352E+00 0.  1.
</event>
<event>
 5   0  0.5154105E-07  0.3100020E+04  0.7818609E-02  0.8215732E-01
       -2   -1    0    0    0  501  0.00000000000E+00  0.00000000000E+00  0.87894187720E+03  0.87894187720E+03  0.25500000920E-02 0. -1.
        2   -1    0    0  501    0  0.00000000000E+00  0.00000000000E+00 -0.27334353878E+04  0.27334353878E+04  0.25500000920E-02 0.  1.
    10030    2    1    2    0    0  0.00000000000E+00  0.00000000000E+00 -0.18544935106E+04  0.36123772650E+04  0.31000198909E+04 0.  0.
        1    1    3    3  502    0 -0.10763458541E+04  0.74694140988E+02  0.36952805408E+03  0.11404606943E+04  0.50400001928E-02 0. -1.
       -1    1    3    3    0  502  0.10763458541E+04 -0.74694140988E+02 -0.22240215647E+04  0.24719165707E+04  0.50400001928E-02 0.  1.
</event>
<event>
 5   0  0.5342534E-07  0.3106479E+04  0.7818609E-02  0.8213962E-01
       -2   -1    0    0    0  501  0.00000000000E+00  0.00000000000E+00  0.12427028863E+04  0.12427028863E+04  0.25500000920E-02 0.  1.
        2   -1    0    0  501    0  0.00000000000E+00  0.00000000000E+00 -0.19413750850E+04  0.19413750850E+04  0.25500000920E-02 0. -1.
    10030    2    1    2    0    0  0.00000000000E+00  0.00000000000E+00 -0.69867219869E+03  0.31840779714E+04  0.31064786635E+04 0.  0.
        3    1    3    3  502    0 -0.70040775650E+02 -0.14974534351E+04  0.67365679097E+02  0.15006034271E+04  0.10100000352E+00 0.  1.
       -3    1    3    3    0  502  0.70040775650E+02  0.14974534351E+04 -0.76603787778E+03  0.16834745442E+04  0.10100000352E+00 0. -1.
</event>
<event>
 5   0  0.5376678E-07  0.3095075E+04  0.7818609E-02  0.8217091E-01
       -2   -1    0    0    0  501  0.00000000000E+00  0.00000000000E+00  0.83496864930E+03  0.83496864930E+03  0.25500000920E-02 0.  1.
        2   -1    0    0  501    0  0.00000000000E+00  0.00000000000E+00 -0.28682173801E+04  0.28682173801E+04  0.25500000920E-02 0. -1.
    10030    2    1    2    0    0  0.00000000000E+00  0.00000000000E+00 -0.20332487308E+04  0.37031860294E+04  0.30950745334E+04 0.  0.
        5    1    3    3  502    0  0.86885541126E+03  0.11069788420E+04 -0.17869713591E+04  0.22745550357E+04  0.46999998093E+01 0. -1.
       -5    1    3    3    0  502 -0.86885541126E+03 -0.11069788420E+04 -0.24627737171E+03  0.14286309937E+04  0.46999998093E+01 0.  1.
</event>
<event>
 5   0  0.1830902E-07  0.3101407E+04  0.7818609E-02  0.8215352E-01
        1   -1    0    0  501    0  0.00000000000E+00  0.00000000000E+00  0.88562861816E+03  0.88562861817E+03  0.50400001928E-02 0. -1.
       -1   -1    0    0    0  501  0.00000000000E+00  0.00000000000E+00 -0.27152261576E+04  0.27152261576E+04  0.50400001928E-02 0.  1.
    10030    2    1    2    0    0  0.00000000000E+00  0.00000000000E+00 -0.18295975395E+04  0.36008547758E+04  0.31014074160E+04 0.  0.
        3    1    3    3  502    0 -0.48092711026E+03 -0.13548431282E+04 -0.24000518320E+03  0.14575641617E+04  0.10100000352E+00 0. -1.
       -3    1    3    3    0  502  0.48092711026E+03  0.13548431282E+04 -0.15895923563E+04  0.21432906141E+04  0.10100000352E+00 0.  1.
</event>
<event>
 5   0  0.1840359E-07  0.3142223E+04  0.7818609E-02  0.8204245E-01
       -1   -1    0    0    0  501  0.00000000000E+00  0.00000000000E+00  0.16479331761E+04  0.16479331761E+04  0.50400001928E-02 0. -1.
        1   -1    0    0  501    0  0.00000000000E+00  0.00000000000E+00 -0.14978710635E+04  0.14978710636E+04  0.50400001928E-02 0.  1.
    10030    2    1    2    0    0  0.00000000000E+00  0.00000000000E+00  0.15006211258E+03  0.31458042397E+04  0.31422230470E+04 0.  0.
        1    1    3    3  502    0 -0.14316003857E+04  0.32029145361E+02 -0.57214663248E+03  0.15420302525E+04  0.50400001928E-02 0.  1.
       -1    1    3    3    0  502  0.14316003857E+04 -0.32029145361E+02  0.72220874506E+03  0.16037739872E+04  0.50400001928E-02 0. -1.
</event>
<event>
 5   0  0.1830902E-07  0.3073968E+04  0.7818609E-02  0.8222919E-01
        1   -1    0    0  501    0  0.00000000000E+00  0.00000000000E+00  0.16282256334E+04  0.16282256334E+04  0.50400001928E-02 0. -1.
       -1   -1    0    0    0  501  0.00000000000E+00  0.00000000000E+00 -0.14508557271E+04  0.14508557272E+04  0.50400001928E-02 0.  1.
    10030    2    1    2    0    0  0.00000000000E+00  0.00000000000E+00  0.17736990627E+03  0.30790813606E+04  0.30739684353E+04 0.  0.
        3    1    3    3  502    0 -0.13306509538E+04 -0.43357634154E+03  0.72511573038E+03  0.15762021563E+04  0.10100000352E+00 0. -1.
       -3    1    3    3    0  502  0.13306509538E+04  0.43357634154E+03 -0.54774582411E+03  0.15028792043E+04  0.10100000352E+00 0.  1.
</event>
<event>
 5   0  0.1840359E-07  0.3099587E+04  0.7818609E-02  0.8215851E-01
        1   -1    0    0  501    0  0.00000000000E+00  0.00000000000E+00  0.16539463974E+04  0.16539463974E+04  0.50400001928E-02 0.  1.
       -1   -1    0    0    0  501  0.00000000000E+00  0.00000000000E+00 -0.14521994507E+04  0.14521994507E+04  0.50400001928E-02 0. -1.
    10030    2    1    2    0    0  0.00000000000E+00  0.00000000000E+00  0.20174694674E+03  0.31061458481E+04  0.30995871014E+04 0.  0.
        1    1    3    3  502    0 -0.13608451839E+04 -0.58665239104E+03 -0.35373765124E+03  0.15235455255E+04  0.50400001928E-02 0. -1.
       -1    1    3    3    0  502  0.13608451839E+04  0.58665239104E+03  0.55548459797E+03  0.15826003226E+04  0.50400001928E-02 0.  1.
</event>
<event>
 5   0  0.1875284E-07  0.3099305E+04  0.7818609E-02  0.8215929E-01
       -1   -1    0    0    0  501  0.00000000000E+00  0.00000000000E+00  0.14204376189E+04  0.14204376189E+04  0.50400001928E-02 0.  1.
        1   -1    0    0  501    0  0.00000000000E+00  0.00000000000E+00 -0.16906214969E+04  0.16906214969E+04  0.50400001928E-02 0. -1.
    10030    2    1    2    0    0  0.00000000000E+00  0.00000000000E+00 -0.27018387800E+03  0.31110591158E+04  0.30993046792E+04 0.  0.
        4    1    3    3  502    0 -0.87234085269E+03 -0.11889193506E+04 -0.61325239475E+03  0.15970560097E+04  0.12699999809E+01 0. -1.
       -4    1    3    3    0  502  0.87234085269E+03  0.11889193506E+04  0.34306851675E+03  0.15140031062E+04  0.12699999809E+01 0.  1.
</event>
<event>
 5   0  0.5248309E-07  0.3101861E+04  0.7818609E-02  0.8215227E-01
       -2   -1    0    0    0  501  0.00000000000E+00  0.00000000000E+00  0.17615618510E+04  0.17615618510E+04  0.25500000920E-02 0.  1.
        2   -1    0    0  501    0  0.00000000000E+00  0.00000000000E+00 -0.13654843207E+04  0.13654843207E+04  0.25500000920E-02 0. -1.
    10030    2    1    2    0    0  0.00000000000E+00  0.00000000000E+00  0.39607753029E+03  0.31270461717E+04  0.31018607883E+04 0.  0.
        4    1    3    3  502    0  0.20289250765E+03  0.10717867866E+04  0.13094835658E+04  0.17043007679E+04  0.12699999809E+01 0.  1.
       -4    1    3    3    0  502 -0.20289250765E+03 -0.10717867866E+04 -0.91340603549E+03  0.14227454038E+04  0.12699999809E+01 0. -1.
</event>
<event>
 5   0  0.5376678E-07  0.3098026E+04  0.7818609E-02  0.8216280E-01
       -2   -1    0    0    0  501  0.00000000000E+00  0.00000000000E+00  0.17699099062E+04  0.17699099062E+04  0.25500000920E-02 0. -1.
        2   -1    0    0  501    0  0.00000000000E+00  0.00000000000E+00 -0.13556854122E+04  0.13556854122E+04  0.25500000920E-02 0.  1.
    10030    2    1    2    0    0  0.00000000000E+00  0.00000000000E+00  0.41422449399E+03  0.31255953183E+04  0.30980258492E+04 0.  0.
        5    1    3    3  502    0  0.24947039302E+03 -0.69061456781E+03 -0.11689295172E+04  0.13804355344E+04  0.46999998093E+01 0.  1.
       -5    1    3    3    0  502 -0.24947039302E+03  0.69061456781E+03  0.15831540112E+04  0.17451597840E+04  0.46999998093E+01 0. -1.
</event>
<event>
 5   0  0.1840359E-07  0.3099922E+04  0.7818609E-02  0.8215759E-01
       -1   -1    0    0    0  501  0.00000000000E+00  0.00000000000E+00  0.13970232824E+04  0.13970232824E+04  0.50400001928E-02 0.  1.
        1   -1    0    0  501    0  0.00000000000E+00  0.00000000000E+00 -0.17196414365E+04  0.17196414365E+04  0.50400001928E-02 0. -1.
    10030    2    1    2    0    0  0.00000000000E+00  0.00000000000E+00 -0.32261815414E+03  0.31166647189E+04  0.30999220146E+04 0.  0.
        1    1    3    3  502    0  0.79403072898E+03 -0.23647345750E+03  0.11557181331E+04  0.14220017221E+04  0.50400001928E-02 0.  1.
       -1    1    3    3    0  502 -0.79403072898E+03  0.23647345750E+03 -0.14783362872E+04  0.16946629968E+04  0.50400001928E-02 0. -1.
</event>
<event>
 5   0  0.5342534E-07  0.3098159E+04  0.7818609E-02  0.8216243E-01
       -2   -1    0    0    0  501  0.00000000000E+00  0.00000000000E+00  0.17584743991E+04  0.17584743991E+04  0.25500000920E-02 0. -1.
        2   -1    0    0  501    0  0.00000000000E+00  0.00000000000E+00 -0.13646190139E+04  0.13646190139E+04  0.25500000920E-02 0.  1.
    10030    2    1    2    0    0  0.00000000000E+00  0.00000000000E+00  0.39385538518E+03  0.31230934129E+04  0.30981591956E+04 0.  0.
        3    1    3    3  502    0 -0.65130858724E+03  0.39337176817E+03  0.15571216531E+04  0.17330816705E+04  0.10100000352E+00 0. -1.
       -3    1    3    3    0  502  0.65130858724E+03 -0.39337176817E+03 -0.11632662679E+04  0.13900117424E+04  0.10100000352E+00 0.  1.
</event>
<event>
 5   0  0.5154105E-07  0.3097894E+04  0.7818609E-02  0.8216316E-01
       -2   -1    0    0    0  501  0.00000000000E+00  0.00000000000E+00  0.10885810931E+04  0.10885810931E+04  0.25500000920E-02 0.  1.
        2   -1    0    0  501    0  0.00000000000E+00  0.00000000000E+00 -0.22040043216E+04  0.22040043216E+04  0.25500000920E-02 0. -1.
    10030    2    1    2    0    0  0.00000000000E+00  0.00000000000E+00 -0.11154232285E+04  0.32925854147E+04  0.30978944034E+04 0.  0.
        1    1    3    3  502    0  0.48869362125E+03  0.10268314100E+04 -0.16754869649E+04  0.20249594489E+04  0.50400001928E-02 0. -1.
       -1    1    3    3    0  502 -0.48869362125E+03 -0.10268314100E+04  0.56006373648E+03  0.12676259658E+04  0.50400001928E-02 0.  1.
</event>
<event>
 5   0  0.5055900E-07  0.3077694E+04  0.7818609E-02  0.8221886E-01
       -2   -1    0    0    0  501  0.00000000000E+00  0.00000000000E+00  0.89066391225E+03  0.89066391225E+03  0.25500000920E-02 0. -1.
        2   -1    0    0  501    0  0.00000000000E+00  0.00000000000E+00 -0.26587463739E+04  0.26587463739E+04  0.25500000920E-02 0.  1.
    10030    2    1    2    0    0  0.00000000000E+00  0.00000000000E+00 -0.17680824616E+04  0.35494102861E+04  0.30776935826E+04 0.  0.
        2    1    3    3  502    0 -0.80404301524E+03  0.12955611317E+04 -0.11234262958E+04  0.18939510180E+04  0.25500000920E-02 0.  1.
       -2    1    3    3    0  502  0.80404301524E+03 -0.12955611317E+04 -0.64465616583E+03  0.16554592682E+04  0.25500000920E-02 0. -1.
</event>
<event>
 5   0  0.1845123E-07  0.3099646E+04  0.7818609E-02  0.8215835E-01
        1   -1    0    0  501    0  0.00000000000E+00  0.00000000000E+00  0.22618689362E+04  0.22618689362E+04  0.50400001928E-02 0.  1.
       -1   -1    0    0    0  501  0.00000000000E+00  0.00000000000E+00 -0.10619320772E+04  0.10619320772E+04  0.50400001928E-02 0. -1.
    10030    2    1    2    0    0  0.00000000000E+00  0.00000000000E+00  0.11999368591E+04  0.33238010134E+04  0.30996459009E+04 0.  0.
        2    1    3    3  502    0  0.51995580664E+02 -0.51211792742E+03 -0.96758896996E+03  0.10959912074E+04  0.25500000920E-02 0. -1.
       -2    1    3    3    0  502 -0.51995580664E+02  0.51211792742E+03  0.21675258290E+04  0.22278098060E+04  0.25500000920E-02 0.  1.
</event>
<event>
 5   0  0.1875284E-07  0.3099326E+04  0.7818609E-02  0.8215923E-01
        1   -1    0    0  501    0  0.00000000000E+00  0.00000000000E+00  0.20400107375E+04  0.20400107375E+04  0.50400001928E-02 0. -1.
       -1   -1    0    0    0  501  0.00000000000E+00  0.00000000000E+00 -0.11771780277E+04  0.11771780277E+04  0.50400001928E-02 0.  1.
    10030    2    1    2    0    0  0.00000000000E+00  0.00000000000E+00  0.86283270978E+03  0.32171887652E+04  0.30993262600E+04 0.  0.
        4    1    3    3  502    0 -0.71944766354E+03  0.13623634272E+04  0.25829525934E+03  0.15621642366E+04  0.12699999809E+01 0.  1.
       -4    1    3    3    0  502  0.71944766354E+03 -0.13623634272E+04  0.60453745044E+03  0.16550245286E+04  0.12699999809E+01 0. -1.
</event>
<event>
 5   0  0.5376678E-07  0.3090648E+04  0.7818609E-02  0.8218309E-01
        2   -1    0    0  501    0  0.00000000000E+00  0.00000000000E+00  0.19163569735E+04  0.19163569735E+04  0.25500000920E-02 0.  1.
       -2   -1    0    0    0  501  0.00000000000E+00  0.00000000000E+00 -0.12461278784E+04  0.12461278784E+04  0.25500000920E-02 0. -1.
    10030    2    1    2    0    0  0.00000000000E+00  0.00000000000E+00  0.67022909514E+03  0.31624848519E+04  0.30906477312E+04 0.  0.
        5    1    3    3  502    0  0.95221380630E+03  0.12023609664E+04  0.52823593537E+03  0.16221708664E+04  0.46999998093E+01 0.  1.
       -5    1    3    3    0  502 -0.95221380630E+03 -0.12023609664E+04  0.14199315977E+03  0.15403139855E+04  0.46999998093E+01 0. -1.
</event>
<event>
 5   0  0.1727000E-07  0.3100141E+04  0.7818609E-02  0.8215699E-01
       -4   -1    0    0    0  501  0.00000000000E+00  0.00000000000E+00  0.11629708263E+04  0.11629715198E+04  0.12699999809E+01 0. -1.
        4   -1    0    0  501    0  0.00000000000E+00  0.00000000000E+00 -0.20660163959E+04  0.20660167863E+04  0.12699999809E+01 0.  1.
    10030    2    1    2    0    0  0.00000000000E+00  0.00000000000E+00 -0.90304556960E+03  0.32289883060E+04  0.31001409935E+04 0.  0.
        2    1    3    3  502    0 -0.39313381715E+03  0.11400807179E+04  0.56280025219E+03  0.13308201852E+04  0.25500000920E-02 0. -1.
       -2    1    3    3    0  502  0.39313381715E+03 -0.11400807179E+04 -0.14658458218E+04  0.18981681208E+04  0.25500000920E-02 0.  1.
</event>
<event>
 5   0  0.1814075E-07  0.3097643E+04  0.7818609E-02  0.8216385E-01
       -1   -1    0    0    0  501  0.00000000000E+00  0.00000000000E+00  0.15387097843E+04  0.15387097843E+04  0.50400001928E-02 0.  1.
        1   -1    0    0  501    0  0.00000000000E+00  0.00000000000E+00 -0.15589997650E+04  0.15589997650E+04  0.50400001928E-02 0. -1.
    10030    2    1    2    0    0  0.00000000000E+00  0.00000000000E+00 -0.20289980730E+02  0.30977095494E+04  0.30976430990E+04 0.  0.
        5    1    3    3  502    0 -0.13157673100E+04  0.68375765208E+03 -0.45743297902E+03  0.15517845086E+04  0.46999998093E+01 0. -1.
       -5    1    3    3    0  502  0.13157673100E+04 -0.68375765208E+03  0.43714299829E+03  0.15459250408E+04  0.46999998093E+01 0.  1.
</event>
<event>
 5   0  0.1875284E-07  0.3098365E+04  0.7818609E-02  0.8216187E-01
       -1   -1    0    0    0  501  0.00000000000E+00  0.00000000000E+00  0.28414302011E+04  0.28414302011E+04  0.50400001928E-02 0.  1.
        1   -1    0    0  501    0  0.00000000000E+00  0.00000000000E+00 -0.84463298092E+03  0.84463298094E+03  0.50400001928E-02 0. -1.
    10030    2    1    2    0    0  0.00000000000E+00  0.00000000000E+00  0.19967972202E+04  0.36860631820E+04  0.30983645111E+04 0.  0.
        4    1    3    3  502    0  0.77420747588E+02  0.46652626425E+03 -0.75666141099E+03  0.89228853583E+03  0.12699999809E+01 0. -1.
       -4    1    3    3    0  502 -0.77420747588E+02 -0.46652626425E+03  0.27534586312E+04  0.27937746462E+04  0.12699999809E+01 0.  1.
</event>
<event>
 5   0  0.1830902E-07  0.3103852E+04  0.7818609E-02  0.8214682E-01
        1   -1    0    0  501    0  0.00000000000E+00  0.00000000000E+00  0.23397585329E+04  0.23397585329E+04  0.50400001928E-02 0.  1.
       -1   -1    0    0    0  501  0.00000000000E+00  0.00000000000E+00 -0.10293686845E+04  0.10293686845E+04  0.50400001928E-02 0. -1.
    10030    2    1    2    0    0  0.00000000000E+00  0.00000000000E+00  0.13103898485E+04  0.33691272174E+04  0.31038519056E+04 0.  0.
        3    1    3    3  502    0  0.11962200099E+04 -0.91494328289E+03  0.10619344823E+04  0.18427610745E+04  0.10100000352E+00 0.  1.
       -3    1    3    3    0  502 -0.11962200099E+04  0.91494328289E+03  0.24845536620E+03  0.15263661429E+04  0.10100000352E+00 0. -1.
</event>
<event>
 5   0  0.1814075E-07  0.3098128E+04  0.7818609E-02  0.8216252E-01
       -1   -1    0    0    0  501  0.00000000000E+00  0.00000000000E+00  0.16925292646E+04  0.16925292647E+04  0.50400001928E-02 0. -1.
        1   -1    0    0  501    0  0.00000000000E+00  0.00000000000E+00 -0.14177593443E+04  0.14177593443E+04  0.50400001928E-02 0.  1.
    10030    2    1    2    0    0  0.00000000000E+00  0.00000000000E+00  0.27476992032E+03  0.31102886090E+04  0.30981279383E+04 0.  0.
        5    1    3    3  502    0  0.86194997740E+03  0.12037422869E+04  0.59483107629E+03  0.15955561275E+04  0.46999998093E+01 0. -1.
       -5    1    3    3    0  502 -0.86194997740E+03 -0.12037422869E+04 -0.32006115597E+03  0.15147324814E+04  0.46999998093E+01 0.  1.
</event>
<event>
 5   0  0.1840359E-07  0.3102169E+04  0.7818609E-02  0.8215143E-01
        1   -1    0    0  501    0  0.00000000000E+00  0.00000000000E+00  0.18422486491E+04  0.18422486491E+04  0.50400001928E-02 0. -1.
       -1   -1    0    0    0  501  0.00000000000E+00  0.00000000000E+00 -0.13059386646E+04  0.13059386647E+04  0.50400001928E-02 0.  1.
    10030    2    1    2    0    0  0.00000000000E+00  0.00000000000E+00  0.53630998444E+03  0.31481873137E+04  0.31021693962E+04 0.  0.
        1    1    3    3  502    0  0.98841947727E+03  0.89235508929E+03  0.10753106051E+04  0.17115967884E+04  0.50400001928E-02 0. -1.
       -1    1    3    3    0  502 -0.98841947727E+03 -0.89235508929E+03 -0.53900062069E+03  0.14365905254E+04  0.50400001928E-02 0.  1.
</event>
<event>
 5   0  0.1727000E-07  0.3103020E+04  0.7818609E-02  0.8214910E-01
       -3   -1    0    0    0  501  0.00000000000E+00  0.00000000000E+00  0.12147359149E+04  0.12147359191E+04  0.10100000352E+00 0. -1.
        3   -1    0    0  501    0  0.00000000000E+00  0.00000000000E+00 -0.19816511111E+04  0.19816511136E+04  0.10100000352E+00 0.  1.
    10030    2    1    2    0    0  0.00000000000E+00  0.00000000000E+00 -0.76691519620E+03  0.31963870327E+04  0.31030196816E+04 0.  0.
        1    1    3    3  502    0 -0.73689472917E+03  0.95025372593E+03  0.62644323173E+03  0.13558860970E+04  0.50400001928E-02 0. -1.
       -1    1    3    3    0  502  0.73689472917E+03 -0.95025372593E+03 -0.13933584279E+04  0.18405009357E+04  0.50400001928E-02 0.  1.
</event>
<event>
 5   0  0.5154105E-07  0.3098358E+04  0.7818609E-02  0.8216189E-01
       -2   -1    0    0    0  501  0.00000000000E+00  0.00000000000E+00  0.10995921068E+04  0.10995921068E+04  0.25500000920E-02 0. -1.
        2   -1    0    0  501    0  0.00000000000E+00  0.00000000000E+00 -0.21825869514E+04  0.21825869514E+04  0.25500000920E-02 0.  1.
    10030    2    1    2    0    0  0.00000000000E+00  0.00000000000E+00 -0.10829948446E+04  0.32821790582E+04  0.30983578774E+04 0.  0.
        1    1    3    3  502    0  0.13112665666E+04 -0.43880063732E+02  0.33115397999E+03  0.13531475999E+04  0.50400001928E-02 0. -1.
       -1    1    3    3    0  502 -0.13112665666E+04  0.43880063732E+02 -0.14141488246E+04  0.19290314582E+04  0.50400001928E-02 0.  1.
</event>
<event>
 5   0  0.1840359E-07  0.3100718E+04  0.7818609E-02  0.8215541E-01
       -1   -1    0    0    0  501  0.00000000000E+00  0.00000000000E+00  0.13236750310E+04  0.13236750310E+04  0.50400001928E-02 0.  1.
        1   -1    0    0  501    0  0.00000000000E+00  0.00000000000E+00 -0.18158635516E+04  0.18158635516E+04  0.50400001928E-02 0. -1.
    10030    2    1    2    0    0  0.00000000000E+00  0.00000000000E+00 -0.49218852062E+03  0.31395385826E+04  0.31007181381E+04 0.  0.
        1    1    3    3  502    0 -0.68739450330E+03 -0.10955058481E+04  0.61957701591E+03  0.14340571624E+04  0.50400001928E-02 0.  1.
       -1    1    3    3    0  502  0.68739450330E+03  0.10955058481E+04 -0.11117655365E+04  0.17054814202E+04  0.50400001928E-02 0. -1.
</event>
<event>
 5   0  0.5248309E-07  0.3099819E+04  0.7818609E-02  0.8215788E-01
       -2   -1    0    0    0  501  0.00000000000E+00  0.00000000000E+00  0.15058910402E+04  0.15058910402E+04  0.25500000920E-02 0. -1.
        2   -1    0    0  501    0  0.00000000000E+00  0.00000000000E+00 -0.15952146344E+04  0.15952146344E+04  0.25500000920E-02 0.  1.
    10030    2    1    2    0    0  0.00000000000E+00  0.00000000000E+00 -0.89323594179E+02  0.31011056745E+04  0.30998189786E+04 0.  0.
        4    1    3    3  502    0  0.45925246223E+03 -0.48004365634E+03 -0.14455512550E+04  0.15909037619E+04  0.12699999809E+01 0.  1.
       -4    1    3    3    0  502 -0.45925246223E+03  0.48004365634E+03  0.13562276608E+04  0.15102019126E+04  0.12699999809E+01 0. -1.
</event>
<event>
 5   0  0.5376678E-07  0.3108081E+04  0.7818609E-02  0.8213524E-01
       -2   -1    0    0    0  501  0.00000000000E+00  0.00000000000E+00  0.86507492646E+03  0.86507492646E+03  0.25500000920E-02 0. -1.
        2   -1    0    0  501    0  0.00000000000E+00  0.00000000000E+00 -0.27917132914E+04  0.27917132914E+04  0.25500000920E-02 0.  1.
    10030    2    1    2    0    0  0.00000000000E+00  0.00000000000E+00 -0.19266383649E+04  0.36567882178E+04  0.31080805461E+04 0.  0.
        5    1    3    3  502    0  0.69545446119E+02 -0.10618321820E+04  0.36918700017E+03  0.11263415480E+04  0.46999998093E+01 0. -1.
       -5    1    3    3    0  502 -0.69545446119E+02  0.10618321820E+04 -0.22958253651E+04  0.25304466698E+04  0.46999998093E+01 0.  1.
</event>
<event>
 5   0  0.1845123E-07  0.3100145E+04  0.7818609E-02  0.8215698E-01
       -1   -1    0    0    0  501  0.00000000000E+00  0.00000000000E+00  0.92320756481E+03  0.92320756482E+03  0.50400001928E-02 0.  1.
        1   -1    0    0  501    0  0.00000000000E+00  0.00000000000E+00 -0.26025826408E+04  0.26025826408E+04  0.50400001928E-02 0. -1.
    10030    2    1    2    0    0  0.00000000000E+00  0.00000000000E+00 -0.16793750760E+04  0.35257902056E+04  0.31001445012E+04 0.  0.
        2    1    3    3  502    0 -0.94065037863E+03 -0.72464992238E+03  0.29349994685E+03  0.12231446618E+04  0.25500000920E-02 0.  1.
       -2    1    3    3    0  502  0.94065037863E+03  0.72464992238E+03 -0.19728750228E+04  0.23026455438E+04  0.25500000920E-02 0. -1.
</event>
<event>
 5   0  0.1840359E-07  0.3069424E+04  0.7818609E-02  0.8224180E-01
        1   -1    0    0  501    0  0.00000000000E+00  0.00000000000E+00  0.21965551608E+04  0.21965551608E+04  0.50400001928E-02 0. -1.
       -1   -1    0    0    0  501  0.00000000000E+00  0.00000000000E+00 -0.10722883461E+04  0.10722883461E+04  0.50400001928E-02 0.  1.
    10030    2    1    2    0    0  0.00000000000E+00  0.00000000000E+00  0.11242668147E+04  0.32688435069E+04  0.30694237247E+04 0.  0.
        1    1    3    3  502    0 -0.58965272971E+03 -0.28055961055E+03 -0.91696219360E+03  0.11257103096E+04  0.50400001928E-02 0.  1.
       -1    1    3    3    0  502  0.58965272971E+03  0.28055961055E+03  0.20412290083E+04  0.21431331973E+04  0.50400001928E-02 0. -1.
</event>
<event>
 5   0  0.5055900E-07  0.3105345E+04  0.7818609E-02  0.8214273E-01
        2   -1    0    0  501    0  0.00000000000E+00  0.00000000000E+00  0.16531567858E+04  0.16531567858E+04  0.25500000920E-02 0.  1.
       -2   -1    0    0    0  501  0.00000000000E+00  0.00000000000E+00 -0.14582956129E+04  0.14582956129E+04  0.25500000920E-02 0. -1.
    10030    2    1    2    0    0  0.00000000000E+00  0.00000000000E+00  0.19486117293E+03  0.31114523986E+04  0.31053446109E+04 0.  0.
        2    1    3    3  502    0  0.11251604218E+04 -0.60509218818E+03 -0.78672711394E+03  0.15003539858E+04  0.25500000920E-02 0. -1.
       -2    1    3    3    0  502 -0.11251604218E+04  0.60509218818E+03  0.98158828687E+03  0.16110984128E+04  0.25500000920E-02 0.  1.
</event>
<event>
 5   0  0.1830902E-07  0.3103827E+04  0.7818609E-02  0.8214688E-01
       -1   -1    0    0    0  501  0.00000000000E+00  0.00000000000E+00  0.13825031148E+04  0.13825031148E+04  0.50400001928E-02 0. -1.
        1   -1    0    0  501    0  0.00000000000E+00  0.00000000000E+00 -0.17420834431E+04  0.17420834431E+04  0.50400001928E-02 0.  1.
    10030    2    1    2    0    0  0.00000000000E+00  0.00000000000E+00 -0.35958032831E+03  0.31245865579E+04  0.31038271771E+04 0.  0.
        3    1    3    3  502    0 -0.10944417803E+03  0.13516139230E+04  0.57997448993E+03  0.14748588556E+04  0.10100000352E+00 0. -1.
       -3    1    3    3    0  502  0.10944417803E+03 -0.13516139230E+04 -0.93955481823E+03  0.16497277023E+04  0.10100000352E+00 0.  1.
</event>
<event>
 5   0  0.1830902E-07  0.3096946E+04  0.7818609E-02  0.8216577E-01
       -1   -1    0    0    0  501  0.00000000000E+00  0.00000000000E+00  0.32321970874E+04  0.32321970874E+04  0.50400001928E-02 0.  1.
        1   -1    0    0  501    0  0.00000000000E+00  0.00000000000E+00 -0.74183845829E+03  0.74183845831E+03  0.50400001928E-02 0. -1.
    10030    2    1    2    0    0  0.00000000000E+00  0.00000000000E+00  0.24903586291E+04  0.39740355457E+04  0.30969456594E+04 0.  0.
        3    1    3    3  502    0 -0.15026595797E+03  0.13270069641E+02  0.32227457363E+04  0.32262743286E+04  0.10100000352E+00 0.  1.
       -3    1    3    3    0  502  0.15026595797E+03 -0.13270069641E+02 -0.73238710714E+03  0.74776121708E+03  0.10100000352E+00 0. -1.
</event>
<event>
 5   0  0.5055900E-07  0.3096885E+04  0.7818609E-02  0.8216593E-01
        2   -1    0    0  501    0  0.00000000000E+00  0.00000000000E+00  0.25788819932E+04  0.25788819932E+04  0.25500000920E-02 0.  1.
       -2   -1    0    0    0  501  0.00000000000E+00  0.00000000000E+00 -0.92973370085E+03  0.92973370086E+03  0.25500000920E-02 0. -1.
    10030    2    1    2    0    0  0.00000000000E+00  0.00000000000E+00  0.16491482924E+04  0.35086156941E+04  0.30968845633E+04 0.  0.
        2    1    3    3  502    0 -0.16955101245E+03  0.80882465777E+03 -0.65899735979E+03  0.10569874139E+04  0.25500000920E-02 0. -1.
       -2    1    3    3    0  502  0.16955101245E+03 -0.80882465777E+03  0.23081456522E+04  0.24516282802E+04  0.25500000920E-02 0.  1.
</event>
<event>
 5   0  0.1814075E-07  0.3113083E+04  0.7818609E-02  0.8212157E-01
        1   -1    0    0  501    0  0.00000000000E+00  0.00000000000E+00  0.24336689687E+04  0.24336689687E+04  0.50400001928E-02 0. -1.
       -1   -1    0    0    0  501  0.00000000000E+00  0.00000000000E+00 -0.99554261813E+03  0.99554261814E+03  0.50400001928E-02 0.  1.
    10030    2    1    2    0    0  0.00000000000E+00  0.00000000000E+00  0.14381263506E+04  0.34292115869E+04  0.31130828301E+04 0.  0.
        5    1    3    3  502    0  0.13057359892E+04 -0.67150634876E+03  0.14994324605E+03  0.14759310001E+04  0.46999998093E+01 0.  1.
       -5    1    3    3    0  502 -0.13057359892E+04  0.67150634876E+03  0.12881831045E+04  0.19532805868E+04  0.46999998093E+01 0. -1.
</event>
<event>
 5   0  0.5342534E-07  0.3100269E+04  0.7818609E-02  0.8215664E-01
        2   -1    0    0  501    0  0.00000000000E+00  0.00000000000E+00  0.14059921442E+04  0.14059921442E+04  0.25500000920E-02 0.  1.
       -2   -1    0    0    0  501  0.00000000000E+00  0.00000000000E+00 -0.17090541118E+04  0.17090541118E+04  0.25500000920E-02 0. -1.
    10030    2    1    2    0    0  0.00000000000E+00  0.00000000000E+00 -0.30306196763E+03  0.31150462559E+04  0.31002687981E+04 0.  0.
        3    1    3    3  502    0 -0.79743304472E+03  0.13271604495E+04 -0.22713808138E+03  0.15648789211E+04  0.10100000352E+00 0.  1.
       -3    1    3    3    0  502  0.79743304472E+03 -0.13271604495E+04 -0.75923886252E+02  0.15501673349E+04  0.10100000352E+00 0. -1.
</event>
<event>
 5   0  0.5342534E-07  0.3101317E+04  0.7818609E-02  0.8215377E-01
        2   -1    0    0  501    0  0.00000000000E+00  0.00000000000E+00  0.19265433379E+04  0.19265433379E+04  0.25500000920E-02 0.  1.
       -2   -1    0    0    0  501  0.00000000000E+00  0.00000000000E+00 -0.12481121031E+04  0.12481121031E+04  0.25500000920E-02 0. -1.
    10030    2    1    2    0    0  0.00000000000E+00  0.00000000000E+00  0.67843123482E+03  0.31746554410E+04  0.31013171764E+04 0.  0.
        3    1    3    3  502    0 -0.31721891982E+03  0.13929579565E+04 -0.27802116579E+03  0.14554227876E+04  0.10100000352E+00 0. -1.
       -3    1    3    3    0  502  0.31721891982E+03 -0.13929579565E+04  0.95645240061E+03  0.17192326534E+04  0.10100000352E+00 0.  1.
</event>
<event>
 5   0  0.5055900E-07  0.3095930E+04  0.7818609E-02  0.8216856E-01
       -2   -1    0    0    0  501  0.00000000000E+00  0.00000000000E+00  0.13871609729E+04  0.13871609729E+04  0.25500000920E-02 0.  1.
        2   -1    0    0  501    0  0.00000000000E+00  0.00000000000E+00 -0.17274094293E+04  0.17274094293E+04  0.25500000920E-02 0. -1.
    10030    2    1    2    0    0  0.00000000000E+00  0.00000000000E+00 -0.34024845641E+03  0.31145704022E+04  0.30959295499E+04 0.  0.
        2    1    3    3  502    0  0.83465421375E+03  0.71046611865E+03 -0.12697679439E+04  0.16774147948E+04  0.25500000920E-02 0. -1.
       -2    1    3    3    0  502 -0.83465421375E+03 -0.71046611865E+03  0.92951948751E+03  0.14371556074E+04  0.25500000920E-02 0.  1.
</event>
<event>
 5   0  0.1875284E-07  0.3089449E+04  0.7818609E-02  0.8218639E-01
        1   -1    0    0  501    0  0.00000000000E+00  0.00000000000E+00  0.14061480757E+04  0.14061480757E+04  0.50400001928E-02 0.  1.
       -1   -1    0    0    0  501  0.00000000000E+00  0.00000000000E+00 -0.16969580861E+04  0.16969580861E+04  0.50400001928E-02 0. -1.
    10030    2    1    2    0    0  0.00000000000E+00  0.00000000000E+00 -0.29081001045E+03  0.31031061618E+04  0.30894493667E+04 0.  0.
        4    1    3    3  502    0  0.11535791746E+04 -0.92875222093E+03  0.29567985029E+03  0.15102164702E+04  0.12699999809E+01 0.  1.
       -4    1    3    3    0  502 -0.11535791746E+04  0.92875222093E+03 -0.58648986074E+03  0.15928896916E+04  0.12699999809E+01 0. -1.
</event>
<event>
 5   0  0.5154105E-07  0.3101921E+04  0.7818609E-02  0.8215211E-01
       -2   -1    0    0    0  501  0.00000000000E+00  0.00000000000E+00  0.14730741075E+04  0.14730741075E+04  0.25500000920E-02 0. -1.
        2   -1    0    0  501    0  0.00000000000E+00  0.00000000000E+00 -0.16329653843E+04  0.16329653843E+04  0.25500000920E-02 0.  1.
    10030    2    1    2    0    0  0.00000000000E+00  0.00000000000E+00 -0.15989127677E+03  0.31060394918E+04  0.31019213569E+04 0.  0.
        1    1    3    3  502    0  0.16312219147E+03  0.15387428225E+04  0.25744018429E+02  0.15475791022E+04  0.50400001928E-02 0.  1.
       -1    1    3    3    0  502 -0.16312219147E+03 -0.15387428225E+04 -0.18563529520E+03  0.15584603896E+04  0.50400001928E-02 0. -1.
</event>
<event>
 5   0  0.5055900E-07  0.3102946E+04  0.7818609E-02  0.8214930E-01
       -2   -1    0    0    0  501  0.00000000000E+00  0.00000000000E+00  0.13105459121E+04  0.13105459121E+04  0.25500000920E-02 0.  1.
        2   -1    0    0  501    0  0.00000000000E+00  0.00000000000E+00 -0.18366911121E+04  0.18366911121E+04  0.25500000920E-02 0. -1.
    10030    2    1    2    0    0  0.00000000000E+00  0.00000000000E+00 -0.52614520003E+03  0.31472370242E+04  0.31029457158E+04 0.  0.
        2    1    3    3  502    0  0.41788860958E+03  0.51971440019E+03 -0.16839013850E+04  0.18111482055E+04  0.25500000920E-02 0. -1.
       -2    1    3    3    0  502 -0.41788860958E+03 -0.51971440019E+03  0.11577561850E+04  0.13360888188E+04  0.25500000920E-02 0.  1.
</event>
<event>
 5   0  0.5248309E-07  0.3096030E+04  0.7818609E-02  0.8216828E-01
       -2   -1    0    0    0  501  0.00000000000E+00  0.00000000000E+00  0.16053463308E+04  0.16053463308E+04  0.25500000920E-02 0. -1.
        2   -1    0    0  501    0  0.00000000000E+00  0.00000000000E+00 -0.14927314153E+04  0.14927314153E+04  0.25500000920E-02 0.  1.
    10030    2    1    2    0    0  0.00000000000E+00  0.00000000000E+00  0.11261491551E+03  0.30980777461E+04  0.30960302973E+04 0.  0.
        4    1    3    3  502    0 -0.10871335906E+04 -0.36438754319E+03  0.10970488943E+04  0.15868697535E+04  0.12699999809E+01 0. -1.
       -4    1    3    3    0  502  0.10871335906E+04  0.36438754319E+03 -0.98443397876E+03  0.15112079926E+04  0.12699999809E+01 0.  1.
</event>
<event>
 5   0  0.5342534E-07  0.3099162E+04  0.7818609E-02  0.8215968E-01
       -2   -1    0    0    0  501  0.00000000000E+00  0.00000000000E+00  0.14825710169E+04  0.14825710169E+04  0.25500000920E-02 0.  1.
        2   -1    0    0  501    0  0.00000000000E+00  0.00000000000E+00 -0.16196202141E+04  0.16196202141E+04  0.25500000920E-02 0. -1.
    10030    2    1    2    0    0  0.00000000000E+00  0.00000000000E+00 -0.13704919725E+03  0.31021912310E+04  0.30991624596E+04 0.  0.
        3    1    3    3  502    0 -0.14177830271E+04 -0.19181494855E+03  0.52728840532E+03  0.15247736747E+04  0.10100000352E+00 0.  1.
       -3    1    3    3    0  502  0.14177830271E+04  0.19181494855E+03 -0.66433760258E+03  0.15774175563E+04  0.10100000352E+00 0. -1.
</event>
<event>
 5   0  0.1845123E-07  0.3158660E+04  0.7818609E-02  0.8199821E-01
        1   -1    0    0  501    0  0.00000000000E+00  0.00000000000E+00  0.21702669773E+04  0.21702669773E+04  0.50400001928E-02 0.  1.
       -1   -1    0    0    0  501  0.00000000000E+00  0.00000000000E+00 -0.11492981422E+04  0.11492981423E+04  0.50400001928E-02 0. -1.
    10030    2    1    2    0    0  0.00000000000E+00  0.00000000000E+00  0.10209688351E+04  0.33195651196E+04  0.31586603522E+04 0.  0.
        2    1    3    3  502    0 -0.54217460195E+01 -0.15602326183E+04  0.76775805156E+03  0.17389099012E+04  0.25500000920E-02 0.  1.
       -2    1    3    3    0  502  0.54217460195E+01  0.15602326183E+04  0.25321078351E+03  0.15806552184E+04  0.25500000920E-02 0. -1.
</event>
<event>
 5   0  0.5154105E-07  0.3091048E+04  0.7818609E-02  0.8218199E-01
        2   -1    0    0  501    0  0.00000000000E+00  0.00000000000E+00  0.14253282993E+04  0.14253282993E+04  0.25500000920E-02 0.  1.
       -2   -1    0    0    0  501  0.00000000000E+00  0.00000000000E+00 -0.16758553373E+04  0.16758553373E+04  0.25500000920E-02 0. -1.
    10030    2    1    2    0    0  0.00000000000E+00  0.00000000000E+00 -0.25052703795E+03  0.31011836366E+04  0.30910477433E+04 0.  0.
        1    1    3    3  502    0  0.88826767953E+03  0.52873544892E+03  0.10274441019E+04  0.14574711071E+04  0.50400001928E-02 0.  1.
       -1    1    3    3    0  502 -0.88826767953E+03 -0.52873544892E+03 -0.12779711399E+04  0.16437125295E+04  0.50400001928E-02 0. -1.
</event>
<event>
 5   0  0.5248309E-07  0.3105603E+04  0.7818609E-02  0.8214202E-01
        2   -1    0    0  501    0  0.00000000000E+00  0.00000000000E+00  0.18521500903E+04  0.18521500903E+04  0.25500000920E-02 0.  1.
       -2   -1    0    0    0  501  0.00000000000E+00  0.00000000000E+00 -0.13018340647E+04  0.13018340647E+04  0.25500000920E-02 0. -1.
    10030    2    1    2    0    0  0.00000000000E+00  0.00000000000E+00  0.55031602562E+03  0.31539841551E+04  0.31056027309E+04 0.  0.
        4    1    3    3  502    0  0.13852640708E+04  0.24011882302E+03  0.94465235679E+03  0.16938073335E+04  0.12699999809E+01 0. -1.
       -4    1    3    3    0  502 -0.13852640708E+04 -0.24011882302E+03 -0.39433633118E+03  0.14601768215E+04  0.12699999809E+01 0.  1.
</event>
<event>
 5   0  0.1840359E-07  0.3111235E+04  0.7818609E-02  0.8212661E-01
        1   -1    0    0  501    0  0.00000000000E+00  0.00000000000E+00  0.18642664762E+04  0.18642664762E+04  0.50400001928E-02 0. -1.
       -1   -1    0    0    0  501  0.00000000000E+00  0.00000000000E+00 -0.12980689667E+04  0.12980689667E+04  0.50400001928E-02 0.  1.
    10030    2    1    2    0    0  0.00000000000E+00  0.00000000000E+00  0.56619750952E+03  0.31623354429E+04  0.31112354192E+04 0.  0.
        1    1    3    3  502    0  0.31904935471E+03  0.10833494860E+04 -0.80428903199E+03  0.13864773517E+04  0.50400001928E-02 0.  1.
       -1    1    3    3    0  502 -0.31904935471E+03 -0.10833494860E+04  0.13704865415E+04  0.17758580912E+04  0.50400001928E-02 0. -1.
</event>
<event>
 5   0  0.1845123E-07  0.3102082E+04  0.7818609E-02  0.8215167E-01
        1   -1    0    0  501    0  0.00000000000E+00  0.00000000000E+00  0.24786277365E+04  0.24786277365E+04  0.50400001928E-02 0.  1.
       -1   -1    0    0    0  501  0.00000000000E+00  0.00000000000E+00 -0.97058902542E+03  0.97058902544E+03  0.50400001928E-02 0. -1.
    10030    2    1    2    0    0  0.00000000000E+00  0.00000000000E+00  0.15080387111E+04  0.34492167619E+04  0.31020824484E+04 0.  0.
        2    1    3    3  502    0  0.15320243409E+04  0.91822343477E+02  0.10031427372E+04  0.18335280950E+04  0.25500000920E-02 0. -1.
       -2    1    3    3    0  502 -0.15320243409E+04 -0.91822343477E+02  0.50489597389E+03  0.16156886669E+04  0.25500000920E-02 0.  1.
</event>
<event>
 5   0  0.1814075E-07  0.3104678E+04  0.7818609E-02  0.8214455E-01
       -1   -1    0    0    0  501  0.00000000000E+00  0.00000000000E+00  0.12701192772E+04  0.12701192772E+04  0.50400001928E-02 0. -1.
        1   -1    0    0  501    0  0.00000000000E+00  0.00000000000E+00 -0.18972675639E+04  0.18972675639E+04  0.50400001928E-02 0.  1.
    10030    2    1    2    0    0  0.00000000000E+00  0.00000000000E+00 -0.62714828669E+03  0.31673868411E+04  0.31046778300E+04 0.  0.
        5    1    3    3  502    0 -0.24296595887E+03 -0.14688106556E+04 -0.76210974490E+03  0.16725042757E+04  0.46999998093E+01 0.  1.
       -5    1    3    3    0  502  0.24296595887E+03  0.14688106556E+04  0.13496145821E+03  0.14948825654E+04  0.46999998093E+01 0. -1.
</event>
<event>
 5   0  0.1727000E-07  0.3097539E+04  0.7818609E-02  0.8216414E-01
        3   -1    0    0  501    0  0.00000000000E+00  0.00000000000E+00  0.18875908192E+04  0.18875908219E+04  0.10100000352E+00 0. -1.
       -3   -1    0    0    0  501  0.00000000000E+00  0.00000000000E+00 -0.12707661147E+04  0.12707661187E+04  0.10100000352E+00 0.  1.
    10030    2    1    2    0    0  0.00000000000E+00  0.00000000000E+00  0.61682470450E+03  0.31583569406E+04  0.30975386758E+04 0.  0.
        4    1    3    3  502    0  0.22095613208E+03  0.85163631802E+03  0.16080278024E+04  0.18329923777E+04  0.12699999809E+01 0. -1.
       -4    1    3    3    0  502 -0.22095613208E+03 -0.85163631802E+03 -0.99120309788E+03  0.13253645629E+04  0.12699999809E+01 0.  1.
</event>
<event>
 5   0  0.1830902E-07  0.3101191E+04  0.7818609E-02  0.8215411E-01
        1   -1    0    0  501    0  0.00000000000E+00  0.00000000000E+00  0.16222182011E+04  0.16222182011E+04  0.50400001928E-02 0. -1.
       -1   -1    0    0    0  501  0.00000000000E+00  0.00000000000E+00 -0.14821352503E+04  0.14821352504E+04  0.50400001928E-02 0.  1.
    10030    2    1    2    0    0  0.00000000000E+00  0.00000000000E+00  0.14008295075E+03  0.31043534515E+04  0.31011912418E+04 0.  0.
        3    1    3    3  502    0  0.53724658404E+03  0.94762695151E+03 -0.10345854550E+04  0.15023307909E+04  0.10100000352E+00 0.  1.
       -3    1    3    3    0  502 -0.53724658404E+03 -0.94762695151E+03  0.11746684058E+04  0.16020226606E+04  0.10100000352E+00 0. -1.
</event>
<event>
 5   0  0.5248309E-07  0.3095648E+04  0.7818609E-02  0.8216933E-01
        2   -1    0    0  501    0  0.00000000000E+00  0.00000000000E+00  0.16705697778E+04  0.16705697778E+04  0.25500000920E-02 0. -1.
       -2   -1    0    0    0  501  0.00000000000E+00  0.00000000000E+00 -0.14340972166E+04  0.14340972166E+04  0.25500000920E-02 0.  1.
    10030    2    1    2    0    0  0.00000000000E+00  0.00000000000E+00  0.23647256119E+03  0.31046669945E+04  0.30956482155E+04 0.  0.
        4    1    3    3  502    0 -0.67587200599E+03  0.37889042675E+03 -0.12255916450E+04  0.14499784196E+04  0.12699999809E+01 0.  1.
       -4    1    3    3    0  502  0.67587200599E+03 -0.37889042675E+03  0.14620642062E+04  0.16546885749E+04  0.12699999809E+01 0. -1.
</event>
<event>
 5   0  0.1840359E-07  0.3162975E+04  0.7818609E-02  0.8198664E-01
       -1   -1    0    0    0  501  0.00000000000E+00  0.00000000000E+00  0.14470929415E+04  0.14470929415E+04  0.50400001928E-02 0. -1.
        1   -1    0    0  501    0  0.00000000000E+00  0.00000000000E+00 -0.17283640841E+04  0.17283640841E+04  0.50400001928E-02 0.  1.
    10030    2    1    2    0    0  0.00000000000E+00  0.00000000000E+00 -0.28127114260E+03  0.31754570255E+04  0.31629754766E+04 0.  0.
        1    1    3    3  502    0 -0.32114908527E+02 -0.92330284446E+03 -0.14292832391E+04  0.17018725238E+04  0.50400001928E-02 0.  1.
       -1    1    3    3    0  502  0.32114908527E+02  0.92330284446E+03  0.11480120965E+04  0.14735845017E+04  0.50400001928E-02 0. -1.
</event>
<event>
 5   0  0.5376678E-07  0.3094133E+04  0.7818609E-02  0.8217350E-01
       -2   -1    0    0    0  501  0.00000000000E+00  0.00000000000E+00  0.92792421025E+03  0.92792421025E+03  0.25500000920E-02 0. -1.
        2   -1    0    0  501    0  0.00000000000E+00  0.00000000000E+00 -0.25793213678E+04  0.25793213678E+04  0.25500000920E-02 0.  1.
    10030    2    1    2    0    0  0.00000000000E+00  0.00000000000E+00 -0.16513971576E+04  0.35072455781E+04  0.30941329921E+04 0.  0.
        5    1    3    3  502    0  0.63007877401E+03  0.98274831402E+03 -0.19764250091E+04  0.22954457991E+04  0.46999998093E+01 0.  1.
       -5    1    3    3    0  502 -0.63007877401E+03 -0.98274831402E+03  0.32502785146E+03  0.12117997790E+04  0.46999998093E+01 0. -1.
</event>
<event>
 5   0  0.5376678E-07  0.3103323E+04  0.7818609E-02  0.8214827E-01
       -2   -1    0    0    0  501  0.00000000000E+00  0.00000000000E+00  0.14747072248E+04  0.14747072248E+04  0.25500000920E-02 0.  1.
        2   -1    0    0  501    0  0.00000000000E+00  0.00000000000E+00 -0.16326310184E+04  0.16326310184E+04  0.25500000920E-02 0. -1.
    10030    2    1    2    0    0  0.00000000000E+00  0.00000000000E+00 -0.15792379361E+03  0.31073382433E+04  0.31033225797E+04 0.  0.
        5    1    3    3  502    0 -0.71634897222E+03 -0.81718505706E+03 -0.11879524663E+04  0.16100311859E+04  0.46999998093E+01 0. -1.
       -5    1    3    3    0  502  0.71634897222E+03  0.81718505706E+03  0.10300286727E+04  0.14973070574E+04  0.46999998093E+01 0.  1.
</event>
<event>
 5   0  0.5376678E-07  0.3099209E+04  0.7818609E-02  0.8215955E-01
       -2   -1    0    0    0  501  0.00000000000E+00  0.00000000000E+00  0.22201823454E+04  0.22201823454E+04  0.25500000920E-02 0.  1.
        2   -1    0    0  501    0  0.00000000000E+00  0.00000000000E+00 -0.10815662049E+04  0.10815662049E+04  0.25500000920E-02 0. -1.
    10030    2    1    2    0    0  0.00000000000E+00  0.00000000000E+00  0.11386161405E+04  0.33017485502E+04  0.30992090561E+04 0.  0.
        5    1    3    3  502    0  0.54051750703E+03  0.11655902888E+03 -0.97288118560E+03  0.11190465021E+04  0.46999998093E+01 0. -1.
       -5    1    3    3    0  502 -0.54051750703E+03 -0.11655902888E+03  0.21114973261E+04  0.21827020481E+04  0.46999998093E+01 0.  1.
</event>
<event>
 5   0  0.5055900E-07  0.3101219E+04  0.7818609E-02  0.8215403E-01
        2   -1    0    0  501    0  0.00000000000E+00  0.00000000000E+00  0.24211552201E+04  0.24211552201E+04  0.25500000920E-02 0. -1.
       -2   -1    0    0    0  501  0.00000000000E+00  0.00000000000E+00 -0.99307534016E+03  0.99307534017E+03  0.25500000920E-02 0.  1.
    10030    2    1    2    0    0  0.00000000000E+00  0.00000000000E+00  0.14280798799E+04  0.34142305602E+04  0.31012188209E+04 0.  0.
        2    1    3    3  502    0 -0.14467424425E+04  0.40503083476E+02  0.13267016858E+04  0.19633750426E+04  0.25500000920E-02 0. -1.
       -2    1    3    3    0  502  0.14467424425E+04 -0.40503083476E+02  0.10137819413E+03  0.14508555176E+04  0.25500000920E-02 0.  1.
</event>
<event>
 5   0  0.1875284E-07  0.3099488E+04  0.7818609E-02  0.8215878E-01
        1   -1    0    0  501    0  0.00000000000E+00  0.00000000000E+00  0.18166767688E+04  0.18166767688E+04  0.50400001928E-02 0.  1.
       -1   -1    0    0    0  501  0.00000000000E+00  0.00000000000E+00 -0.13220332215E+04  0.13220332215E+04  0.50400001928E-02 0. -1.
    10030    2    1    2    0    0  0.00000000000E+00  0.00000000000E+00  0.49464354729E+03  0.31387099903E+04  0.30994883713E+04 0.  0.
        4    1    3    3  502    0  0.12824900134E+02  0.25016375706E+02 -0.13217744700E+04  0.13220739993E+04  0.12699999809E+01 0. -1.
       -4    1    3    3    0  502 -0.12824900134E+02 -0.25016375706E+02  0.18164180173E+04  0.18166359910E+04  0.12699999809E+01 0.  1.
</event>
<event>
 5   0  0.5154105E-07  0.3104751E+04  0.7818609E-02  0.8214435E-01
       -2   -1    0    0    0  501  0.00000000000E+00  0.00000000000E+00  0.14779562726E+04  0.14779562726E+04  0.25500000920E-02 0.  1.
        2   -1    0    0  501    0  0.00000000000E+00  0.00000000000E+00 -0.16305414843E+04  0.16305414843E+04  0.25500000920E-02 0. -1.
    10030    2    1    2    0    0  0.00000000000E+00  0.00000000000E+00 -0.15258521169E+03  0.31084977568E+04  0.31047505628E+04 0.  0.
        1    1    3    3  502    0  0.32690169163E+03 -0.52383647443E+03 -0.15023007851E+04  0.16242465998E+04  0.50400001928E-02 0. -1.
       -1    1    3    3    0  502 -0.32690169163E+03  0.52383647443E+03  0.13497155734E+04  0.14842511570E+04  0.50400001928E-02 0.  1.
</event>
<event>
 5   0  0.5376678E-07  0.3099857E+04  0.7818609E-02  0.8215777E-01
        2   -1    0    0  501    0  0.00000000000E+00  0.00000000000E+00  0.18855746440E+04  0.18855746440E+04  0.25500000920E-02 0. -1.
       -2   -1    0    0    0  501  0.00000000000E+00  0.00000000000E+00 -0.12740300354E+04  0.12740300354E+04  0.25500000920E-02 0.  1.
    10030    2    1    2    0    0  0.00000000000E+00  0.00000000000E+00  0.61154460859E+03  0.31596046794E+04  0.30998572422E+04 0.  0.
        5    1    3    3  502    0  0.72567773195E+03  0.13461225229E+04  0.48715817308E+02  0.15300488026E+04  0.46999998093E+01 0.  1.
       -5    1    3    3    0  502 -0.72567773195E+03 -0.13461225229E+04  0.56282879128E+03  0.16295558768E+04  0.46999998093E+01 0. -1.
</event>
<event>
 5   0  0.5248309E-07  0.3072498E+04  0.7818609E-02  0.8223326E-01
        2   -1    0    0  501    0  0.00000000000E+00  0.00000000000E+00  0.18113734280E+04  0.18113734280E+04  0.25500000920E-02 0. -1.
       -2   -1    0    0    0  501  0.00000000000E+00  0.00000000000E+00 -0.13029126137E+04  0.13029126137E+04  0.25500000920E-02 0.  1.
    10030    2    1    2    0    0  0.00000000000E+00  0.00000000000E+00  0.50846081434E+03  0.31142860417E+04  0.30724981936E+04 0.  0.
        4    1    3    3  502    0 -0.85175519137E+03  0.12559193918E+04  0.11729241985E+02  0.15175505306E+04  0.12699999809E+01 0.  1.
       -4    1    3    3    0  502  0.85175519137E+03 -0.12559193918E+04  0.49673157236E+03  0.15967355112E+04  0.12699999809E+01 0. -1.
</event>
<event>
 5   0  0.5342534E-07  0.3123364E+04  0.7818609E-02  0.8209355E-01
        2   -1    0    0  501    0  0.00000000000E+00  0.00000000000E+00  0.17643338646E+04  0.17643338646E+04  0.25500000920E-02 0. -1.
       -2   -1    0    0    0  501  0.00000000000E+00  0.00000000000E+00 -0.13823066853E+04  0.13823066853E+04  0.25500000920E-02 0.  1.
    10030    2    1    2    0    0  0.00000000000E+00  0.00000000000E+00  0.38202717926E+03  0.31466405498E+04  0.31233638892E+04 0.  0.
        3    1    3    3  502    0  0.29758796586E+03  0.39866966081E+03  0.16823679873E+04  0.17543825554E+04  0.10100000352E+00 0. -1.
       -3    1    3    3    0  502 -0.29758796586E+03 -0.39866966081E+03 -0.13003408080E+04  0.13922579944E+04  0.10100000352E+00 0.  1.
</event>
<event>
 5   0  0.5376678E-07  0.3100548E+04  0.7818609E-02  0.8215588E-01
        2   -1    0    0  501    0  0.00000000000E+00  0.00000000000E+00  0.19967437365E+04  0.19967437366E+04  0.25500000920E-02 0. -1.
       -2   -1    0    0    0  501  0.00000000000E+00  0.00000000000E+00 -0.12036343391E+04  0.12036343391E+04  0.25500000920E-02 0.  1.
    10030    2    1    2    0    0  0.00000000000E+00  0.00000000000E+00  0.79310939748E+03  0.32003780756E+04  0.31005479049E+04 0.  0.
        5    1    3    3  502    0  0.67409121238E+03  0.91860765963E+01  0.18375128458E+04  0.19572835500E+04  0.46999998093E+01 0. -1.
       -5    1    3    3    0  502 -0.67409121238E+03 -0.91860765963E+01 -0.10444034484E+04  0.12430945256E+04  0.46999998093E+01 0.  1.
</event>
<event>
 5   0  0.1875284E-07  0.3099717E+04  0.7818609E-02  0.8215816E-01
       -1   -1    0    0    0  501  0.00000000000E+00  0.00000000000E+00  0.18773958134E+04  0.18773958134E+04  0.50400001928E-02 0. -1.
        1   -1    0    0  501    0  0.00000000000E+00  0.00000000000E+00 -0.12794643020E+04  0.12794643020E+04  0.50400001928E-02 0.  1.
    10030    2    1    2    0    0  0.00000000000E+00  0.00000000000E+00  0.59793151141E+03  0.31568601154E+04  0.30997167122E+04 0.  0.
        4    1    3    3  502    0  0.31260414044E+03 -0.15135898714E+04  0.18114526200E+03  0.15561140274E+04  0.12699999809E+01 0.  1.
       -4    1    3    3    0  502 -0.31260414044E+03  0.15135898714E+04  0.41678624941E+03  0.16007460879E+04  0.12699999809E+01 0. -1.
</event>
<event>
 5   0  0.1830902E-07  0.3101488E+04  0.7818609E-02  0.8215330E-01
       -1   -1    0    0    0  501  0.00000000000E+00  0.00000000000E+00  0.26881501169E+04  0.26881501170E+04  0.50400001928E-02 0.  1.
        1   -1    0    0  501    0  0.00000000000E+00  0.00000000000E+00 -0.89459524983E+03  0.89459524985E+03  0.50400001928E-02 0. -1.
    10030    2    1    2    0    0  0.00000000000E+00  0.00000000000E+00  0.17935548671E+04  0.35827453668E+04  0.31014875950E+04 0.  0.
        3    1    3    3  502    0 -0.71550805002E+03 -0.92211386195E+03 -0.28271875737E+03  0.12009061787E+04  0.10100000352E+00 0. -1.
       -3    1    3    3    0  502  0.71550805002E+03  0.92211386195E+03  0.20762736245E+04  0.23818391881E+04  0.10100000352E+00 0.  1.
</event>
<event>
 5   0  0.1814075E-07  0.3103955E+04  0.7818609E-02  0.8214653E-01
        1   -1    0    0  501    0  0.00000000000E+00  0.00000000000E+00  0.13044593637E+04  0.13044593637E+04  0.50400001928E-02 0.  1.
       -1   -1    0    0    0  501  0.00000000000E+00  0.00000000000E+00 -0.18464619168E+04  0.18464619168E+04  0.50400001928E-02 0. -1.
    10030    2    1    2    0    0  0.00000000000E+00  0.00000000000E+00 -0.54200255310E+03  0.31509212805E+04  0.31039552426E+04 0.  0.
        5    1    3    3  502    0 -0.10833262220E+03  0.11395355673E+04  0.79287114360E+03  0.13924596965E+04  0.46999998093E+01 0.  1.
       -5    1    3    3    0  502  0.10833262220E+03 -0.11395355673E+04 -0.13348736967E+04  0.17584615840E+04  0.46999998093E+01 0. -1.
</event>
<event>
 5   0  0.5154105E-07  0.3100531E+04  0.7818609E-02  0.8215592E-01
       -2   -1    0    0    0  501  0.00000000000E+00  0.00000000000E+00  0.15678281138E+04  0.15678281138E+04  0.25500000920E-02 0.  1.
        2   -1    0    0  501    0  0.00000000000E+00  0.00000000000E+00 -0.15328997116E+04  0.15328997117E+04  0.25500000920E-02 0. -1.
    10030    2    1    2    0    0  0.00000000000E+00  0.00000000000E+00  0.34928402130E+02  0.31007278254E+04  0.31005310923E+04 0.  0.
        1    1    3    3  502    0  0.13182780596E+04  0.79718407370E+03  0.19057565719E+03  0.15523139409E+04  0.50400001928E-02 0. -1.
       -1    1    3    3    0  502 -0.13182780596E+04 -0.79718407370E+03 -0.15564725506E+03  0.15484138846E+04  0.50400001928E-02 0.  1.
</event>
<event>
 5   0  0.5376678E-07  0.3099489E+04  0.7818609E-02  0.8215878E-01
        2   -1    0    0  501    0  0.00000000000E+00  0.00000000000E+00  0.17077128307E+04  0.17077128307E+04  0.25500000920E-02 0. -1.
       -2   -1    0    0    0  501  0.00000000000E+00  0.00000000000E+00 -0.14063884348E+04  0.14063884348E+04  0.25500000920E-02 0.  1.
    10030    2    1    2    0    0  0.00000000000E+00  0.00000000000E+00  0.30132439590E+03  0.31141012654E+04  0.30994887159E+04 0.  0.
        5    1    3    3  502    0 -0.46986640042E+03  0.63526462284E+03 -0.11887959230E+04  0.14274429627E+04  0.46999998093E+01 0.  1.
       -5    1    3    3    0  502  0.46986640042E+03 -0.63526462284E+03  0.14901203189E+04  0.16866583027E+04  0.46999998093E+01 0. -1.
</event>
<event>
 5   0  0.1814075E-07  0.3097450E+04  0.7818609E-02  0.8216438E-01
        1   -1    0    0  501    0  0.00000000000E+00  0.00000000000E+00  0.17071326324E+04  0.17071326324E+04  0.50400001928E-02 0.  1.
       -1   -1    0    0    0  501  0.00000000000E+00  0.00000000000E+00 -0.14050162508E+04  0.14050162508E+04  0.50400001928E-02 0. -1.
    10030    2    1    2    0    0  0.00000000000E+00  0.00000000000E+00  0.30211638166E+03  0.31121488832E+04  0.30974499775E+04 0.  0.
        5    1    3    3  502    0 -0.28150910492E+03  0.14408585448E+04  0.64655795819E+03  0.16041758026E+04  0.46999998093E+01 0.  1.
       -5    1    3    3    0  502  0.28150910492E+03 -0.14408585448E+04 -0.34444157653E+03  0.15079730806E+04  0.46999998093E+01 0. -1.
</event>
<event>
 5   0  0.1840359E-07  0.3098879E+04  0.7818609E-02  0.8216046E-01
        1   -1    0    0  501    0  0.00000000000E+00  0.00000000000E+00  0.22019472947E+04  0.22019472947E+04  0.50400001928E-02 0. -1.
       -1   -1    0    0    0  501  0.00000000000E+00  0.00000000000E+00 -0.10902904470E+04  0.10902904470E+04  0.50400001928E-02 0.  1.
    10030    2    1    2    0    0  0.00000000000E+00  0.00000000000E+00  0.11116568477E+04  0.32922377417E+04  0.30988785716E+04 0.  0.
        1    1    3    3  502    0  0.13841457406E+04  0.62523855936E+03  0.88151735177E+03  0.17560909796E+04  0.50400001928E-02 0. -1.
       -1    1    3    3    0  502 -0.13841457406E+04 -0.62523855936E+03  0.23013949589E+03  0.15361467621E+04  0.50400001928E-02 0.  1.
</event>
<event>
 5   0  0.5055900E-07  0.3101225E+04  0.7818609E-02  0.8215402E-01
        2   -1    0    0  501    0  0.00000000000E+00  0.00000000000E+00  0.15880542194E+04  0.15880542194E+04  0.25500000920E-02 0. -1.
       -2   -1    0    0    0  501  0.00000000000E+00  0.00000000000E+00 -0.15140533702E+04  0.15140533702E+04  0.25500000920E-02 0.  1.
    10030    2    1    2    0    0  0.00000000000E+00  0.00000000000E+00  0.74000849274E+02  0.31021075896E+04  0.31012248180E+04 0.  0.
        2    1    3    3  502    0  0.46731351052E+03  0.10128340108E+03 -0.14384647377E+04  0.15158565388E+04  0.25500000920E-02 0.  1.
       -2    1    3    3    0  502 -0.46731351052E+03 -0.10128340108E+03  0.15124655870E+04  0.15862510508E+04  0.25500000920E-02 0. -1.
</event>
<event>
 5   0  0.1840359E-07  0.3084616E+04  0.7818609E-02  0.8219973E-01
        1   -1    0    0  501    0  0.00000000000E+00  0.00000000000E+00  0.13622530965E+04  0.13622530966E+04  0.50400001928E-02 0. -1.
       -1   -1    0    0    0  501  0.00000000000E+00  0.00000000000E+00 -0.17461611322E+04  0.17461611322E+04  0.50400001928E-02 0.  1.
    10030    2    1    2    0    0  0.00000000000E+00  0.00000000000E+00 -0.38390803564E+03  0.31084142287E+04  0.30846156386E+04 0.  0.
        1    1    3    3  502    0 -0.50909348640E+02 -0.69053986826E+03  0.11968210495E+04  0.13826849591E+04  0.50400001928E-02 0. -1.
       -1    1    3    3    0  502  0.50909348640E+02  0.69053986826E+03 -0.15807290852E+04  0.17257292697E+04  0.50400001928E-02 0.  1.
</event>
<event>
 5   0  0.5248309E-07  0.3100671E+04  0.7818609E-02  0.8215554E-01
        2   -1    0    0  501    0  0.00000000000E+00  0.00000000000E+00  0.19156114371E+04  0.19156114371E+04  0.25500000920E-02 0. -1.
       -2   -1    0    0    0  501  0.00000000000E+00  0.00000000000E+00 -0.12547120654E+04  0.12547120654E+04  0.25500000920E-02 0.  1.
    10030    2    1    2    0    0  0.00000000000E+00  0.00000000000E+00  0.66089937172E+03  0.31703235025E+04  0.31006714000E+04 0.  0.
        4    1    3    3  502    0 -0.10005458466E+04  0.10302859720E+04  0.92748260210E+03  0.17096218194E+04  0.12699999809E+01 0. -1.
       -4    1    3    3    0  502  0.10005458466E+04 -0.10302859720E+04 -0.26658323037E+03  0.14607016831E+04  0.12699999809E+01 0.  1.
</event>
<event>
 5   0  0.5154105E-07  0.3102360E+04  0.7818609E-02  0.8215090E-01
        2   -1    0    0  501    0  0.00000000000E+00  0.00000000000E+00  0.90091095225E+03  0.90091095225E+03  0.25500000920E-02 0.  1.
       -2   -1    0    0    0  501  0.00000000000E+00  0.00000000000E+00 -0.26708075747E+04  0.26708075747E+04  0.25500000920E-02 0. -1.
    10030    2    1    2    0    0  0.00000000000E+00  0.00000000000E+00 -0.17698966225E+04  0.35717185270E+04  0.31023602598E+04 0.  0.
        1    1    3    3  502    0 -0.44053984645E+03  0.35354667345E+03 -0.25481905369E+04  0.26100470530E+04  0.50400001928E-02 0. -1.
       -1    1    3    3    0  502  0.44053984645E+03 -0.35354667345E+03  0.77829391441E+03  0.96167147397E+03  0.50400001928E-02 0.  1.
</event>
<event>
 5   0  0.5376678E-07  0.3102730E+04  0.7818609E-02  0.8214989E-01
        2   -1    0    0  501    0  0.00000000000E+00  0.00000000000E+00  0.19117533904E+04  0.19117533904E+04  0.25500000920E-02 0. -1.
       -2   -1    0    0    0  501  0.00000000000E+00  0.00000000000E+00 -0.12589139293E+04  0.12589139293E+04  0.25500000920E-02 0.  1.
    10030    2    1    2    0    0  0.00000000000E+00  0.00000000000E+00  0.65283946117E+03  0.31706673197E+04  0.31027297482E+04 0.  0.
        5    1    3    3  502    0  0.81739431316E+03 -0.73535968884E+03 -0.79199569896E+03  0.13550522545E+04  0.46999998093E+01 0.  1.
       -5    1    3    3    0  502 -0.81739431316E+03  0.73535968884E+03  0.14448351601E+04  0.18156150652E+04  0.46999998093E+01 0. -1.
</event>
<event>
 5   0  0.1840359E-07  0.3098083E+04  0.7818609E-02  0.8216264E-01
       -1   -1    0    0    0  501  0.00000000000E+00  0.00000000000E+00  0.17426037558E+04  0.17426037558E+04  0.50400001928E-02 0.  1.
        1   -1    0    0  501    0  0.00000000000E+00  0.00000000000E+00 -0.13769796724E+04  0.13769796724E+04  0.50400001928E-02 0. -1.
    10030    2    1    2    0    0  0.00000000000E+00  0.00000000000E+00  0.36562408345E+03  0.31195834282E+04  0.30980832453E+04 0.  0.
        1    1    3    3  502    0 -0.93698212906E+03 -0.11044662962E+04 -0.37031664358E+03  0.14949634531E+04  0.50400001928E-02 0. -1.
       -1    1    3    3    0  502  0.93698212906E+03  0.11044662962E+04  0.73594072704E+03  0.16246199751E+04  0.50400001928E-02 0.  1.
</event>
<event>
 5   0  0.1814075E-07  0.3103111E+04  0.7818609E-02  0.8214885E-01
       -1   -1    0    0    0  501  0.00000000000E+00  0.00000000000E+00  0.20588609955E+04  0.20588609955E+04  0.50400001928E-02 0.  1.
        1   -1    0    0  501    0  0.00000000000E+00  0.00000000000E+00 -0.11692503298E+04  0.11692503298E+04  0.50400001928E-02 0. -1.
    10030    2    1    2    0    0  0.00000000000E+00  0.00000000000E+00  0.88961066572E+03  0.32281113254E+04  0.31031106317E+04 0.  0.
        5    1    3    3  502    0 -0.62765429266E+03 -0.43729701600E+02 -0.10305775594E+04  0.12074661047E+04  0.46999998093E+01 0. -1.
       -5    1    3    3    0  502  0.62765429266E+03  0.43729701600E+02  0.19201882252E+04  0.20206452207E+04  0.46999998093E+01 0.  1.
</event>
<event>
 5   0  0.5248309E-07  0.3103934E+04  0.7818609E-02  0.8214659E-01
        2   -1    0    0  501    0  0.00000000000E+00  0.00000000000E+00  0.18165781409E+04  0.18165781409E+04  0.25500000920E-02 0. -1.
       -2   -1    0    0    0  501  0.00000000000E+00  0.00000000000E+00 -0.13259002004E+04  0.13259002004E+04  0.25500000920E-02 0.  1.
    10030    2    1    2    0    0  0.00000000000E+00  0.00000000000E+00  0.49067794048E+03  0.31424783414E+04  0.31039338403E+04 0.  0.
        4    1    3    3  502    0 -0.14908412538E+04  0.35309941491E+03  0.49602818560E+03  0.16103826920E+04  0.12699999809E+01 0.  1.
       -4    1    3    3    0  502  0.14908412538E+04 -0.35309941491E+03 -0.53502451225E+01  0.15320956494E+04  0.12699999809E+01 0. -1.
</event>
<event>
 5   0  0.1875284E-07  0.3103100E+04  0.7818609E-02  0.8214888E-01
        1   -1    0    0  501    0  0.00000000000E+00  0.00000000000E+00  0.15553527166E+04  0.15553527166E+04  0.50400001928E-02 0. -1.
       -1   -1    0    0    0  501  0.00000000000E+00  0.00000000000E+00 -0.15477568450E+04  0.15477568450E+04  0.50400001928E-02 0.  1.
    10030    2    1    2    0    0  0.00000000000E+00  0.00000000000E+00  0.75958716752E+01  0.31031095616E+04  0.31031002649E+04 0.  0.
        4    1    3    3  502    0  0.11529417268E+04 -0.24684125354E+03  0.10123151965E+04  0.15540234554E+04  0.12699999809E+01 0. -1.
       -4    1    3    3    0  502 -0.11529417268E+04  0.24684125354E+03 -0.10047193248E+04  0.15490861062E+04  0.12699999809E+01 0.  1.
</event>
<event>
 5   0  0.5248309E-07  0.3109050E+04  0.7818609E-02  0.8213259E-01
        2   -1    0    0  501    0  0.00000000000E+00  0.00000000000E+00  0.16361258770E+04  0.16361258770E+04  0.25500000920E-02 0.  1.
       -2   -1    0    0    0  501  0.00000000000E+00  0.00000000000E+00 -0.14769941444E+04  0.14769941444E+04  0.25500000920E-02 0. -1.
    10030    2    1    2    0    0  0.00000000000E+00  0.00000000000E+00  0.15913173255E+03  0.31131200214E+04  0.31090502343E+04 0.  0.
        4    1    3    3  502    0 -0.11135579375E+04  0.10232121496E+04 -0.28086691440E+03  0.15381359562E+04  0.12699999809E+01 0. -1.
       -4    1    3    3    0  502  0.11135579375E+04 -0.10232121496E+04  0.43999864696E+03  0.15749840652E+04  0.12699999809E+01 0.  1.
</event>
<event>
 5   0  0.1845123E-07  0.3095384E+04  0.7818609E-02  0.8217006E-01
       -1   -1    0    0    0  501  0.00000000000E+00  0.00000000000E+00  0.16548045924E+04  0.16548045924E+04  0.50400001928E-02 0.  1.
        1   -1    0    0  501    0  0.00000000000E+00  0.00000000000E+00 -0.14475126752E+04  0.14475126752E+04  0.50400001928E-02 0. -1.
    10030    2    1    2    0    0  0.00000000000E+00  0.00000000000E+00  0.20729191724E+03  0.31023172676E+04  0.30953840618E+04 0.  0.
        2    1    3    3  502    0  0.47848102374E+03  0.13811310508E+04  0.61359161655E+03  0.15852323935E+04  0.25500000920E-02 0.  1.
       -2    1    3    3    0  502 -0.47848102374E+03 -0.13811310508E+04 -0.40629969932E+03  0.15170848741E+04  0.25500000920E-02 0. -1.
</event>
<event>
 5   0  0.5154105E-07  0.3077094E+04  0.7818609E-02  0.8222052E-01
        2   -1    0    0  501    0  0.00000000000E+00  0.00000000000E+00  0.13876825117E+04  0.13876825117E+04  0.25500000920E-02 0. -1.
       -2   -1    0    0    0  501  0.00000000000E+00  0.00000000000E+00 -0.17058131657E+04  0.17058131657E+04  0.25500000920E-02 0.  1.
    10030    2    1    2    0    0  0.00000000000E+00  0.00000000000E+00 -0.31813065403E+03  0.30934956774E+04  0.30770941476E+04 0.  0.
        1    1    3    3  502    0 -0.14868715716E+04  0.40991480576E+02  0.23629887895E+03  0.15060891514E+04  0.50400001928E-02 0. -1.
       -1    1    3    3    0  502  0.14868715716E+04 -0.40991480576E+02 -0.55442953298E+03  0.15874065260E+04  0.50400001928E-02 0.  1.
</event>
<event>
 5   0  0.1830902E-07  0.3096721E+04  0.7818609E-02  0.8216638E-01
       -1   -1    0    0    0  501  0.00000000000E+00  0.00000000000E+00  0.78299705630E+03  0.78299705631E+03  0.50400001928E-02 0.  1.
        1   -1    0    0  501    0  0.00000000000E+00  0.00000000000E+00 -0.30618510130E+04  0.30618510130E+04  0.50400001928E-02 0. -1.
    10030    2    1    2    0    0  0.00000000000E+00  0.00000000000E+00 -0.22788539567E+04  0.38448480694E+04  0.30967210595E+04 0.  0.
        3    1    3    3  502    0 -0.13664081039E+04 -0.62825090543E+03 -0.68214191524E+03  0.16513896904E+04  0.10100000352E+00 0.  1.
       -3    1    3    3    0  502  0.13664081039E+04  0.62825090543E+03 -0.15967120415E+04  0.21934583790E+04  0.10100000352E+00 0. -1.
</event>
<event>
 5   0  0.1840359E-07  0.3101346E+04  0.7818609E-02  0.8215369E-01
        1   -1    0    0  501    0  0.00000000000E+00  0.00000000000E+00  0.15199303705E+04  0.15199303705E+04  0.50400001928E-02 0.  1.
       -1   -1    0    0    0  501  0.00000000000E+00  0.00000000000E+00 -0.15820371521E+04  0.15820371521E+04  0.50400001928E-02 0. -1.
    10030    2    1    2    0    0  0.00000000000E+00  0.00000000000E+00 -0.62106781629E+02  0.31019675226E+04  0.31013457175E+04 0.  0.
        1    1    3    3  502    0 -0.57304133211E+03  0.71352075509E+03 -0.12831422587E+04  0.15760527568E+04  0.50400001928E-02 0. -1.
       -1    1    3    3    0  502  0.57304133211E+03 -0.71352075509E+03  0.12210354771E+04  0.15259147658E+04  0.50400001928E-02 0.  1.
</event>
<event>
 5   0  0.1830902E-07  0.3097942E+04  0.7818609E-02  0.8216303E-01
        1   -1    0    0  501    0  0.00000000000E+00  0.00000000000E+00  0.14392300298E+04  0.14392300298E+04  0.50400001928E-02 0. -1.
       -1   -1    0    0    0  501  0.00000000000E+00  0.00000000000E+00 -0.16670796948E+04  0.16670796948E+04  0.50400001928E-02 0.  1.
    10030    2    1    2    0    0  0.00000000000E+00  0.00000000000E+00 -0.22784966496E+03  0.31063097246E+04  0.30979420000E+04 0.  0.
        3    1    3    3  502    0 -0.15908430329E+03  0.81188371971E+03 -0.14269840400E+04  0.16494685358E+04  0.10100000352E+00 0.  1.
       -3    1    3    3    0  502  0.15908430329E+03 -0.81188371971E+03  0.11991343750E+04  0.14568411888E+04  0.10100000352E+00 0. -1.
</event>
<event>
 5   0  0.5342534E-07  0.3098833E+04  0.7818609E-02  0.8216058E-01
        2   -1    0    0  501    0  0.00000000000E+00  0.00000000000E+00  0.80460435115E+03  0.80460435116E+03  0.25500000920E-02 0.  1.
       -2   -1    0    0    0  501  0.00000000000E+00  0.00000000000E+00 -0.29836915044E+04  0.29836915044E+04  0.25500000920E-02 0. -1.
    10030    2    1    2    0    0  0.00000000000E+00  0.00000000000E+00 -0.21790871533E+04  0.37882958556E+04  0.30988327912E+04 0.  0.
        3    1    3    3  502    0  0.12934758441E+04 -0.83686114583E+03 -0.12914391021E+04  0.20102813985E+04  0.10100000352E+00 0. -1.
       -3    1    3    3    0  502 -0.12934758441E+04  0.83686114583E+03 -0.88764805120E+03  0.17780144571E+04  0.10100000352E+00 0.  1.
</event>
<event>
 5   0  0.5055900E-07  0.3114362E+04  0.7818609E-02  0.8211807E-01
       -2   -1    0    0    0  501  0.00000000000E+00  0.00000000000E+00  0.24731829067E+04  0.24731829067E+04  0.25500000920E-02 0.  1.
        2   -1    0    0  501    0  0.00000000000E+00  0.00000000000E+00 -0.98044223255E+03  0.98044223255E+03  0.25500000920E-02 0. -1.
    10030    2    1    2    0    0  0.00000000000E+00  0.00000000000E+00  0.14927406741E+04  0.34536251392E+04  0.31143621951E+04 0.  0.
        2    1    3    3  502    0  0.95349663247E+03  0.99333514852E+03  0.15528813073E+04  0.20754062012E+04  0.25500000920E-02 0.  1.
       -2    1    3    3    0  502 -0.95349663247E+03 -0.99333514852E+03 -0.60140633150E+02  0.13782189380E+04  0.25500000920E-02 0. -1.
</event>
<event>
 5   0  0.1875284E-07  0.3101344E+04  0.7818609E-02  0.8215369E-01
       -1   -1    0    0    0  501  0.00000000000E+00  0.00000000000E+00  0.24377075831E+04  0.24377075831E+04  0.50400001928E-02 0. -1.
        1   -1    0    0  501    0  0.00000000000E+00  0.00000000000E+00 -0.98641182327E+03  0.98641182328E+03  0.50400001928E-02 0.  1.
    10030    2    1    2    0    0  0.00000000000E+00  0.00000000000E+00  0.14512957598E+04  0.34241194064E+04  0.31013439549E+04 0.  0.
        4    1    3    3  502    0 -0.10805958416E+04  0.88716183624E+03  0.14661516337E+04  0.20259184886E+04  0.12699999809E+01 0.  1.
       -4    1    3    3    0  502  0.10805958416E+04 -0.88716183624E+03 -0.14855873853E+02  0.13982009178E+04  0.12699999809E+01 0. -1.
</event>
<event>
 5   0  0.5248309E-07  0.3103026E+04  0.7818609E-02  0.8214908E-01
        2   -1    0    0  501    0  0.00000000000E+00  0.00000000000E+00  0.18980759509E+04  0.18980759509E+04  0.25500000920E-02 0.  1.
       -2   -1    0    0    0  501  0.00000000000E+00  0.00000000000E+00 -0.12682274876E+04  0.12682274876E+04  0.25500000920E-02 0. -1.
    10030    2    1    2    0    0  0.00000000000E+00  0.00000000000E+00  0.62984846333E+03  0.31663034385E+04  0.31030256811E+04 0.  0.
        4    1    3    3  502    0 -0.16075956931E+03 -0.11959048751E+04 -0.68023730055E+03  0.13851918667E+04  0.12699999809E+01 0. -1.
       -4    1    3    3    0  502  0.16075956931E+03  0.11959048751E+04  0.13100857639E+04  0.17811115718E+04  0.12699999809E+01 0.  1.
</event>
<event>
 5   0  0.5376678E-07  0.3104903E+04  0.7818609E-02  0.8214394E-01
        2   -1    0    0  501    0  0.00000000000E+00  0.00000000000E+00  0.12884122473E+04  0.12884122473E+04  0.25500000920E-02 0. -1.
       -2   -1    0    0    0  501  0.00000000000E+00  0.00000000000E+00 -0.18706017033E+04  0.18706017033E+04  0.25500000920E-02 0.  1.
    10030    2    1    2    0    0  0.00000000000E+00  0.00000000000E+00 -0.58218945602E+03  0.31590139506E+04  0.31049033121E+04 0.  0.
        5    1    3    3  502    0 -0.57175213798E+03 -0.51784426360E+03  0.10796111471E+04  0.13268931787E+04  0.46999998093E+01 0. -1.
       -5    1    3    3    0  502  0.57175213798E+03  0.51784426360E+03 -0.16618006031E+04  0.18321207720E+04  0.46999998093E+01 0.  1.
</event>
<event>
 5   0  0.1875284E-07  0.3085767E+04  0.7818609E-02  0.8219655E-01
        1   -1    0    0  501    0  0.00000000000E+00  0.00000000000E+00  0.20450130095E+04  0.20450130095E+04  0.50400001928E-02 0. -1.
       -1   -1    0    0    0  501  0.00000000000E+00  0.00000000000E+00 -0.11640462157E+04  0.11640462157E+04  0.50400001928E-02 0.  1.
    10030    2    1    2    0    0  0.00000000000E+00  0.00000000000E+00  0.88096679380E+03  0.32090592252E+04  0.30857671038E+04 0.  0.
        4    1    3    3  502    0  0.61441761310E+03  0.51731747353E+03 -0.92948196880E+03  0.12284399517E+04  0.12699999809E+01 0.  1.
       -4    1    3    3    0  502 -0.61441761310E+03 -0.51731747353E+03  0.18104487626E+04  0.19806192735E+04  0.12699999809E+01 0. -1.
</event>
<event>
 5   0  0.5154105E-07  0.3100248E+04  0.7818609E-02  0.8215670E-01
       -2   -1    0    0    0  501  0.00000000000E+00  0.00000000000E+00  0.15622269060E+04  0.15622269060E+04  0.25500000920E-02 0. -1.
        2   -1    0    0  501    0  0.00000000000E+00  0.00000000000E+00 -0.15381150309E+04  0.15381150309E+04  0.25500000920E-02 0.  1.
    10030    2    1    2    0    0  0.00000000000E+00  0.00000000000E+00  0.24111875063E+02  0.31003419369E+04  0.31002481745E+04 0.  0.
        1    1    3    3  502    0 -0.12189151495E+04  0.95766849350E+03  0.13321166060E+02  0.15501808083E+04  0.50400001928E-02 0.  1.
       -1    1    3    3    0  502  0.12189151495E+04 -0.95766849350E+03  0.10790709003E+02  0.15501611286E+04  0.50400001928E-02 0. -1.
</event>
<event>
 5   0  0.1840359E-07  0.3103146E+04  0.7818609E-02  0.8214875E-01
       -1   -1    0    0    0  501  0.00000000000E+00  0.00000000000E+00  0.21557016367E+04  0.21557016367E+04  0.50400001928E-02 0. -1.
        1   -1    0    0  501    0  0.00000000000E+00  0.00000000000E+00 -0.11167492218E+04  0.11167492218E+04  0.50400001928E-02 0.  1.
    10030    2    1    2    0    0  0.00000000000E+00  0.00000000000E+00  0.10389524149E+04  0.32724508585E+04  0.31031455816E+04 0.  0.
        1    1    3    3  502    0 -0.10534284181E+04  0.10546810469E+04  0.65507643231E+02  0.14920974479E+04  0.50400001928E-02 0.  1.
       -1    1    3    3    0  502  0.10534284181E+04 -0.10546810469E+04  0.97344477170E+03  0.17803534105E+04  0.50400001928E-02 0. -1.
</event>
<event>
 5   0  0.5154105E-07  0.3107849E+04  0.7818609E-02  0.8213587E-01
       -2   -1    0    0    0  501  0.00000000000E+00  0.00000000000E+00  0.11070421385E+04  0.11070421385E+04  0.25500000920E-02 0. -1.
        2   -1    0    0  501    0  0.00000000000E+00  0.00000000000E+00 -0.21812005595E+04  0.21812005595E+04  0.25500000920E-02 0.  1.
    10030    2    1    2    0    0  0.00000000000E+00  0.00000000000E+00 -0.10741584211E+04  0.32882426980E+04  0.31078487298E+04 0.  0.
        1    1    3    3  502    0  0.10179361581E+04 -0.11605534821E+04 -0.72516885414E+03  0.17055639167E+04  0.50400001928E-02 0.  1.
       -1    1    3    3    0  502 -0.10179361581E+04  0.11605534821E+04 -0.34898956692E+03  0.15826787813E+04  0.50400001928E-02 0. -1.
</event>
<event>
 5   0  0.1875284E-07  0.3095875E+04  0.7818609E-02  0.8216871E-01
        1   -1    0    0  501    0  0.00000000000E+00  0.00000000000E+00  0.13216400679E+04  0.13216400679E+04  0.50400001928E-02 0. -1.
       -1   -1    0    0    0  501  0.00000000000E+00  0.00000000000E+00 -0.18129827807E+04  0.18129827807E+04  0.50400001928E-02 0.  1.
    10030    2    1    2    0    0  0.00000000000E+00  0.00000000000E+00 -0.49134271273E+03  0.31346228486E+04  0.30958751173E+04 0.  0.
        4    1    3    3  502    0 -0.66166517573E+03 -0.11501988394E+04  0.56139396234E+03  0.14408063606E+04  0.12699999809E+01 0. -1.
       -4    1    3    3    0  502  0.66166517573E+03  0.11501988394E+04 -0.10527366751E+04  0.16938164880E+04  0.12699999809E+01 0.  1.
</event>
<event>
 5   0  0.5055900E-07  0.3102316E+04  0.7818609E-02  0.8215103E-01
        2   -1    0    0  501    0  0.00000000000E+00  0.00000000000E+00  0.26062841293E+04  0.26062841293E+04  0.25500000920E-02 0. -1.
       -2   -1    0    0    0  501  0.00000000000E+00  0.00000000000E+00 -0.92318823532E+03  0.92318823532E+03  0.25500000920E-02 0.  1.
    10030    2    1    2    0    0  0.00000000000E+00  0.00000000000E+00  0.16830958940E+04  0.35294723647E+04  0.31023158099E+04 0.  0.
        2    1    3    3  502    0 -0.14626778487E+04  0.33756900084E+03  0.12861379462E+04  0.19767473627E+04  0.25500000920E-02 0. -1.
       -2    1    3    3    0  502  0.14626778487E+04 -0.33756900084E+03  0.39695794785E+03  0.15527250020E+04  0.25500000920E-02 0.  1.
</event>
<event>
 5   0  0.5055900E-07  0.3139845E+04  0.7818609E-02  0.8204887E-01
        2   -1    0    0  501    0  0.00000000000E+00  0.00000000000E+00  0.18585466631E+04  0.18585466631E+04  0.25500000920E-02 0.  1.
       -2   -1    0    0    0  501  0.00000000000E+00  0.00000000000E+00 -0.13261203965E+04  0.13261203965E+04  0.25500000920E-02 0. -1.
    10030    2    1    2    0    0  0.00000000000E+00  0.00000000000E+00  0.53242626660E+03  0.31846670595E+04  0.31398449883E+04 0.  0.
        2    1    3    3  502    0 -0.59615830524E+03  0.19074983708E+03 -0.11940848493E+04  0.13481946642E+04  0.25500000920E-02 0. -1.
       -2    1    3    3    0  502  0.59615830524E+03 -0.19074983708E+03  0.17265111159E+04  0.18364723953E+04  0.25500000920E-02 0.  1.
</event>
<event>
 5   0  0.1875284E-07  0.3085212E+04  0.7818609E-02  0.8219808E-01
       -1   -1    0    0    0  501  0.00000000000E+00  0.00000000000E+00  0.20403166760E+04  0.20403166760E+04  0.50400001928E-02 0. -1.
        1   -1    0    0  501    0  0.00000000000E+00  0.00000000000E+00 -0.11663055985E+04  0.11663055985E+04  0.50400001928E-02 0.  1.
    10030    2    1    2    0    0  0.00000000000E+00  0.00000000000E+00  0.87401107748E+03  0.32066222745E+04  0.30852116698E+04 0.  0.
        4    1    3    3  502    0  0.23251548657E+03 -0.15006096716E+04  0.15477147281E+03  0.15263841783E+04  0.12699999809E+01 0.  1.
       -4    1    3    3    0  502 -0.23251548657E+03  0.15006096716E+04  0.71923960467E+03  0.16802380962E+04  0.12699999809E+01 0. -1.
</event>
<event>
 5   0  0.1814075E-07  0.3099039E+04  0.7818609E-02  0.8216002E-01
        1   -1    0    0  501    0  0.00000000000E+00  0.00000000000E+00  0.20272968982E+04  0.20272968982E+04  0.50400001928E-02 0.  1.
       -1   -1    0    0    0  501  0.00000000000E+00  0.00000000000E+00 -0.11843409957E+04  0.11843409957E+04  0.50400001928E-02 0. -1.
    10030    2    1    2    0    0  0.00000000000E+00  0.00000000000E+00  0.84295590245E+03  0.32116378939E+04  0.30990390943E+04 0.  0.
        5    1    3    3  502    0 -0.14852826283E+04 -0.33749440768E+03  0.71646326723E+03  0.16832434953E+04  0.46999998093E+01 0. -1.
       -5    1    3    3    0  502  0.14852826283E+04  0.33749440768E+03  0.12649263522E+03  0.15283943986E+04  0.46999998093E+01 0.  1.
</event>
<event>
 5   0  0.1845123E-07  0.3099756E+04  0.7818609E-02  0.8215805E-01
       -1   -1    0    0    0  501  0.00000000000E+00  0.00000000000E+00  0.11073498570E+04  0.11073498570E+04  0.50400001928E-02 0.  1.
        1   -1    0    0  501    0  0.00000000000E+00  0.00000000000E+00 -0.21692522484E+04  0.21692522484E+04  0.50400001928E-02 0. -1.
    10030    2    1    2    0    0  0.00000000000E+00  0.00000000000E+00 -0.10619023914E+04  0.32766021054E+04  0.30997555820E+04 0.  0.
        2    1    3    3  502    0  0.79303985423E+03 -0.37497159129E+03  0.81968023259E+03  0.12005796885E+04  0.25500000920E-02 0.  1.
       -2    1    3    3    0  502 -0.79303985423E+03  0.37497159129E+03 -0.18815826240E+04  0.20760224169E+04  0.25500000920E-02 0. -1.
</event>
<event>
 5   0  0.5342534E-07  0.3107198E+04  0.7818609E-02  0.8213765E-01
        2   -1    0    0  501    0  0.00000000000E+00  0.00000000000E+00  0.18041599994E+04  0.18041599994E+04  0.25500000920E-02 0. -1.
       -2   -1    0    0    0  501  0.00000000000E+00  0.00000000000E+00 -0.13378354883E+04  0.13378354883E+04  0.25500000920E-02 0.  1.
    10030    2    1    2    0    0  0.00000000000E+00  0.00000000000E+00  0.46632451111E+03  0.31419954877E+04  0.31071976273E+04 0.  0.
        3    1    3    3  502    0 -0.13763505001E+04  0.68739612942E+03  0.14371092157E+02  0.15385254877E+04  0.10100000352E+00 0.  1.
       -3    1    3    3    0  502  0.13763505001E+04 -0.68739612942E+03  0.45195341895E+03  0.16034700000E+04  0.10100000352E+00 0. -1.
</event>
<event>
 5   0  0.1845123E-07  0.3099154E+04  0.7818609E-02  0.8215970E-01
        1   -1    0    0  501    0  0.00000000000E+00  0.00000000000E+00  0.21604532565E+04  0.21604532565E+04  0.50400001928E-02 0.  1.
       -1   -1    0    0    0  501  0.00000000000E+00  0.00000000000E+00 -0.11114281546E+04  0.11114281547E+04  0.50400001928E-02 0. -1.
    10030    2    1    2    0    0  0.00000000000E+00  0.00000000000E+00  0.10490251018E+04  0.32718814112E+04  0.30991538046E+04 0.  0.
        2    1    3    3  502    0  0.16686185947E+03 -0.65379395655E+03  0.19972135775E+04  0.21081156258E+04  0.25500000920E-02 0.  1.
       -2    1    3    3    0  502 -0.16686185947E+03  0.65379395655E+03 -0.94818847563E+03  0.11637657853E+04  0.25500000920E-02 0. -1.
</event>
<event>
 5   0  0.1840359E-07  0.3091705E+04  0.7818609E-02  0.8218018E-01
        1   -1    0    0  501    0  0.00000000000E+00  0.00000000000E+00  0.14495100212E+04  0.14495100212E+04  0.50400001928E-02 0. -1.
       -1   -1    0    0    0  501  0.00000000000E+00  0.00000000000E+00 -0.16485989461E+04  0.16485989461E+04  0.50400001928E-02 0.  1.
    10030    2    1    2    0    0  0.00000000000E+00  0.00000000000E+00 -0.19908892493E+03  0.30981089673E+04  0.30917054797E+04 0.  0.
        1    1    3    3  502    0  0.66726502201E+03  0.84375284071E+03  0.10129347406E+04  0.14775649748E+04  0.50400001928E-02 0. -1.
       -1    1    3    3    0  502 -0.66726502201E+03 -0.84375284071E+03 -0.12120236656E+04  0.16205439925E+04  0.50400001928E-02 0.  1.
</event>
<event>
 5   0  0.5154105E-07  0.3103583E+04  0.7818609E-02  0.8214755E-01
        2   -1    0    0  501    0  0.00000000000E+00  0.00000000000E+00  0.18698971992E+04  0.18698971992E+04  0.25500000920E-02 0.  1.
       -2   -1    0    0    0  501  0.00000000000E+00  0.00000000000E+00 -0.12878021005E+04  0.12878021005E+04  0.25500000920E-02 0. -1.
    10030    2    1    2    0    0  0.00000000000E+00  0.00000000000E+00  0.58209509873E+03  0.31576992997E+04  0.31035834391E+04 0.  0.
        1    1    3    3  502    0 -0.14279119859E+04  0.21465400249E+03 -0.28723654890E+03  0.14722478783E+04  0.50400001928E-02 0. -1.
       -1    1    3    3    0  502  0.14279119859E+04 -0.21465400249E+03  0.86933164763E+03  0.16854514214E+04  0.50400001928E-02 0.  1.
</event>
<event>
 5   0  0.1814075E-07  0.3097108E+04  0.7818609E-02  0.8216532E-01
       -1   -1    0    0    0  501  0.00000000000E+00  0.00000000000E+00  0.13511427252E+04  0.13511427252E+04  0.50400001928E-02 0. -1.
        1   -1    0    0  501    0  0.00000000000E+00  0.00000000000E+00 -0.17748088040E+04  0.17748088040E+04  0.50400001928E-02 0.  1.
    10030    2    1    2    0    0  0.00000000000E+00  0.00000000000E+00 -0.42366607884E+03  0.31259515292E+04  0.30971083314E+04 0.  0.
        5    1    3    3  502    0 -0.14467414533E+02 -0.24742839488E+03 -0.17546522454E+04  0.17720769478E+04  0.46999998093E+01 0.  1.
       -5    1    3    3    0  502  0.14467414533E+02  0.24742839488E+03  0.13309861665E+04  0.13538745814E+04  0.46999998093E+01 0. -1.
</event>
<event>
 5   0  0.1814075E-07  0.3094975E+04  0.7818609E-02  0.8217118E-01
       -1   -1    0    0    0  501  0.00000000000E+00  0.00000000000E+00  0.15241766167E+04  0.15241766167E+04  0.50400001928E-02 0.  1.
        1   -1    0    0  501    0  0.00000000000E+00  0.00000000000E+00 -0.15711553399E+04  0.15711553399E+04  0.50400001928E-02 0. -1.
    10030    2    1    2    0    0  0.00000000000E+00  0.00000000000E+00 -0.46978723134E+02  0.30953319566E+04  0.30949754314E+04 0.  0.
        5    1    3    3  502    0 -0.33245709813E+03 -0.12759687043E+04  0.78658683539E+03  0.15353712242E+04  0.46999998093E+01 0.  1.
       -5    1    3    3    0  502  0.33245709813E+03  0.12759687043E+04 -0.83356555852E+03  0.15599607324E+04  0.46999998093E+01 0. -1.
</event>
<event>
 5   0  0.5055900E-07  0.3160248E+04  0.7818609E-02  0.8199395E-01
        2   -1    0    0  501    0  0.00000000000E+00  0.00000000000E+00  0.14881091185E+04  0.14881091185E+04  0.25500000920E-02 0. -1.
       -2   -1    0    0    0  501  0.00000000000E+00  0.00000000000E+00 -0.16778282401E+04  0.16778282401E+04  0.25500000920E-02 0.  1.
    10030    2    1    2    0    0  0.00000000000E+00  0.00000000000E+00 -0.18971912160E+03  0.31659373586E+04  0.31602477773E+04 0.  0.
        2    1    3    3  502    0 -0.87698876322E+03 -0.12637585865E+04 -0.45689148204E+03  0.16046634794E+04  0.25500000920E-02 0.  1.
       -2    1    3    3    0  502  0.87698876322E+03  0.12637585865E+04  0.26717236044E+03  0.15612738792E+04  0.25500000920E-02 0. -1.
</event>
<event>
 5   0  0.5055900E-07  0.3101363E+04  0.7818609E-02  0.8215364E-01
       -2   -1    0    0    0  501  0.00000000000E+00  0.00000000000E+00  0.10099543149E+04  0.10099543149E+04  0.25500000920E-02 0. -1.
        2   -1    0    0  501    0  0.00000000000E+00  0.00000000000E+00 -0.23809130762E+04  0.23809130762E+04  0.25500000920E-02 0.  1.
    10030    2    1    2    0    0  0.00000000000E+00  0.00000000000E+00 -0.13709587613E+04  0.33908673911E+04  0.31013632065E+04 0.  0.
        2    1    3    3  502    0  0.27247718928E+03 -0.14876772048E+04 -0.10597591209E+04  0.18467584246E+04  0.25500000920E-02 0.  1.
       -2    1    3    3    0  502 -0.27247718928E+03  0.14876772048E+04 -0.31119964035E+03  0.15441089665E+04  0.25500000920E-02 0. -1.
</event>
<event>
 5   0  0.1830902E-07  0.3101224E+04  0.7818609E-02  0.8215402E-01
       -1   -1    0    0    0  501  0.00000000000E+00  0.00000000000E+00  0.16128902657E+04  0.16128902657E+04  0.50400001928E-02 0. -1.
        1   -1    0    0  501    0  0.00000000000E+00  0.00000000000E+00 -0.14907384589E+04  0.14907384589E+04  0.50400001928E-02 0.  1.
    10030    2    1    2    0    0  0.00000000000E+00  0.00000000000E+00  0.12215180683E+03  0.31036287246E+04  0.31012239836E+04 0.  0.
        3    1    3    3  502    0 -0.97739079571E+03 -0.11167950318E+04 -0.38857598648E+03  0.15341170809E+04  0.10100000352E+00 0. -1.
       -3    1    3    3    0  502  0.97739079571E+03  0.11167950318E+04  0.51072779331E+03  0.15695116437E+04  0.10100000352E+00 0.  1.
</event>
<event>
 5   0  0.5376678E-07  0.3101221E+04  0.7818609E-02  0.8215403E-01
       -2   -1    0    0    0  501  0.00000000000E+00  0.00000000000E+00  0.18125030943E+04  0.18125030943E+04  0.25500000920E-02 0.  1.
        2   -1    0    0  501    0  0.00000000000E+00  0.00000000000E+00 -0.13265597629E+04  0.13265597629E+04  0.25500000920E-02 0. -1.
    10030    2    1    2    0    0  0.00000000000E+00  0.00000000000E+00  0.48594333138E+03  0.31390628572E+04  0.31012214852E+04 0.  0.
        5    1    3    3  502    0  0.10470651915E+04  0.40066309258E+03 -0.84131135886E+03  0.14016787512E+04  0.46999998093E+01 0. -1.
       -5    1    3    3    0  502 -0.10470651915E+04 -0.40066309258E+03  0.13272546902E+04  0.17373841060E+04  0.46999998093E+01 0.  1.
</event>
<event>
 5   0  0.1875284E-07  0.3105860E+04  0.7818609E-02  0.8214131E-01
       -1   -1    0    0    0  501  0.00000000000E+00  0.00000000000E+00  0.11214755187E+04  0.11214755187E+04  0.50400001928E-02 0. -1.
        1   -1    0    0  501    0  0.00000000000E+00  0.00000000000E+00 -0.21503741733E+04  0.21503741733E+04  0.50400001928E-02 0.  1.
    10030    2    1    2    0    0  0.00000000000E+00  0.00000000000E+00 -0.10288986547E+04  0.32718496920E+04  0.31058602617E+04 0.  0.
        4    1    3    3  502    0  0.25125692715E+03  0.15054882123E+04 -0.21285221161E+03  0.15410815935E+04  0.12699999809E+01 0.  1.
       -4    1    3    3    0  502 -0.25125692715E+03 -0.15054882123E+04 -0.81604644308E+03  0.17307680986E+04  0.12699999809E+01 0. -1.
</event>
<event>
 5   0  0.5055900E-07  0.3104013E+04  0.7818609E-02  0.8214638E-01
        2   -1    0    0  501    0  0.00000000000E+00  0.00000000000E+00  0.18675290683E+04  0.18675290683E+04  0.25500000920E-02 0.  1.
       -2   -1    0    0    0  501  0.00000000000E+00  0.00000000000E+00 -0.12897918864E+04  0.12897918864E+04  0.25500000920E-02 0. -1.
    10030    2    1    2    0    0  0.00000000000E+00  0.00000000000E+00  0.57773718190E+03  0.31573209548E+04  0.31040127835E+04 0.  0.
        2    1    3    3  502    0  0.53683020666E+02  0.14551602342E+03  0.18596259648E+04  0.18660829319E+04  0.25500000920E-02 0.  1.
       -2    1    3    3    0  502 -0.53683020666E+02 -0.14551602342E+03 -0.12818887829E+04  0.12912380228E+04  0.25500000920E-02 0. -1.
</event>
<event>
 5   0  0.1830902E-07  0.3107755E+04  0.7818609E-02  0.8213613E-01
       -1   -1    0    0    0  501  0.00000000000E+00  0.00000000000E+00  0.17592464837E+04  0.17592464837E+04  0.50400001928E-02 0.  1.
        1   -1    0    0  501    0  0.00000000000E+00  0.00000000000E+00 -0.13724828444E+04  0.13724828444E+04  0.50400001928E-02 0. -1.
    10030    2    1    2    0    0  0.00000000000E+00  0.00000000000E+00  0.38676363921E+03  0.31317293281E+04  0.31077552143E+04 0.  0.
        3    1    3    3  502    0 -0.14075460157E+04 -0.63858950288E+03  0.35446887538E+03  0.15857586617E+04  0.10100000352E+00 0.  1.
       -3    1    3    3    0  502  0.14075460157E+04  0.63858950288E+03  0.32294763829E+02  0.15459706664E+04  0.10100000352E+00 0. -1.
</event>
<event>
 5   0  0.1814075E-07  0.3105154E+04  0.7818609E-02  0.8214325E-01
       -1   -1    0    0    0  501  0.00000000000E+00  0.00000000000E+00  0.31728387308E+04  0.31728387308E+04  0.50400001928E-02 0.  1.
        1   -1    0    0  501    0  0.00000000000E+00  0.00000000000E+00 -0.75972827393E+03  0.75972827395E+03  0.50400001928E-02 0. -1.
    10030    2    1    2    0    0  0.00000000000E+00  0.00000000000E+00  0.24131104568E+04  0.39325670047E+04  0.31051539688E+04 0.  0.
        5    1    3    3  502    0  0.13104435423E+04  0.62059432429E+03  0.50361201878E+03  0.15349419365E+04  0.46999998093E+01 0. -1.
       -5    1    3    3    0  502 -0.13104435423E+04 -0.62059432429E+03  0.19094984381E+04  0.23976250682E+04  0.46999998093E+01 0.  1.
</event>
<event>
 5   0  0.1845123E-07  0.3099887E+04  0.7818609E-02  0.8215769E-01
        1   -1    0    0  501    0  0.00000000000E+00  0.00000000000E+00  0.17644820783E+04  0.17644820783E+04  0.50400001928E-02 0.  1.
       -1   -1    0    0    0  501  0.00000000000E+00  0.00000000000E+00 -0.13614902845E+04  0.13614902845E+04  0.50400001928E-02 0. -1.
    10030    2    1    2    0    0  0.00000000000E+00  0.00000000000E+00  0.40299179377E+03  0.31259723628E+04  0.30998872281E+04 0.  0.
        2    1    3    3  502    0  0.58339059483E+03  0.13955829250E+04  0.54246677660E+03  0.16069432131E+04  0.25500000920E-02 0.  1.
       -2    1    3    3    0  502 -0.58339059483E+03 -0.13955829250E+04 -0.13947498282E+03  0.15190291496E+04  0.25500000920E-02 0. -1.
</event>
<event>
 5   0  0.1814075E-07  0.3099051E+04  0.7818609E-02  0.8215998E-01
       -1   -1    0    0    0  501  0.00000000000E+00  0.00000000000E+00  0.12635382648E+04  0.12635382648E+04  0.50400001928E-02 0.  1.
        1   -1    0    0  501    0  0.00000000000E+00  0.00000000000E+00 -0.19002429473E+04  0.19002429473E+04  0.50400001928E-02 0. -1.
    10030    2    1    2    0    0  0.00000000000E+00  0.00000000000E+00 -0.63670468247E+03  0.31637812121E+04  0.30990512589E+04 0.  0.
        5    1    3    3  502    0 -0.60628238990E+03  0.11941245621E+04 -0.11140522639E+04  0.17420236344E+04  0.46999998093E+01 0. -1.
       -5    1    3    3    0  502  0.60628238990E+03 -0.11941245621E+04  0.47734758146E+03  0.14217575777E+04  0.46999998093E+01 0.  1.
</event>
<event>
 5   0  0.5055900E-07  0.3101492E+04  0.7818609E-02  0.8215329E-01
       -2   -1    0    0    0  501  0.00000000000E+00  0.00000000000E+00  0.11212243562E+04  0.11212243562E+04  0.25500000920E-02 0. -1.
        2   -1    0    0  501    0  0.00000000000E+00  0.00000000000E+00 -0.21448099250E+04  0.21448099250E+04  0.25500000920E-02 0.  1.
    10030    2    1    2    0    0  0.00000000000E+00  0.00000000000E+00 -0.10235855688E+04  0.32660342813E+04  0.31014919812E+04 0.  0.
        2    1    3    3  502    0  0.82890226573E+03  0.75952131841E+03  0.61298451800E+03  0.12805083438E+04  0.25500000920E-02 0. -1.
       -2    1    3    3    0  502 -0.82890226573E+03 -0.75952131841E+03 -0.16365700868E+04  0.19855259374E+04  0.25500000920E-02 0.  1.
</event>
<event>
 5   0  0.5055900E-07  0.3097113E+04  0.7818609E-02  0.8216531E-01
       -2   -1    0    0    0  501  0.00000000000E+00  0.00000000000E+00  0.10984248932E+04  0.10984248932E+04  0.25500000920E-02 0.  1.
        2   -1    0    0  501    0  0.00000000000E+00  0.00000000000E+00 -0.21831509043E+04  0.21831509043E+04  0.25500000920E-02 0. -1.
    10030    2    1    2    0    0  0.00000000000E+00  0.00000000000E+00 -0.10847260110E+04  0.32815757975E+04  0.30971130421E+04 0.  0.
        2    1    3    3  502    0  0.53525443468E+03 -0.13611340993E+04 -0.32939596606E+01  0.14625984398E+04  0.25500000920E-02 0. -1.
       -2    1    3    3    0  502 -0.53525443468E+03  0.13611340993E+04 -0.10814320514E+04  0.18189773577E+04  0.25500000920E-02 0.  1.
</event>
<event>
 5   0  0.1875284E-07  0.3113881E+04  0.7818609E-02  0.8211939E-01
       -1   -1    0    0    0  501  0.00000000000E+00  0.00000000000E+00  0.91289271298E+03  0.91289271299E+03  0.50400001928E-02 0. -1.
        1   -1    0    0  501    0  0.00000000000E+00  0.00000000000E+00 -0.26553661211E+04  0.26553661211E+04  0.50400001928E-02 0.  1.
    10030    2    1    2    0    0  0.00000000000E+00  0.00000000000E+00 -0.17424734081E+04  0.35682588341E+04  0.31138814250E+04 0.  0.
        4    1    3    3  502    0 -0.46196503124E+02  0.35358386847E+03 -0.26079414615E+04  0.26322074288E+04  0.12699999809E+01 0.  1.
       -4    1    3    3    0  502  0.46196503124E+02 -0.35358386847E+03  0.86546805338E+03  0.93605140525E+03  0.12699999809E+01 0. -1.
</event>
<event>
 5   0  0.5248309E-07  0.3100930E+04  0.7818609E-02  0.8215483E-01
        2   -1    0    0  501    0  0.00000000000E+00  0.00000000000E+00  0.76136450464E+03  0.76136450464E+03  0.25500000920E-02 0. -1.
       -2   -1    0    0    0  501  0.00000000000E+00  0.00000000000E+00 -0.31574115107E+04  0.31574115107E+04  0.25500000920E-02 0.  1.
    10030    2    1    2    0    0  0.00000000000E+00  0.00000000000E+00 -0.23960470060E+04  0.39187760153E+04  0.31009295708E+04 0.  0.
        4    1    3    3  502    0  0.20883984311E+02 -0.15890046017E+03 -0.31469149575E+04  0.31509936305E+04  0.12699999809E+01 0.  1.
       -4    1    3    3    0  502 -0.20883984311E+02  0.15890046017E+03  0.75086795143E+03  0.76778238481E+03  0.12699999809E+01 0. -1.
</event>
<event>
 5   0  0.1727000E-07  0.3105706E+04  0.7818609E-02  0.8214174E-01
       -3   -1    0    0    0  501  0.00000000000E+00  0.00000000000E+00  0.21340456840E+04  0.21340456864E+04  0.10100000352E+00 0.  1.
        3   -1    0    0  501    0  0.00000000000E+00  0.00000000000E+00 -0.11299443611E+04  0.11299443656E+04  0.10100000352E+00 0. -1.
    10030    2    1    2    0    0  0.00000000000E+00  0.00000000000E+00  0.10041013229E+04  0.32639900519E+04  0.31057062953E+04 0.  0.
        2    1    3    3  502    0  0.11816809703E+04  0.35923553676E+03 -0.48716011151E+03  0.13276840967E+04  0.25500000920E-02 0. -1.
       -2    1    3    3    0  502 -0.11816809703E+04 -0.35923553676E+03  0.14912614345E+04  0.19363059552E+04  0.25500000920E-02 0.  1.
</event>
<event>
 5   0  0.1814075E-07  0.3100885E+04  0.7818609E-02  0.8215495E-01
       -1   -1    0    0    0  501  0.00000000000E+00  0.00000000000E+00  0.10663396451E+04  0.10663396452E+04  0.50400001928E-02 0.  1.
        1   -1    0    0  501    0  0.00000000000E+00  0.00000000000E+00 -0.22543204345E+04  0.22543204345E+04  0.50400001928E-02 0. -1.
    10030    2    1    2    0    0  0.00000000000E+00  0.00000000000E+00 -0.11879807893E+04  0.33206600796E+04  0.31008845526E+04 0.  0.
        5    1    3    3  502    0  0.13806251984E+04  0.52129846514E+03 -0.11030460964E+04  0.18424469623E+04  0.46999998093E+01 0. -1.
       -5    1    3    3    0  502 -0.13806251984E+04 -0.52129846514E+03 -0.84934692892E+02  0.14782131173E+04  0.46999998093E+01 0.  1.
</event>
<event>
 5   0  0.1830902E-07  0.3101757E+04  0.7818609E-02  0.8215256E-01
       -1   -1    0    0    0  501  0.00000000000E+00  0.00000000000E+00  0.15502847467E+04  0.15502847467E+04  0.50400001928E-02 0.  1.
        1   -1    0    0  501    0  0.00000000000E+00  0.00000000000E+00 -0.15514728793E+04  0.15514728793E+04  0.50400001928E-02 0. -1.
    10030    2    1    2    0    0  0.00000000000E+00  0.00000000000E+00 -0.11881326278E+01  0.31017576260E+04  0.31017573984E+04 0.  0.
        3    1    3    3  502    0  0.11867679399E+03  0.13597028762E+04 -0.73703735402E+03  0.15511609086E+04  0.10100000352E+00 0. -1.
       -3    1    3    3    0  502 -0.11867679399E+03 -0.13597028762E+04  0.73584922139E+03  0.15505967174E+04  0.10100000352E+00 0.  1.
</event>
<event>
 5   0  0.5055900E-07  0.3098894E+04  0.7818609E-02  0.8216042E-01
       -2   -1    0    0    0  501  0.00000000000E+00  0.00000000000E+00  0.13613209778E+04  0.13613209778E+04  0.25500000920E-02 0. -1.
        2   -1    0    0  501    0  0.00000000000E+00  0.00000000000E+00 -0.17635706823E+04  0.17635706823E+04  0.25500000920E-02 0.  1.
    10030    2    1    2    0    0  0.00000000000E+00  0.00000000000E+00 -0.40224970446E+03  0.31248916601E+04  0.30988938450E+04 0.  0.
        2    1    3    3  502    0 -0.34153612830E+03  0.53190541260E+03  0.12253863661E+04  0.13788190748E+04  0.25500000920E-02 0. -1.
       -2    1    3    3    0  502  0.34153612830E+03 -0.53190541260E+03 -0.16276360706E+04  0.17460725853E+04  0.25500000920E-02 0.  1.
</event>
<event>
 5   0  0.1840359E-07  0.3102784E+04  0.7818609E-02  0.8214974E-01
        1   -1    0    0  501    0  0.00000000000E+00  0.00000000000E+00  0.14923922267E+04  0.14923922267E+04  0.50400001928E-02 0.  1.
       -1   -1    0    0    0  501  0.00000000000E+00  0.00000000000E+00 -0.16127238508E+04  0.16127238508E+04  0.50400001928E-02 0. -1.
    10030    2    1    2    0    0  0.00000000000E+00  0.00000000000E+00 -0.12033162415E+03  0.31051160775E+04  0.31027836140E+04 0.  0.
        1    1    3    3  502    0 -0.63584363182E+03  0.95790767820E+03  0.98221802591E+03  0.15121628532E+04  0.50400001928E-02 0.  1.
       -1    1    3    3    0  502  0.63584363182E+03 -0.95790767820E+03 -0.11025496501E+04  0.15929532243E+04  0.50400001928E-02 0. -1.
</event>
<event>
 5   0  0.5055900E-07  0.3120097E+04  0.7818609E-02  0.8210244E-01
        2   -1    0    0  501    0  0.00000000000E+00  0.00000000000E+00  0.17801190686E+04  0.17801190686E+04  0.25500000920E-02 0. -1.
       -2   -1    0    0    0  501  0.00000000000E+00  0.00000000000E+00 -0.13671845724E+04  0.13671845724E+04  0.25500000920E-02 0.  1.
    10030    2    1    2    0    0  0.00000000000E+00  0.00000000000E+00  0.41293449615E+03  0.31473036410E+04  0.31200970034E+04 0.  0.
        2    1    3    3  502    0 -0.47437746173E+02 -0.14210947753E+04 -0.44099464964E+03  0.14887031206E+04  0.25500000920E-02 0.  1.
       -2    1    3    3    0  502  0.47437746173E+02  0.14210947753E+04  0.85392914579E+03  0.16586005204E+04  0.25500000920E-02 0. -1.
</event>
<event>
 5   0  0.5055900E-07  0.3102385E+04  0.7818609E-02  0.8215084E-01
        2   -1    0    0  501    0  0.00000000000E+00  0.00000000000E+00  0.21314730020E+04  0.21314730020E+04  0.25500000920E-02 0. -1.
       -2   -1    0    0    0  501  0.00000000000E+00  0.00000000000E+00 -0.11288899605E+04  0.11288899605E+04  0.25500000920E-02 0.  1.
    10030    2    1    2    0    0  0.00000000000E+00  0.00000000000E+00  0.10025830416E+04  0.32603629625E+04  0.31023851940E+04 0.  0.
        2    1    3    3  502    0  0.92644495974E+03 -0.47629592345E+02 -0.80524919853E+03  0.12284116221E+04  0.25500000920E-02 0.  1.
       -2    1    3    3    0  502 -0.92644495974E+03  0.47629592345E+02  0.18078322401E+04  0.20319513404E+04  0.25500000920E-02 0. -1.
</event>
<event>
 5   0  0.1830902E-07  0.3104914E+04  0.7818609E-02  0.8214391E-01
       -1   -1    0    0    0  501  0.00000000000E+00  0.00000000000E+00  0.13213729604E+04  0.13213729604E+04  0.50400001928E-02 0.  1.
        1   -1    0    0  501    0  0.00000000000E+00  0.00000000000E+00 -0.18239533312E+04  0.18239533312E+04  0.50400001928E-02 0. -1.
    10030    2    1    2    0    0  0.00000000000E+00  0.00000000000E+00 -0.50258037083E+03  0.31453262917E+04  0.31049139202E+04 0.  0.
        3    1    3    3  502    0  0.10358247709E+03  0.10200330325E+04  0.92961227248E+03  0.13839709911E+04  0.10100000352E+00 0.  1.
       -3    1    3    3    0  502 -0.10358247709E+03 -0.10200330325E+04 -0.14321926433E+04  0.17613553005E+04  0.10100000352E+00 0. -1.
</event>
<event>
 5   0  0.1840359E-07  0.3103110E+04  0.7818609E-02  0.8214885E-01
       -1   -1    0    0    0  501  0.00000000000E+00  0.00000000000E+00  0.16069879658E+04  0.16069879658E+04  0.50400001928E-02 0. -1.
        1   -1    0    0  501    0  0.00000000000E+00  0.00000000000E+00 -0.14980338614E+04  0.14980338614E+04  0.50400001928E-02 0.  1.
    10030    2    1    2    0    0  0.00000000000E+00  0.00000000000E+00  0.10895410438E+03  0.31050218272E+04  0.31031096582E+04 0.  0.
        1    1    3    3  502    0 -0.18827896056E+03 -0.15216706091E+04  0.29209333561E+03  0.15608487839E+04  0.50400001928E-02 0. -1.
       -1    1    3    3    0  502  0.18827896056E+03  0.15216706091E+04 -0.18313923123E+03  0.15441730433E+04  0.50400001928E-02 0.  1.
</event>
<event>
 5   0  0.1830902E-07  0.3096678E+04  0.7818609E-02  0.8216650E-01
        1   -1    0    0  501    0  0.00000000000E+00  0.00000000000E+00  0.13792558927E+04  0.13792558927E+04  0.50400001928E-02 0.  1.
       -1   -1    0    0    0  501  0.00000000000E+00  0.00000000000E+00 -0.17381497690E+04  0.17381497691E+04  0.50400001928E-02 0. -1.
    10030    2    1    2    0    0  0.00000000000E+00  0.00000000000E+00 -0.35889387636E+03  0.31174056617E+04  0.30966777755E+04 0.  0.
        3    1    3    3  502    0 -0.14598039035E+04 -0.28405552508E+03 -0.61318858187E+03  0.16086376923E+04  0.10100000352E+00 0.  1.
       -3    1    3    3    0  502  0.14598039035E+04  0.28405552508E+03  0.25429470552E+03  0.15087679694E+04  0.10100000352E+00 0. -1.
</event>
<event>
 5   0  0.1814075E-07  0.3102821E+04  0.7818609E-02  0.8214964E-01
       -1   -1    0    0    0  501  0.00000000000E+00  0.00000000000E+00  0.16414190287E+04  0.16414190287E+04  0.50400001928E-02 0. -1.
        1   -1    0    0  501    0  0.00000000000E+00  0.00000000000E+00 -0.14663374931E+04  0.14663374931E+04  0.50400001928E-02 0.  1.
    10030    2    1    2    0    0  0.00000000000E+00  0.00000000000E+00  0.17508153558E+03  0.31077565218E+04  0.31028208222E+04 0.  0.
        5    1    3    3  502    0 -0.35162257347E+03 -0.71128758885E+03 -0.12477279324E+04  0.14786532898E+04  0.46999998093E+01 0.  1.
       -5    1    3    3    0  502  0.35162257347E+03  0.71128758885E+03  0.14228094680E+04  0.16291032320E+04  0.46999998093E+01 0. -1.
</event>
<event>
 5   0  0.1875284E-07  0.3099634E+04  0.7818609E-02  0.8215838E-01
        1   -1    0    0  501    0  0.00000000000E+00  0.00000000000E+00  0.15491422481E+04  0.15491422481E+04  0.50400001928E-02 0.  1.
       -1   -1    0    0    0  501  0.00000000000E+00  0.00000000000E+00 -0.15504915915E+04  0.15504915915E+04  0.50400001928E-02 0. -1.
    10030    2    1    2    0    0  0.00000000000E+00  0.00000000000E+00 -0.13493434149E+01  0.30996338396E+04  0.30996335459E+04 0.  0.
        4    1    3    3  502    0 -0.10947540371E+04 -0.53548100861E+03 -0.95812142128E+03  0.15502337189E+04  0.12699999809E+01 0. -1.
       -4    1    3    3    0  502  0.10947540371E+04  0.53548100861E+03  0.95677207786E+03  0.15494001207E+04  0.12699999809E+01 0.  1.
</event>
<event>
 5   0  0.1875284E-07  0.3103551E+04  0.7818609E-02  0.8214764E-01
        1   -1    0    0  501    0  0.00000000000E+00  0.00000000000E+00  0.18521911970E+04  0.18521911970E+04  0.50400001928E-02 0. -1.
       -1   -1    0    0    0  501  0.00000000000E+00  0.00000000000E+00 -0.13000854254E+04  0.13000854254E+04  0.50400001928E-02 0.  1.
    10030    2    1    2    0    0  0.00000000000E+00  0.00000000000E+00  0.55210577168E+03  0.31522766224E+04  0.31035507280E+04 0.  0.
        4    1    3    3  502    0  0.17725032296E+03  0.16525249892E+03 -0.12807469623E+04  0.13034724622E+04  0.12699999809E+01 0.  1.
       -4    1    3    3    0  502 -0.17725032296E+03 -0.16525249892E+03  0.18328527340E+04  0.18488041602E+04  0.12699999809E+01 0. -1.
</event>
<event>
 5   0  0.5154105E-07  0.3102545E+04  0.7818609E-02  0.8215040E-01
        2   -1    0    0  501    0  0.00000000000E+00  0.00000000000E+00  0.16652960443E+04  0.16652960443E+04  0.25500000920E-02 0. -1.
       -2   -1    0    0    0  501  0.00000000000E+00  0.00000000000E+00 -0.14450559759E+04  0.14450559759E+04  0.25500000920E-02 0.  1.
    10030    2    1    2    0    0  0.00000000000E+00  0.00000000000E+00  0.22024006841E+03  0.31103520202E+04  0.31025447622E+04 0.  0.
        1    1    3    3  502    0 -0.73549699119E+03 -0.11399734794E+04  0.86431002881E+03  0.16085792439E+04  0.50400001928E-02 0. -1.
       -1    1    3    3    0  502  0.73549699119E+03  0.11399734794E+04 -0.64406996039E+03  0.15017727763E+04  0.50400001928E-02 0.  1.
</event>
<event>
 5   0  0.5342534E-07  0.3109775E+04  0.7818609E-02  0.8213060E-01
        2   -1    0    0  501    0  0.00000000000E+00  0.00000000000E+00  0.28892779230E+04  0.28892779230E+04  0.25500000920E-02 0.  1.
       -2   -1    0    0    0  501  0.00000000000E+00  0.00000000000E+00 -0.83677498197E+03  0.83677498197E+03  0.25500000920E-02 0. -1.
    10030    2    1    2    0    0  0.00000000000E+00  0.00000000000E+00  0.20525029410E+04  0.37260529050E+04  0.31097752214E+04 0.  0.
        3    1    3    3  502    0  0.80329239324E+03 -0.11679610274E+03  0.26152472701E+04  0.27383276452E+04  0.10100000352E+00 0.  1.
       -3    1    3    3    0  502 -0.80329239324E+03  0.11679610274E+03 -0.56274432906E+03  0.98772525975E+03  0.10100000352E+00 0. -1.
</event>
<event>
 5   0  0.1814075E-07  0.3097047E+04  0.7818609E-02  0.8216549E-01
       -1   -1    0    0    0  501  0.00000000000E+00  0.00000000000E+00  0.11878169871E+04  0.11878169872E+04  0.50400001928E-02 0. -1.
        1   -1    0    0  501    0  0.00000000000E+00  0.00000000000E+00 -0.20187669793E+04  0.20187669793E+04  0.50400001928E-02 0.  1.
    10030    2    1    2    0    0  0.00000000000E+00  0.00000000000E+00 -0.83094999214E+03  0.32065839665E+04  0.30970474398E+04 0.  0.
        5    1    3    3  502    0  0.78438741845E+01  0.55283626504E+03 -0.19130818785E+04  0.19913798800E+04  0.46999998093E+01 0.  1.
       -5    1    3    3    0  502 -0.78438741845E+01 -0.55283626504E+03  0.10821318864E+04  0.12152040865E+04  0.46999998093E+01 0. -1.
</event>
<event>
 5   0  0.5055900E-07  0.3098875E+04  0.7818609E-02  0.8216047E-01
       -2   -1    0    0    0  501  0.00000000000E+00  0.00000000000E+00  0.12775402269E+04  0.12775402269E+04  0.25500000920E-02 0.  1.
        2   -1    0    0  501    0  0.00000000000E+00  0.00000000000E+00 -0.18792029302E+04  0.18792029302E+04  0.25500000920E-02 0. -1.
    10030    2    1    2    0    0  0.00000000000E+00  0.00000000000E+00 -0.60166270323E+03  0.31567431571E+04  0.30988754979E+04 0.  0.
        2    1    3    3  502    0 -0.12707693563E+04  0.74531992400E+03 -0.78979559686E+03  0.16715662209E+04  0.25500000920E-02 0.  1.
       -2    1    3    3    0  502  0.12707693563E+04 -0.74531992400E+03  0.18813289363E+03  0.14851769362E+04  0.25500000920E-02 0. -1.
</event>
<event>
 5   0  0.5248309E-07  0.3094796E+04  0.7818609E-02  0.8217168E-01
        2   -1    0    0  501    0  0.00000000000E+00  0.00000000000E+00  0.26022551529E+04  0.26022551529E+04  0.25500000920E-02 0. -1.
       -2   -1    0    0    0  501  0.00000000000E+00  0.00000000000E+00 -0.92014066664E+03  0.92014066665E+03  0.25500000920E-02 0.  1.
    10030    2    1    2    0    0  0.00000000000E+00  0.00000000000E+00  0.16821144862E+04  0.35223958195E+04  0.30947961427E+04 0.  0.
        4    1    3    3  502    0  0.13567009532E+04  0.73237186595E+02 -0.18307856683E+01  0.13586780806E+04  0.12699999809E+01 0.  1.
       -4    1    3    3    0  502 -0.13567009532E+04 -0.73237186595E+02  0.16839452719E+04  0.21637177389E+04  0.12699999809E+01 0. -1.
</event>
<event>
 5   0  0.1875284E-07  0.3102953E+04  0.7818609E-02  0.8214928E-01
       -1   -1    0    0    0  501  0.00000000000E+00  0.00000000000E+00  0.12754861648E+04  0.12754861648E+04  0.50400001928E-02 0.  1.
        1   -1    0    0  501    0  0.00000000000E+00  0.00000000000E+00 -0.18871859860E+04  0.18871859860E+04  0.50400001928E-02 0. -1.
    10030    2    1    2    0    0  0.00000000000E+00  0.00000000000E+00 -0.61169982123E+03  0.31626721508E+04  0.31029531841E+04 0.  0.
        4    1    3    3  502    0  0.11234314666E+04  0.53658003324E+03 -0.12494434800E+04  0.17638387157E+04  0.12699999809E+01 0. -1.
       -4    1    3    3    0  502 -0.11234314666E+04 -0.53658003324E+03  0.63774365876E+03  0.13988334352E+04  0.12699999809E+01 0.  1.
</event>
<event>
 5   0  0.5376678E-07  0.3104189E+04  0.7818609E-02  0.8214589E-01
       -2   -1    0    0    0  501  0.00000000000E+00  0.00000000000E+00  0.12455264442E+04  0.12455264442E+04  0.25500000920E-02 0.  1.
        2   -1    0    0  501    0  0.00000000000E+00  0.00000000000E+00 -0.19341196707E+04  0.19341196707E+04  0.25500000920E-02 0. -1.
    10030    2    1    2    0    0  0.00000000000E+00  0.00000000000E+00 -0.68859322654E+03  0.31796461149E+04  0.31041889092E+04 0.  0.
        5    1    3    3  502    0 -0.35342960762E+03 -0.79748358658E+03  0.97068634424E+03  0.13050465997E+04  0.46999998093E+01 0.  1.
       -5    1    3    3    0  502  0.35342960762E+03  0.79748358658E+03 -0.16592795708E+04  0.18745995152E+04  0.46999998093E+01 0. -1.
</event>
<event>
 5   0  0.5154105E-07  0.3100077E+04  0.7818609E-02  0.8215717E-01
        2   -1    0    0  501    0  0.00000000000E+00  0.00000000000E+00  0.12696069351E+04  0.12696069351E+04  0.25500000920E-02 0. -1.
       -2   -1    0    0    0  501  0.00000000000E+00  0.00000000000E+00 -0.18924124965E+04  0.18924124965E+04  0.25500000920E-02 0.  1.
    10030    2    1    2    0    0  0.00000000000E+00  0.00000000000E+00 -0.62280556133E+03  0.31620194316E+04  0.31000774375E+04 0.  0.
        1    1    3    3  502    0 -0.11061802280E+04  0.64475295296E+03 -0.12025175432E+04  0.17565276852E+04  0.50400001928E-02 0.  1.
       -1    1    3    3    0  502  0.11061802280E+04 -0.64475295296E+03  0.57971198192E+03  0.14054917464E+04  0.50400001928E-02 0. -1.
</event>
<event>
 5   0  0.1875284E-07  0.3102374E+04  0.7818609E-02  0.8215087E-01
       -1   -1    0    0    0  501  0.00000000000E+00  0.00000000000E+00  0.18698293639E+04  0.18698293639E+04  0.50400001928E-02 0. -1.
        1   -1    0    0  501    0  0.00000000000E+00  0.00000000000E+00 -0.12868450072E+04  0.12868450072E+04  0.50400001928E-02 0.  1.
    10030    2    1    2    0    0  0.00000000000E+00  0.00000000000E+00  0.58298435665E+03  0.31566743711E+04  0.31023736598E+04 0.  0.
        4    1    3    3  502    0 -0.57064007110E+03 -0.12401429775E+04 -0.45801066127E+03  0.14399166900E+04  0.12699999809E+01 0.  1.
       -4    1    3    3    0  502  0.57064007110E+03  0.12401429775E+04  0.10409950179E+04  0.17167576811E+04  0.12699999809E+01 0. -1.
</event>
<event>
 5   0  0.1830902E-07  0.3104713E+04  0.7818609E-02  0.8214446E-01
        1   -1    0    0  501    0  0.00000000000E+00  0.00000000000E+00  0.27073044223E+04  0.27073044223E+04  0.50400001928E-02 0.  1.
       -1   -1    0    0    0  501  0.00000000000E+00  0.00000000000E+00 -0.89011417803E+03  0.89011417805E+03  0.50400001928E-02 0. -1.
    10030    2    1    2    0    0  0.00000000000E+00  0.00000000000E+00  0.18171902442E+04  0.35974186003E+04  0.31047125796E+04 0.  0.
        3    1    3    3  502    0 -0.10279333241E+04 -0.11489203256E+04  0.69764492129E+03  0.16921504896E+04  0.10100000352E+00 0. -1.
       -3    1    3    3    0  502  0.10279333241E+04  0.11489203256E+04  0.11195453229E+04  0.19052681107E+04  0.10100000352E+00 0.  1.
</event>
<event>
 5   0  0.5248309E-07  0.3089595E+04  0.7818609E-02  0.8218599E-01
        2   -1    0    0  501    0  0.00000000000E+00  0.00000000000E+00  0.21738975166E+04  0.21738975166E+04  0.25500000920E-02 0. -1.
       -2   -1    0    0    0  501  0.00000000000E+00  0.00000000000E+00 -0.10977512300E+04  0.10977512300E+04  0.25500000920E-02 0.  1.
    10030    2    1    2    0    0  0.00000000000E+00  0.00000000000E+00  0.10761462866E+04  0.32716487466E+04  0.30895945836E+04 0.  0.
        4    1    3    3  502    0  0.56547205944E+03  0.11742742401E+04 -0.34008049174E+03  0.13469725293E+04  0.12699999809E+01 0.  1.
       -4    1    3    3    0  502 -0.56547205944E+03 -0.11742742401E+04  0.14162267783E+04  0.19246762173E+04  0.12699999809E+01 0. -1.
</event>
<event>
 5   0  0.5342534E-07  0.3100627E+04  0.7818609E-02  0.8215566E-01
        2   -1    0    0  501    0  0.00000000000E+00  0.00000000000E+00  0.12381328038E+04  0.12381328038E+04  0.25500000920E-02 0. -1.
       -2   -1    0    0    0  501  0.00000000000E+00  0.00000000000E+00 -0.19412063674E+04  0.19412063674E+04  0.25500000920E-02 0.  1.
    10030    2    1    2    0    0  0.00000000000E+00  0.00000000000E+00 -0.70307356357E+03  0.31793391712E+04  0.31006265705E+04 0.  0.
        3    1    3    3  502    0  0.62435387024E+03 -0.62265162674E+03  0.95596449205E+03  0.13005310161E+04  0.10100000352E+00 0. -1.
       -3    1    3    3    0  502 -0.62435387024E+03  0.62265162674E+03 -0.16590380556E+04  0.18788081551E+04  0.10100000352E+00 0.  1.
</event>
<event>
 5   0  0.5055900E-07  0.3126009E+04  0.7818609E-02  0.8208636E-01
       -2   -1    0    0    0  501  0.00000000000E+00  0.00000000000E+00  0.12284344064E+04  0.12284344064E+04  0.25500000920E-02 0.  1.
        2   -1    0    0  501    0  0.00000000000E+00  0.00000000000E+00 -0.19886965402E+04  0.19886965402E+04  0.25500000920E-02 0. -1.
    10030    2    1    2    0    0  0.00000000000E+00  0.00000000000E+00 -0.76026213378E+03  0.32171309467E+04  0.31260091196E+04 0.  0.
        2    1    3    3  502    0 -0.34084526445E+03 -0.15104412043E+04 -0.59935472970E+03  0.16603717108E+04  0.25500000920E-02 0.  1.
       -2    1    3    3    0  502  0.34084526445E+03  0.15104412043E+04 -0.16090740408E+03  0.15567592359E+04  0.25500000920E-02 0. -1.
</event>
<event>
 5   0  0.5055900E-07  0.3099938E+04  0.7818609E-02  0.8215755E-01
       -2   -1    0    0    0  501  0.00000000000E+00  0.00000000000E+00  0.13759432584E+04  0.13759432584E+04  0.25500000920E-02 0.  1.
        2   -1    0    0  501    0  0.00000000000E+00  0.00000000000E+00 -0.17460047765E+04  0.17460047765E+04  0.25500000920E-02 0. -1.
    10030    2    1    2    0    0  0.00000000000E+00  0.00000000000E+00 -0.37006151808E+03  0.31219480349E+04  0.30999377422E+04 0.  0.
        2    1    3    3  502    0 -0.29175789182E+02  0.69347661116E+03  0.12106817199E+04  0.13955326094E+04  0.25500000920E-02 0.  1.
       -2    1    3    3    0  502  0.29175789182E+02 -0.69347661116E+03 -0.15807432380E+04  0.17264154255E+04  0.25500000920E-02 0. -1.
</event>
<event>
 5   0  0.5248309E-07  0.3008460E+04  0.7818609E-02  0.8241319E-01
        2   -1    0    0  501    0  0.00000000000E+00  0.00000000000E+00  0.19242014017E+04  0.19242014017E+04  0.25500000920E-02 0.  1.
       -2   -1    0    0    0  501  0.00000000000E+00  0.00000000000E+00 -0.11759202682E+04  0.11759202682E+04  0.25500000920E-02 0. -1.
    10030    2    1    2    0    0  0.00000000000E+00  0.00000000000E+00  0.74828113345E+03  0.31001216699E+04  0.30084596912E+04 0.  0.
        4    1    3    3  502    0 -0.37164343036E+03 -0.38136036687E+03 -0.10755457309E+04  0.12001478246E+04  0.12699999809E+01 0. -1.
       -4    1    3    3    0  502  0.37164343036E+03  0.38136036687E+03  0.18238268644E+04  0.18999738453E+04  0.12699999809E+01 0.  1.
</event>
<event>
 5   0  0.5376678E-07  0.3100852E+04  0.7818609E-02  0.8215504E-01
       -2   -1    0    0    0  501  0.00000000000E+00  0.00000000000E+00  0.11226238631E+04  0.11226238631E+04  0.25500000920E-02 0.  1.
        2   -1    0    0  501    0  0.00000000000E+00  0.00000000000E+00 -0.21412522011E+04  0.21412522011E+04  0.25500000920E-02 0. -1.
    10030    2    1    2    0    0  0.00000000000E+00  0.00000000000E+00 -0.10186283380E+04  0.32638760642E+04  0.31008520235E+04 0.  0.
        5    1    3    3  502    0  0.14907695900E+04  0.23311860100E+03 -0.88450987170E+03  0.17490334633E+04  0.46999998093E+01 0. -1.
       -5    1    3    3    0  502 -0.14907695900E+04 -0.23311860100E+03 -0.13411846627E+03  0.15148426009E+04  0.46999998093E+01 0.  1.
</event>
<event>
 5   0  0.5376678E-07  0.3111901E+04  0.7818609E-02  0.8212480E-01
        2   -1    0    0  501    0  0.00000000000E+00  0.00000000000E+00  0.18764828511E+04  0.18764828512E+04  0.25500000920E-02 0.  1.
       -2   -1    0    0    0  501  0.00000000000E+00  0.00000000000E+00 -0.12901696307E+04  0.12901696307E+04  0.25500000920E-02 0. -1.
    10030    2    1    2    0    0  0.00000000000E+00  0.00000000000E+00  0.58631322045E+03  0.31666524819E+04  0.31119005042E+04 0.  0.
        5    1    3    3  502    0 -0.79163983702E+03 -0.22859469043E+03  0.16362308386E+04  0.18319996210E+04  0.46999998093E+01 0.  1.
       -5    1    3    3    0  502  0.79163983702E+03  0.22859469043E+03 -0.10499176182E+04  0.13346528609E+04  0.46999998093E+01 0. -1.
</event>
<event>
 5   0  0.5342534E-07  0.3103129E+04  0.7818609E-02  0.8214880E-01
        2   -1    0    0  501    0  0.00000000000E+00  0.00000000000E+00  0.17515253595E+04  0.17515253595E+04  0.25500000920E-02 0.  1.
       -2   -1    0    0    0  501  0.00000000000E+00  0.00000000000E+00 -0.13744321630E+04  0.13744321630E+04  0.25500000920E-02 0. -1.
    10030    2    1    2    0    0  0.00000000000E+00  0.00000000000E+00  0.37709319645E+03  0.31259575225E+04  0.31031292519E+04 0.  0.
        3    1    3    3  502    0 -0.18806103644E+03 -0.32113946194E+03  0.17058995144E+04  0.17460213833E+04  0.10100000352E+00 0.  1.
       -3    1    3    3    0  502  0.18806103644E+03  0.32113946194E+03 -0.13288063180E+04  0.13799361392E+04  0.10100000352E+00 0. -1.
</event>
<event>
 5   0  0.1840359E-07  0.3102499E+04  0.7818609E-02  0.8215052E-01
        1   -1    0    0  501    0  0.00000000000E+00  0.00000000000E+00  0.16129356828E+04  0.16129356828E+04  0.50400001928E-02 0.  1.
       -1   -1    0    0    0  501  0.00000000000E+00  0.00000000000E+00 -0.14919225584E+04  0.14919225584E+04  0.50400001928E-02 0. -1.
    10030    2    1    2    0    0  0.00000000000E+00  0.00000000000E+00  0.12101312437E+03  0.31048582412E+04  0.31024990768E+04 0.  0.
        1    1    3    3  502    0  0.15400475320E+04 -0.12832802655E+03  0.19537048126E+03  0.15576854972E+04  0.50400001928E-02 0.  1.
       -1    1    3    3    0  502 -0.15400475320E+04  0.12832802655E+03 -0.74357356896E+02  0.15471727440E+04  0.50400001928E-02 0. -1.
</event>
<event>
 5   0  0.1840359E-07  0.3088981E+04  0.7818609E-02  0.8218768E-01
        1   -1    0    0  501    0  0.00000000000E+00  0.00000000000E+00  0.19185620409E+04  0.19185620409E+04  0.50400001928E-02 0.  1.
       -1   -1    0    0    0  501  0.00000000000E+00  0.00000000000E+00 -0.12433538706E+04  0.12433538706E+04  0.50400001928E-02 0. -1.
    10030    2    1    2    0    0  0.00000000000E+00  0.00000000000E+00  0.67520817032E+03  0.31619159116E+04  0.30889814112E+04 0.  0.
        1    1    3    3  502    0  0.11656950811E+04 -0.99017509842E+03  0.55752520716E+03  0.16279207918E+04  0.50400001928E-02 0.  1.
       -1    1    3    3    0  502 -0.11656950811E+04  0.99017509842E+03  0.11768296316E+03  0.15339951198E+04  0.50400001928E-02 0. -1.
</event>
<event>
 5   0  0.5055900E-07  0.3096174E+04  0.7818609E-02  0.8216789E-01
        2   -1    0    0  501    0  0.00000000000E+00  0.00000000000E+00  0.12115971507E+04  0.12115971507E+04  0.25500000920E-02 0.  1.
       -2   -1    0    0    0  501  0.00000000000E+00  0.00000000000E+00 -0.19780277228E+04  0.19780277228E+04  0.25500000920E-02 0. -1.
    10030    2    1    2    0    0  0.00000000000E+00  0.00000000000E+00 -0.76643057206E+03  0.31896248735E+04  0.30961736082E+04 0.  0.
        2    1    3    3  502    0  0.11405706092E+04  0.51311441649E+03  0.55667343201E+03  0.13689678699E+04  0.25500000920E-02 0.  1.
       -2    1    3    3    0  502 -0.11405706092E+04 -0.51311441649E+03 -0.13231040041E+04  0.18206570036E+04  0.25500000920E-02 0. -1.
</event>
<event>
 5   0  0.5248309E-07  0.3100549E+04  0.7818609E-02  0.8215587E-01
        2   -1    0    0  501    0  0.00000000000E+00  0.00000000000E+00  0.22860688394E+04  0.22860688394E+04  0.25500000920E-02 0.  1.
       -2   -1    0    0    0  501  0.00000000000E+00  0.00000000000E+00 -0.10513030433E+04  0.10513030433E+04  0.25500000920E-02 0. -1.
    10030    2    1    2    0    0  0.00000000000E+00  0.00000000000E+00  0.12347657961E+04  0.33373718827E+04  0.31005490663E+04 0.  0.
        4    1    3    3  502    0  0.14668001647E+04 -0.49819064743E+03  0.55232752867E+03  0.16446166594E+04  0.12699999809E+01 0. -1.
       -4    1    3    3    0  502 -0.14668001647E+04  0.49819064743E+03  0.68243826743E+03  0.16927552234E+04  0.12699999809E+01 0.  1.
</event>
<event>
 5   0  0.1814075E-07  0.3094356E+04  0.7818609E-02  0.8217288E-01
        1   -1    0    0  501    0  0.00000000000E+00  0.00000000000E+00  0.14193913150E+04  0.14193913150E+04  0.50400001928E-02 0. -1.
       -1   -1    0    0    0  501  0.00000000000E+00  0.00000000000E+00 -0.16864695370E+04  0.16864695370E+04  0.50400001928E-02 0.  1.
    10030    2    1    2    0    0  0.00000000000E+00  0.00000000000E+00 -0.26707822203E+03  0.31058608520E+04  0.30943562909E+04 0.  0.
        5    1    3    3  502    0  0.88945951895E+03  0.37355430068E+02 -0.14036307947E+04  0.16621477557E+04  0.46999998093E+01 0.  1.
       -5    1    3    3    0  502 -0.88945951895E+03 -0.37355430068E+02  0.11365525726E+04  0.14437130963E+04  0.46999998093E+01 0. -1.
</event>
<event>
 5   0  0.1727000E-07  0.3066008E+04  0.7818609E-02  0.8225129E-01
        3   -1    0    0  501    0  0.00000000000E+00  0.00000000000E+00  0.25880380477E+04  0.25880380496E+04  0.10100000352E+00 0.  1.
       -3   -1    0    0    0  501  0.00000000000E+00  0.00000000000E+00 -0.90806305151E+03  0.90806305713E+03  0.10100000352E+00 0. -1.
    10030    2    1    2    0    0  0.00000000000E+00  0.00000000000E+00  0.16799749962E+04  0.34961011068E+04  0.30660083107E+04 0.  0.
        5    1    3    3  502    0 -0.15138322577E+04 -0.68779880969E+02  0.11041307540E+04  0.18749788234E+04  0.46999998093E+01 0. -1.
       -5    1    3    3    0  502  0.15138322577E+04  0.68779880969E+02  0.57584424220E+03  0.16211222834E+04  0.46999998093E+01 0.  1.
</event>
<event>
 5   0  0.5248309E-07  0.3107497E+04  0.7818609E-02  0.8213684E-01
       -2   -1    0    0    0  501  0.00000000000E+00  0.00000000000E+00  0.97336046336E+03  0.97336046336E+03  0.25500000920E-02 0.  1.
        2   -1    0    0  501    0  0.00000000000E+00  0.00000000000E+00 -0.24802052808E+04  0.24802052808E+04  0.25500000920E-02 0. -1.
    10030    2    1    2    0    0  0.00000000000E+00  0.00000000000E+00 -0.15068448175E+04  0.34535657442E+04  0.31074965882E+04 0.  0.
        4    1    3    3  502    0  0.10872034572E+04 -0.92972943192E+03 -0.79487364172E+02  0.14327344582E+04  0.12699999809E+01 0.  1.
       -4    1    3    3    0  502 -0.10872034572E+04  0.92972943192E+03 -0.14273574533E+04  0.20208312860E+04  0.12699999809E+01 0. -1.
</event>
<event>
 5   0  0.1814075E-07  0.3100501E+04  0.7818609E-02  0.8215601E-01
       -1   -1    0    0    0  501  0.00000000000E+00  0.00000000000E+00  0.10895314342E+04  0.10895314342E+04  0.50400001928E-02 0.  1.
        1   -1    0    0  501    0  0.00000000000E+00  0.00000000000E+00 -0.22057884486E+04  0.22057884486E+04  0.50400001928E-02 0. -1.
    10030    2    1    2    0    0  0.00000000000E+00  0.00000000000E+00 -0.11162570143E+04  0.32953198828E+04  0.31005005092E+04 0.  0.
        5    1    3    3  502    0 -0.11532271784E+04 -0.67286550110E+02  0.54065629707E+03  0.12754574577E+04  0.46999998093E+01 0.  1.
       -5    1    3    3    0  502  0.11532271784E+04  0.67286550110E+02 -0.16569133114E+04  0.20198624251E+04  0.46999998093E+01 0. -1.
</event>
<event>
 5   0  0.1875284E-07  0.3095907E+04  0.7818609E-02  0.8216862E-01
        1   -1    0    0  501    0  0.00000000000E+00  0.00000000000E+00  0.26997010202E+04  0.26997010202E+04  0.50400001928E-02 0. -1.
       -1   -1    0    0    0  501  0.00000000000E+00  0.00000000000E+00 -0.88756515512E+03  0.88756515513E+03  0.50400001928E-02 0.  1.
    10030    2    1    2    0    0  0.00000000000E+00  0.00000000000E+00  0.18121358651E+04  0.35872661753E+04  0.30959073337E+04 0.  0.
        4    1    3    3  502    0 -0.47444579971E+03 -0.97474207172E+02 -0.79749894308E+03  0.93306281410E+03  0.12699999809E+01 0.  1.
       -4    1    3    3    0  502  0.47444579971E+03  0.97474207172E+02  0.26096348081E+04  0.26542033612E+04  0.12699999809E+01 0. -1.
</event>
<event>
 5   0  0.1840359E-07  0.3099472E+04  0.7818609E-02  0.8215883E-01
       -1   -1    0    0    0  501  0.00000000000E+00  0.00000000000E+00  0.77430208630E+03  0.77430208632E+03  0.50400001928E-02 0. -1.
        1   -1    0    0  501    0  0.00000000000E+00  0.00000000000E+00 -0.31017367896E+04  0.31017367896E+04  0.50400001928E-02 0.  1.
    10030    2    1    2    0    0  0.00000000000E+00  0.00000000000E+00 -0.23274347033E+04  0.38760388759E+04  0.30994717404E+04 0.  0.
        1    1    3    3  502    0  0.18788845201E+03  0.11869830647E+04  0.59936512546E+02  0.12032552729E+04  0.50400001928E-02 0. -1.
       -1    1    3    3    0  502 -0.18788845201E+03 -0.11869830647E+04 -0.23873712158E+04  0.26727836030E+04  0.50400001928E-02 0.  1.
</event>
<event>
 5   0  0.1840359E-07  0.3075939E+04  0.7818609E-02  0.8222372E-01
        1   -1    0    0  501    0  0.00000000000E+00  0.00000000000E+00  0.14869500791E+04  0.14869500791E+04  0.50400001928E-02 0.  1.
       -1   -1    0    0    0  501  0.00000000000E+00  0.00000000000E+00 -0.15907393987E+04  0.15907393987E+04  0.50400001928E-02 0. -1.
    10030    2    1    2    0    0  0.00000000000E+00  0.00000000000E+00 -0.10378931967E+03  0.30776894778E+04  0.30759389297E+04 0.  0.
        1    1    3    3  502    0  0.13850634582E+04  0.64815372353E+03 -0.21583552582E+03  0.15443733379E+04  0.50400001928E-02 0. -1.
       -1    1    3    3    0  502 -0.13850634582E+04 -0.64815372353E+03  0.11204620615E+03  0.15333161399E+04  0.50400001928E-02 0.  1.
</event>
<event>
 5   0  0.1840359E-07  0.3093561E+04  0.7818609E-02  0.8217507E-01
        1   -1    0    0  501    0  0.00000000000E+00  0.00000000000E+00  0.19164610115E+04  0.19164610115E+04  0.50400001928E-02 0. -1.
       -1   -1    0    0    0  501  0.00000000000E+00  0.00000000000E+00 -0.12484103424E+04  0.12484103424E+04  0.50400001928E-02 0.  1.
    10030    2    1    2    0    0  0.00000000000E+00  0.00000000000E+00  0.66805066913E+03  0.31648713539E+04  0.30935608916E+04 0.  0.
        1    1    3    3  502    0 -0.96438085331E+03  0.51463021631E+03 -0.78557564324E+03  0.13461068981E+04  0.50400001928E-02 0.  1.
       -1    1    3    3    0  502  0.96438085331E+03 -0.51463021631E+03  0.14536263124E+04  0.18187644558E+04  0.50400001928E-02 0. -1.
</event>
<event>
 5   0  0.1845123E-07  0.3102397E+04  0.7818609E-02  0.8215080E-01
       -1   -1    0    0    0  501  0.00000000000E+00  0.00000000000E+00  0.20320668327E+04  0.20320668327E+04  0.50400001928E-02 0. -1.
        1   -1    0    0  501    0  0.00000000000E+00  0.00000000000E+00 -0.11841227575E+04  0.11841227575E+04  0.50400001928E-02 0.  1.
    10030    2    1    2    0    0  0.00000000000E+00  0.00000000000E+00  0.84794407516E+03  0.32161895902E+04  0.31023968678E+04 0.  0.
        2    1    3    3  502    0  0.10526010379E+04  0.10880076113E+04  0.77474209737E+03  0.17005748513E+04  0.25500000920E-02 0. -1.
       -2    1    3    3    0  502 -0.10526010379E+04 -0.10880076113E+04  0.73201977794E+02  0.15156147389E+04  0.25500000920E-02 0.  1.
</event>
<event>
 5   0  0.1814075E-07  0.3072033E+04  0.7818609E-02  0.8223455E-01
       -1   -1    0    0    0  501  0.00000000000E+00  0.00000000000E+00  0.10830822281E+04  0.10830822282E+04  0.50400001928E-02 0. -1.
        1   -1    0    0  501    0  0.00000000000E+00  0.00000000000E+00 -0.21783635777E+04  0.21783635777E+04  0.50400001928E-02 0.  1.
    10030    2    1    2    0    0  0.00000000000E+00  0.00000000000E+00 -0.10952813496E+04  0.32614458059E+04  0.30720331232E+04 0.  0.
        5    1    3    3  502    0 -0.14708188331E+04  0.37680062280E+03 -0.30084698028E+03  0.15478429329E+04  0.46999998093E+01 0.  1.
       -5    1    3    3    0  502  0.14708188331E+04 -0.37680062280E+03 -0.79443436927E+03  0.17136028730E+04  0.46999998093E+01 0. -1.
</event>
<event>
 5   0  0.5342534E-07  0.3097198E+04  0.7818609E-02  0.8216507E-01
       -2   -1    0    0    0  501  0.00000000000E+00  0.00000000000E+00  0.11499086199E+04  0.11499086199E+04  0.25500000920E-02 0.  1.
        2   -1    0    0  501    0  0.00000000000E+00  0.00000000000E+00 -0.20855214911E+04  0.20855214911E+04  0.25500000920E-02 0. -1.
    10030    2    1    2    0    0  0.00000000000E+00  0.00000000000E+00 -0.93561287118E+03  0.32354301111E+04  0.30971981788E+04 0.  0.
        3    1    3    3  502    0  0.13492575210E+03 -0.13168841947E+04 -0.13072703343E+04  0.18604689404E+04  0.10100000352E+00 0. -1.
       -3    1    3    3    0  502 -0.13492575210E+03  0.13168841947E+04  0.37165746315E+03  0.13749611707E+04  0.10100000352E+00 0.  1.
</event>
<event>
 5   0  0.1830902E-07  0.3099176E+04  0.7818609E-02  0.8215964E-01
       -1   -1    0    0    0  501  0.00000000000E+00  0.00000000000E+00  0.18450630201E+04  0.18450630201E+04  0.50400001928E-02 0. -1.
        1   -1    0    0  501    0  0.00000000000E+00  0.00000000000E+00 -0.13014316802E+04  0.13014316802E+04  0.50400001928E-02 0.  1.
    10030    2    1    2    0    0  0.00000000000E+00  0.00000000000E+00  0.54363133989E+03  0.31464947002E+04  0.30991763204E+04 0.  0.
        3    1    3    3  502    0  0.12779054461E+04 -0.75103202316E+03 -0.18689230809E+03  0.14939947034E+04  0.10100000352E+00 0.  1.
       -3    1    3    3    0  502 -0.12779054461E+04  0.75103202316E+03  0.73052364798E+03  0.16524999968E+04  0.10100000352E+00 0. -1.
</event>
<event>
 5   0  0.1845123E-07  0.3102309E+04  0.7818609E-02  0.8215104E-01
        1   -1    0    0  501    0  0.00000000000E+00  0.00000000000E+00  0.23061270034E+04  0.23061270034E+04  0.50400001928E-02 0. -1.
       -1   -1    0    0    0  501  0.00000000000E+00  0.00000000000E+00 -0.10433425968E+04  0.10433425969E+04  0.50400001928E-02 0.  1.
    10030    2    1    2    0    0  0.00000000000E+00  0.00000000000E+00  0.12627844066E+04  0.33494696003E+04  0.31023091635E+04 0.  0.
        2    1    3    3  502    0 -0.14423216057E+04  0.44935038413E+03  0.25139573239E+03  0.15314722317E+04  0.25500000920E-02 0. -1.
       -2    1    3    3    0  502  0.14423216057E+04 -0.44935038413E+03  0.10113886742E+04  0.18179973686E+04  0.25500000920E-02 0.  1.
</event>
<event>
 5   0  0.5376678E-07  0.3102017E+04  0.7818609E-02  0.8215185E-01
        2   -1    0    0  501    0  0.00000000000E+00  0.00000000000E+00  0.20029319909E+04  0.20029319909E+04  0.25500000920E-02 0.  1.
       -2   -1    0    0    0  501  0.00000000000E+00  0.00000000000E+00 -0.12010527485E+04  0.12010527485E+04  0.25500000920E-02 0. -1.
    10030    2    1    2    0    0  0.00000000000E+00  0.00000000000E+00  0.80187924241E+03  0.32039847394E+04  0.31020167458E+04 0.  0.
        5    1    3    3  502    0  0.39750210179E+03  0.94411562641E+03 -0.80192014607E+03  0.13009459050E+04  0.46999998093E+01 0. -1.
       -5    1    3    3    0  502 -0.39750210179E+03 -0.94411562641E+03  0.16037993885E+04  0.19030388345E+04  0.46999998093E+01 0.  1.
</event>
<event>
 5   0  0.5342534E-07  0.3096092E+04  0.7818609E-02  0.8216811E-01
       -2   -1    0    0    0  501  0.00000000000E+00  0.00000000000E+00  0.13220670709E+04  0.13220670709E+04  0.25500000920E-02 0.  1.
        2   -1    0    0  501    0  0.00000000000E+00  0.00000000000E+00 -0.18126513661E+04  0.18126513661E+04  0.25500000920E-02 0. -1.
    10030    2    1    2    0    0  0.00000000000E+00  0.00000000000E+00 -0.49058429516E+03  0.31347184370E+04  0.30960921706E+04 0.  0.
        3    1    3    3  502    0 -0.43286074013E+03 -0.10296095853E+04  0.83998669464E+03  0.13975127820E+04  0.10100000352E+00 0.  1.
       -3    1    3    3    0  502  0.43286074013E+03  0.10296095853E+04 -0.13305709898E+04  0.17372056550E+04  0.10100000352E+00 0. -1.
</event>
<event>
 5   0  0.1840359E-07  0.3112739E+04  0.7818609E-02  0.8212250E-01
        1   -1    0    0  501    0  0.00000000000E+00  0.00000000000E+00  0.19222127626E+04  0.19222127626E+04  0.50400001928E-02 0. -1.
       -1   -1    0    0    0  501  0.00000000000E+00  0.00000000000E+00 -0.12601553386E+04  0.12601553387E+04  0.50400001928E-02 0.  1.
    10030    2    1    2    0    0  0.00000000000E+00  0.00000000000E+00  0.66205742391E+03  0.31823681012E+04  0.31127394204E+04 0.  0.
        1    1    3    3  502    0 -0.13379003651E+04 -0.70581396525E+03  0.70546697010E+03  0.16690818992E+04  0.50400001928E-02 0.  1.
       -1    1    3    3    0  502  0.13379003651E+04  0.70581396525E+03 -0.43409546199E+02  0.15132862020E+04  0.50400001928E-02 0. -1.
</event>
<event>
 5   0  0.5248309E-07  0.3111018E+04  0.7818609E-02  0.8212721E-01
        2   -1    0    0  501    0  0.00000000000E+00  0.00000000000E+00  0.15588224696E+04  0.15588224696E+04  0.25500000920E-02 0.  1.
       -2   -1    0    0    0  501  0.00000000000E+00  0.00000000000E+00 -0.15522025415E+04  0.15522025416E+04  0.25500000920E-02 0. -1.
    10030    2    1    2    0    0  0.00000000000E+00  0.00000000000E+00  0.66199280139E+01  0.31110250111E+04  0.31110179679E+04 0.  0.
        4    1    3    3  502    0 -0.85061764871E+03 -0.75803263510E+03 -0.10556743625E+04  0.15532591003E+04  0.12699999809E+01 0. -1.
       -4    1    3    3    0  502  0.85061764871E+03  0.75803263510E+03  0.10622942905E+04  0.15577659108E+04  0.12699999809E+01 0.  1.
</event>
<event>
 5   0  0.5154105E-07  0.3104466E+04  0.7818609E-02  0.8214513E-01
        2   -1    0    0  501    0  0.00000000000E+00  0.00000000000E+00  0.22151512767E+04  0.22151512767E+04  0.25500000920E-02 0. -1.
       -2   -1    0    0    0  501  0.00000000000E+00  0.00000000000E+00 -0.10877031818E+04  0.10877031818E+04  0.25500000920E-02 0.  1.
    10030    2    1    2    0    0  0.00000000000E+00  0.00000000000E+00  0.11274480949E+04  0.33028544584E+04  0.31044658746E+04 0.  0.
        1    1    3    3  502    0  0.12642073707E+04 -0.15650235105E+03  0.15073740357E+04  0.19735475027E+04  0.50400001928E-02 0. -1.
       -1    1    3    3    0  502 -0.12642073707E+04  0.15650235105E+03 -0.37992594076E+03  0.13293069557E+04  0.50400001928E-02 0.  1.
</event>
<event>
 5   0  0.5342534E-07  0.3101610E+04  0.7818609E-02  0.8215296E-01
       -2   -1    0    0    0  501  0.00000000000E+00  0.00000000000E+00  0.10980253728E+04  0.10980253728E+04  0.25500000920E-02 0. -1.
        2   -1    0    0  501    0  0.00000000000E+00  0.00000000000E+00 -0.21902913077E+04  0.21902913077E+04  0.25500000920E-02 0.  1.
    10030    2    1    2    0    0  0.00000000000E+00  0.00000000000E+00 -0.10922659349E+04  0.32883166805E+04  0.31016095368E+04 0.  0.
        3    1    3    3  502    0  0.75806589955E+03  0.67551602448E+03 -0.17888761735E+04  0.20569549781E+04  0.10100000352E+00 0.  1.
       -3    1    3    3    0  502 -0.75806589955E+03 -0.67551602448E+03  0.69661023866E+03  0.12313617024E+04  0.10100000352E+00 0. -1.
</event>
<event>
 5   0  0.1814075E-07  0.3101174E+04  0.7818609E-02  0.8215416E-01
       -1   -1    0    0    0  501  0.00000000000E+00  0.00000000000E+00  0.11663351669E+04  0.11663351669E+04  0.50400001928E-02 0. -1.
        1   -1    0    0  501    0  0.00000000000E+00  0.00000000000E+00 -0.20614310586E+04  0.20614310586E+04  0.50400001928E-02 0.  1.
    10030    2    1    2    0    0  0.00000000000E+00  0.00000000000E+00 -0.89509589170E+03  0.32277662256E+04  0.31011736732E+04 0.  0.
        5    1    3    3  502    0 -0.12681825558E+04  0.11303822918E+03 -0.13686789937E+04  0.18693231165E+04  0.46999998093E+01 0.  1.
       -5    1    3    3    0  502  0.12681825558E+04 -0.11303822918E+03  0.47358310202E+03  0.13584431091E+04  0.46999998093E+01 0. -1.
</event>
<event>
 5   0  0.1845123E-07  0.3101694E+04  0.7818609E-02  0.8215273E-01
        1   -1    0    0  501    0  0.00000000000E+00  0.00000000000E+00  0.13085764565E+04  0.13085764565E+04  0.50400001928E-02 0.  1.
       -1   -1    0    0    0  501  0.00000000000E+00  0.00000000000E+00 -0.18379718432E+04  0.18379718432E+04  0.50400001928E-02 0. -1.
    10030    2    1    2    0    0  0.00000000000E+00  0.00000000000E+00 -0.52939538664E+03  0.31465482997E+04  0.31016941705E+04 0.  0.
        2    1    3    3  502    0  0.23958254060E+03 -0.49862671189E+03 -0.17344759429E+04  0.18205590318E+04  0.25500000920E-02 0. -1.
       -2    1    3    3    0  502 -0.23958254060E+03  0.49862671189E+03  0.12050805563E+04  0.13259892679E+04  0.25500000920E-02 0.  1.
</event>
<event>
 5   0  0.1840359E-07  0.3094875E+04  0.7818609E-02  0.8217146E-01
        1   -1    0    0  501    0  0.00000000000E+00  0.00000000000E+00  0.10789863281E+04  0.10789863281E+04  0.50400001928E-02 0.  1.
       -1   -1    0    0    0  501  0.00000000000E+00  0.00000000000E+00 -0.22192711549E+04  0.22192711549E+04  0.50400001928E-02 0. -1.
    10030    2    1    2    0    0  0.00000000000E+00  0.00000000000E+00 -0.11402848268E+04  0.32982574830E+04  0.30948752701E+04 0.  0.
        1    1    3    3  502    0  0.90947926057E+03 -0.56424148353E+03  0.62090752630E+03  0.12373548939E+04  0.50400001928E-02 0.  1.
       -1    1    3    3    0  502 -0.90947926057E+03  0.56424148353E+03 -0.17611923531E+04  0.20609025891E+04  0.50400001928E-02 0. -1.
</event>
<event>
 5   0  0.5055900E-07  0.3097647E+04  0.7818609E-02  0.8216384E-01
       -2   -1    0    0    0  501  0.00000000000E+00  0.00000000000E+00  0.21146981085E+04  0.21146981085E+04  0.25500000920E-02 0. -1.
        2   -1    0    0  501    0  0.00000000000E+00  0.00000000000E+00 -0.11343721967E+04  0.11343721967E+04  0.25500000920E-02 0.  1.
    10030    2    1    2    0    0  0.00000000000E+00  0.00000000000E+00  0.98032591178E+03  0.32490703053E+04  0.30976473258E+04 0.  0.
        2    1    3    3  502    0  0.68546927147E+03 -0.42602713723E+03 -0.89638270619E+03  0.12061795885E+04  0.25500000920E-02 0.  1.
       -2    1    3    3    0  502 -0.68546927147E+03  0.42602713723E+03  0.18767086180E+04  0.20428907167E+04  0.25500000920E-02 0. -1.
</event>
<event>
 5   0  0.5248309E-07  0.3097307E+04  0.7818609E-02  0.8216477E-01
       -2   -1    0    0    0  501  0.00000000000E+00  0.00000000000E+00  0.21521631851E+04  0.21521631852E+04  0.25500000920E-02 0.  1.
        2   -1    0    0  501    0  0.00000000000E+00  0.00000000000E+00 -0.11143801713E+04  0.11143801713E+04  0.25500000920E-02 0. -1.
    10030    2    1    2    0    0  0.00000000000E+00  0.00000000000E+00  0.10377830138E+04  0.32665433565E+04  0.30973072040E+04 0.  0.
        4    1    3    3  502    0  0.14592228480E+04  0.17668066646E+03  0.10331611410E+04  0.17966554857E+04  0.12699999809E+01 0. -1.
       -4    1    3    3    0  502 -0.14592228480E+04 -0.17668066646E+03  0.46218728395E+01  0.14698878708E+04  0.12699999809E+01 0.  1.
</event>
<event>
 5   0  0.1845123E-07  0.3099667E+04  0.7818609E-02  0.8215829E-01
       -1   -1    0    0    0  501  0.00000000000E+00  0.00000000000E+00  0.13208677514E+04  0.13208677514E+04  0.50400001928E-02 0. -1.
        1   -1    0    0  501    0  0.00000000000E+00  0.00000000000E+00 -0.18184892464E+04  0.18184892464E+04  0.50400001928E-02 0.  1.
    10030    2    1    2    0    0  0.00000000000E+00  0.00000000000E+00 -0.49762149505E+03  0.31393569978E+04  0.30996669510E+04 0.  0.
        2    1    3    3  502    0 -0.11339671524E+04  0.72265559492E+03  0.53168726395E+03  0.14459612576E+04  0.25500000920E-02 0. -1.
       -2    1    3    3    0  502  0.11339671524E+04 -0.72265559492E+03 -0.10293087590E+04  0.16933957402E+04  0.25500000920E-02 0.  1.
</event>
<event>
 5   0  0.1814075E-07  0.3096340E+04  0.7818609E-02  0.8216743E-01
       -1   -1    0    0    0  501  0.00000000000E+00  0.00000000000E+00  0.13569622865E+04  0.13569622865E+04  0.50400001928E-02 0. -1.
        1   -1    0    0  501    0  0.00000000000E+00  0.00000000000E+00 -0.17663209796E+04  0.17663209796E+04  0.50400001928E-02 0.  1.
    10030    2    1    2    0    0  0.00000000000E+00  0.00000000000E+00 -0.40935869316E+03  0.31232832661E+04  0.30963403916E+04 0.  0.
        5    1    3    3  502    0  0.85024709360E+03 -0.12273912031E+04  0.20802577431E+03  0.15075497001E+04  0.46999998093E+01 0. -1.
       -5    1    3    3    0  502 -0.85024709360E+03  0.12273912031E+04 -0.61738446747E+03  0.16157335660E+04  0.46999998093E+01 0.  1.
</event>
<event>
 5   0  0.1845123E-07  0.3099764E+04  0.7818609E-02  0.8215803E-01
        1   -1    0    0  501    0  0.00000000000E+00  0.00000000000E+00  0.21987158583E+04  0.21987158583E+04  0.50400001928E-02 0.  1.
       -1   -1    0    0    0  501  0.00000000000E+00  0.00000000000E+00 -0.10925169622E+04  0.10925169622E+04  0.50400001928E-02 0. -1.
    10030    2    1    2    0    0  0.00000000000E+00  0.00000000000E+00  0.11061988961E+04  0.32912328204E+04  0.30997641008E+04 0.  0.
        2    1    3    3  502    0  0.36236475351E+03 -0.14981514438E+04  0.72551320214E+03  0.17035654873E+04  0.25500000920E-02 0.  1.
       -2    1    3    3    0  502 -0.36236475351E+03  0.14981514438E+04  0.38068569399E+03  0.15876673331E+04  0.25500000920E-02 0. -1.
</event>
<event>
 5   0  0.1727000E-07  0.3101354E+04  0.7818609E-02  0.8215367E-01
        3   -1    0    0  501    0  0.00000000000E+00  0.00000000000E+00  0.16066142199E+04  0.16066142231E+04  0.10100000352E+00 0. -1.
       -3   -1    0    0    0  501  0.00000000000E+00  0.00000000000E+00 -0.14966869953E+04  0.14966869987E+04  0.10100000352E+00 0.  1.
    10030    2    1    2    0    0  0.00000000000E+00  0.00000000000E+00  0.10992722460E+03  0.31033012219E+04  0.31013536527E+04 0.  0.
        3    1    3    3  502    0  0.54056051441E+02 -0.82141908468E+03  0.13699225002E+04  0.15982299697E+04  0.10100000352E+00 0. -1.
       -3    1    3    3    0  502 -0.54056051441E+02  0.82141908468E+03 -0.12599952756E+04  0.15050712521E+04  0.10100000352E+00 0.  1.
</event>
<event>
 5   0  0.5055900E-07  0.3090421E+04  0.7818609E-02  0.8218372E-01
        2   -1    0    0  501    0  0.00000000000E+00  0.00000000000E+00  0.81176250909E+03  0.81176250909E+03  0.25500000920E-02 0.  1.
       -2   -1    0    0    0  501  0.00000000000E+00  0.00000000000E+00 -0.29413477174E+04  0.29413477174E+04  0.25500000920E-02 0. -1.
    10030    2    1    2    0    0  0.00000000000E+00  0.00000000000E+00 -0.21295852084E+04  0.37531102265E+04  0.30904212031E+04 0.  0.
        2    1    3    3  502    0 -0.25459550708E+03 -0.13581675202E+04 -0.19046308499E+04  0.23530951021E+04  0.25500000920E-02 0. -1.
       -2    1    3    3    0  502  0.25459550708E+03  0.13581675202E+04 -0.22495435841E+03  0.14000151244E+04  0.25500000920E-02 0.  1.
</event>
<event>
 5   0  0.5342534E-07  0.3099052E+04  0.7818609E-02  0.8215998E-01
       -2   -1    0    0    0  501  0.00000000000E+00  0.00000000000E+00  0.10436212088E+04  0.10436212088E+04  0.25500000920E-02 0. -1.
        2   -1    0    0  501    0  0.00000000000E+00  0.00000000000E+00 -0.23006721965E+04  0.23006721965E+04  0.25500000920E-02 0.  1.
    10030    2    1    2    0    0  0.00000000000E+00  0.00000000000E+00 -0.12570509877E+04  0.33442934053E+04  0.30990516606E+04 0.  0.
        3    1    3    3  502    0  0.49425936550E+03 -0.19259425789E+01  0.95627236233E+03  0.10764538405E+04  0.10100000352E+00 0. -1.
       -3    1    3    3    0  502 -0.49425936550E+03  0.19259425789E+01 -0.22133233501E+04  0.22678395648E+04  0.10100000352E+00 0.  1.
</event>
<event>
 5   0  0.5055900E-07  0.3101958E+04  0.7818609E-02  0.8215201E-01
        2   -1    0    0  501    0  0.00000000000E+00  0.00000000000E+00  0.18804808478E+04  0.18804808478E+04  0.25500000920E-02 0. -1.
       -2   -1    0    0    0  501  0.00000000000E+00  0.00000000000E+00 -0.12792133666E+04  0.12792133666E+04  0.25500000920E-02 0.  1.
    10030    2    1    2    0    0  0.00000000000E+00  0.00000000000E+00  0.60126748118E+03  0.31596942143E+04  0.31019582435E+04 0.  0.
        2    1    3    3  502    0  0.54363458905E+03 -0.12951534393E+04 -0.36931247074E+03  0.14523610773E+04  0.25500000920E-02 0.  1.
       -2    1    3    3    0  502 -0.54363458905E+03  0.12951534393E+04  0.97057995193E+03  0.17073331370E+04  0.25500000920E-02 0. -1.
</event>
<event>
 5   0  0.1830902E-07  0.3100138E+04  0.7818609E-02  0.8215700E-01
       -1   -1    0    0    0  501  0.00000000000E+00  0.00000000000E+00  0.23647173918E+04  0.23647173918E+04  0.50400001928E-02 0.  1.
        1   -1    0    0  501    0  0.00000000000E+00  0.00000000000E+00 -0.10160683333E+04  0.10160683333E+04  0.50400001928E-02 0. -1.
    10030    2    1    2    0    0  0.00000000000E+00  0.00000000000E+00  0.13486490584E+04  0.33807857251E+04  0.31001383576E+04 0.  0.
        3    1    3    3  502    0  0.72658309627E+03  0.78001753039E+03 -0.55287693679E+03  0.12008427295E+04  0.10100000352E+00 0. -1.
       -3    1    3    3    0  502 -0.72658309627E+03 -0.78001753039E+03  0.19015259952E+04  0.21799429956E+04  0.10100000352E+00 0.  1.
</event>
<event>
 5   0  0.1814075E-07  0.3101049E+04  0.7818609E-02  0.8215450E-01
       -1   -1    0    0    0  501  0.00000000000E+00  0.00000000000E+00  0.18462677395E+04  0.18462677395E+04  0.50400001928E-02 0. -1.
        1   -1    0    0  501    0  0.00000000000E+00  0.00000000000E+00 -0.13021544001E+04  0.13021544001E+04  0.50400001928E-02 0.  1.
    10030    2    1    2    0    0  0.00000000000E+00  0.00000000000E+00  0.54411333934E+03  0.31484221396E+04  0.31010486361E+04 0.  0.
        5    1    3    3  502    0  0.86707631640E+03 -0.26228154616E+03  0.15496485058E+04  0.17950057185E+04  0.46999998093E+01 0. -1.
       -5    1    3    3    0  502 -0.86707631640E+03  0.26228154616E+03 -0.10055351665E+04  0.13534164211E+04  0.46999998093E+01 0.  1.
</event>
<event>
 5   0  0.5342534E-07  0.3099818E+04  0.7818609E-02  0.8215788E-01
        2   -1    0    0  501    0  0.00000000000E+00  0.00000000000E+00  0.17664763532E+04  0.17664763532E+04  0.25500000920E-02 0.  1.
       -2   -1    0    0    0  501  0.00000000000E+00  0.00000000000E+00 -0.13598921182E+04  0.13598921182E+04  0.25500000920E-02 0. -1.
    10030    2    1    2    0    0  0.00000000000E+00  0.00000000000E+00  0.40658423497E+03  0.31263684714E+04  0.30998175880E+04 0.  0.
        3    1    3    3  502    0 -0.53161842007E+03  0.14439633868E+04  0.39081164756E+03  0.15875711515E+04  0.10100000352E+00 0.  1.
       -3    1    3    3    0  502  0.53161842007E+03 -0.14439633868E+04  0.15772587410E+02  0.15387973199E+04  0.10100000352E+00 0. -1.
</event>
<event>
 5   0  0.1814075E-07  0.3101475E+04  0.7818609E-02  0.8215333E-01
        1   -1    0    0  501    0  0.00000000000E+00  0.00000000000E+00  0.11299979091E+04  0.11299979091E+04  0.50400001928E-02 0.  1.
       -1   -1    0    0    0  501  0.00000000000E+00  0.00000000000E+00 -0.21281344087E+04  0.21281344087E+04  0.50400001928E-02 0. -1.
    10030    2    1    2    0    0  0.00000000000E+00  0.00000000000E+00 -0.99813649955E+03  0.32581323178E+04  0.31014754116E+04 0.  0.
        5    1    3    3  502    0 -0.10512955779E+04  0.93547794232E+03  0.18531650490E+03  0.14194032795E+04  0.46999998093E+01 0.  1.
       -5    1    3    3    0  502  0.10512955779E+04 -0.93547794232E+03 -0.11834530045E+04  0.18387290384E+04  0.46999998093E+01 0. -1.
</event>
<event>
 5   0  0.1845123E-07  0.3088117E+04  0.7818609E-02  0.8219007E-01
        1   -1    0    0  501    0  0.00000000000E+00  0.00000000000E+00  0.23163867558E+04  0.23163867558E+04  0.50400001928E-02 0. -1.
       -1   -1    0    0    0  501  0.00000000000E+00  0.00000000000E+00 -0.10292395745E+04  0.10292395745E+04  0.50400001928E-02 0.  1.
    10030    2    1    2    0    0  0.00000000000E+00  0.00000000000E+00  0.12871471813E+04  0.33456263303E+04  0.30881171733E+04 0.  0.
        2    1    3    3  502    0  0.12314263356E+04  0.89163504155E+03  0.93567261941E+03  0.17851910593E+04  0.25500000920E-02 0. -1.
       -2    1    3    3    0  502 -0.12314263356E+04 -0.89163504155E+03  0.35147456185E+03  0.15604352710E+04  0.25500000920E-02 0.  1.
</event>
<event>
 5   0  0.5376678E-07  0.3096716E+04  0.7818609E-02  0.8216640E-01
       -2   -1    0    0    0  501  0.00000000000E+00  0.00000000000E+00  0.89278824667E+03  0.89278824667E+03  0.25500000920E-02 0.  1.
        2   -1    0    0  501    0  0.00000000000E+00  0.00000000000E+00 -0.26853089323E+04  0.26853089323E+04  0.25500000920E-02 0. -1.
    10030    2    1    2    0    0  0.00000000000E+00  0.00000000000E+00 -0.17925206857E+04  0.35780971790E+04  0.30967158433E+04 0.  0.
        5    1    3    3  502    0  0.36704085536E+03  0.11747529849E+03  0.83647814196E+03  0.92099794095E+03  0.46999998093E+01 0.  1.
       -5    1    3    3    0  502 -0.36704085536E+03 -0.11747529849E+03 -0.26289988276E+04  0.26570992381E+04  0.46999998093E+01 0. -1.
</event>
<event>
 5   0  0.1840359E-07  0.3089022E+04  0.7818609E-02  0.8218757E-01
       -1   -1    0    0    0  501  0.00000000000E+00  0.00000000000E+00  0.11543693110E+04  0.11543693110E+04  0.50400001928E-02 0.  1.
        1   -1    0    0  501    0  0.00000000000E+00  0.00000000000E+00 -0.20665093518E+04  0.20665093518E+04  0.50400001928E-02 0. -1.
    10030    2    1    2    0    0  0.00000000000E+00  0.00000000000E+00 -0.91214004079E+03  0.32208786629E+04  0.30890224840E+04 0.  0.
        1    1    3    3  502    0  0.52989780499E+02  0.10077029681E+04 -0.16752728354E+04  0.19557127248E+04  0.50400001928E-02 0. -1.
       -1    1    3    3    0  502 -0.52989780499E+02 -0.10077029681E+04  0.76313279459E+03  0.12651659381E+04  0.50400001928E-02 0.  1.
</event>
<event>
 5   0  0.5342534E-07  0.3102221E+04  0.7818609E-02  0.8215129E-01
        2   -1    0    0  501    0  0.00000000000E+00  0.00000000000E+00  0.24079843065E+04  0.24079843065E+04  0.25500000920E-02 0.  1.
       -2   -1    0    0    0  501  0.00000000000E+00  0.00000000000E+00 -0.99915285780E+03  0.99915285780E+03  0.25500000920E-02 0. -1.
    10030    2    1    2    0    0  0.00000000000E+00  0.00000000000E+00  0.14088314487E+04  0.34071371643E+04  0.31022213985E+04 0.  0.
        3    1    3    3  502    0 -0.34050068923E+03  0.14033445259E+04  0.82520208762E+02  0.14464183948E+04  0.10100000352E+00 0. -1.
       -3    1    3    3    0  502  0.34050068923E+03 -0.14033445259E+04  0.13263112399E+04  0.19607187695E+04  0.10100000352E+00 0.  1.
</event>
<event>
 5   0  0.5248309E-07  0.3129745E+04  0.7818609E-02  0.8207622E-01
       -2   -1    0    0    0  501  0.00000000000E+00  0.00000000000E+00  0.10318588958E+04  0.10318588958E+04  0.25500000920E-02 0.  1.
        2   -1    0    0  501    0  0.00000000000E+00  0.00000000000E+00 -0.23732176237E+04  0.23732176237E+04  0.25500000920E-02 0. -1.
    10030    2    1    2    0    0  0.00000000000E+00  0.00000000000E+00 -0.13413587279E+04  0.34050765194E+04  0.31297448564E+04 0.  0.
        4    1    3    3  502    0 -0.11168880510E+04  0.72296672852E+03  0.22563063264E+03  0.13494556697E+04  0.12699999809E+01 0.  1.
       -4    1    3    3    0  502  0.11168880510E+04 -0.72296672852E+03 -0.15669893605E+04  0.20556208498E+04  0.12699999809E+01 0. -1.
</event>
<event>
 5   0  0.5342534E-07  0.3098876E+04  0.7818609E-02  0.8216046E-01
        2   -1    0    0  501    0  0.00000000000E+00  0.00000000000E+00  0.16626681013E+04  0.16626681013E+04  0.25500000920E-02 0. -1.
       -2   -1    0    0    0  501  0.00000000000E+00  0.00000000000E+00 -0.14439193223E+04  0.14439193223E+04  0.25500000920E-02 0.  1.
    10030    2    1    2    0    0  0.00000000000E+00  0.00000000000E+00  0.21874877904E+03  0.31065874237E+04  0.30988763113E+04 0.  0.
        3    1    3    3  502    0  0.13405893640E+04 -0.76098493219E+03 -0.47477971109E+02  0.15422490323E+04  0.10100000352E+00 0.  1.
       -3    1    3    3    0  502 -0.13405893640E+04  0.76098493219E+03  0.26622675015E+03  0.15643383913E+04  0.10100000352E+00 0. -1.
</event>
<event>
 5   0  0.1845123E-07  0.3053781E+04  0.7818609E-02  0.8228538E-01
       -1   -1    0    0    0  501  0.00000000000E+00  0.00000000000E+00  0.99993757798E+03  0.99993757799E+03  0.50400001928E-02 0. -1.
        1   -1    0    0  501    0  0.00000000000E+00  0.00000000000E+00 -0.23315401422E+04  0.23315401422E+04  0.50400001928E-02 0.  1.
    10030    2    1    2    0    0  0.00000000000E+00  0.00000000000E+00 -0.13316025642E+04  0.33314777202E+04  0.30537810025E+04 0.  0.
        2    1    3    3  502    0 -0.72454214503E+03 -0.41736900169E+03  0.72796692404E+03  0.11086451398E+04  0.25500000920E-02 0. -1.
       -2    1    3    3    0  502  0.72454214503E+03  0.41736900169E+03 -0.20595694883E+04  0.22228325804E+04  0.25500000920E-02 0.  1.
</event>
<event>
 5   0  0.5248309E-07  0.3093368E+04  0.7818609E-02  0.8217560E-01
       -2   -1    0    0    0  501  0.00000000000E+00  0.00000000000E+00  0.23783241178E+04  0.23783241178E+04  0.25500000920E-02 0. -1.
        2   -1    0    0  501    0  0.00000000000E+00  0.00000000000E+00 -0.10058472833E+04  0.10058472833E+04  0.25500000920E-02 0.  1.
    10030    2    1    2    0    0  0.00000000000E+00  0.00000000000E+00  0.13724768346E+04  0.33841714011E+04  0.30933676488E+04 0.  0.
        4    1    3    3  502    0 -0.15105380638E+04 -0.31700220522E+03  0.57676317371E+03  0.16476871705E+04  0.12699999809E+01 0.  1.
       -4    1    3    3    0  502  0.15105380638E+04  0.31700220522E+03  0.79571366084E+03  0.17364842306E+04  0.12699999809E+01 0. -1.
</event>
<event>
 5   0  0.1814075E-07  0.3099865E+04  0.7818609E-02  0.8215775E-01
        1   -1    0    0  501    0  0.00000000000E+00  0.00000000000E+00  0.22430124433E+04  0.22430124433E+04  0.50400001928E-02 0. -1.
       -1   -1    0    0    0  501  0.00000000000E+00  0.00000000000E+00 -0.10710111136E+04  0.10710111136E+04  0.50400001928E-02 0.  1.
    10030    2    1    2    0    0  0.00000000000E+00  0.00000000000E+00  0.11720013297E+04  0.33140235569E+04  0.30998653227E+04 0.  0.
        5    1    3    3  502    0  0.30811451140E+03  0.83109655485E+03  0.19453022274E+04  0.21377275040E+04  0.46999998093E+01 0. -1.
       -5    1    3    3    0  502 -0.30811451140E+03 -0.83109655485E+03 -0.77330089771E+03  0.11762960529E+04  0.46999998093E+01 0.  1.
</event>
<event>
 5   0  0.1727000E-07  0.3104544E+04  0.7818609E-02  0.8214492E-01
        4   -1    0    0  501    0  0.00000000000E+00  0.00000000000E+00  0.20947536433E+04  0.20947540283E+04  0.12699999809E+01 0.  1.
       -4   -1    0    0    0  501  0.00000000000E+00  0.00000000000E+00 -0.11502771742E+04  0.11502778753E+04  0.12699999809E+01 0. -1.
    10030    2    1    2    0    0  0.00000000000E+00  0.00000000000E+00  0.94447646906E+03  0.32450319036E+04  0.31045444521E+04 0.  0.
        3    1    3    3  502    0  0.14649941650E+04  0.13643244555E+03  0.98932370103E+03  0.17730152597E+04  0.10100000352E+00 0. -1.
       -3    1    3    3    0  502 -0.14649941650E+04 -0.13643244555E+03 -0.44847231964E+02  0.14720166439E+04  0.10100000352E+00 0.  1.
</event>
<event>
 5   0  0.1727000E-07  0.3100591E+04  0.7818609E-02  0.8215576E-01
        3   -1    0    0  501    0  0.00000000000E+00  0.00000000000E+00  0.26165595107E+04  0.26165595127E+04  0.10100000352E+00 0. -1.
       -3   -1    0    0    0  501  0.00000000000E+00  0.00000000000E+00 -0.91854042214E+03  0.91854042770E+03  0.10100000352E+00 0.  1.
    10030    2    1    2    0    0  0.00000000000E+00  0.00000000000E+00  0.16980190886E+04  0.35350999404E+04  0.31005907120E+04 0.  0.
        4    1    3    3  502    0  0.33071823080E+03 -0.30868571156E+03 -0.84160828017E+03  0.95549334213E+03  0.12699999809E+01 0.  1.
       -4    1    3    3    0  502 -0.33071823080E+03  0.30868571156E+03  0.25396273687E+04  0.25796065982E+04  0.12699999809E+01 0. -1.
</event>
<event>
 5   0  0.1845123E-07  0.3102508E+04  0.7818609E-02  0.8215050E-01
       -1   -1    0    0    0  501  0.00000000000E+00  0.00000000000E+00  0.10086587544E+04  0.10086587544E+04  0.50400001928E-02 0. -1.
        1   -1    0    0  501    0  0.00000000000E+00  0.00000000000E+00 -0.23857314778E+04  0.23857314778E+04  0.50400001928E-02 0.  1.
    10030    2    1    2    0    0  0.00000000000E+00  0.00000000000E+00 -0.13770727233E+04  0.33943902322E+04  0.31025079796E+04 0.  0.
        2    1    3    3  502    0 -0.70064348169E+03 -0.40497432605E+03 -0.21364807448E+04  0.22846127607E+04  0.25500000920E-02 0.  1.
       -2    1    3    3    0  502  0.70064348169E+03  0.40497432605E+03  0.75940802151E+03  0.11097774715E+04  0.25500000920E-02 0. -1.
</event>
<event>
 5   0  0.1830902E-07  0.3103853E+04  0.7818609E-02  0.8214681E-01
        1   -1    0    0  501    0  0.00000000000E+00  0.00000000000E+00  0.17411314426E+04  0.17411314426E+04  0.50400001928E-02 0. -1.
       -1   -1    0    0    0  501  0.00000000000E+00  0.00000000000E+00 -0.13832823025E+04  0.13832823025E+04  0.50400001928E-02 0.  1.
    10030    2    1    2    0    0  0.00000000000E+00  0.00000000000E+00  0.35784914009E+03  0.31244137451E+04  0.31038532896E+04 0.  0.
        3    1    3    3  502    0 -0.54542983669E+03  0.44098172227E+03  0.15724784777E+04  0.17218150769E+04  0.10100000352E+00 0. -1.
       -3    1    3    3    0  502  0.54542983669E+03 -0.44098172227E+03 -0.12146293376E+04  0.14025986682E+04  0.10100000352E+00 0.  1.
</event>
<event>
 5   0  0.1814075E-07  0.3096919E+04  0.7818609E-02  0.8216584E-01
        1   -1    0    0  501    0  0.00000000000E+00  0.00000000000E+00  0.16161026004E+04  0.16161026004E+04  0.50400001928E-02 0. -1.
       -1   -1    0    0    0  501  0.00000000000E+00  0.00000000000E+00 -0.14836472862E+04  0.14836472862E+04  0.50400001928E-02 0.  1.
    10030    2    1    2    0    0  0.00000000000E+00  0.00000000000E+00  0.13245531418E+03  0.30997498867E+04  0.30969186217E+04 0.  0.
        5    1    3    3  502    0  0.75844714540E+03 -0.37835341878E+02  0.14169170104E+04  0.16075912073E+04  0.46999998093E+01 0. -1.
       -5    1    3    3    0  502 -0.75844714540E+03  0.37835341878E+02 -0.12844616962E+04  0.14921586794E+04  0.46999998093E+01 0.  1.
</event>
<event>
 5   0  0.5376678E-07  0.3099774E+04  0.7818609E-02  0.8215800E-01
        2   -1    0    0  501    0  0.00000000000E+00  0.00000000000E+00  0.32069033886E+04  0.32069033886E+04  0.25500000920E-02 0.  1.
       -2   -1    0    0    0  501  0.00000000000E+00  0.00000000000E+00 -0.74905580682E+03  0.74905580683E+03  0.25500000920E-02 0. -1.
    10030    2    1    2    0    0  0.00000000000E+00  0.00000000000E+00  0.24578475818E+04  0.39559591954E+04  0.30997739306E+04 0.  0.
        5    1    3    3  502    0  0.33901069568E+03  0.55647402566E+03  0.30235911847E+04  0.30930110467E+04  0.46999998093E+01 0.  1.
       -5    1    3    3    0  502 -0.33901069568E+03 -0.55647402566E+03 -0.56574360295E+03  0.86294814867E+03  0.46999998093E+01 0. -1.
</event>
<event>
 5   0  0.1840359E-07  0.3098947E+04  0.7818609E-02  0.8216027E-01
        1   -1    0    0  501    0  0.00000000000E+00  0.00000000000E+00  0.15506138969E+04  0.15506138969E+04  0.50400001928E-02 0.  1.
       -1   -1    0    0    0  501  0.00000000000E+00  0.00000000000E+00 -0.15483336471E+04  0.15483336471E+04  0.50400001928E-02 0. -1.
    10030    2    1    2    0    0  0.00000000000E+00  0.00000000000E+00  0.22802498109E+01  0.30989475439E+04  0.30989467050E+04 0.  0.
        1    1    3    3  502    0 -0.15411999733E+03  0.15376076994E+04 -0.11233791772E+03  0.15493902732E+04  0.50400001928E-02 0.  1.
       -1    1    3    3    0  502  0.15411999733E+03 -0.15376076994E+04  0.11461816753E+03  0.15495572707E+04  0.50400001928E-02 0. -1.
</event>
<event>
 5   0  0.1814075E-07  0.3086633E+04  0.7818609E-02  0.8219416E-01
       -1   -1    0    0    0  501  0.00000000000E+00  0.00000000000E+00  0.14027236291E+04  0.14027236291E+04  0.50400001928E-02 0.  1.
        1   -1    0    0  501    0  0.00000000000E+00  0.00000000000E+00 -0.16980006223E+04  0.16980006223E+04  0.50400001928E-02 0. -1.
    10030    2    1    2    0    0  0.00000000000E+00  0.00000000000E+00 -0.29527699321E+03  0.31007242515E+04  0.30866328549E+04 0.  0.
        5    1    3    3  502    0 -0.47911499018E+03  0.90557819734E+03  0.10118319967E+04  0.14399476118E+04  0.46999998093E+01 0.  1.
       -5    1    3    3    0  502  0.47911499018E+03 -0.90557819734E+03 -0.13071089899E+04  0.16607766396E+04  0.46999998093E+01 0. -1.
</event>
<event>
 5   0  0.1875284E-07  0.3097568E+04  0.7818609E-02  0.8216406E-01
        1   -1    0    0  501    0  0.00000000000E+00  0.00000000000E+00  0.16363850303E+04  0.16363850304E+04  0.50400001928E-02 0. -1.
       -1   -1    0    0    0  501  0.00000000000E+00  0.00000000000E+00 -0.14658727078E+04  0.14658727078E+04  0.50400001928E-02 0.  1.
    10030    2    1    2    0    0  0.00000000000E+00  0.00000000000E+00  0.17051232254E+03  0.31022577382E+04  0.30975681787E+04 0.  0.
        4    1    3    3  502    0 -0.54020080861E+03 -0.13926567204E+04  0.49504660180E+03  0.15736525682E+04  0.12699999809E+01 0. -1.
       -4    1    3    3    0  502  0.54020080861E+03  0.13926567204E+04 -0.32453427926E+03  0.15286051700E+04  0.12699999809E+01 0.  1.
</event>
<event>
 5   0  0.1845123E-07  0.3106363E+04  0.7818609E-02  0.8213994E-01
        1   -1    0    0  501    0  0.00000000000E+00  0.00000000000E+00  0.12074823171E+04  0.12074823171E+04  0.50400001928E-02 0. -1.
       -1   -1    0    0    0  501  0.00000000000E+00  0.00000000000E+00 -0.19978541242E+04  0.19978541242E+04  0.50400001928E-02 0.  1.
    10030    2    1    2    0    0  0.00000000000E+00  0.00000000000E+00 -0.79037180708E+03  0.32053364414E+04  0.31063634863E+04 0.  0.
        2    1    3    3  502    0 -0.11549439927E+04  0.27581376264E+03 -0.14282871579E+04  0.18574103110E+04  0.25500000920E-02 0.  1.
       -2    1    3    3    0  502  0.11549439927E+04 -0.27581376264E+03  0.63791535084E+03  0.13479261303E+04  0.25500000920E-02 0. -1.
</event>
<event>
 5   0  0.5055900E-07  0.3099057E+04  0.7818609E-02  0.8215997E-01
        2   -1    0    0  501    0  0.00000000000E+00  0.00000000000E+00  0.12443571233E+04  0.12443571233E+04  0.25500000920E-02 0. -1.
       -2   -1    0    0    0  501  0.00000000000E+00  0.00000000000E+00 -0.19295413884E+04  0.19295413884E+04  0.25500000920E-02 0.  1.
    10030    2    1    2    0    0  0.00000000000E+00  0.00000000000E+00 -0.68518426512E+03  0.31738985118E+04  0.30990569995E+04 0.  0.
        2    1    3    3  502    0 -0.99009501732E+03  0.10591789479E+04  0.21731943959E+03  0.14660750069E+04  0.25500000920E-02 0.  1.
       -2    1    3    3    0  502  0.99009501732E+03 -0.10591789479E+04 -0.90250370471E+03  0.17078235049E+04  0.25500000920E-02 0. -1.
</event>
<event>
 5   0  0.5342534E-07  0.3105317E+04  0.7818609E-02  0.8214280E-01
        2   -1    0    0  501    0  0.00000000000E+00  0.00000000000E+00  0.20581898606E+04  0.20581898606E+04  0.25500000920E-02 0. -1.
       -2   -1    0    0    0  501  0.00000000000E+00  0.00000000000E+00 -0.11712953384E+04  0.11712953384E+04  0.25500000920E-02 0.  1.
    10030    2    1    2    0    0  0.00000000000E+00  0.00000000000E+00  0.88689452227E+03  0.32294851990E+04  0.31053168529E+04 0.  0.
        3    1    3    3  502    0  0.12910701660E+04  0.48342055682E+03  0.11862843717E+04  0.18187435853E+04  0.10100000352E+00 0. -1.
       -3    1    3    3    0  502 -0.12910701660E+04 -0.48342055682E+03 -0.29938984948E+03  0.14107416137E+04  0.10100000352E+00 0.  1.
</event>
<event>
 5   0  0.5248309E-07  0.3086777E+04  0.7818609E-02  0.8219376E-01
       -2   -1    0    0    0  501  0.00000000000E+00  0.00000000000E+00  0.16226300983E+04  0.16226300983E+04  0.25500000920E-02 0.  1.
        2   -1    0    0  501    0  0.00000000000E+00  0.00000000000E+00 -0.14680168925E+04  0.14680168925E+04  0.25500000920E-02 0. -1.
    10030    2    1    2    0    0  0.00000000000E+00  0.00000000000E+00  0.15461320584E+03  0.30906469908E+04  0.30867772155E+04 0.  0.
        4    1    3    3  502    0  0.16809548613E+03 -0.97077265925E+03  0.12668158153E+04  0.16048300755E+04  0.12699999809E+01 0.  1.
       -4    1    3    3    0  502 -0.16809548613E+03  0.97077265925E+03 -0.11122026094E+04  0.14858169153E+04  0.12699999809E+01 0. -1.
</event>
<event>
 5   0  0.1814075E-07  0.3098298E+04  0.7818609E-02  0.8216205E-01
       -1   -1    0    0    0  501  0.00000000000E+00  0.00000000000E+00  0.10386711315E+04  0.10386711315E+04  0.50400001928E-02 0. -1.
        1   -1    0    0  501    0  0.00000000000E+00  0.00000000000E+00 -0.23105119557E+04  0.23105119557E+04  0.50400001928E-02 0.  1.
    10030    2    1    2    0    0  0.00000000000E+00  0.00000000000E+00 -0.12718408242E+04  0.33491830872E+04  0.30982976405E+04 0.  0.
        5    1    3    3  502    0  0.12650465759E+04 -0.42093312806E+03 -0.14886670080E+04  0.19984191473E+04  0.46999998093E+01 0.  1.
       -5    1    3    3    0  502 -0.12650465759E+04  0.42093312806E+03  0.21682618382E+03  0.13507639399E+04  0.46999998093E+01 0. -1.
</event>
<event>
 5   0  0.5154105E-07  0.3103263E+04  0.7818609E-02  0.8214843E-01
       -2   -1    0    0    0  501  0.00000000000E+00  0.00000000000E+00  0.21786589780E+04  0.21786589780E+04  0.25500000920E-02 0.  1.
        2   -1    0    0  501    0  0.00000000000E+00  0.00000000000E+00 -0.11050655336E+04  0.11050655336E+04  0.25500000920E-02 0. -1.
    10030    2    1    2    0    0  0.00000000000E+00  0.00000000000E+00  0.10735934444E+04  0.32837245117E+04  0.31032634088E+04 0.  0.
        1    1    3    3  502    0 -0.23869884722E+03 -0.98235799208E+03 -0.70875052740E+03  0.12346382767E+04  0.50400001928E-02 0. -1.
       -1    1    3    3    0  502  0.23869884722E+03  0.98235799208E+03  0.17823439718E+04  0.20490862349E+04  0.50400001928E-02 0.  1.
</event>
<event>
 5   0  0.5376678E-07  0.3098544E+04  0.7818609E-02  0.8216138E-01
       -2   -1    0    0    0  501  0.00000000000E+00  0.00000000000E+00  0.99195061505E+03  0.99195061506E+03  0.25500000920E-02 0. -1.
        2   -1    0    0  501    0  0.00000000000E+00  0.00000000000E+00 -0.24197208683E+04  0.24197208683E+04  0.25500000920E-02 0.  1.
    10030    2    1    2    0    0  0.00000000000E+00  0.00000000000E+00 -0.14277702532E+04  0.34116714833E+04  0.30985439184E+04 0.  0.
        5    1    3    3  502    0  0.35020752190E+03 -0.44799618800E+03 -0.23006580952E+04  0.23698935955E+04  0.46999998093E+01 0.  1.
       -5    1    3    3    0  502 -0.35020752190E+03  0.44799618800E+03  0.87288784201E+03  0.10417778878E+04  0.46999998093E+01 0. -1.
</event>
<event>
 5   0  0.1875284E-07  0.3119003E+04  0.7818609E-02  0.8210542E-01
        1   -1    0    0  501    0  0.00000000000E+00  0.00000000000E+00  0.24571375477E+04  0.24571375477E+04  0.50400001928E-02 0. -1.
       -1   -1    0    0    0  501  0.00000000000E+00  0.00000000000E+00 -0.98978774319E+03  0.98978774321E+03  0.50400001928E-02 0.  1.
    10030    2    1    2    0    0  0.00000000000E+00  0.00000000000E+00  0.14673498045E+04  0.34469252909E+04  0.31190028074E+04 0.  0.
        4    1    3    3  502    0 -0.73936710657E+03  0.11191987440E+04 -0.14542905612E+03  0.13492296950E+04  0.12699999809E+01 0.  1.
       -4    1    3    3    0  502  0.73936710657E+03 -0.11191987440E+04  0.16127788607E+04  0.20976955959E+04  0.12699999809E+01 0. -1.
</event>
<event>
 5   0  0.1845123E-07  0.3106073E+04  0.7818609E-02  0.8214073E-01
       -1   -1    0    0    0  501  0.00000000000E+00  0.00000000000E+00  0.81982194954E+03  0.81982194956E+03  0.50400001928E-02 0.  1.
        1   -1    0    0  501    0  0.00000000000E+00  0.00000000000E+00 -0.29420070377E+04  0.29420070377E+04  0.50400001928E-02 0. -1.
    10030    2    1    2    0    0  0.00000000000E+00  0.00000000000E+00 -0.21221850881E+04  0.37618289872E+04  0.31060727263E+04 0.  0.
        2    1    3    3  502    0  0.57284061891E+03  0.13292182594E+04 -0.37924730302E+03  0.14962606968E+04  0.25500000920E-02 0.  1.
       -2    1    3    3    0  502 -0.57284061891E+03 -0.13292182594E+04 -0.17429377851E+04  0.22655682904E+04  0.25500000920E-02 0. -1.
</event>
<event>
 5   0  0.1845123E-07  0.3084887E+04  0.7818609E-02  0.8219898E-01
       -1   -1    0    0    0  501  0.00000000000E+00  0.00000000000E+00  0.10517504624E+04  0.10517504624E+04  0.50400001928E-02 0.  1.
        1   -1    0    0  501    0  0.00000000000E+00  0.00000000000E+00 -0.22620685944E+04  0.22620685945E+04  0.50400001928E-02 0. -1.
    10030    2    1    2    0    0  0.00000000000E+00  0.00000000000E+00 -0.12103181321E+04  0.33138190568E+04  0.30848868311E+04 0.  0.
        2    1    3    3  502    0 -0.12586243512E+04 -0.45216237049E+03 -0.14306575541E+04  0.19584093300E+04  0.25500000920E-02 0.  1.
       -2    1    3    3    0  502  0.12586243512E+04  0.45216237049E+03  0.22033942206E+03  0.13554097268E+04  0.25500000920E-02 0. -1.
</event>
<event>
 5   0  0.1830902E-07  0.3100421E+04  0.7818609E-02  0.8215622E-01
       -1   -1    0    0    0  501  0.00000000000E+00  0.00000000000E+00  0.84837963268E+03  0.84837963270E+03  0.50400001928E-02 0. -1.
        1   -1    0    0  501    0  0.00000000000E+00  0.00000000000E+00 -0.28326377123E+04  0.28326377123E+04  0.50400001928E-02 0.  1.
    10030    2    1    2    0    0  0.00000000000E+00  0.00000000000E+00 -0.19842580796E+04  0.36810173450E+04  0.31004207082E+04 0.  0.
        3    1    3    3  502    0  0.10770287800E+03 -0.93397994028E+03 -0.24555171652E+04  0.26293502995E+04  0.10100000352E+00 0.  1.
       -3    1    3    3    0  502 -0.10770287800E+03  0.93397994028E+03  0.47125908553E+03  0.10516670455E+04  0.10100000352E+00 0. -1.
</event>
<event>
 5   0  0.1845123E-07  0.3093495E+04  0.7818609E-02  0.8217526E-01
       -1   -1    0    0    0  501  0.00000000000E+00  0.00000000000E+00  0.14713176211E+04  0.14713176211E+04  0.50400001928E-02 0. -1.
        1   -1    0    0  501    0  0.00000000000E+00  0.00000000000E+00 -0.16260440071E+04  0.16260440071E+04  0.50400001928E-02 0.  1.
    10030    2    1    2    0    0  0.00000000000E+00  0.00000000000E+00 -0.15472638605E+03  0.30973616282E+04  0.30934945937E+04 0.  0.
        2    1    3    3  502    0 -0.87135367753E+03  0.91107441018E+03  0.81992300035E+03  0.15038575527E+04  0.25500000920E-02 0. -1.
       -2    1    3    3    0  502  0.87135367753E+03 -0.91107441018E+03 -0.97464938639E+03  0.15935040755E+04  0.25500000920E-02 0.  1.
</event>
<event>
 5   0  0.5055900E-07  0.3093694E+04  0.7818609E-02  0.8217471E-01
       -2   -1    0    0    0  501  0.00000000000E+00  0.00000000000E+00  0.13582069115E+04  0.13582069115E+04  0.25500000920E-02 0. -1.
        2   -1    0    0  501    0  0.00000000000E+00  0.00000000000E+00 -0.17616868326E+04  0.17616868326E+04  0.25500000920E-02 0.  1.
    10030    2    1    2    0    0  0.00000000000E+00  0.00000000000E+00 -0.40347992116E+03  0.31198937441E+04  0.30936937353E+04 0.  0.
        2    1    3    3  502    0  0.78746792384E+03  0.87396878658E+03  0.81116047364E+03  0.14289536329E+04  0.25500000920E-02 0. -1.
       -2    1    3    3    0  502 -0.78746792384E+03 -0.87396878658E+03 -0.12146403948E+04  0.16909401112E+04  0.25500000920E-02 0.  1.
</event>
<event>
 5   0  0.5055900E-07  0.3104879E+04  0.7818609E-02  0.8214400E-01
        2   -1    0    0  501    0  0.00000000000E+00  0.00000000000E+00  0.10235478016E+04  0.10235478016E+04  0.25500000920E-02 0.  1.
       -2   -1    0    0    0  501  0.00000000000E+00  0.00000000000E+00 -0.23546222934E+04  0.23546222934E+04  0.25500000920E-02 0. -1.
    10030    2    1    2    0    0  0.00000000000E+00  0.00000000000E+00 -0.13310744918E+04  0.33781700950E+04  0.31048790457E+04 0.  0.
        2    1    3    3  502    0  0.14527792390E+04  0.51928226646E+03 -0.47756820971E+03  0.16150210477E+04  0.25500000920E-02 0.  1.
       -2    1    3    3    0  502 -0.14527792390E+04 -0.51928226646E+03 -0.85350628210E+03  0.17631490473E+04  0.25500000920E-02 0. -1.
</event>
<event>
 5   0  0.5342534E-07  0.3105768E+04  0.7818609E-02  0.8214157E-01
       -2   -1    0    0    0  501  0.00000000000E+00  0.00000000000E+00  0.96861514773E+03  0.96861514773E+03  0.25500000920E-02 0. -1.
        2   -1    0    0  501    0  0.00000000000E+00  0.00000000000E+00 -0.24895839068E+04  0.24895839068E+04  0.25500000920E-02 0.  1.
    10030    2    1    2    0    0  0.00000000000E+00  0.00000000000E+00 -0.15209687590E+04  0.34581990545E+04  0.31057679782E+04 0.  0.
        3    1    3    3  502    0 -0.12608837922E+03  0.14475408030E+04 -0.13705393582E+04  0.19974110239E+04  0.10100000352E+00 0.  1.
       -3    1    3    3    0  502  0.12608837922E+03 -0.14475408030E+04 -0.15042940081E+03  0.14607880306E+04  0.10100000352E+00 0. -1.
</event>
<event>
 5   0  0.1840359E-07  0.3138851E+04  0.7818609E-02  0.8205156E-01
        1   -1    0    0  501    0  0.00000000000E+00  0.00000000000E+00  0.16386803580E+04  0.16386803580E+04  0.50400001928E-02 0.  1.
       -1   -1    0    0    0  501  0.00000000000E+00  0.00000000000E+00 -0.15030976093E+04  0.15030976094E+04  0.50400001928E-02 0. -1.
    10030    2    1    2    0    0  0.00000000000E+00  0.00000000000E+00  0.13558274866E+03  0.31417779674E+04  0.31388510819E+04 0.  0.
        1    1    3    3  502    0 -0.95729092684E+03 -0.76619841748E+03  0.10483121969E+04  0.16132031477E+04  0.50400001928E-02 0.  1.
       -1    1    3    3    0  502  0.95729092684E+03  0.76619841748E+03 -0.91272944825E+03  0.15285748197E+04  0.50400001928E-02 0. -1.
</event>
<event>
 5   0  0.1845123E-07  0.3117072E+04  0.7818609E-02  0.8211068E-01
       -1   -1    0    0    0  501  0.00000000000E+00  0.00000000000E+00  0.10358664103E+04  0.10358664103E+04  0.50400001928E-02 0. -1.
        1   -1    0    0  501    0  0.00000000000E+00  0.00000000000E+00 -0.23449297903E+04  0.23449297903E+04  0.50400001928E-02 0.  1.
    10030    2    1    2    0    0  0.00000000000E+00  0.00000000000E+00 -0.13090633800E+04  0.33807962006E+04  0.31170717054E+04 0.  0.
        2    1    3    3  502    0 -0.13092408105E+04  0.37965898465E+03 -0.14739528331E+04  0.20076825941E+04  0.25500000920E-02 0.  1.
       -2    1    3    3    0  502  0.13092408105E+04 -0.37965898465E+03  0.16488945305E+03  0.13731136065E+04  0.25500000920E-02 0. -1.
</event>
<event>
 5   0  0.1845123E-07  0.3090803E+04  0.7818609E-02  0.8218266E-01
       -1   -1    0    0    0  501  0.00000000000E+00  0.00000000000E+00  0.13598549366E+04  0.13598549366E+04  0.50400001928E-02 0. -1.
        1   -1    0    0  501    0  0.00000000000E+00  0.00000000000E+00 -0.17562652156E+04  0.17562652156E+04  0.50400001928E-02 0.  1.
    10030    2    1    2    0    0  0.00000000000E+00  0.00000000000E+00 -0.39641027900E+03  0.31161201522E+04  0.30908030823E+04 0.  0.
        2    1    3    3  502    0  0.15437090490E+04 -0.63906616475E+02 -0.16410144707E+03  0.15537216509E+04  0.25500000920E-02 0.  1.
       -2    1    3    3    0  502 -0.15437090490E+04  0.63906616475E+02 -0.23230883193E+03  0.15623985013E+04  0.25500000920E-02 0. -1.
</event>
<event>
 5   0  0.5342534E-07  0.3094880E+04  0.7818609E-02  0.8217144E-01
       -2   -1    0    0    0  501  0.00000000000E+00  0.00000000000E+00  0.74768622951E+03  0.74768622952E+03  0.25500000920E-02 0.  1.
        2   -1    0    0  501    0  0.00000000000E+00  0.00000000000E+00 -0.32026417756E+04  0.32026417756E+04  0.25500000920E-02 0. -1.
    10030    2    1    2    0    0  0.00000000000E+00  0.00000000000E+00 -0.24549555461E+04  0.39503280051E+04  0.30948803878E+04 0.  0.
        3    1    3    3  502    0 -0.12330594682E+04 -0.18933283849E+03 -0.23961320704E+04  0.27014313771E+04  0.10100000352E+00 0. -1.
       -3    1    3    3    0  502  0.12330594682E+04  0.18933283849E+03 -0.58823475634E+02  0.12488966280E+04  0.10100000352E+00 0.  1.
</event>
<event>
 5   0  0.5055900E-07  0.3102118E+04  0.7818609E-02  0.8215157E-01
       -2   -1    0    0    0  501  0.00000000000E+00  0.00000000000E+00  0.92927988885E+03  0.92927988886E+03  0.25500000920E-02 0. -1.
        2   -1    0    0  501    0  0.00000000000E+00  0.00000000000E+00 -0.25888686278E+04  0.25888686278E+04  0.25500000920E-02 0.  1.
    10030    2    1    2    0    0  0.00000000000E+00  0.00000000000E+00 -0.16595887389E+04  0.35181485166E+04  0.31021176965E+04 0.  0.
        2    1    3    3  502    0  0.12564752255E+04  0.23108166603E+03  0.16774378565E+03  0.12885133707E+04  0.25500000920E-02 0. -1.
       -2    1    3    3    0  502 -0.12564752255E+04 -0.23108166603E+03 -0.18273325246E+04  0.22296351460E+04  0.25500000920E-02 0.  1.
</event>
<event>
 5   0  0.5055900E-07  0.3084838E+04  0.7818609E-02  0.8219911E-01
        2   -1    0    0  501    0  0.00000000000E+00  0.00000000000E+00  0.27254779840E+04  0.27254779840E+04  0.25500000920E-02 0. -1.
       -2   -1    0    0    0  501  0.00000000000E+00  0.00000000000E+00 -0.87289531167E+03  0.87289531168E+03  0.25500000920E-02 0.  1.
    10030    2    1    2    0    0  0.00000000000E+00  0.00000000000E+00  0.18525826723E+04  0.35983732957E+04  0.30848383778E+04 0.  0.
        2    1    3    3  502    0 -0.22983288302E+03  0.10193446589E+04  0.22496933750E+04  0.24805255430E+04  0.25500000920E-02 0. -1.
       -2    1    3    3    0  502  0.22983288302E+03 -0.10193446589E+04 -0.39711070275E+03  0.11178477526E+04  0.25500000920E-02 0.  1.
</event>
<event>
 5   0  0.1875284E-07  0.3100599E+04  0.7818609E-02  0.8215574E-01
        1   -1    0    0  501    0  0.00000000000E+00  0.00000000000E+00  0.15728079862E+04  0.15728079862E+04  0.50400001928E-02 0. -1.
       -1   -1    0    0    0  501  0.00000000000E+00  0.00000000000E+00 -0.15281126513E+04  0.15281126513E+04  0.50400001928E-02 0.  1.
    10030    2    1    2    0    0  0.00000000000E+00  0.00000000000E+00  0.44695334940E+02  0.31009206375E+04  0.31005985111E+04 0.  0.
        4    1    3    3  502    0 -0.75131782217E+03  0.18801465144E+02  0.13784362534E+04  0.15700063958E+04  0.12699999809E+01 0. -1.
       -4    1    3    3    0  502  0.75131782217E+03 -0.18801465144E+02 -0.13337409185E+04  0.15309142418E+04  0.12699999809E+01 0.  1.
</event>
<event>
 5   0  0.1814075E-07  0.3103145E+04  0.7818609E-02  0.8214875E-01
       -1   -1    0    0    0  501  0.00000000000E+00  0.00000000000E+00  0.12168028604E+04  0.12168028604E+04  0.50400001928E-02 0. -1.
        1   -1    0    0  501    0  0.00000000000E+00  0.00000000000E+00 -0.19784453520E+04  0.19784453520E+04  0.50400001928E-02 0.  1.
    10030    2    1    2    0    0  0.00000000000E+00  0.00000000000E+00 -0.76164249165E+03  0.31952482124E+04  0.31031454774E+04 0.  0.
        5    1    3    3  502    0  0.57514578958E+03  0.11630652157E+04 -0.12568623894E+04  0.18064436141E+04  0.46999998093E+01 0.  1.
       -5    1    3    3    0  502 -0.57514578958E+03 -0.11630652157E+04  0.49521989771E+03  0.13888045983E+04  0.46999998093E+01 0. -1.
</event>
<event>
 5   0  0.5154105E-07  0.3078322E+04  0.7818609E-02  0.8221713E-01
       -2   -1    0    0    0  501  0.00000000000E+00  0.00000000000E+00  0.17428669506E+04  0.17428669506E+04  0.25500000920E-02 0. -1.
        2   -1    0    0  501    0  0.00000000000E+00  0.00000000000E+00 -0.13592640358E+04  0.13592640358E+04  0.25500000920E-02 0.  1.
    10030    2    1    2    0    0  0.00000000000E+00  0.00000000000E+00  0.38360291475E+03  0.31021309864E+04  0.30783218579E+04 0.  0.
        1    1    3    3  502    0  0.96208784796E+03  0.73755356294E+03  0.11475131786E+04  0.16692467704E+04  0.50400001928E-02 0. -1.
       -1    1    3    3    0  502 -0.96208784796E+03 -0.73755356294E+03 -0.76391026383E+03  0.14328842160E+04  0.50400001928E-02 0.  1.
</event>
<event>
 5   0  0.5342534E-07  0.3101017E+04  0.7818609E-02  0.8215459E-01
       -2   -1    0    0    0  501  0.00000000000E+00  0.00000000000E+00  0.15329834871E+04  0.15329834871E+04  0.25500000920E-02 0.  1.
        2   -1    0    0  501    0  0.00000000000E+00  0.00000000000E+00 -0.15682340359E+04  0.15682340359E+04  0.25500000920E-02 0. -1.
    10030    2    1    2    0    0  0.00000000000E+00  0.00000000000E+00 -0.35250548776E+02  0.31012175230E+04  0.31010171757E+04 0.  0.
        3    1    3    3  502    0 -0.24870415502E+03 -0.62605492792E+03  0.13789886138E+04  0.15347338977E+04  0.10100000352E+00 0.  1.
       -3    1    3    3    0  502  0.24870415502E+03  0.62605492792E+03 -0.14142391626E+04  0.15664836254E+04  0.10100000352E+00 0. -1.
</event>
<event>
 5   0  0.1845123E-07  0.3106735E+04  0.7818609E-02  0.8213892E-01
       -1   -1    0    0    0  501  0.00000000000E+00  0.00000000000E+00  0.31347772943E+04  0.31347772943E+04  0.50400001928E-02 0.  1.
        1   -1    0    0  501    0  0.00000000000E+00  0.00000000000E+00 -0.76973604328E+03  0.76973604329E+03  0.50400001928E-02 0. -1.
    10030    2    1    2    0    0  0.00000000000E+00  0.00000000000E+00  0.23650412510E+04  0.39045133376E+04  0.31067353097E+04 0.  0.
        2    1    3    3  502    0  0.38901977857E+02 -0.14689941104E+04  0.18152915404E+04  0.23355385754E+04  0.25500000920E-02 0.  1.
       -2    1    3    3    0  502 -0.38901977857E+02  0.14689941104E+04  0.54974971059E+03  0.15689747622E+04  0.25500000920E-02 0. -1.
</event>
<event>
 5   0  0.5342534E-07  0.3153312E+04  0.7818609E-02  0.8201257E-01
        2   -1    0    0  501    0  0.00000000000E+00  0.00000000000E+00  0.17207706043E+04  0.17207706043E+04  0.25500000920E-02 0.  1.
       -2   -1    0    0    0  501  0.00000000000E+00  0.00000000000E+00 -0.14446107354E+04  0.14446107354E+04  0.25500000920E-02 0. -1.
    10030    2    1    2    0    0  0.00000000000E+00  0.00000000000E+00  0.27615986888E+03  0.31653813397E+04  0.31533117119E+04 0.  0.
        3    1    3    3  502    0 -0.14613966831E+04 -0.22441471166E+03  0.68771698216E+03  0.16306430897E+04  0.10100000352E+00 0.  1.
       -3    1    3    3    0  502  0.14613966831E+04  0.22441471166E+03 -0.41155711328E+03  0.15347382500E+04  0.10100000352E+00 0. -1.
</event>
<event>
 5   0  0.5055900E-07  0.3100990E+04  0.7818609E-02  0.8215466E-01
        2   -1    0    0  501    0  0.00000000000E+00  0.00000000000E+00  0.20575314303E+04  0.20575314303E+04  0.25500000920E-02 0.  1.
       -2   -1    0    0    0  501  0.00000000000E+00  0.00000000000E+00 -0.11684070974E+04  0.11684070974E+04  0.25500000920E-02 0. -1.
    10030    2    1    2    0    0  0.00000000000E+00  0.00000000000E+00  0.88912433295E+03  0.32259385277E+04  0.31009897299E+04 0.  0.
        2    1    3    3  502    0 -0.12108728286E+04  0.96242021245E+03  0.33267064619E+03  0.15821300298E+04  0.25500000920E-02 0. -1.
       -2    1    3    3    0  502  0.12108728286E+04 -0.96242021245E+03  0.55645368676E+03  0.16438084979E+04  0.25500000920E-02 0.  1.
</event>
<event>
 5   0  0.5342534E-07  0.3122990E+04  0.7818609E-02  0.8209457E-01
        2   -1    0    0  501    0  0.00000000000E+00  0.00000000000E+00  0.24534521250E+04  0.24534521250E+04  0.25500000920E-02 0. -1.
       -2   -1    0    0    0  501  0.00000000000E+00  0.00000000000E+00 -0.99381054950E+03  0.99381054951E+03  0.25500000920E-02 0.  1.
    10030    2    1    2    0    0  0.00000000000E+00  0.00000000000E+00  0.14596415755E+04  0.34472626745E+04  0.31229899805E+04 0.  0.
        3    1    3    3  502    0  0.13904768630E+04 -0.30193664616E+03  0.19861577915E+02  0.14230200763E+04  0.10100000352E+00 0.  1.
       -3    1    3    3    0  502 -0.13904768630E+04  0.30193664616E+03  0.14397799976E+04  0.20242425983E+04  0.10100000352E+00 0. -1.
</event>
<event>
 5   0  0.1830902E-07  0.3102999E+04  0.7818609E-02  0.8214915E-01
       -1   -1    0    0    0  501  0.00000000000E+00  0.00000000000E+00  0.13598600585E+04  0.13598600585E+04  0.50400001928E-02 0. -1.
        1   -1    0    0  501    0  0.00000000000E+00  0.00000000000E+00 -0.17701453893E+04  0.17701453893E+04  0.50400001928E-02 0.  1.
    10030    2    1    2    0    0  0.00000000000E+00  0.00000000000E+00 -0.41028533080E+03  0.31300054478E+04  0.31029985580E+04 0.  0.
        3    1    3    3  502    0 -0.23056037245E+03  0.50113433805E+03 -0.16678866367E+04  0.17567411743E+04  0.10100000352E+00 0.  1.
       -3    1    3    3    0  502  0.23056037245E+03 -0.50113433805E+03  0.12576013059E+04  0.13732642736E+04  0.10100000352E+00 0. -1.
</event>
<event>
 5   0  0.1814075E-07  0.3105074E+04  0.7818609E-02  0.8214347E-01
        1   -1    0    0  501    0  0.00000000000E+00  0.00000000000E+00  0.21165268130E+04  0.21165268130E+04  0.50400001928E-02 0.  1.
       -1   -1    0    0    0  501  0.00000000000E+00  0.00000000000E+00 -0.11388330670E+04  0.11388330670E+04  0.50400001928E-02 0. -1.
    10030    2    1    2    0    0  0.00000000000E+00  0.00000000000E+00  0.97769374595E+03  0.32553598800E+04  0.31050737331E+04 0.  0.
        5    1    3    3  502    0 -0.48024685719E+03 -0.80778905090E+03  0.17844542228E+04  0.20167942776E+04  0.46999998093E+01 0.  1.
       -5    1    3    3    0  502  0.48024685719E+03  0.80778905090E+03 -0.80676047688E+03  0.12385656025E+04  0.46999998093E+01 0. -1.
</event>
<event>
 5   0  0.5154105E-07  0.3099904E+04  0.7818609E-02  0.8215764E-01
        2   -1    0    0  501    0  0.00000000000E+00  0.00000000000E+00  0.17347624087E+04  0.17347624087E+04  0.25500000920E-02 0. -1.
       -2   -1    0    0    0  501  0.00000000000E+00  0.00000000000E+00 -0.13848297411E+04  0.13848297411E+04  0.25500000920E-02 0.  1.
    10030    2    1    2    0    0  0.00000000000E+00  0.00000000000E+00  0.34993266757E+03  0.31195921498E+04  0.30999035968E+04 0.  0.
        1    1    3    3  502    0  0.13993178846E+04 -0.49593849497E+03 -0.27317655748E+03  0.15095267352E+04  0.50400001928E-02 0.  1.
       -1    1    3    3    0  502 -0.13993178846E+04  0.49593849497E+03  0.62310922506E+03  0.16100654146E+04  0.50400001928E-02 0. -1.
</event>
<event>
 5   0  0.1845123E-07  0.3098659E+04  0.7818609E-02  0.8216106E-01
        1   -1    0    0  501    0  0.00000000000E+00  0.00000000000E+00  0.16735638007E+04  0.16735638007E+04  0.50400001928E-02 0. -1.
       -1   -1    0    0    0  501  0.00000000000E+00  0.00000000000E+00 -0.14343173969E+04  0.14343173970E+04  0.50400001928E-02 0.  1.
    10030    2    1    2    0    0  0.00000000000E+00  0.00000000000E+00  0.23924640378E+03  0.31078811977E+04  0.30986588546E+04 0.  0.
        2    1    3    3  502    0 -0.66725444847E+03  0.13898975043E+04  0.27297726089E+03  0.15657458786E+04  0.25500000920E-02 0.  1.
       -2    1    3    3    0  502  0.66725444847E+03 -0.13898975043E+04 -0.33730857116E+02  0.15421353190E+04  0.25500000920E-02 0. -1.
</event>
<event>
 5   0  0.5055900E-07  0.3098213E+04  0.7818609E-02  0.8216229E-01
       -2   -1    0    0    0  501  0.00000000000E+00  0.00000000000E+00  0.19765346439E+04  0.19765346439E+04  0.25500000920E-02 0.  1.
        2   -1    0    0  501    0  0.00000000000E+00  0.00000000000E+00 -0.12141100068E+04  0.12141100068E+04  0.25500000920E-02 0. -1.
    10030    2    1    2    0    0  0.00000000000E+00  0.00000000000E+00  0.76242463704E+03  0.31906446507E+04  0.30982127041E+04 0.  0.
        2    1    3    3  502    0  0.95690961269E+03  0.60292508831E+03 -0.70892217190E+03  0.13348278222E+04  0.25500000920E-02 0. -1.
       -2    1    3    3    0  502 -0.95690961269E+03 -0.60292508831E+03  0.14713468089E+04  0.18558168286E+04  0.25500000920E-02 0.  1.
</event>
<event>
 5   0  0.1840359E-07  0.3069098E+04  0.7818609E-02  0.8224270E-01
        1   -1    0    0  501    0  0.00000000000E+00  0.00000000000E+00  0.18776270548E+04  0.18776270548E+04  0.50400001928E-02 0. -1.
       -1   -1    0    0    0  501  0.00000000000E+00  0.00000000000E+00 -0.12541581065E+04  0.12541581065E+04  0.50400001928E-02 0.  1.
    10030    2    1    2    0    0  0.00000000000E+00  0.00000000000E+00  0.62346894830E+03  0.31317851614E+04  0.30690983639E+04 0.  0.
        1    1    3    3  502    0  0.25071259577E+03  0.30511163205E+03 -0.12014191860E+04  0.12646572556E+04  0.50400001928E-02 0.  1.
       -1    1    3    3    0  502 -0.25071259577E+03 -0.30511163205E+03  0.18248881343E+04  0.18671279057E+04  0.50400001928E-02 0. -1.
</event>
<event>
 5   0  0.5248309E-07  0.3100777E+04  0.7818609E-02  0.8215525E-01
       -2   -1    0    0    0  501  0.00000000000E+00  0.00000000000E+00  0.16060978593E+04  0.16060978593E+04  0.25500000920E-02 0. -1.
        2   -1    0    0  501    0  0.00000000000E+00  0.00000000000E+00 -0.14966111724E+04  0.14966111724E+04  0.25500000920E-02 0.  1.
    10030    2    1    2    0    0  0.00000000000E+00  0.00000000000E+00  0.10948668695E+03  0.31027090317E+04  0.31007766770E+04 0.  0.
        4    1    3    3  502    0 -0.11208115368E+04  0.65623497510E+03 -0.79244805645E+03  0.15214592925E+04  0.12699999809E+01 0. -1.
       -4    1    3    3    0  502  0.11208115368E+04 -0.65623497510E+03  0.90193474339E+03  0.15812497392E+04  0.12699999809E+01 0.  1.
</event>
<event>
 5   0  0.1875284E-07  0.3101260E+04  0.7818609E-02  0.8215392E-01
        1   -1    0    0  501    0  0.00000000000E+00  0.00000000000E+00  0.20643848179E+04  0.20643848179E+04  0.50400001928E-02 0. -1.
       -1   -1    0    0    0  501  0.00000000000E+00  0.00000000000E+00 -0.11647315528E+04  0.11647315528E+04  0.50400001928E-02 0.  1.
    10030    2    1    2    0    0  0.00000000000E+00  0.00000000000E+00  0.89965326508E+03  0.32291163707E+04  0.31012604757E+04 0.  0.
        4    1    3    3  502    0  0.49728018821E+02 -0.10329664743E+04 -0.75321197195E+03  0.12793836409E+04  0.12699999809E+01 0.  1.
       -4    1    3    3    0  502 -0.49728018821E+02  0.10329664743E+04  0.16528652370E+04  0.19497327298E+04  0.12699999809E+01 0. -1.
</event>
<event>
 5   0  0.5376678E-07  0.3087295E+04  0.7818609E-02  0.8219233E-01
       -2   -1    0    0    0  501  0.00000000000E+00  0.00000000000E+00  0.14495068314E+04  0.14495068314E+04  0.25500000920E-02 0.  1.
        2   -1    0    0  501    0  0.00000000000E+00  0.00000000000E+00 -0.16439028188E+04  0.16439028188E+04  0.25500000920E-02 0. -1.
    10030    2    1    2    0    0  0.00000000000E+00  0.00000000000E+00 -0.19439598741E+03  0.30934096502E+04  0.30872954935E+04 0.  0.
        5    1    3    3  502    0  0.11895529639E+04 -0.98270772708E+03 -0.51549616504E+02  0.15438361907E+04  0.46999998093E+01 0.  1.
       -5    1    3    3    0  502 -0.11895529639E+04  0.98270772708E+03 -0.14284637091E+03  0.15495734595E+04  0.46999998093E+01 0. -1.
</event>
<event>
 5   0  0.1875284E-07  0.3126980E+04  0.7818609E-02  0.8208372E-01
        1   -1    0    0  501    0  0.00000000000E+00  0.00000000000E+00  0.16562364027E+04  0.16562364027E+04  0.50400001928E-02 0. -1.
       -1   -1    0    0    0  501  0.00000000000E+00  0.00000000000E+00 -0.14759370860E+04  0.14759370860E+04  0.50400001928E-02 0.  1.
    10030    2    1    2    0    0  0.00000000000E+00  0.00000000000E+00  0.18029931672E+03  0.31321734887E+04  0.31269798400E+04 0.  0.
        4    1    3    3  502    0 -0.65347870772E+03 -0.89311379388E+02  0.15100682814E+04  0.16478224332E+04  0.12699999809E+01 0. -1.
       -4    1    3    3    0  502  0.65347870772E+03  0.89311379388E+02 -0.13297689647E+04  0.14843510556E+04  0.12699999809E+01 0.  1.
</event>
<event>
 5   0  0.1814075E-07  0.3119486E+04  0.7818609E-02  0.8210410E-01
        1   -1    0    0  501    0  0.00000000000E+00  0.00000000000E+00  0.20297726024E+04  0.20297726024E+04  0.50400001928E-02 0.  1.
       -1   -1    0    0    0  501  0.00000000000E+00  0.00000000000E+00 -0.11985572583E+04  0.11985572583E+04  0.50400001928E-02 0. -1.
    10030    2    1    2    0    0  0.00000000000E+00  0.00000000000E+00  0.83121534413E+03  0.32283298607E+04  0.31194862944E+04 0.  0.
        5    1    3    3  502    0 -0.27817690070E+03 -0.23379493694E+01  0.20038842032E+04  0.20231069779E+04  0.46999998093E+01 0.  1.
       -5    1    3    3    0  502  0.27817690070E+03  0.23379493694E+01 -0.11726688591E+04  0.12052228828E+04  0.46999998093E+01 0. -1.
</event>
<event>
 5   0  0.5154105E-07  0.3087152E+04  0.7818609E-02  0.8219273E-01
       -2   -1    0    0    0  501  0.00000000000E+00  0.00000000000E+00  0.25799233788E+04  0.25799233788E+04  0.25500000920E-02 0. -1.
        2   -1    0    0  501    0  0.00000000000E+00  0.00000000000E+00 -0.92352598054E+03  0.92352598054E+03  0.25500000920E-02 0.  1.
    10030    2    1    2    0    0  0.00000000000E+00  0.00000000000E+00  0.16563973983E+04  0.35034493594E+04  0.30871516115E+04 0.  0.
        1    1    3    3  502    0  0.44504575925E+03  0.89941324255E+03 -0.50282734058E+03  0.11224282797E+04  0.50400001928E-02 0.  1.
       -1    1    3    3    0  502 -0.44504575925E+03 -0.89941324255E+03  0.21592247389E+04  0.23810210796E+04  0.50400001928E-02 0. -1.
</event>
<event>
 5   0  0.1830902E-07  0.3100646E+04  0.7818609E-02  0.8215561E-01
       -1   -1    0    0    0  501  0.00000000000E+00  0.00000000000E+00  0.11739463617E+04  0.11739463617E+04  0.50400001928E-02 0. -1.
        1   -1    0    0  501    0  0.00000000000E+00  0.00000000000E+00 -0.20473696271E+04  0.20473696271E+04  0.50400001928E-02 0.  1.
    10030    2    1    2    0    0  0.00000000000E+00  0.00000000000E+00 -0.87342326540E+03  0.32213159887E+04  0.31006464646E+04 0.  0.
        3    1    3    3  502    0 -0.11061116943E+04 -0.97540248835E+03 -0.93345006025E+03  0.17453429805E+04  0.10100000352E+00 0.  1.
       -3    1    3    3    0  502  0.11061116943E+04  0.97540248835E+03  0.60026794850E+02  0.14759730082E+04  0.10100000352E+00 0. -1.
</event>
<event>
 5   0  0.5154105E-07  0.3100158E+04  0.7818609E-02  0.8215695E-01
       -2   -1    0    0    0  501  0.00000000000E+00  0.00000000000E+00  0.12130733510E+04  0.12130733510E+04  0.25500000920E-02 0. -1.
        2   -1    0    0  501    0  0.00000000000E+00  0.00000000000E+00 -0.19807083071E+04  0.19807083071E+04  0.25500000920E-02 0.  1.
    10030    2    1    2    0    0  0.00000000000E+00  0.00000000000E+00 -0.76763495615E+03  0.31937816581E+04  0.31001577143E+04 0.  0.
        1    1    3    3  502    0  0.13510798437E+04  0.20649840483E+03  0.36948759583E+03  0.14158317056E+04  0.50400001928E-02 0. -1.
       -1    1    3    3    0  502 -0.13510798437E+04 -0.20649840483E+03 -0.11371225520E+04  0.17779499524E+04  0.50400001928E-02 0.  1.
</event>
<event>
 5   0  0.1830902E-07  0.3100789E+04  0.7818609E-02  0.8215521E-01
        1   -1    0    0  501    0  0.00000000000E+00  0.00000000000E+00  0.23390737092E+04  0.23390737092E+04  0.50400001928E-02 0.  1.
       -1   -1    0    0    0  501  0.00000000000E+00  0.00000000000E+00 -0.10276388799E+04  0.10276388799E+04  0.50400001928E-02 0. -1.
    10030    2    1    2    0    0  0.00000000000E+00  0.00000000000E+00  0.13114348293E+04  0.33667125891E+04  0.31007889877E+04 0.  0.
        3    1    3    3  502    0  0.14485869449E+04 -0.30440008327E+02  0.12547503395E+04  0.19166974607E+04  0.10100000352E+00 0.  1.
       -3    1    3    3    0  502 -0.14485869449E+04  0.30440008327E+02  0.56684489800E+02  0.14500151284E+04  0.10100000352E+00 0. -1.
</event>
<event>
 5   0  0.1814075E-07  0.3129570E+04  0.7818609E-02  0.8207669E-01
        1   -1    0    0  501    0  0.00000000000E+00  0.00000000000E+00  0.21198521064E+04  0.21198521064E+04  0.50400001928E-02 0.  1.
       -1   -1    0    0    0  501  0.00000000000E+00  0.00000000000E+00 -0.11550581614E+04  0.11550581614E+04  0.50400001928E-02 0. -1.
    10030    2    1    2    0    0  0.00000000000E+00  0.00000000000E+00  0.96479394492E+03  0.32749102678E+04  0.31295702430E+04 0.  0.
        5    1    3    3  502    0 -0.56702134585E+03  0.11808987292E+04  0.13780032799E+04  0.19013022234E+04  0.46999998093E+01 0.  1.
       -5    1    3    3    0  502  0.56702134585E+03 -0.11808987292E+04 -0.41320933495E+03  0.13736080444E+04  0.46999998093E+01 0. -1.
</event>
<event>
 5   0  0.5248309E-07  0.3023057E+04  0.7818609E-02  0.8237177E-01
        2   -1    0    0  501    0  0.00000000000E+00  0.00000000000E+00  0.12291569683E+04  0.12291569683E+04  0.25500000920E-02 0. -1.
       -2   -1    0    0    0  501  0.00000000000E+00  0.00000000000E+00 -0.18587692184E+04  0.18587692184E+04  0.25500000920E-02 0.  1.
    10030    2    1    2    0    0  0.00000000000E+00  0.00000000000E+00 -0.62961225003E+03  0.30879261867E+04  0.30230574836E+04 0.  0.
        4    1    3    3  502    0 -0.77449427104E+03  0.26757645403E+03  0.98259790926E+03  0.12794290910E+04  0.12699999809E+01 0. -1.
       -4    1    3    3    0  502  0.77449427104E+03 -0.26757645403E+03 -0.16122101593E+04  0.18084970957E+04  0.12699999809E+01 0.  1.
</event>
<event>
 5   0  0.5055900E-07  0.3106759E+04  0.7818609E-02  0.8213885E-01
       -2   -1    0    0    0  501  0.00000000000E+00  0.00000000000E+00  0.10824835249E+04  0.10824835249E+04  0.25500000920E-02 0.  1.
        2   -1    0    0  501    0  0.00000000000E+00  0.00000000000E+00 -0.22291220855E+04  0.22291220855E+04  0.25500000920E-02 0. -1.
    10030    2    1    2    0    0  0.00000000000E+00  0.00000000000E+00 -0.11466385606E+04  0.33116056104E+04  0.31067590396E+04 0.  0.
        2    1    3    3  502    0 -0.48841148111E+03 -0.14261203539E+04 -0.17359635714E+03  0.15173993323E+04  0.25500000920E-02 0. -1.
       -2    1    3    3    0  502  0.48841148111E+03  0.14261203539E+04 -0.97304220346E+03  0.17942062781E+04  0.25500000920E-02 0.  1.
</event>
<event>
 5   0  0.1875284E-07  0.3103138E+04  0.7818609E-02  0.8214877E-01
        1   -1    0    0  501    0  0.00000000000E+00  0.00000000000E+00  0.16146407972E+04  0.16146407972E+04  0.50400001928E-02 0.  1.
       -1   -1    0    0    0  501  0.00000000000E+00  0.00000000000E+00 -0.14909606833E+04  0.14909606833E+04  0.50400001928E-02 0. -1.
    10030    2    1    2    0    0  0.00000000000E+00  0.00000000000E+00  0.12368011392E+03  0.31056014805E+04  0.31031377322E+04 0.  0.
        4    1    3    3  502    0  0.19680081854E+03 -0.14546626776E+04  0.56482267560E+03  0.15728319477E+04  0.12699999809E+01 0.  1.
       -4    1    3    3    0  502 -0.19680081854E+03  0.14546626776E+04 -0.44114256168E+03  0.15327695328E+04  0.12699999809E+01 0. -1.
</event>
<event>
 5   0  0.5376678E-07  0.3101172E+04  0.7818609E-02  0.8215416E-01
       -2   -1    0    0    0  501  0.00000000000E+00  0.00000000000E+00  0.11263467564E+04  0.11263467564E+04  0.25500000920E-02 0. -1.
        2   -1    0    0  501    0  0.00000000000E+00  0.00000000000E+00 -0.21346151682E+04  0.21346151682E+04  0.25500000920E-02 0.  1.
    10030    2    1    2    0    0  0.00000000000E+00  0.00000000000E+00 -0.10082684118E+04  0.32609619247E+04  0.31011719533E+04 0.  0.
        5    1    3    3  502    0 -0.62748020691E+03  0.13379420299E+04 -0.10393357278E+02  0.14778194739E+04  0.46999998093E+01 0. -1.
       -5    1    3    3    0  502  0.62748020691E+03 -0.13379420299E+04 -0.99787505449E+03  0.17831424508E+04  0.46999998093E+01 0.  1.
</event>
<event>
 5   0  0.1840359E-07  0.3078171E+04  0.7818609E-02  0.8221754E-01
       -1   -1    0    0    0  501  0.00000000000E+00  0.00000000000E+00  0.14101888312E+04  0.14101888312E+04  0.50400001928E-02 0. -1.
        1   -1    0    0  501    0  0.00000000000E+00  0.00000000000E+00 -0.16797639639E+04  0.16797639639E+04  0.50400001928E-02 0.  1.
    10030    2    1    2    0    0  0.00000000000E+00  0.00000000000E+00 -0.26957513267E+03  0.30899527951E+04  0.30781711330E+04 0.  0.
        1    1    3    3  502    0 -0.27757880332E+02 -0.50055306531E+03  0.13259316531E+04  0.14175396361E+04  0.50400001928E-02 0. -1.
       -1    1    3    3    0  502  0.27757880332E+02  0.50055306531E+03 -0.15955067858E+04  0.16724131590E+04  0.50400001928E-02 0.  1.
</event>
<event>
 5   0  0.5248309E-07  0.3090535E+04  0.7818609E-02  0.8218340E-01
        2   -1    0    0  501    0  0.00000000000E+00  0.00000000000E+00  0.22631453485E+04  0.22631453485E+04  0.25500000920E-02 0.  1.
       -2   -1    0    0    0  501  0.00000000000E+00  0.00000000000E+00 -0.10551030711E+04  0.10551030711E+04  0.25500000920E-02 0. -1.
    10030    2    1    2    0    0  0.00000000000E+00  0.00000000000E+00  0.12080422774E+04  0.33182484197E+04  0.30905349748E+04 0.  0.
        4    1    3    3  502    0 -0.42529663667E+03 -0.14016416777E+04  0.11326096101E+04  0.18515622494E+04  0.12699999809E+01 0.  1.
       -4    1    3    3    0  502  0.42529663667E+03  0.14016416777E+04  0.75432667311E+02  0.14666861702E+04  0.12699999809E+01 0. -1.
</event>
<event>
 5   0  0.1845123E-07  0.3102782E+04  0.7818609E-02  0.8214975E-01
       -1   -1    0    0    0  501  0.00000000000E+00  0.00000000000E+00  0.11650177536E+04  0.11650177536E+04  0.50400001928E-02 0.  1.
        1   -1    0    0  501    0  0.00000000000E+00  0.00000000000E+00 -0.20659034195E+04  0.20659034195E+04  0.50400001928E-02 0. -1.
    10030    2    1    2    0    0  0.00000000000E+00  0.00000000000E+00 -0.90088566593E+03  0.32309211731E+04  0.31027820812E+04 0.  0.
        2    1    3    3  502    0  0.78212369482E+03  0.62740864698E+03  0.78227783709E+03  0.12717380622E+04  0.25500000920E-02 0.  1.
       -2    1    3    3    0  502 -0.78212369482E+03 -0.62740864698E+03 -0.16831635030E+04  0.19591831109E+04  0.25500000920E-02 0. -1.
</event>
<event>
 5   0  0.1845123E-07  0.3098662E+04  0.7818609E-02  0.8216105E-01
       -1   -1    0    0    0  501  0.00000000000E+00  0.00000000000E+00  0.12324431463E+04  0.12324431463E+04  0.50400001928E-02 0.  1.
        1   -1    0    0  501    0  0.00000000000E+00  0.00000000000E+00 -0.19476972858E+04  0.19476972858E+04  0.50400001928E-02 0. -1.
    10030    2    1    2    0    0  0.00000000000E+00  0.00000000000E+00 -0.71525413945E+03  0.31801404321E+04  0.30986617569E+04 0.  0.
        2    1    3    3  502    0  0.11178019266E+04  0.73612044102E+02  0.74080867434E+03  0.13430180089E+04  0.25500000920E-02 0.  1.
       -2    1    3    3    0  502 -0.11178019266E+04 -0.73612044102E+02 -0.14560628138E+04  0.18371224232E+04  0.25500000920E-02 0. -1.
</event>
<event>
 5   0  0.5055900E-07  0.3100806E+04  0.7818609E-02  0.8215517E-01
       -2   -1    0    0    0  501  0.00000000000E+00  0.00000000000E+00  0.13386595729E+04  0.13386595729E+04  0.25500000920E-02 0. -1.
        2   -1    0    0  501    0  0.00000000000E+00  0.00000000000E+00 -0.17956387187E+04  0.17956387187E+04  0.25500000920E-02 0.  1.
    10030    2    1    2    0    0  0.00000000000E+00  0.00000000000E+00 -0.45697914581E+03  0.31342982915E+04  0.31008056760E+04 0.  0.
        2    1    3    3  502    0 -0.55682215303E+02  0.70355923581E+03  0.11668749288E+04  0.13637056893E+04  0.25500000920E-02 0. -1.
       -2    1    3    3    0  502  0.55682215303E+02 -0.70355923581E+03 -0.16238540746E+04  0.17705926022E+04  0.25500000920E-02 0.  1.
</event>
<event>
 5   0  0.1814075E-07  0.3111391E+04  0.7818609E-02  0.8212619E-01
        1   -1    0    0  501    0  0.00000000000E+00  0.00000000000E+00  0.19147837860E+04  0.19147837860E+04  0.50400001928E-02 0. -1.
       -1   -1    0    0    0  501  0.00000000000E+00  0.00000000000E+00 -0.12639488194E+04  0.12639488194E+04  0.50400001928E-02 0.  1.
    10030    2    1    2    0    0  0.00000000000E+00  0.00000000000E+00  0.65083496668E+03  0.31787326054E+04  0.31113911395E+04 0.  0.
        5    1    3    3  502    0  0.96424747261E+03 -0.49028235434E+03 -0.81682230265E+03  0.13554964919E+04  0.46999998093E+01 0.  1.
       -5    1    3    3    0  502 -0.96424747261E+03  0.49028235434E+03  0.14676572693E+04  0.18232361135E+04  0.46999998093E+01 0. -1.
</event>
<event>
 5   0  0.1875284E-07  0.3101764E+04  0.7818609E-02  0.8215254E-01
        1   -1    0    0  501    0  0.00000000000E+00  0.00000000000E+00  0.86544113836E+03  0.86544113838E+03  0.50400001928E-02 0. -1.
       -1   -1    0    0    0  501  0.00000000000E+00  0.00000000000E+00 -0.27792013506E+04  0.27792013506E+04  0.50400001928E-02 0.  1.
    10030    2    1    2    0    0  0.00000000000E+00  0.00000000000E+00 -0.19137602123E+04  0.36446424890E+04  0.31017641307E+04 0.  0.
        4    1    3    3  502    0  0.41191208669E+03  0.14242103158E+04 -0.14917244301E+04  0.21031619003E+04  0.12699999809E+01 0.  1.
       -4    1    3    3    0  502 -0.41191208669E+03 -0.14242103158E+04 -0.42203578220E+03  0.15414805887E+04  0.12699999809E+01 0. -1.
</event>
<event>
 5   0  0.1814075E-07  0.3098217E+04  0.7818609E-02  0.8216227E-01
        1   -1    0    0  501    0  0.00000000000E+00  0.00000000000E+00  0.10508414694E+04  0.10508414694E+04  0.50400001928E-02 0. -1.
       -1   -1    0    0    0  501  0.00000000000E+00  0.00000000000E+00 -0.22836343753E+04  0.22836343753E+04  0.50400001928E-02 0.  1.
    10030    2    1    2    0    0  0.00000000000E+00  0.00000000000E+00 -0.12327929059E+04  0.33344758448E+04  0.30982173601E+04 0.  0.
        5    1    3    3  502    0 -0.14594696921E+04  0.75688015323E+02 -0.11693190159E+04  0.18716595601E+04  0.46999998093E+01 0.  1.
       -5    1    3    3    0  502  0.14594696921E+04 -0.75688015323E+02 -0.63473889946E+02  0.14628162847E+04  0.46999998093E+01 0. -1.
</event>
<event>
 5   0  0.5055900E-07  0.3098672E+04  0.7818609E-02  0.8216102E-01
       -2   -1    0    0    0  501  0.00000000000E+00  0.00000000000E+00  0.16579929327E+04  0.16579929327E+04  0.25500000920E-02 0. -1.
        2   -1    0    0  501    0  0.00000000000E+00  0.00000000000E+00 -0.14477998784E+04  0.14477998784E+04  0.25500000920E-02 0.  1.
    10030    2    1    2    0    0  0.00000000000E+00  0.00000000000E+00  0.21019305432E+03  0.31057928111E+04  0.30986719519E+04 0.  0.
        2    1    3    3  502    0  0.34495193023E+03  0.44377981050E+03 -0.13420044285E+04  0.14549598759E+04  0.25500000920E-02 0.  1.
       -2    1    3    3    0  502 -0.34495193023E+03 -0.44377981050E+03  0.15521974828E+04  0.16508329352E+04  0.25500000920E-02 0. -1.
</event>
<event>
 5   0  0.5055900E-07  0.3098306E+04  0.7818609E-02  0.8216203E-01
        2   -1    0    0  501    0  0.00000000000E+00  0.00000000000E+00  0.31226196437E+04  0.31226196437E+04  0.25500000920E-02 0. -1.
       -2   -1    0    0    0  501  0.00000000000E+00  0.00000000000E+00 -0.76854564429E+03  0.76854564429E+03  0.25500000920E-02 0.  1.
    10030    2    1    2    0    0  0.00000000000E+00  0.00000000000E+00  0.23540739994E+04  0.38911652880E+04  0.30983064573E+04 0.  0.
        2    1    3    3  502    0  0.10399527214E+04 -0.13363102677E+03  0.26092687339E+04  0.28120530294E+04  0.25500000920E-02 0. -1.
       -2    1    3    3    0  502 -0.10399527214E+04  0.13363102677E+03 -0.25519473457E+03  0.10791122586E+04  0.25500000920E-02 0.  1.
</event>
<event>
 5   0  0.1840359E-07  0.3101874E+04  0.7818609E-02  0.8215224E-01
        1   -1    0    0  501    0  0.00000000000E+00  0.00000000000E+00  0.15988005815E+04  0.15988005815E+04  0.50400001928E-02 0. -1.
       -1   -1    0    0    0  501  0.00000000000E+00  0.00000000000E+00 -0.15045067552E+04  0.15045067552E+04  0.50400001928E-02 0.  1.
    10030    2    1    2    0    0  0.00000000000E+00  0.00000000000E+00  0.94293826273E+02  0.31033073367E+04  0.31018744495E+04 0.  0.
        1    1    3    3  502    0 -0.46786827062E+03  0.12357674492E+04  0.85954687846E+03  0.15763383975E+04  0.50400001928E-02 0. -1.
       -1    1    3    3    0  502  0.46786827062E+03 -0.12357674492E+04 -0.76525305218E+03  0.15269689391E+04  0.50400001928E-02 0.  1.
</event>
<event>
 5   0  0.5342534E-07  0.3096292E+04  0.7818609E-02  0.8216756E-01
        2   -1    0    0  501    0  0.00000000000E+00  0.00000000000E+00  0.10180843337E+04  0.10180843337E+04  0.25500000920E-02 0.  1.
       -2   -1    0    0    0  501  0.00000000000E+00  0.00000000000E+00 -0.23541822201E+04  0.23541822201E+04  0.25500000920E-02 0. -1.
    10030    2    1    2    0    0  0.00000000000E+00  0.00000000000E+00 -0.13360978864E+04  0.33722665538E+04  0.30962919998E+04 0.  0.
        3    1    3    3  502    0  0.12343439805E+04  0.86038112065E+03 -0.27100846788E+03  0.15288251485E+04  0.10100000352E+00 0. -1.
       -3    1    3    3    0  502 -0.12343439805E+04 -0.86038112065E+03 -0.10650894185E+04  0.18434414052E+04  0.10100000352E+00 0.  1.
</event>
<event>
 5   0  0.5342534E-07  0.3104970E+04  0.7818609E-02  0.8214375E-01
       -2   -1    0    0    0  501  0.00000000000E+00  0.00000000000E+00  0.16130888251E+04  0.16130888251E+04  0.25500000920E-02 0. -1.
        2   -1    0    0  501    0  0.00000000000E+00  0.00000000000E+00 -0.14941585064E+04  0.14941585064E+04  0.25500000920E-02 0.  1.
    10030    2    1    2    0    0  0.00000000000E+00  0.00000000000E+00  0.11893031872E+03  0.31072473315E+04  0.31049704602E+04 0.  0.
        3    1    3    3  502    0  0.99510471916E+03  0.59832492760E+03  0.10907470477E+04  0.15930961218E+04  0.10100000352E+00 0. -1.
       -3    1    3    3    0  502 -0.99510471916E+03 -0.59832492760E+03 -0.97181672893E+03  0.15141512097E+04  0.10100000352E+00 0.  1.
</event>
<event>
 5   0  0.5248309E-07  0.3096612E+04  0.7818609E-02  0.8216668E-01
        2   -1    0    0  501    0  0.00000000000E+00  0.00000000000E+00  0.11386919773E+04  0.11386919773E+04  0.25500000920E-02 0. -1.
       -2   -1    0    0    0  501  0.00000000000E+00  0.00000000000E+00 -0.21052677670E+04  0.21052677670E+04  0.25500000920E-02 0.  1.
    10030    2    1    2    0    0  0.00000000000E+00  0.00000000000E+00 -0.96657578972E+03  0.32439597443E+04  0.30966120302E+04 0.  0.
        4    1    3    3  502    0 -0.75578165787E+03  0.76159034089E+01 -0.18988775484E+04  0.20437713847E+04  0.12699999809E+01 0.  1.
       -4    1    3    3    0  502  0.75578165787E+03 -0.76159034089E+01  0.93230175867E+03  0.12001883596E+04  0.12699999809E+01 0. -1.
</event>
<event>
 5   0  0.1875284E-07  0.3079739E+04  0.7818609E-02  0.8221320E-01
       -1   -1    0    0    0  501  0.00000000000E+00  0.00000000000E+00  0.11836961695E+04  0.11836961695E+04  0.50400001928E-02 0.  1.
        1   -1    0    0  501    0  0.00000000000E+00  0.00000000000E+00 -0.20032155758E+04  0.20032155758E+04  0.50400001928E-02 0. -1.
    10030    2    1    2    0    0  0.00000000000E+00  0.00000000000E+00 -0.81951940626E+03  0.31869117454E+04  0.30797393421E+04 0.  0.
        4    1    3    3  502    0  0.53147750007E+03  0.12122428750E+04 -0.12240328283E+04  0.18028474974E+04  0.12699999809E+01 0. -1.
       -4    1    3    3    0  502 -0.53147750007E+03 -0.12122428750E+04  0.40451342202E+03  0.13840642480E+04  0.12699999809E+01 0.  1.
</event>
<event>
 5   0  0.1875284E-07  0.3120633E+04  0.7818609E-02  0.8210098E-01
       -1   -1    0    0    0  501  0.00000000000E+00  0.00000000000E+00  0.19615133608E+04  0.19615133608E+04  0.50400001928E-02 0. -1.
        1   -1    0    0  501    0  0.00000000000E+00  0.00000000000E+00 -0.12411780081E+04  0.12411780082E+04  0.50400001928E-02 0.  1.
    10030    2    1    2    0    0  0.00000000000E+00  0.00000000000E+00  0.72033535263E+03  0.32026913689E+04  0.31206327859E+04 0.  0.
        4    1    3    3  502    0  0.26181068820E+02  0.14789588815E+04  0.86979424513E+03  0.17159686662E+04  0.12699999809E+01 0. -1.
       -4    1    3    3    0  502 -0.26181068820E+02 -0.14789588815E+04 -0.14945889250E+03  0.14867227028E+04  0.12699999809E+01 0.  1.
</event>
<event>
 5   0  0.5376678E-07  0.3034178E+04  0.7818609E-02  0.8234038E-01
        2   -1    0    0  501    0  0.00000000000E+00  0.00000000000E+00  0.23317735476E+04  0.23317735476E+04  0.25500000920E-02 0.  1.
       -2   -1    0    0    0  501  0.00000000000E+00  0.00000000000E+00 -0.98704241017E+03  0.98704241018E+03  0.25500000920E-02 0. -1.
    10030    2    1    2    0    0  0.00000000000E+00  0.00000000000E+00  0.13447311374E+04  0.33188159578E+04  0.30341782297E+04 0.  0.
        5    1    3    3  502    0  0.63636089049E+03 -0.48677294256E+03 -0.73675537902E+03  0.10884547115E+04  0.46999998093E+01 0. -1.
       -5    1    3    3    0  502 -0.63636089049E+03  0.48677294256E+03  0.20814865165E+04  0.22303612462E+04  0.46999998093E+01 0.  1.
</event>
<event>
 5   0  0.1875284E-07  0.3097376E+04  0.7818609E-02  0.8216458E-01
        1   -1    0    0  501    0  0.00000000000E+00  0.00000000000E+00  0.10579512532E+04  0.10579512532E+04  0.50400001928E-02 0. -1.
       -1   -1    0    0    0  501  0.00000000000E+00  0.00000000000E+00 -0.22670555008E+04  0.22670555008E+04  0.50400001928E-02 0.  1.
    10030    2    1    2    0    0  0.00000000000E+00  0.00000000000E+00 -0.12091042476E+04  0.33250067540E+04  0.30973757978E+04 0.  0.
        4    1    3    3  502    0 -0.49123448205E+03 -0.72798335790E+03  0.76479628825E+03  0.11645540181E+04  0.12699999809E+01 0. -1.
       -4    1    3    3    0  502  0.49123448205E+03  0.72798335790E+03 -0.19739005358E+04  0.21604527359E+04  0.12699999809E+01 0.  1.
</event>
<event>
 5   0  0.5342534E-07  0.3102541E+04  0.7818609E-02  0.8215041E-01
        2   -1    0    0  501    0  0.00000000000E+00  0.00000000000E+00  0.19047399025E+04  0.19047399025E+04  0.25500000920E-02 0. -1.
       -2   -1    0    0    0  501  0.00000000000E+00  0.00000000000E+00 -0.12633958947E+04  0.12633958947E+04  0.25500000920E-02 0.  1.
    10030    2    1    2    0    0  0.00000000000E+00  0.00000000000E+00  0.64134400775E+03  0.31681357972E+04  0.31025412638E+04 0.  0.
        3    1    3    3  502    0  0.14543099378E+04  0.43726558638E+03  0.64394371395E+03  0.16495096560E+04  0.10100000352E+00 0. -1.
       -3    1    3    3    0  502 -0.14543099378E+04 -0.43726558638E+03 -0.25997062045E+01  0.15186261412E+04  0.10100000352E+00 0.  1.
</event>
<event>
 5   0  0.5342534E-07  0.3091312E+04  0.7818609E-02  0.8218126E-01
       -2   -1    0    0    0  501  0.00000000000E+00  0.00000000000E+00  0.13288863371E+04  0.13288863371E+04  0.25500000920E-02 0. -1.
        2   -1    0    0  501    0  0.00000000000E+00  0.00000000000E+00 -0.17977857085E+04  0.17977857085E+04  0.25500000920E-02 0.  1.
    10030    2    1    2    0    0  0.00000000000E+00  0.00000000000E+00 -0.46889937132E+03  0.31266720456E+04  0.30913122554E+04 0.  0.
        3    1    3    3  502    0  0.11764122194E+04  0.11144078924E+03 -0.12421835709E+04  0.17144634127E+04  0.10100000352E+00 0.  1.
       -3    1    3    3    0  502 -0.11764122194E+04 -0.11144078924E+03  0.77328419955E+03  0.14122086329E+04  0.10100000352E+00 0. -1.
</event>
<event>
 5   0  0.1875284E-07  0.3098006E+04  0.7818609E-02  0.8216285E-01
       -1   -1    0    0    0  501  0.00000000000E+00  0.00000000000E+00  0.17127202692E+04  0.17127202693E+04  0.50400001928E-02 0. -1.
        1   -1    0    0  501    0  0.00000000000E+00  0.00000000000E+00 -0.14009354161E+04  0.14009354161E+04  0.50400001928E-02 0.  1.
    10030    2    1    2    0    0  0.00000000000E+00  0.00000000000E+00  0.31178485319E+03  0.31136556853E+04  0.30980061220E+04 0.  0.
        4    1    3    3  502    0  0.89572476996E+03  0.12201283857E+04  0.48675551477E+03  0.15899587055E+04  0.12699999809E+01 0. -1.
       -4    1    3    3    0  502 -0.89572476996E+03 -0.12201283857E+04 -0.17497066158E+03  0.15236969798E+04  0.12699999809E+01 0.  1.
</event>
<event>
 5   0  0.1830902E-07  0.3101466E+04  0.7818609E-02  0.8215336E-01
       -1   -1    0    0    0  501  0.00000000000E+00  0.00000000000E+00  0.10696892052E+04  0.10696892052E+04  0.50400001928E-02 0.  1.
        1   -1    0    0  501    0  0.00000000000E+00  0.00000000000E+00 -0.22481039365E+04  0.22481039365E+04  0.50400001928E-02 0. -1.
    10030    2    1    2    0    0  0.00000000000E+00  0.00000000000E+00 -0.11784147313E+04  0.33177931418E+04  0.31014657910E+04 0.  0.
        3    1    3    3  502    0 -0.97008536133E+03 -0.12036865834E+04 -0.45886674756E+03  0.16126021523E+04  0.10100000352E+00 0.  1.
       -3    1    3    3    0  502  0.97008536133E+03  0.12036865834E+04 -0.71954798377E+03  0.17051909895E+04  0.10100000352E+00 0. -1.
</event>
<event>
 5   0  0.1875284E-07  0.3101785E+04  0.7818609E-02  0.8215248E-01
       -1   -1    0    0    0  501  0.00000000000E+00  0.00000000000E+00  0.17658979615E+04  0.17658979615E+04  0.50400001928E-02 0.  1.
        1   -1    0    0  501    0  0.00000000000E+00  0.00000000000E+00 -0.13620651288E+04  0.13620651289E+04  0.50400001928E-02 0. -1.
    10030    2    1    2    0    0  0.00000000000E+00  0.00000000000E+00  0.40383283268E+03  0.31279630904E+04  0.31017853146E+04 0.  0.
        4    1    3    3  502    0 -0.10407875356E+04  0.54154974449E+03 -0.82091756128E+03  0.14319294939E+04  0.12699999809E+01 0. -1.
       -4    1    3    3    0  502  0.10407875356E+04 -0.54154974449E+03  0.12247503940E+04  0.16960335965E+04  0.12699999809E+01 0.  1.
</event>
<event>
 5   0  0.5376678E-07  0.3117012E+04  0.7818609E-02  0.8211085E-01
       -2   -1    0    0    0  501  0.00000000000E+00  0.00000000000E+00  0.12002991586E+04  0.12002991586E+04  0.25500000920E-02 0. -1.
        2   -1    0    0  501    0  0.00000000000E+00  0.00000000000E+00 -0.20236124164E+04  0.20236124164E+04  0.25500000920E-02 0.  1.
    10030    2    1    2    0    0  0.00000000000E+00  0.00000000000E+00 -0.82331325783E+03  0.32239115750E+04  0.31170115692E+04 0.  0.
        5    1    3    3  502    0 -0.42894064240E+03 -0.14391169902E+04 -0.84293486184E+03  0.17220943812E+04  0.46999998093E+01 0.  1.
       -5    1    3    3    0  502  0.42894064240E+03  0.14391169902E+04  0.19621604007E+02  0.15018171938E+04  0.46999998093E+01 0. -1.
</event>
<event>
 5   0  0.1875284E-07  0.3130591E+04  0.7818609E-02  0.8207392E-01
       -1   -1    0    0    0  501  0.00000000000E+00  0.00000000000E+00  0.12478926314E+04  0.12478926314E+04  0.50400001928E-02 0. -1.
        1   -1    0    0  501    0  0.00000000000E+00  0.00000000000E+00 -0.19634304192E+04  0.19634304192E+04  0.50400001928E-02 0.  1.
    10030    2    1    2    0    0  0.00000000000E+00  0.00000000000E+00 -0.71553778777E+03  0.32113230506E+04  0.31305912237E+04 0.  0.
        4    1    3    3  502    0  0.31297922375E+03  0.24927103485E+02  0.12152600604E+04  0.12551637273E+04  0.12699999809E+01 0. -1.
       -4    1    3    3    0  502 -0.31297922375E+03 -0.24927103485E+02 -0.19307978481E+04  0.19561593233E+04  0.12699999809E+01 0.  1.
</event>
<event>
 5   0  0.1727000E-07  0.3101771E+04  0.7818609E-02  0.8215252E-01
        3   -1    0    0  501    0  0.00000000000E+00  0.00000000000E+00  0.25186523886E+04  0.25186523907E+04  0.10100000352E+00 0. -1.
       -3   -1    0    0    0  501  0.00000000000E+00  0.00000000000E+00 -0.95497356963E+03  0.95497357497E+03  0.10100000352E+00 0.  1.
    10030    2    1    2    0    0  0.00000000000E+00  0.00000000000E+00  0.15636788190E+04  0.34736259656E+04  0.31017714133E+04 0.  0.
        5    1    3    3  502    0 -0.12879185283E+03  0.39943828634E+03  0.24538409960E+04  0.24894770555E+04  0.46999998093E+01 0. -1.
       -5    1    3    3    0  502  0.12879185283E+03 -0.39943828634E+03 -0.89016217702E+03  0.98414891015E+03  0.46999998093E+01 0.  1.
</event>
<event>
 5   0  0.1845123E-07  0.3096771E+04  0.7818609E-02  0.8216625E-01
        1   -1    0    0  501    0  0.00000000000E+00  0.00000000000E+00  0.12381304294E+04  0.12381304294E+04  0.50400001928E-02 0. -1.
       -1   -1    0    0    0  501  0.00000000000E+00  0.00000000000E+00 -0.19363851584E+04  0.19363851584E+04  0.50400001928E-02 0.  1.
    10030    2    1    2    0    0  0.00000000000E+00  0.00000000000E+00 -0.69825472894E+03  0.31745155878E+04  0.30967708263E+04 0.  0.
        2    1    3    3  502    0 -0.24996456218E+03  0.33069499352E+03  0.11801892610E+04  0.12508749549E+04  0.25500000920E-02 0. -1.
       -2    1    3    3    0  502  0.24996456218E+03 -0.33069499352E+03 -0.18784439900E+04  0.19236406329E+04  0.25500000920E-02 0.  1.
</event>
<event>
 5   0  0.1814075E-07  0.3103652E+04  0.7818609E-02  0.8214736E-01
        1   -1    0    0  501    0  0.00000000000E+00  0.00000000000E+00  0.20281359095E+04  0.20281359095E+04  0.50400001928E-02 0.  1.
       -1   -1    0    0    0  501  0.00000000000E+00  0.00000000000E+00 -0.11873779834E+04  0.11873779834E+04  0.50400001928E-02 0. -1.
    10030    2    1    2    0    0  0.00000000000E+00  0.00000000000E+00  0.84075792611E+03  0.32155138929E+04  0.31036519948E+04 0.  0.
        5    1    3    3  502    0 -0.50209436562E+02 -0.11758823131E+04 -0.62746967527E+03  0.13337767749E+04  0.46999998093E+01 0.  1.
       -5    1    3    3    0  502  0.50209436562E+02  0.11758823131E+04  0.14682276014E+04  0.18817371180E+04  0.46999998093E+01 0. -1.
</event>
<event>
 5   0  0.5055900E-07  0.3099660E+04  0.7818609E-02  0.8215831E-01
        2   -1    0    0  501    0  0.00000000000E+00  0.00000000000E+00  0.12483883268E+04  0.12483883268E+04  0.25500000920E-02 0.  1.
       -2   -1    0    0    0  501  0.00000000000E+00  0.00000000000E+00 -0.19240595909E+04  0.19240595909E+04  0.25500000920E-02 0. -1.
    10030    2    1    2    0    0  0.00000000000E+00  0.00000000000E+00 -0.67567126413E+03  0.31724479177E+04  0.30996603255E+04 0.  0.
        2    1    3    3  502    0  0.68836154501E+03 -0.93419262491E+03  0.71362313115E+03  0.13622831756E+04  0.25500000920E-02 0.  1.
       -2    1    3    3    0  502 -0.68836154501E+03  0.93419262491E+03 -0.13892943953E+04  0.18101647422E+04  0.25500000920E-02 0. -1.
</event>
<event>
 5   0  0.5248309E-07  0.3076260E+04  0.7818609E-02  0.8222283E-01
       -2   -1    0    0    0  501  0.00000000000E+00  0.00000000000E+00  0.89530626755E+03  0.89530626755E+03  0.25500000920E-02 0. -1.
        2   -1    0    0  501    0  0.00000000000E+00  0.00000000000E+00 -0.26424971564E+04  0.26424971564E+04  0.25500000920E-02 0.  1.
    10030    2    1    2    0    0  0.00000000000E+00  0.00000000000E+00 -0.17471908888E+04  0.35378034239E+04  0.30762602400E+04 0.  0.
        4    1    3    3  502    0 -0.65810491479E+03 -0.13297383790E+04 -0.40710618985E+03  0.15385198400E+04  0.12699999809E+01 0.  1.
       -4    1    3    3    0  502  0.65810491479E+03  0.13297383790E+04 -0.13400846990E+04  0.19992835839E+04  0.12699999809E+01 0. -1.
</event>
<event>
 5   0  0.5342534E-07  0.3077703E+04  0.7818609E-02  0.8221884E-01
       -2   -1    0    0    0  501  0.00000000000E+00  0.00000000000E+00  0.13009716472E+04  0.13009716472E+04  0.25500000920E-02 0. -1.
        2   -1    0    0  501    0  0.00000000000E+00  0.00000000000E+00 -0.18202271156E+04  0.18202271156E+04  0.25500000920E-02 0.  1.
    10030    2    1    2    0    0  0.00000000000E+00  0.00000000000E+00 -0.51925546844E+03  0.31211987628E+04  0.30777029544E+04 0.  0.
        3    1    3    3  502    0  0.85569124066E+03 -0.93109216838E+03  0.62964782754E+03  0.14126558400E+04  0.10100000352E+00 0. -1.
       -3    1    3    3    0  502 -0.85569124066E+03  0.93109216838E+03 -0.11489032960E+04  0.17085429228E+04  0.10100000352E+00 0.  1.
</event>
<event>
 5   0  0.1875284E-07  0.3154264E+04  0.7818609E-02  0.8201001E-01
        1   -1    0    0  501    0  0.00000000000E+00  0.00000000000E+00  0.22489192815E+04  0.22489192815E+04  0.50400001928E-02 0. -1.
       -1   -1    0    0    0  501  0.00000000000E+00  0.00000000000E+00 -0.11060180792E+04  0.11060180792E+04  0.50400001928E-02 0.  1.
    10030    2    1    2    0    0  0.00000000000E+00  0.00000000000E+00  0.11429012023E+04  0.33549373607E+04  0.31542640245E+04 0.  0.
        4    1    3    3  502    0 -0.91493754514E+03  0.10768947707E+04 -0.17348627828E+03  0.14236966532E+04  0.12699999809E+01 0.  1.
       -4    1    3    3    0  502  0.91493754514E+03 -0.10768947707E+04  0.13163874806E+04  0.19312407076E+04  0.12699999809E+01 0. -1.
</event>
<event>
 5   0  0.1830902E-07  0.3083256E+04  0.7818609E-02  0.8220348E-01
       -1   -1    0    0    0  501  0.00000000000E+00  0.00000000000E+00  0.19172125935E+04  0.19172125935E+04  0.50400001928E-02 0. -1.
        1   -1    0    0  501    0  0.00000000000E+00  0.00000000000E+00 -0.12396210320E+04  0.12396210320E+04  0.50400001928E-02 0.  1.
    10030    2    1    2    0    0  0.00000000000E+00  0.00000000000E+00  0.67759156158E+03  0.31568336255E+04  0.30832561059E+04 0.  0.
        3    1    3    3  502    0 -0.57509307643E+03 -0.11667261340E+04 -0.50837639217E+03  0.13965774181E+04  0.10100000352E+00 0.  1.
       -3    1    3    3    0  502  0.57509307643E+03  0.11667261340E+04  0.11859679538E+04  0.17602562075E+04  0.10100000352E+00 0. -1.
</event>
<event>
 5   0  0.1814075E-07  0.3098561E+04  0.7818609E-02  0.8216133E-01
       -1   -1    0    0    0  501  0.00000000000E+00  0.00000000000E+00  0.17128385198E+04  0.17128385198E+04  0.50400001928E-02 0. -1.
        1   -1    0    0  501    0  0.00000000000E+00  0.00000000000E+00 -0.14013409618E+04  0.14013409618E+04  0.50400001928E-02 0.  1.
    10030    2    1    2    0    0  0.00000000000E+00  0.00000000000E+00  0.31149755797E+03  0.31141794816E+04  0.30985614589E+04 0.  0.
        5    1    3    3  502    0  0.32879369168E+03  0.13928504944E+04  0.75212903515E+03  0.16167430121E+04  0.46999998093E+01 0. -1.
       -5    1    3    3    0  502 -0.32879369168E+03 -0.13928504944E+04 -0.44063147717E+03  0.14974364695E+04  0.46999998093E+01 0.  1.
</event>
<event>
 5   0  0.1814075E-07  0.3098720E+04  0.7818609E-02  0.8216089E-01
       -1   -1    0    0    0  501  0.00000000000E+00  0.00000000000E+00  0.10905773134E+04  0.10905773134E+04  0.50400001928E-02 0.  1.
        1   -1    0    0  501    0  0.00000000000E+00  0.00000000000E+00 -0.22011423625E+04  0.22011423626E+04  0.50400001928E-02 0. -1.
    10030    2    1    2    0    0  0.00000000000E+00  0.00000000000E+00 -0.11105650492E+04  0.32917196760E+04  0.30987196867E+04 0.  0.
        5    1    3    3  502    0  0.12502104175E+03 -0.36911449107E+03 -0.21482187908E+04  0.21832869329E+04  0.46999998093E+01 0. -1.
       -5    1    3    3    0  502 -0.12502104175E+03  0.36911449107E+03  0.10376537416E+04  0.11084327431E+04  0.46999998093E+01 0.  1.
</event>
<event>
 5   0  0.5055900E-07  0.3102674E+04  0.7818609E-02  0.8215004E-01
        2   -1    0    0  501    0  0.00000000000E+00  0.00000000000E+00  0.20260599304E+04  0.20260599304E+04  0.25500000920E-02 0. -1.
       -2   -1    0    0    0  501  0.00000000000E+00  0.00000000000E+00 -0.11878457456E+04  0.11878457456E+04  0.25500000920E-02 0.  1.
    10030    2    1    2    0    0  0.00000000000E+00  0.00000000000E+00  0.83821418484E+03  0.32139056761E+04  0.31026741168E+04 0.  0.
        2    1    3    3  502    0  0.11097418705E+04 -0.10305159482E+04  0.70660056423E+02  0.15160748604E+04  0.25500000920E-02 0.  1.
       -2    1    3    3    0  502 -0.11097418705E+04  0.10305159482E+04  0.76755412842E+03  0.16978308157E+04  0.25500000920E-02 0. -1.
</event>
<event>
 5   0  0.5055900E-07  0.3100279E+04  0.7818609E-02  0.8215661E-01
        2   -1    0    0  501    0  0.00000000000E+00  0.00000000000E+00  0.19539448409E+04  0.19539448409E+04  0.25500000920E-02 0.  1.
       -2   -1    0    0    0  501  0.00000000000E+00  0.00000000000E+00 -0.12297852530E+04  0.12297852530E+04  0.25500000920E-02 0. -1.
    10030    2    1    2    0    0  0.00000000000E+00  0.00000000000E+00  0.72415958789E+03  0.31837300939E+04  0.31002790523E+04 0.  0.
        2    1    3    3  502    0 -0.29257844979E+03 -0.13252836869E+04  0.11312082990E+04  0.17668082001E+04  0.25500000920E-02 0.  1.
       -2    1    3    3    0  502  0.29257844979E+03  0.13252836869E+04 -0.40704871106E+03  0.14169218939E+04  0.25500000920E-02 0. -1.
</event>
<event>
 5   0  0.1830902E-07  0.3104397E+04  0.7818609E-02  0.8214532E-01
       -1   -1    0    0    0  501  0.00000000000E+00  0.00000000000E+00  0.16497693874E+04  0.16497693874E+04  0.50400001928E-02 0.  1.
        1   -1    0    0  501    0  0.00000000000E+00  0.00000000000E+00 -0.14603977204E+04  0.14603977205E+04  0.50400001928E-02 0. -1.
    10030    2    1    2    0    0  0.00000000000E+00  0.00000000000E+00  0.18937166693E+03  0.31101671078E+04  0.31043965292E+04 0.  0.
        3    1    3    3  502    0 -0.75939763016E+02 -0.12655174819E+04  0.99190515819E+03  0.16097133899E+04  0.10100000352E+00 0.  1.
       -3    1    3    3    0  502  0.75939763016E+02  0.12655174819E+04 -0.80253349127E+03  0.15004537179E+04  0.10100000352E+00 0. -1.
</event>
<event>
 5   0  0.1840359E-07  0.3103672E+04  0.7818609E-02  0.8214731E-01
        1   -1    0    0  501    0  0.00000000000E+00  0.00000000000E+00  0.17981035122E+04  0.17981035122E+04  0.50400001928E-02 0. -1.
       -1   -1    0    0    0  501  0.00000000000E+00  0.00000000000E+00 -0.13392968550E+04  0.13392968550E+04  0.50400001928E-02 0.  1.
    10030    2    1    2    0    0  0.00000000000E+00  0.00000000000E+00  0.45880665719E+03  0.31374003673E+04  0.31036716186E+04 0.  0.
        1    1    3    3  502    0  0.14514471318E+04 -0.30861094888E+03 -0.22968505065E+03  0.15015640901E+04  0.50400001928E-02 0.  1.
       -1    1    3    3    0  502 -0.14514471318E+04  0.30861094888E+03  0.68849170785E+03  0.16358362772E+04  0.50400001928E-02 0. -1.
</event>
<event>
 5   0  0.5154105E-07  0.3099205E+04  0.7818609E-02  0.8215956E-01
       -2   -1    0    0    0  501  0.00000000000E+00  0.00000000000E+00  0.13435949099E+04  0.13435949099E+04  0.25500000920E-02 0.  1.
        2   -1    0    0  501    0  0.00000000000E+00  0.00000000000E+00 -0.17871963492E+04  0.17871963492E+04  0.25500000920E-02 0. -1.
    10030    2    1    2    0    0  0.00000000000E+00  0.00000000000E+00 -0.44360143932E+03  0.31307912591E+04  0.30992050063E+04 0.  0.
        1    1    3    3  502    0 -0.68808187692E+03 -0.12140692252E+04 -0.90234849889E+03  0.16618223630E+04  0.50400001928E-02 0. -1.
       -1    1    3    3    0  502  0.68808187692E+03  0.12140692252E+04  0.45874705957E+03  0.14689688960E+04  0.50400001928E-02 0.  1.
</event>
<event>
 5   0  0.5376678E-07  0.3098426E+04  0.7818609E-02  0.8216170E-01
       -2   -1    0    0    0  501  0.00000000000E+00  0.00000000000E+00  0.99254158667E+03  0.99254158667E+03  0.25500000920E-02 0.  1.
        2   -1    0    0  501    0  0.00000000000E+00  0.00000000000E+00 -0.24180966558E+04  0.24180966558E+04  0.25500000920E-02 0. -1.
    10030    2    1    2    0    0  0.00000000000E+00  0.00000000000E+00 -0.14255550691E+04  0.34106382425E+04  0.30984263693E+04 0.  0.
        5    1    3    3  502    0  0.11345701425E+04 -0.95855185994E+03 -0.22798057764E+03  0.15026870300E+04  0.46999998093E+01 0.  1.
       -5    1    3    3    0  502 -0.11345701425E+04  0.95855185994E+03 -0.11975744915E+04  0.19079512125E+04  0.46999998093E+01 0. -1.
</event>
<event>
 5   0  0.1845123E-07  0.3099223E+04  0.7818609E-02  0.8215951E-01
        1   -1    0    0  501    0  0.00000000000E+00  0.00000000000E+00  0.14550613444E+04  0.14550613444E+04  0.50400001928E-02 0.  1.
       -1   -1    0    0    0  501  0.00000000000E+00  0.00000000000E+00 -0.16503057888E+04  0.16503057888E+04  0.50400001928E-02 0. -1.
    10030    2    1    2    0    0  0.00000000000E+00  0.00000000000E+00 -0.19524444441E+03  0.31053671332E+04  0.30992232315E+04 0.  0.
        2    1    3    3  502    0  0.59311471118E+03 -0.55296677350E+03 -0.14207470374E+04  0.16358726899E+04  0.25500000920E-02 0. -1.
       -2    1    3    3    0  502 -0.59311471118E+03  0.55296677350E+03  0.12255025930E+04  0.14694944433E+04  0.25500000920E-02 0.  1.
</event>
<event>
 5   0  0.1845123E-07  0.3104877E+04  0.7818609E-02  0.8214401E-01
       -1   -1    0    0    0  501  0.00000000000E+00  0.00000000000E+00  0.11984018090E+04  0.11984018090E+04  0.50400001928E-02 0. -1.
        1   -1    0    0  501    0  0.00000000000E+00  0.00000000000E+00 -0.20110659811E+04  0.20110659811E+04  0.50400001928E-02 0.  1.
    10030    2    1    2    0    0  0.00000000000E+00  0.00000000000E+00 -0.81266417213E+03  0.32094677901E+04  0.31048768799E+04 0.  0.
        2    1    3    3  502    0  0.26292109436E+03  0.35872661584E+03 -0.19437998442E+04  0.19940336309E+04  0.25500000920E-02 0.  1.
       -2    1    3    3    0  502 -0.26292109436E+03 -0.35872661584E+03  0.11311356721E+04  0.12154341592E+04  0.25500000920E-02 0. -1.
</event>
<event>
 5   0  0.1830902E-07  0.3102863E+04  0.7818609E-02  0.8214953E-01
       -1   -1    0    0    0  501  0.00000000000E+00  0.00000000000E+00  0.11323735391E+04  0.11323735391E+04  0.50400001928E-02 0.  1.
        1   -1    0    0  501    0  0.00000000000E+00  0.00000000000E+00 -0.21255704629E+04  0.21255704629E+04  0.50400001928E-02 0. -1.
    10030    2    1    2    0    0  0.00000000000E+00  0.00000000000E+00 -0.99319692378E+03  0.32579440020E+04  0.31028630313E+04 0.  0.
        3    1    3    3  502    0 -0.15048022919E+04 -0.20822511335E+02 -0.89236740558E+03  0.17496237056E+04  0.10100000352E+00 0. -1.
       -3    1    3    3    0  502  0.15048022919E+04  0.20822511335E+02 -0.10082951820E+03  0.15083202964E+04  0.10100000352E+00 0.  1.
</event>
<event>
 5   0  0.5342534E-07  0.3101483E+04  0.7818609E-02  0.8215331E-01
       -2   -1    0    0    0  501  0.00000000000E+00  0.00000000000E+00  0.12144734621E+04  0.12144734621E+04  0.25500000920E-02 0.  1.
        2   -1    0    0  501    0  0.00000000000E+00  0.00000000000E+00 -0.19801172825E+04  0.19801172825E+04  0.25500000920E-02 0. -1.
    10030    2    1    2    0    0  0.00000000000E+00  0.00000000000E+00 -0.76564382041E+03  0.31945907446E+04  0.31014834460E+04 0.  0.
        3    1    3    3  502    0 -0.88312767484E+03  0.85567675144E+03  0.59037155238E+03  0.13640512355E+04  0.10100000352E+00 0.  1.
       -3    1    3    3    0  502  0.88312767484E+03 -0.85567675144E+03 -0.13560153728E+04  0.18305395091E+04  0.10100000352E+00 0. -1.
</event>
<event>
 5   0  0.1814075E-07  0.3102260E+04  0.7818609E-02  0.8215118E-01
        1   -1    0    0  501    0  0.00000000000E+00  0.00000000000E+00  0.28271078759E+04  0.28271078759E+04  0.50400001928E-02 0. -1.
       -1   -1    0    0    0  501  0.00000000000E+00  0.00000000000E+00 -0.85104785358E+03  0.85104785360E+03  0.50400001928E-02 0.  1.
    10030    2    1    2    0    0  0.00000000000E+00  0.00000000000E+00  0.19760600223E+04  0.36781557295E+04  0.31022598793E+04 0.  0.
        5    1    3    3  502    0 -0.14604273687E+04 -0.50156877677E+03  0.11621317589E+04  0.19326126492E+04  0.46999998093E+01 0. -1.
       -5    1    3    3    0  502  0.14604273687E+04  0.50156877677E+03  0.81392826337E+03  0.17455430802E+04  0.46999998093E+01 0.  1.
</event>
<event>
 5   0  0.1845123E-07  0.3083514E+04  0.7818609E-02  0.8220277E-01
       -1   -1    0    0    0  501  0.00000000000E+00  0.00000000000E+00  0.17039987056E+04  0.17039987056E+04  0.50400001928E-02 0. -1.
        1   -1    0    0  501    0  0.00000000000E+00  0.00000000000E+00 -0.13949629043E+04  0.13949629043E+04  0.50400001928E-02 0.  1.
    10030    2    1    2    0    0  0.00000000000E+00  0.00000000000E+00  0.30903580134E+03  0.30989616099E+04  0.30835142181E+04 0.  0.
        2    1    3    3  502    0  0.13150687329E+03  0.15259753587E+04  0.33181063699E+03  0.15671608571E+04  0.25500000920E-02 0. -1.
       -2    1    3    3    0  502 -0.13150687329E+03 -0.15259753587E+04 -0.22774835650E+02  0.15318007528E+04  0.25500000920E-02 0.  1.
</event>
<event>
 5   0  0.5154105E-07  0.3101246E+04  0.7818609E-02  0.8215396E-01
        2   -1    0    0  501    0  0.00000000000E+00  0.00000000000E+00  0.14068425683E+04  0.14068425683E+04  0.25500000920E-02 0. -1.
       -2   -1    0    0    0  501  0.00000000000E+00  0.00000000000E+00 -0.17090974339E+04  0.17090974339E+04  0.25500000920E-02 0.  1.
    10030    2    1    2    0    0  0.00000000000E+00  0.00000000000E+00 -0.30225486560E+03  0.31159400023E+04  0.31012455714E+04 0.  0.
        1    1    3    3  502    0  0.51927094010E+03  0.10181926619E+04  0.90172722047E+03  0.14558401650E+04  0.50400001928E-02 0. -1.
       -1    1    3    3    0  502 -0.51927094010E+03 -0.10181926619E+04 -0.12039820861E+04  0.16600998372E+04  0.50400001928E-02 0.  1.
</event>
<event>
 5   0  0.5376678E-07  0.3104891E+04  0.7818609E-02  0.8214397E-01
        2   -1    0    0  501    0  0.00000000000E+00  0.00000000000E+00  0.16463481906E+04  0.16463481906E+04  0.25500000920E-02 0.  1.
       -2   -1    0    0    0  501  0.00000000000E+00  0.00000000000E+00 -0.14638988123E+04  0.14638988123E+04  0.25500000920E-02 0. -1.
    10030    2    1    2    0    0  0.00000000000E+00  0.00000000000E+00  0.18244937830E+03  0.31102470029E+04  0.31048910840E+04 0.  0.
        5    1    3    3  502    0 -0.15059933102E+04 -0.24347867375E+03  0.37941412104E+03  0.15720289056E+04  0.46999998093E+01 0. -1.
       -5    1    3    3    0  502  0.15059933102E+04  0.24347867375E+03 -0.19696474274E+03  0.15382180973E+04  0.46999998093E+01 0.  1.
</event>
<event>
 5   0  0.5376678E-07  0.3137072E+04  0.7818609E-02  0.8205637E-01
       -2   -1    0    0    0  501  0.00000000000E+00  0.00000000000E+00  0.16683432338E+04  0.16683432338E+04  0.25500000920E-02 0.  1.
        2   -1    0    0  501    0  0.00000000000E+00  0.00000000000E+00 -0.14746999742E+04  0.14746999742E+04  0.25500000920E-02 0. -1.
    10030    2    1    2    0    0  0.00000000000E+00  0.00000000000E+00  0.19364325969E+03  0.31430432080E+04  0.31370723446E+04 0.  0.
        5    1    3    3  502    0 -0.50526249671E+03 -0.63820262321E+03  0.14401535106E+04  0.16542844383E+04  0.46999998093E+01 0.  1.
       -5    1    3    3    0  502  0.50526249671E+03  0.63820262321E+03 -0.12465102509E+04  0.14887587697E+04  0.46999998093E+01 0. -1.
</event>
<event>
 5   0  0.5376678E-07  0.3099866E+04  0.7818609E-02  0.8215775E-01
        2   -1    0    0  501    0  0.00000000000E+00  0.00000000000E+00  0.16316068904E+04  0.16316068904E+04  0.25500000920E-02 0. -1.
       -2   -1    0    0    0  501  0.00000000000E+00  0.00000000000E+00 -0.14723474131E+04  0.14723474131E+04  0.25500000920E-02 0.  1.
    10030    2    1    2    0    0  0.00000000000E+00  0.00000000000E+00  0.15925947732E+03  0.31039543036E+04  0.30998659225E+04 0.  0.
        5    1    3    3  502    0  0.14490658863E+03  0.20560231701E+03 -0.14517662572E+04  0.14734034029E+04  0.46999998093E+01 0.  1.
       -5    1    3    3    0  502 -0.14490658863E+03 -0.20560231701E+03  0.16110257345E+04  0.16305509006E+04  0.46999998093E+01 0. -1.
</event>
<event>
 5   0  0.5055900E-07  0.3101070E+04  0.7818609E-02  0.8215444E-01
        2   -1    0    0  501    0  0.00000000000E+00  0.00000000000E+00  0.26202849112E+04  0.26202849113E+04  0.25500000920E-02 0. -1.
       -2   -1    0    0    0  501  0.00000000000E+00  0.00000000000E+00 -0.91751816143E+03  0.91751816143E+03  0.25500000920E-02 0.  1.
    10030    2    1    2    0    0  0.00000000000E+00  0.00000000000E+00  0.17027667498E+04  0.35378030727E+04  0.31010701341E+04 0.  0.
        2    1    3    3  502    0  0.47276456343E+03  0.10840068321E+04 -0.29262915036E+03  0.12182811515E+04  0.25500000920E-02 0.  1.
       -2    1    3    3    0  502 -0.47276456343E+03 -0.10840068321E+04  0.19953959002E+04  0.23195219212E+04  0.25500000920E-02 0. -1.
</event>
<event>
 5   0  0.5248309E-07  0.3115898E+04  0.7818609E-02  0.8211388E-01
        2   -1    0    0  501    0  0.00000000000E+00  0.00000000000E+00  0.20636244765E+04  0.20636244765E+04  0.25500000920E-02 0.  1.
       -2   -1    0    0    0  501  0.00000000000E+00  0.00000000000E+00 -0.11761852824E+04  0.11761852824E+04  0.25500000920E-02 0. -1.
    10030    2    1    2    0    0  0.00000000000E+00  0.00000000000E+00  0.88743919409E+03  0.32398097589E+04  0.31158977760E+04 0.  0.
        4    1    3    3  502    0  0.10625203574E+04 -0.98373465562E+03  0.10414908292E+04  0.17836446234E+04  0.12699999809E+01 0.  1.
       -4    1    3    3    0  502 -0.10625203574E+04  0.98373465562E+03 -0.15405163510E+03  0.14561651354E+04  0.12699999809E+01 0. -1.
</event>
<event>
 5   0  0.5342534E-07  0.3015633E+04  0.7818609E-02  0.8239281E-01
       -2   -1    0    0    0  501  0.00000000000E+00  0.00000000000E+00  0.11564833541E+04  0.11564833541E+04  0.25500000920E-02 0.  1.
        2   -1    0    0  501    0  0.00000000000E+00  0.00000000000E+00 -0.19658827606E+04  0.19658827606E+04  0.25500000920E-02 0. -1.
    10030    2    1    2    0    0  0.00000000000E+00  0.00000000000E+00 -0.80939940646E+03  0.31223661147E+04  0.30156330604E+04 0.  0.
        3    1    3    3  502    0 -0.11808705537E+04  0.76300034592E+03 -0.96885686441E+03  0.17074274293E+04  0.10100000352E+00 0. -1.
       -3    1    3    3    0  502  0.11808705537E+04 -0.76300034592E+03  0.15945745795E+03  0.14149386854E+04  0.10100000352E+00 0.  1.
</event>
<event>
 5   0  0.5376678E-07  0.3098085E+04  0.7818609E-02  0.8216264E-01
       -2   -1    0    0    0  501  0.00000000000E+00  0.00000000000E+00  0.11618314703E+04  0.11618314703E+04  0.25500000920E-02 0. -1.
        2   -1    0    0  501    0  0.00000000000E+00  0.00000000000E+00 -0.20653021915E+04  0.20653021915E+04  0.25500000920E-02 0.  1.
    10030    2    1    2    0    0  0.00000000000E+00  0.00000000000E+00 -0.90347072127E+03  0.32271336618E+04  0.30980852679E+04 0.  0.
        5    1    3    3  502    0  0.12693217980E+04  0.41749931791E+03 -0.12679746439E+04  0.18420817830E+04  0.46999998093E+01 0.  1.
       -5    1    3    3    0  502 -0.12693217980E+04 -0.41749931791E+03  0.36450392268E+03  0.13850518788E+04  0.46999998093E+01 0. -1.
</event>
<event>
 5   0  0.5248309E-07  0.3099953E+04  0.7818609E-02  0.8215751E-01
        2   -1    0    0  501    0  0.00000000000E+00  0.00000000000E+00  0.12014767151E+04  0.12014767151E+04  0.25500000920E-02 0.  1.
       -2   -1    0    0    0  501  0.00000000000E+00  0.00000000000E+00 -0.19995624056E+04  0.19995624056E+04  0.25500000920E-02 0. -1.
    10030    2    1    2    0    0  0.00000000000E+00  0.00000000000E+00 -0.79808569052E+03  0.32010391207E+04  0.30999533356E+04 0.  0.
        4    1    3    3  502    0  0.10969838659E+04  0.84463182151E+03  0.32056736562E+03  0.14211057543E+04  0.12699999809E+01 0. -1.
       -4    1    3    3    0  502 -0.10969838659E+04 -0.84463182151E+03 -0.11186530561E+04  0.17799333664E+04  0.12699999809E+01 0.  1.
</event>
<event>
 5   0  0.1727000E-07  0.3104342E+04  0.7818609E-02  0.8214547E-01
       -3   -1    0    0    0  501  0.00000000000E+00  0.00000000000E+00  0.15187041316E+04  0.15187041350E+04  0.10100000352E+00 0. -1.
        3   -1    0    0  501    0  0.00000000000E+00  0.00000000000E+00 -0.15863749227E+04  0.15863749259E+04  0.10100000352E+00 0.  1.
    10030    2    1    2    0    0  0.00000000000E+00  0.00000000000E+00 -0.67670791080E+02  0.31050790609E+04  0.31043415789E+04 0.  0.
        4    1    3    3  502    0  0.67334036963E+03  0.55226379312E+03  0.12513239163E+04  0.15245313073E+04  0.12699999809E+01 0. -1.
       -4    1    3    3    0  502 -0.67334036963E+03 -0.55226379312E+03 -0.13189947073E+04  0.15805477536E+04  0.12699999809E+01 0.  1.
</event>
<event>
 5   0  0.5154105E-07  0.3121717E+04  0.7818609E-02  0.8209803E-01
        2   -1    0    0  501    0  0.00000000000E+00  0.00000000000E+00  0.16471816204E+04  0.16471816204E+04  0.25500000920E-02 0.  1.
       -2   -1    0    0    0  501  0.00000000000E+00  0.00000000000E+00 -0.14790588926E+04  0.14790588926E+04  0.25500000920E-02 0. -1.
    10030    2    1    2    0    0  0.00000000000E+00  0.00000000000E+00  0.16812272771E+03  0.31262405130E+04  0.31217165941E+04 0.  0.
        1    1    3    3  502    0 -0.81007827923E+03  0.10411504275E+04 -0.75144834579E+03  0.15181882780E+04  0.50400001928E-02 0. -1.
       -1    1    3    3    0  502  0.81007827923E+03 -0.10411504275E+04  0.91957107350E+03  0.16080522350E+04  0.50400001928E-02 0.  1.
</event>
<event>
 5   0  0.1845123E-07  0.3104877E+04  0.7818609E-02  0.8214401E-01
        1   -1    0    0  501    0  0.00000000000E+00  0.00000000000E+00  0.23379551305E+04  0.23379551305E+04  0.50400001928E-02 0.  1.
       -1   -1    0    0    0  501  0.00000000000E+00  0.00000000000E+00 -0.10308432004E+04  0.10308432004E+04  0.50400001928E-02 0. -1.
    10030    2    1    2    0    0  0.00000000000E+00  0.00000000000E+00  0.13071119301E+04  0.33687983309E+04  0.31048769052E+04 0.  0.
        2    1    3    3  502    0  0.80467347898E+03  0.24238323297E+03  0.20698126942E+04  0.22339144183E+04  0.25500000920E-02 0.  1.
       -2    1    3    3    0  502 -0.80467347898E+03 -0.24238323297E+03 -0.76270076410E+03  0.11348839125E+04  0.25500000920E-02 0. -1.
</event>
<event>
 5   0  0.5342534E-07  0.3100290E+04  0.7818609E-02  0.8215658E-01
       -2   -1    0    0    0  501  0.00000000000E+00  0.00000000000E+00  0.93243705974E+03  0.93243705974E+03  0.25500000920E-02 0. -1.
        2   -1    0    0  501    0  0.00000000000E+00  0.00000000000E+00 -0.25770639426E+04  0.25770639426E+04  0.25500000920E-02 0.  1.
    10030    2    1    2    0    0  0.00000000000E+00  0.00000000000E+00 -0.16446268829E+04  0.35095010023E+04  0.31002902609E+04 0.  0.
        3    1    3    3  502    0  0.60008066911E+03  0.13563946223E+04 -0.31223024218E+03  0.15157146549E+04  0.10100000352E+00 0. -1.
       -3    1    3    3    0  502 -0.60008066911E+03 -0.13563946223E+04 -0.13323966407E+04  0.19937863474E+04  0.10100000352E+00 0.  1.
</event>
<event>
 5   0  0.1875284E-07  0.3098837E+04  0.7818609E-02  0.8216057E-01
        1   -1    0    0  501    0  0.00000000000E+00  0.00000000000E+00  0.16986486277E+04  0.16986486277E+04  0.50400001928E-02 0. -1.
       -1   -1    0    0    0  501  0.00000000000E+00  0.00000000000E+00 -0.14132987333E+04  0.14132987333E+04  0.50400001928E-02 0.  1.
    10030    2    1    2    0    0  0.00000000000E+00  0.00000000000E+00  0.28534989441E+03  0.31119473611E+04  0.30988371716E+04 0.  0.
        4    1    3    3  502    0  0.54415155744E+02 -0.15438779125E+04  0.26224303664E+03  0.15669374719E+04  0.12699999809E+01 0. -1.
       -4    1    3    3    0  502 -0.54415155744E+02  0.15438779125E+04  0.23106857767E+02  0.15450098891E+04  0.12699999809E+01 0.  1.
</event>
<event>
 5   0  0.1840359E-07  0.3102263E+04  0.7818609E-02  0.8215117E-01
        1   -1    0    0  501    0  0.00000000000E+00  0.00000000000E+00  0.20930537577E+04  0.20930537577E+04  0.50400001928E-02 0. -1.
       -1   -1    0    0    0  501  0.00000000000E+00  0.00000000000E+00 -0.11495207992E+04  0.11495207992E+04  0.50400001928E-02 0.  1.
    10030    2    1    2    0    0  0.00000000000E+00  0.00000000000E+00  0.94353295852E+03  0.32425745569E+04  0.31022629342E+04 0.  0.
        1    1    3    3  502    0  0.10237424961E+04  0.71210838274E+03  0.14359081973E+04  0.19018357968E+04  0.50400001928E-02 0. -1.
       -1    1    3    3    0  502 -0.10237424961E+04 -0.71210838274E+03 -0.49237523877E+03  0.13407387601E+04  0.50400001928E-02 0.  1.
</event>
<event>
 5   0  0.1814075E-07  0.3097316E+04  0.7818609E-02  0.8216475E-01
        1   -1    0    0  501    0  0.00000000000E+00  0.00000000000E+00  0.16388322985E+04  0.16388322985E+04  0.50400001928E-02 0.  1.
       -1   -1    0    0    0  501  0.00000000000E+00  0.00000000000E+00 -0.14634454237E+04  0.14634454237E+04  0.50400001928E-02 0. -1.
    10030    2    1    2    0    0  0.00000000000E+00  0.00000000000E+00  0.17538687478E+03  0.31022777222E+04  0.30973160171E+04 0.  0.
        5    1    3    3  502    0 -0.85494990022E+03  0.55458975384E+03  0.12556705610E+04  0.16171702986E+04  0.46999998093E+01 0.  1.
       -5    1    3    3    0  502  0.85494990022E+03 -0.55458975384E+03 -0.10802836862E+04  0.14851074236E+04  0.46999998093E+01 0. -1.
</event>
<event>
 5   0  0.5248309E-07  0.3103872E+04  0.7818609E-02  0.8214676E-01
        2   -1    0    0  501    0  0.00000000000E+00  0.00000000000E+00  0.22998964621E+04  0.22998964621E+04  0.25500000920E-02 0.  1.
       -2   -1    0    0    0  501  0.00000000000E+00  0.00000000000E+00 -0.10472234265E+04  0.10472234265E+04  0.25500000920E-02 0. -1.
    10030    2    1    2    0    0  0.00000000000E+00  0.00000000000E+00  0.12526730356E+04  0.33471198886E+04  0.31038720680E+04 0.  0.
        4    1    3    3  502    0  0.53801097419E+03  0.14364291564E+04  0.37178814553E+03  0.15782941956E+04  0.12699999809E+01 0. -1.
       -4    1    3    3    0  502 -0.53801097419E+03 -0.14364291564E+04  0.88088489006E+03  0.17688256930E+04  0.12699999809E+01 0.  1.
</event>
<event>
 5   0  0.1845123E-07  0.3103798E+04  0.7818609E-02  0.8214696E-01
        1   -1    0    0  501    0  0.00000000000E+00  0.00000000000E+00  0.22316838770E+04  0.22316838770E+04  0.50400001928E-02 0. -1.
       -1   -1    0    0    0  501  0.00000000000E+00  0.00000000000E+00 -0.10791805143E+04  0.10791805144E+04  0.50400001928E-02 0.  1.
    10030    2    1    2    0    0  0.00000000000E+00  0.00000000000E+00  0.11525033627E+04  0.33108643914E+04  0.31037975155E+04 0.  0.
        2    1    3    3  502    0 -0.19489210699E+03 -0.24961912244E+02 -0.10658587806E+04  0.10838177755E+04  0.25500000920E-02 0.  1.
       -2    1    3    3    0  502  0.19489210699E+03  0.24961912244E+02  0.22183621433E+04  0.22270466158E+04  0.25500000920E-02 0. -1.
</event>
<event>
 5   0  0.5055900E-07  0.3092403E+04  0.7818609E-02  0.8217826E-01
        2   -1    0    0  501    0  0.00000000000E+00  0.00000000000E+00  0.11788028646E+04  0.11788028646E+04  0.25500000920E-02 0.  1.
       -2   -1    0    0    0  501  0.00000000000E+00  0.00000000000E+00 -0.20281072917E+04  0.20281072917E+04  0.25500000920E-02 0. -1.
    10030    2    1    2    0    0  0.00000000000E+00  0.00000000000E+00 -0.84930442709E+03  0.32069101562E+04  0.30924027455E+04 0.  0.
        2    1    3    3  502    0  0.49516387544E+03 -0.83574491749E+03  0.82283841490E+03  0.12730749733E+04  0.25500000920E-02 0. -1.
       -2    1    3    3    0  502 -0.49516387544E+03  0.83574491749E+03 -0.16721428420E+04  0.19338351829E+04  0.25500000920E-02 0.  1.
</event>
<event>
 5   0  0.5154105E-07  0.3098139E+04  0.7818609E-02  0.8216249E-01
        2   -1    0    0  501    0  0.00000000000E+00  0.00000000000E+00  0.21734040030E+04  0.21734040030E+04  0.25500000920E-02 0. -1.
       -2   -1    0    0    0  501  0.00000000000E+00  0.00000000000E+00 -0.11040823742E+04  0.11040823742E+04  0.25500000920E-02 0.  1.
    10030    2    1    2    0    0  0.00000000000E+00  0.00000000000E+00  0.10693216288E+04  0.32774863772E+04  0.30981394750E+04 0.  0.
        1    1    3    3  502    0  0.13422142178E+04  0.12672717232E+03  0.13417253028E+04  0.19020582459E+04  0.50400001928E-02 0. -1.
       -1    1    3    3    0  502 -0.13422142178E+04 -0.12672717232E+03 -0.27240367402E+03  0.13754281313E+04  0.50400001928E-02 0.  1.
</event>
<event>
 5   0  0.5376678E-07  0.3103998E+04  0.7818609E-02  0.8214642E-01
        2   -1    0    0  501    0  0.00000000000E+00  0.00000000000E+00  0.16437148112E+04  0.16437148112E+04  0.25500000920E-02 0. -1.
       -2   -1    0    0    0  501  0.00000000000E+00  0.00000000000E+00 -0.14654006214E+04  0.14654006214E+04  0.25500000920E-02 0.  1.
    10030    2    1    2    0    0  0.00000000000E+00  0.00000000000E+00  0.17831418980E+03  0.31091154325E+04  0.31039978773E+04 0.  0.
        5    1    3    3  502    0  0.31264734098E+03 -0.14913158046E+04 -0.20612959821E+03  0.15376224147E+04  0.46999998093E+01 0.  1.
       -5    1    3    3    0  502 -0.31264734098E+03  0.14913158046E+04  0.38444378801E+03  0.15714930178E+04  0.46999998093E+01 0. -1.
</event>
<event>
 5   0  0.1845123E-07  0.3115053E+04  0.7818609E-02  0.8211619E-01
       -1   -1    0    0    0  501  0.00000000000E+00  0.00000000000E+00  0.14909958703E+04  0.14909958703E+04  0.50400001928E-02 0.  1.
        1   -1    0    0  501    0  0.00000000000E+00  0.00000000000E+00 -0.16270255721E+04  0.16270255722E+04  0.50400001928E-02 0. -1.
    10030    2    1    2    0    0  0.00000000000E+00  0.00000000000E+00 -0.13602970183E+03  0.31180214425E+04  0.31150527501E+04 0.  0.
        2    1    3    3  502    0 -0.12899641006E+04  0.56926414474E+03 -0.73032463966E+03  0.15879052637E+04  0.25500000920E-02 0. -1.
       -2    1    3    3    0  502  0.12899641006E+04 -0.56926414474E+03  0.59429493783E+03  0.15301161787E+04  0.25500000920E-02 0.  1.
</event>
<event>
 5   0  0.1875284E-07  0.3099228E+04  0.7818609E-02  0.8215950E-01
       -1   -1    0    0    0  501  0.00000000000E+00  0.00000000000E+00  0.16096418177E+04  0.16096418177E+04  0.50400001928E-02 0. -1.
        1   -1    0    0  501    0  0.00000000000E+00  0.00000000000E+00 -0.14918250509E+04  0.14918250509E+04  0.50400001928E-02 0.  1.
    10030    2    1    2    0    0  0.00000000000E+00  0.00000000000E+00  0.11781676671E+03  0.31014668686E+04  0.30992282824E+04 0.  0.
        4    1    3    3  502    0  0.95914398597E+03  0.10632044818E+04  0.65173936593E+03  0.15732535619E+04  0.12699999809E+01 0. -1.
       -4    1    3    3    0  502 -0.95914398597E+03 -0.10632044818E+04 -0.53392259921E+03  0.15282133067E+04  0.12699999809E+01 0.  1.
</event>
<event>
 5   0  0.5248309E-07  0.3100610E+04  0.7818609E-02  0.8215571E-01
       -2   -1    0    0    0  501  0.00000000000E+00  0.00000000000E+00  0.13704591388E+04  0.13704591388E+04  0.25500000920E-02 0. -1.
        2   -1    0    0  501    0  0.00000000000E+00  0.00000000000E+00 -0.17537518687E+04  0.17537518687E+04  0.25500000920E-02 0.  1.
    10030    2    1    2    0    0  0.00000000000E+00  0.00000000000E+00 -0.38329272993E+03  0.31242110075E+04  0.31006097953E+04 0.  0.
        4    1    3    3  502    0 -0.89286044440E+03  0.85371648187E+03 -0.11354791149E+04  0.16778992931E+04  0.12699999809E+01 0.  1.
       -4    1    3    3    0  502  0.89286044440E+03 -0.85371648187E+03  0.75218638494E+03  0.14463117144E+04  0.12699999809E+01 0. -1.
</event>
<event>
 5   0  0.5342534E-07  0.3107233E+04  0.7818609E-02  0.8213756E-01
        2   -1    0    0  501    0  0.00000000000E+00  0.00000000000E+00  0.25671974111E+04  0.25671974111E+04  0.25500000920E-02 0. -1.
       -2   -1    0    0    0  501  0.00000000000E+00  0.00000000000E+00 -0.94021765168E+03  0.94021765168E+03  0.25500000920E-02 0.  1.
    10030    2    1    2    0    0  0.00000000000E+00  0.00000000000E+00  0.16269797594E+04  0.35074150628E+04  0.31072330593E+04 0.  0.
        3    1    3    3  502    0 -0.12769120856E+04  0.26436668560E+03  0.17668535681E+04  0.21959430229E+04  0.10100000352E+00 0. -1.
       -3    1    3    3    0  502  0.12769120856E+04 -0.26436668560E+03 -0.13987380866E+03  0.13114720398E+04  0.10100000352E+00 0.  1.
</event>
<event>
 5   0  0.1840359E-07  0.3097062E+04  0.7818609E-02  0.8216545E-01
       -1   -1    0    0    0  501  0.00000000000E+00  0.00000000000E+00  0.16303044818E+04  0.16303044818E+04  0.50400001928E-02 0.  1.
        1   -1    0    0  501    0  0.00000000000E+00  0.00000000000E+00 -0.14708588788E+04  0.14708588788E+04  0.50400001928E-02 0. -1.
    10030    2    1    2    0    0  0.00000000000E+00  0.00000000000E+00  0.15944560302E+03  0.31011633606E+04  0.30970617186E+04 0.  0.
        1    1    3    3  502    0  0.15341093145E+04 -0.16687726412E+03 -0.49321503094E+02  0.15439468970E+04  0.50400001928E-02 0.  1.
       -1    1    3    3    0  502 -0.15341093145E+04  0.16687726412E+03  0.20876710611E+03  0.15572164636E+04  0.50400001928E-02 0. -1.
</event>
<event>
 5   0  0.1830902E-07  0.3099094E+04  0.7818609E-02  0.8215987E-01
        1   -1    0    0  501    0  0.00000000000E+00  0.00000000000E+00  0.18438992240E+04  0.18438992240E+04  0.50400001928E-02 0.  1.
       -1   -1    0    0    0  501  0.00000000000E+00  0.00000000000E+00 -0.13021838396E+04  0.13021838396E+04  0.50400001928E-02 0. -1.
    10030    2    1    2    0    0  0.00000000000E+00  0.00000000000E+00  0.54171538440E+03  0.31460830637E+04  0.30990939137E+04 0.  0.
        3    1    3    3  502    0  0.50170178232E+02 -0.72659829108E+03 -0.11175909415E+04  0.13339683827E+04  0.10100000352E+00 0. -1.
       -3    1    3    3    0  502 -0.50170178232E+02  0.72659829108E+03  0.16593063259E+04  0.18121146809E+04  0.10100000352E+00 0.  1.
</event>
<event>
 5   0  0.1845123E-07  0.3098199E+04  0.7818609E-02  0.8216232E-01
       -1   -1    0    0    0  501  0.00000000000E+00  0.00000000000E+00  0.16439302777E+04  0.16439302777E+04  0.50400001928E-02 0.  1.
        1   -1    0    0  501    0  0.00000000000E+00  0.00000000000E+00 -0.14597387499E+04  0.14597387499E+04  0.50400001928E-02 0. -1.
    10030    2    1    2    0    0  0.00000000000E+00  0.00000000000E+00  0.18419152780E+03  0.31036690276E+04  0.30981986563E+04 0.  0.
        2    1    3    3  502    0  0.15182808099E+04 -0.49426008829E+02 -0.21190203920E+03  0.15337933440E+04  0.25500000920E-02 0. -1.
       -2    1    3    3    0  502 -0.15182808099E+04  0.49426008829E+02  0.39609356700E+03  0.15698756836E+04  0.25500000920E-02 0.  1.
</event>
<event>
 5   0  0.1845123E-07  0.3113901E+04  0.7818609E-02  0.8211933E-01
       -1   -1    0    0    0  501  0.00000000000E+00  0.00000000000E+00  0.96211980491E+03  0.96211980492E+03  0.50400001928E-02 0.  1.
        1   -1    0    0  501    0  0.00000000000E+00  0.00000000000E+00 -0.25195348704E+04  0.25195348704E+04  0.50400001928E-02 0. -1.
    10030    2    1    2    0    0  0.00000000000E+00  0.00000000000E+00 -0.15574150655E+04  0.34816546753E+04  0.31139007036E+04 0.  0.
        2    1    3    3  502    0 -0.62573152171E+03  0.10565025076E+03  0.81095982901E+03  0.10297367416E+04  0.25500000920E-02 0.  1.
       -2    1    3    3    0  502  0.62573152171E+03 -0.10565025076E+03 -0.23683748945E+04  0.24519179337E+04  0.25500000920E-02 0. -1.
</event>
<event>
 5   0  0.5376678E-07  0.3092708E+04  0.7818609E-02  0.8217742E-01
        2   -1    0    0  501    0  0.00000000000E+00  0.00000000000E+00  0.16317649588E+04  0.16317649588E+04  0.25500000920E-02 0. -1.
       -2   -1    0    0    0  501  0.00000000000E+00  0.00000000000E+00 -0.14654138530E+04  0.14654138530E+04  0.25500000920E-02 0.  1.
    10030    2    1    2    0    0  0.00000000000E+00  0.00000000000E+00  0.16635110586E+03  0.30971788118E+04  0.30927081825E+04 0.  0.
        5    1    3    3  502    0 -0.12887393336E+03  0.12996128572E+04  0.91237416200E+03  0.15931261001E+04  0.46999998093E+01 0.  1.
       -5    1    3    3    0  502  0.12887393336E+03 -0.12996128572E+04 -0.74602305615E+03  0.15040527117E+04  0.46999998093E+01 0. -1.
</event>
<event>
 5   0  0.1814075E-07  0.3100580E+04  0.7818609E-02  0.8215579E-01
       -1   -1    0    0    0  501  0.00000000000E+00  0.00000000000E+00  0.21452434570E+04  0.21452434570E+04  0.50400001928E-02 0.  1.
        1   -1    0    0  501    0  0.00000000000E+00  0.00000000000E+00 -0.11203385412E+04  0.11203385413E+04  0.50400001928E-02 0. -1.
    10030    2    1    2    0    0  0.00000000000E+00  0.00000000000E+00  0.10249049157E+04  0.32655819983E+04  0.31005798975E+04 0.  0.
        5    1    3    3  502    0 -0.23664044270E+03 -0.11806912066E+04 -0.51590247170E+03  0.13100411729E+04  0.46999998093E+01 0. -1.
       -5    1    3    3    0  502  0.23664044270E+03  0.11806912066E+04  0.15408073874E+04  0.19555408253E+04  0.46999998093E+01 0.  1.
</event>
<event>
 5   0  0.1830902E-07  0.3133750E+04  0.7818609E-02  0.8206536E-01
        1   -1    0    0  501    0  0.00000000000E+00  0.00000000000E+00  0.16510251582E+04  0.16510251582E+04  0.50400001928E-02 0.  1.
       -1   -1    0    0    0  501  0.00000000000E+00  0.00000000000E+00 -0.14870139617E+04  0.14870139617E+04  0.50400001928E-02 0. -1.
    10030    2    1    2    0    0  0.00000000000E+00  0.00000000000E+00  0.16401119650E+03  0.31380391200E+04  0.31337501250E+04 0.  0.
        3    1    3    3  502    0  0.12014878628E+04  0.76102224489E+03 -0.57644245683E+03  0.15346054405E+04  0.10100000352E+00 0. -1.
       -3    1    3    3    0  502 -0.12014878628E+04 -0.76102224489E+03  0.74045365333E+03  0.16034336795E+04  0.10100000352E+00 0.  1.
</event>
<event>
 5   0  0.1814075E-07  0.3101986E+04  0.7818609E-02  0.8215193E-01
        1   -1    0    0  501    0  0.00000000000E+00  0.00000000000E+00  0.17820441224E+04  0.17820441224E+04  0.50400001928E-02 0.  1.
       -1   -1    0    0    0  501  0.00000000000E+00  0.00000000000E+00 -0.13498988869E+04  0.13498988869E+04  0.50400001928E-02 0. -1.
    10030    2    1    2    0    0  0.00000000000E+00  0.00000000000E+00  0.43214523551E+03  0.31319430093E+04  0.31019860588E+04 0.  0.
        5    1    3    3  502    0 -0.44701011828E+03 -0.11084714182E+04  0.12140668650E+04  0.17036746677E+04  0.46999998093E+01 0.  1.
       -5    1    3    3    0  502  0.44701011828E+03  0.11084714182E+04 -0.78192162950E+03  0.14282683415E+04  0.46999998093E+01 0. -1.
</event>
<event>
 5   0  0.1840359E-07  0.3109009E+04  0.7818609E-02  0.8213270E-01
        1   -1    0    0  501    0  0.00000000000E+00  0.00000000000E+00  0.19598918244E+04  0.19598918244E+04  0.50400001928E-02 0.  1.
       -1   -1    0    0    0  501  0.00000000000E+00  0.00000000000E+00 -0.12329678811E+04  0.12329678811E+04  0.50400001928E-02 0. -1.
    10030    2    1    2    0    0  0.00000000000E+00  0.00000000000E+00  0.72692394338E+03  0.31928597055E+04  0.31090086329E+04 0.  0.
        1    1    3    3  502    0  0.82963393292E+03 -0.11568882779E+04  0.10046408780E+04  0.17424081737E+04  0.50400001928E-02 0.  1.
       -1    1    3    3    0  502 -0.82963393292E+03  0.11568882779E+04 -0.27771693459E+03  0.14504515318E+04  0.50400001928E-02 0. -1.
</event>
<event>
 5   0  0.5055900E-07  0.3103510E+04  0.7818609E-02  0.8214775E-01
        2   -1    0    0  501    0  0.00000000000E+00  0.00000000000E+00  0.19151962771E+04  0.19151962771E+04  0.25500000920E-02 0. -1.
       -2   -1    0    0    0  501  0.00000000000E+00  0.00000000000E+00 -0.12572833090E+04  0.12572833090E+04  0.25500000920E-02 0.  1.
    10030    2    1    2    0    0  0.00000000000E+00  0.00000000000E+00  0.65791296807E+03  0.31724795860E+04  0.31035104721E+04 0.  0.
        2    1    3    3  502    0  0.52890265134E+02  0.14281013587E+04  0.94710428812E+03  0.17144320935E+04  0.25500000920E-02 0. -1.
       -2    1    3    3    0  502 -0.52890265134E+02 -0.14281013587E+04 -0.28919132006E+03  0.14580474925E+04  0.25500000920E-02 0.  1.
</event>
<event>
 5   0  0.5154105E-07  0.3101195E+04  0.7818609E-02  0.8215410E-01
       -2   -1    0    0    0  501  0.00000000000E+00  0.00000000000E+00  0.12638997557E+04  0.12638997557E+04  0.25500000920E-02 0.  1.
        2   -1    0    0  501    0  0.00000000000E+00  0.00000000000E+00 -0.19023290092E+04  0.19023290092E+04  0.25500000920E-02 0. -1.
    10030    2    1    2    0    0  0.00000000000E+00  0.00000000000E+00 -0.63842925348E+03  0.31662287649E+04  0.31011953631E+04 0.  0.
        1    1    3    3  502    0 -0.11332869449E+04  0.54269745385E+02  0.75986402094E+03  0.13655320703E+04  0.50400001928E-02 0.  1.
       -1    1    3    3    0  502  0.11332869449E+04 -0.54269745385E+02 -0.13982932744E+04  0.18006966946E+04  0.50400001928E-02 0. -1.
</event>
<event>
 5   0  0.1814075E-07  0.3102844E+04  0.7818609E-02  0.8214958E-01
        1   -1    0    0  501    0  0.00000000000E+00  0.00000000000E+00  0.85571052106E+03  0.85571052107E+03  0.50400001928E-02 0.  1.
       -1   -1    0    0    0  501  0.00000000000E+00  0.00000000000E+00 -0.28127624790E+04  0.28127624791E+04  0.50400001928E-02 0. -1.
    10030    2    1    2    0    0  0.00000000000E+00  0.00000000000E+00 -0.19570519580E+04  0.36684730001E+04  0.31028441447E+04 0.  0.
        5    1    3    3  502    0 -0.67556993616E+03  0.50165531517E+03  0.56246833873E+03  0.10121489594E+04  0.46999998093E+01 0.  1.
       -5    1    3    3    0  502  0.67556993616E+03 -0.50165531517E+03 -0.25195202967E+04  0.26563240407E+04  0.46999998093E+01 0. -1.
</event>
<event>
 5   0  0.1845123E-07  0.3084106E+04  0.7818609E-02  0.8220113E-01
       -1   -1    0    0    0  501  0.00000000000E+00  0.00000000000E+00  0.11509984138E+04  0.11509984139E+04  0.50400001928E-02 0. -1.
        1   -1    0    0  501    0  0.00000000000E+00  0.00000000000E+00 -0.20659699520E+04  0.20659699520E+04  0.50400001928E-02 0.  1.
    10030    2    1    2    0    0  0.00000000000E+00  0.00000000000E+00 -0.91497153815E+03  0.32169683659E+04  0.30841064429E+04 0.  0.
        2    1    3    3  502    0 -0.42925038219E+03 -0.14760974278E+04 -0.33055267012E+03  0.15723818159E+04  0.25500000920E-02 0. -1.
       -2    1    3    3    0  502  0.42925038219E+03  0.14760974278E+04 -0.58441886803E+03  0.16445865500E+04  0.25500000920E-02 0.  1.
</event>
<event>
 5   0  0.1830902E-07  0.3107292E+04  0.7818609E-02  0.8213740E-01
       -1   -1    0    0    0  501  0.00000000000E+00  0.00000000000E+00  0.16070932011E+04  0.16070932011E+04  0.50400001928E-02 0.  1.
        1   -1    0    0  501    0  0.00000000000E+00  0.00000000000E+00 -0.15019760282E+04  0.15019760282E+04  0.50400001928E-02 0. -1.
    10030    2    1    2    0    0  0.00000000000E+00  0.00000000000E+00  0.10511717284E+03  0.31090692293E+04  0.31072917231E+04 0.  0.
        3    1    3    3  502    0  0.10478104559E+04  0.10549136985E+04  0.50344458260E+03  0.15697790038E+04  0.10100000352E+00 0.  1.
       -3    1    3    3    0  502 -0.10478104559E+04 -0.10549136985E+04 -0.39832740976E+03  0.15392902255E+04  0.10100000352E+00 0. -1.
</event>
<event>
 5   0  0.5055900E-07  0.3108431E+04  0.7818609E-02  0.8213428E-01
       -2   -1    0    0    0  501  0.00000000000E+00  0.00000000000E+00  0.19073559846E+04  0.19073559846E+04  0.25500000920E-02 0.  1.
        2   -1    0    0  501    0  0.00000000000E+00  0.00000000000E+00 -0.12664578551E+04  0.12664578551E+04  0.25500000920E-02 0. -1.
    10030    2    1    2    0    0  0.00000000000E+00  0.00000000000E+00  0.64089812949E+03  0.31738138397E+04  0.31084310957E+04 0.  0.
        2    1    3    3  502    0 -0.27556665934E+03 -0.95202394876E+03  0.15428358949E+04  0.18337473058E+04  0.25500000920E-02 0.  1.
       -2    1    3    3    0  502  0.27556665934E+03  0.95202394876E+03 -0.90193776543E+03  0.13400665340E+04  0.25500000920E-02 0. -1.
</event>
<event>
 5   0  0.5154105E-07  0.3080697E+04  0.7818609E-02  0.8221055E-01
       -2   -1    0    0    0  501  0.00000000000E+00  0.00000000000E+00  0.12649504125E+04  0.12649504125E+04  0.25500000920E-02 0. -1.
        2   -1    0    0  501    0  0.00000000000E+00  0.00000000000E+00 -0.18757047382E+04  0.18757047382E+04  0.25500000920E-02 0.  1.
    10030    2    1    2    0    0  0.00000000000E+00  0.00000000000E+00 -0.61075432565E+03  0.31406551507E+04  0.30806969876E+04 0.  0.
        1    1    3    3  502    0 -0.13148697760E+04  0.23906498926E+03  0.47545319919E+03  0.14184817030E+04  0.50400001928E-02 0. -1.
       -1    1    3    3    0  502  0.13148697760E+04 -0.23906498926E+03 -0.10862075248E+04  0.17221734477E+04  0.50400001928E-02 0.  1.
</event>
<event>
 5   0  0.1840359E-07  0.3096739E+04  0.7818609E-02  0.8216633E-01
       -1   -1    0    0    0  501  0.00000000000E+00  0.00000000000E+00  0.10498022287E+04  0.10498022287E+04  0.50400001928E-02 0.  1.
        1   -1    0    0  501    0  0.00000000000E+00  0.00000000000E+00 -0.22837144586E+04  0.22837144586E+04  0.50400001928E-02 0. -1.
    10030    2    1    2    0    0  0.00000000000E+00  0.00000000000E+00 -0.12339122300E+04  0.33335166873E+04  0.30967392711E+04 0.  0.
        1    1    3    3  502    0  0.14457796496E+04  0.48377745340E+03 -0.32585549413E+03  0.15590064858E+04  0.50400001928E-02 0.  1.
       -1    1    3    3    0  502 -0.14457796496E+04 -0.48377745340E+03 -0.90805673584E+03  0.17745102015E+04  0.50400001928E-02 0. -1.
</event>
<event>
 5   0  0.5055900E-07  0.3102829E+04  0.7818609E-02  0.8214962E-01
       -2   -1    0    0    0  501  0.00000000000E+00  0.00000000000E+00  0.10003321276E+04  0.10003321276E+04  0.25500000920E-02 0. -1.
        2   -1    0    0  501    0  0.00000000000E+00  0.00000000000E+00 -0.24060871077E+04  0.24060871077E+04  0.25500000920E-02 0.  1.
    10030    2    1    2    0    0  0.00000000000E+00  0.00000000000E+00 -0.14057549802E+04  0.34064192353E+04  0.31028285390E+04 0.  0.
        2    1    3    3  502    0  0.19109837743E+03  0.15043406907E+04 -0.34321572448E+03  0.15547850453E+04  0.25500000920E-02 0. -1.
       -2    1    3    3    0  502 -0.19109837743E+03 -0.15043406907E+04 -0.10625392557E+04  0.18516341900E+04  0.25500000920E-02 0.  1.
</event>
<event>
 5   0  0.1875284E-07  0.3101535E+04  0.7818609E-02  0.8215317E-01
       -1   -1    0    0    0  501  0.00000000000E+00  0.00000000000E+00  0.11176476945E+04  0.11176476945E+04  0.50400001928E-02 0. -1.
        1   -1    0    0  501    0  0.00000000000E+00  0.00000000000E+00 -0.21517333039E+04  0.21517333039E+04  0.50400001928E-02 0.  1.
    10030    2    1    2    0    0  0.00000000000E+00  0.00000000000E+00 -0.10340856094E+04  0.32693809984E+04  0.31015349531E+04 0.  0.
        4    1    3    3  502    0  0.11226038991E+04 -0.39660048337E+03  0.53038402196E+03  0.13033956734E+04  0.12699999809E+01 0. -1.
       -4    1    3    3    0  502 -0.11226038991E+04  0.39660048337E+03 -0.15644696314E+04  0.19659853250E+04  0.12699999809E+01 0.  1.
</event>
<event>
 5   0  0.1830902E-07  0.3094274E+04  0.7818609E-02  0.8217311E-01
       -1   -1    0    0    0  501  0.00000000000E+00  0.00000000000E+00  0.14140889384E+04  0.14140889384E+04  0.50400001928E-02 0. -1.
        1   -1    0    0  501    0  0.00000000000E+00  0.00000000000E+00 -0.16927027614E+04  0.16927027614E+04  0.50400001928E-02 0.  1.
    10030    2    1    2    0    0  0.00000000000E+00  0.00000000000E+00 -0.27861382299E+03  0.31067916998E+04  0.30942735825E+04 0.  0.
        3    1    3    3  502    0  0.30661239866E+02 -0.11683405234E+04 -0.11571499365E+04  0.16446749454E+04  0.10100000352E+00 0.  1.
       -3    1    3    3    0  502 -0.30661239866E+02  0.11683405234E+04  0.87853611355E+03  0.14621167543E+04  0.10100000352E+00 0. -1.
</event>
<event>
 5   0  0.5376678E-07  0.3089831E+04  0.7818609E-02  0.8218534E-01
       -2   -1    0    0    0  501  0.00000000000E+00  0.00000000000E+00  0.21905754265E+04  0.21905754265E+04  0.25500000920E-02 0.  1.
        2   -1    0    0  501    0  0.00000000000E+00  0.00000000000E+00 -0.10895602286E+04  0.10895602286E+04  0.25500000920E-02 0. -1.
    10030    2    1    2    0    0  0.00000000000E+00  0.00000000000E+00  0.11010151979E+04  0.32801356551E+04  0.30898309744E+04 0.  0.
        5    1    3    3  502    0  0.61657898989E+03  0.10267838169E+04  0.15864629465E+04  0.19877981357E+04  0.46999998093E+01 0.  1.
       -5    1    3    3    0  502 -0.61657898989E+03 -0.10267838169E+04 -0.48544774865E+03  0.12923375195E+04  0.46999998093E+01 0. -1.
</event>
<event>
 5   0  0.5055900E-07  0.3101205E+04  0.7818609E-02  0.8215407E-01
        2   -1    0    0  501    0  0.00000000000E+00  0.00000000000E+00  0.19422447390E+04  0.19422447390E+04  0.25500000920E-02 0. -1.
       -2   -1    0    0    0  501  0.00000000000E+00  0.00000000000E+00 -0.12379325207E+04  0.12379325207E+04  0.25500000920E-02 0.  1.
    10030    2    1    2    0    0  0.00000000000E+00  0.00000000000E+00  0.70431221832E+03  0.31801772597E+04  0.31012048791E+04 0.  0.
        2    1    3    3  502    0 -0.10387356139E+04  0.89417683217E+03  0.10957731753E+04  0.17547771182E+04  0.25500000920E-02 0. -1.
       -2    1    3    3    0  502  0.10387356139E+04 -0.89417683217E+03 -0.39146095699E+03  0.14254001416E+04  0.25500000920E-02 0.  1.
</event>
<event>
 5   0  0.1727000E-07  0.3109842E+04  0.7818609E-02  0.8213042E-01
       -3   -1    0    0    0  501  0.00000000000E+00  0.00000000000E+00  0.20597220075E+04  0.20597220100E+04  0.10100000352E+00 0. -1.
        3   -1    0    0  501    0  0.00000000000E+00  0.00000000000E+00 -0.11738373954E+04  0.11738373997E+04  0.10100000352E+00 0.  1.
    10030    2    1    2    0    0  0.00000000000E+00  0.00000000000E+00  0.88588461215E+03  0.32335594098E+04  0.31098416214E+04 0.  0.
        2    1    3    3  502    0 -0.12974952294E+04  0.28831121181E+03 -0.39610593461E+03  0.13869092027E+04  0.25500000920E-02 0.  1.
       -2    1    3    3    0  502  0.12974952294E+04 -0.28831121181E+03  0.12819905468E+04  0.18466502070E+04  0.25500000920E-02 0. -1.
</event>
<event>
 5   0  0.1814075E-07  0.3123645E+04  0.7818609E-02  0.8209279E-01
        1   -1    0    0  501    0  0.00000000000E+00  0.00000000000E+00  0.15183250709E+04  0.15183250709E+04  0.50400001928E-02 0.  1.
       -1   -1    0    0    0  501  0.00000000000E+00  0.00000000000E+00 -0.16065656234E+04  0.16065656234E+04  0.50400001928E-02 0. -1.
    10030    2    1    2    0    0  0.00000000000E+00  0.00000000000E+00 -0.88240552459E+02  0.31248906943E+04  0.31236445791E+04 0.  0.
        5    1    3    3  502    0 -0.64822359800E+03 -0.80018860310E+03 -0.12187995627E+04  0.15956158991E+04  0.46999998093E+01 0. -1.
       -5    1    3    3    0  502  0.64822359800E+03  0.80018860310E+03  0.11305590102E+04  0.15292747952E+04  0.46999998093E+01 0.  1.
</event>
<event>
 5   0  0.1845123E-07  0.3100308E+04  0.7818609E-02  0.8215653E-01
       -1   -1    0    0    0  501  0.00000000000E+00  0.00000000000E+00  0.95266619105E+03  0.95266619106E+03  0.50400001928E-02 0. -1.
        1   -1    0    0  501    0  0.00000000000E+00  0.00000000000E+00 -0.25223705852E+04  0.25223705852E+04  0.50400001928E-02 0.  1.
    10030    2    1    2    0    0  0.00000000000E+00  0.00000000000E+00 -0.15697043941E+04  0.34750367762E+04  0.31003078414E+04 0.  0.
        2    1    3    3  502    0 -0.48653528498E+02 -0.15408409588E+04 -0.60266660852E+03  0.16552235702E+04  0.25500000920E-02 0. -1.
       -2    1    3    3    0  502  0.48653528498E+02  0.15408409588E+04 -0.96703778561E+03  0.18198132061E+04  0.25500000920E-02 0.  1.
</event>
<event>
 5   0  0.1840359E-07  0.3093968E+04  0.7818609E-02  0.8217395E-01
        1   -1    0    0  501    0  0.00000000000E+00  0.00000000000E+00  0.20869287133E+04  0.20869287133E+04  0.50400001928E-02 0. -1.
       -1   -1    0    0    0  501  0.00000000000E+00  0.00000000000E+00 -0.11467373938E+04  0.11467373938E+04  0.50400001928E-02 0.  1.
    10030    2    1    2    0    0  0.00000000000E+00  0.00000000000E+00  0.94019131948E+03  0.32336661071E+04  0.30939678045E+04 0.  0.
        1    1    3    3  502    0  0.18117697413E+03 -0.15113876870E+04  0.18188879915E+03  0.15330366505E+04  0.50400001928E-02 0. -1.
       -1    1    3    3    0  502 -0.18117697413E+03  0.15113876870E+04  0.75830252033E+03  0.17006294566E+04  0.50400001928E-02 0.  1.
</event>
<event>
 5   0  0.5055900E-07  0.3102384E+04  0.7818609E-02  0.8215084E-01
        2   -1    0    0  501    0  0.00000000000E+00  0.00000000000E+00  0.91190525032E+03  0.91190525032E+03  0.25500000920E-02 0. -1.
       -2   -1    0    0    0  501  0.00000000000E+00  0.00000000000E+00 -0.26386479163E+04  0.26386479163E+04  0.25500000920E-02 0.  1.
    10030    2    1    2    0    0  0.00000000000E+00  0.00000000000E+00 -0.17267426660E+04  0.35505531667E+04  0.31023841726E+04 0.  0.
        2    1    3    3  502    0 -0.72969105689E+03 -0.12765928148E+04 -0.14287605657E+04  0.20502426703E+04  0.25500000920E-02 0. -1.
       -2    1    3    3    0  502  0.72969105689E+03  0.12765928148E+04 -0.29798210031E+03  0.15003104963E+04  0.25500000920E-02 0.  1.
</event>
<event>
 5   0  0.1840359E-07  0.3088831E+04  0.7818609E-02  0.8218810E-01
        1   -1    0    0  501    0  0.00000000000E+00  0.00000000000E+00  0.18635218766E+04  0.18635218766E+04  0.50400001928E-02 0. -1.
       -1   -1    0    0    0  501  0.00000000000E+00  0.00000000000E+00 -0.12799522078E+04  0.12799522078E+04  0.50400001928E-02 0.  1.
    10030    2    1    2    0    0  0.00000000000E+00  0.00000000000E+00  0.58356966881E+03  0.31434740845E+04  0.30888308082E+04 0.  0.
        1    1    3    3  502    0 -0.48083821602E+02  0.28574034201E+03 -0.12520418610E+04  0.12851336190E+04  0.50400001928E-02 0.  1.
       -1    1    3    3    0  502  0.48083821602E+02 -0.28574034201E+03  0.18356115298E+04  0.18583404654E+04  0.50400001928E-02 0. -1.
</event>
<event>
 5   0  0.5376678E-07  0.3084834E+04  0.7818609E-02  0.8219912E-01
       -2   -1    0    0    0  501  0.00000000000E+00  0.00000000000E+00  0.10215203064E+04  0.10215203064E+04  0.25500000920E-02 0.  1.
        2   -1    0    0  501    0  0.00000000000E+00  0.00000000000E+00 -0.23289308012E+04  0.23289308012E+04  0.25500000920E-02 0. -1.
    10030    2    1    2    0    0  0.00000000000E+00  0.00000000000E+00 -0.13074104948E+04  0.33504511076E+04  0.30848339376E+04 0.  0.
        5    1    3    3  502    0  0.63123518075E+03  0.12819398645E+04 -0.23015893169E+02  0.14291184314E+04  0.46999998093E+01 0. -1.
       -5    1    3    3    0  502 -0.63123518075E+03 -0.12819398645E+04 -0.12843946017E+04  0.19213326762E+04  0.46999998093E+01 0.  1.
</event>
<event>
 5   0  0.1830902E-07  0.3099961E+04  0.7818609E-02  0.8215749E-01
        1   -1    0    0  501    0  0.00000000000E+00  0.00000000000E+00  0.19551478525E+04  0.19551478525E+04  0.50400001928E-02 0. -1.
       -1   -1    0    0    0  501  0.00000000000E+00  0.00000000000E+00 -0.12287764015E+04  0.12287764015E+04  0.50400001928E-02 0.  1.
    10030    2    1    2    0    0  0.00000000000E+00  0.00000000000E+00  0.72637145106E+03  0.31839242540E+04  0.30999609950E+04 0.  0.
        3    1    3    3  502    0  0.14268935111E+04 -0.48520734062E+03  0.73491153237E+03  0.16767665985E+04  0.10100000352E+00 0.  1.
       -3    1    3    3    0  502 -0.14268935111E+04  0.48520734062E+03 -0.85400813036E+01  0.15071576555E+04  0.10100000352E+00 0. -1.
</event>
<event>
 5   0  0.1814075E-07  0.3093684E+04  0.7818609E-02  0.8217474E-01
        1   -1    0    0  501    0  0.00000000000E+00  0.00000000000E+00  0.16464748658E+04  0.16464748658E+04  0.50400001928E-02 0. -1.
       -1   -1    0    0    0  501  0.00000000000E+00  0.00000000000E+00 -0.14532377700E+04  0.14532377701E+04  0.50400001928E-02 0.  1.
    10030    2    1    2    0    0  0.00000000000E+00  0.00000000000E+00  0.19323709571E+03  0.30997126358E+04  0.30936835406E+04 0.  0.
        5    1    3    3  502    0 -0.73061039469E+03 -0.90938327748E+03  0.11144367648E+04  0.16133074372E+04  0.46999998093E+01 0. -1.
       -5    1    3    3    0  502  0.73061039469E+03  0.90938327748E+03 -0.92119966907E+03  0.14864051986E+04  0.46999998093E+01 0.  1.
</event>
<event>
 5   0  0.1814075E-07  0.3104575E+04  0.7818609E-02  0.8214483E-01
        1   -1    0    0  501    0  0.00000000000E+00  0.00000000000E+00  0.16564592277E+04  0.16564592277E+04  0.50400001928E-02 0. -1.
       -1   -1    0    0    0  501  0.00000000000E+00  0.00000000000E+00 -0.14546672723E+04  0.14546672724E+04  0.50400001928E-02 0.  1.
    10030    2    1    2    0    0  0.00000000000E+00  0.00000000000E+00  0.20179195537E+03  0.31111265001E+04  0.31045753504E+04 0.  0.
        5    1    3    3  502    0 -0.95832088939E+03 -0.10899773024E+04 -0.45085234398E+03  0.15197760930E+04  0.46999998093E+01 0.  1.
       -5    1    3    3    0  502  0.95832088939E+03  0.10899773024E+04  0.65264429934E+03  0.15913504071E+04  0.46999998093E+01 0. -1.
</event>
<event>
 5   0  0.5055900E-07  0.3105354E+04  0.7818609E-02  0.8214270E-01
        2   -1    0    0  501    0  0.00000000000E+00  0.00000000000E+00  0.12023920454E+04  0.12023920454E+04  0.25500000920E-02 0. -1.
       -2   -1    0    0    0  501  0.00000000000E+00  0.00000000000E+00 -0.20050079621E+04  0.20050079621E+04  0.25500000920E-02 0.  1.
    10030    2    1    2    0    0  0.00000000000E+00  0.00000000000E+00 -0.80261591667E+03  0.32074000076E+04  0.31053538444E+04 0.  0.
        2    1    3    3  502    0 -0.52550490532E+03 -0.41554024606E+03 -0.18480427823E+04  0.19657291845E+04  0.25500000920E-02 0.  1.
       -2    1    3    3    0  502  0.52550490532E+03  0.41554024606E+03  0.10454268656E+04  0.12416708231E+04  0.25500000920E-02 0. -1.
</event>
<event>
 5   0  0.1727000E-07  0.3092892E+04  0.7818609E-02  0.8217691E-01
        3   -1    0    0  501    0  0.00000000000E+00  0.00000000000E+00  0.11845118302E+04  0.11845118345E+04  0.10100000352E+00 0.  1.
       -3   -1    0    0    0  501  0.00000000000E+00  0.00000000000E+00 -0.20189705422E+04  0.20189705447E+04  0.10100000352E+00 0. -1.
    10030    2    1    2    0    0  0.00000000000E+00  0.00000000000E+00 -0.83445871197E+03  0.32034823792E+04  0.30928915293E+04 0.  0.
        2    1    3    3  502    0 -0.93629837461E+01  0.12149950271E+04 -0.14080937301E+04  0.18598463737E+04  0.25500000920E-02 0. -1.
       -2    1    3    3    0  502  0.93629837461E+01 -0.12149950271E+04  0.57363501809E+03  0.13436360055E+04  0.25500000920E-02 0.  1.
</event>
<event>
 5   0  0.1840359E-07  0.3102152E+04  0.7818609E-02  0.8215148E-01
       -1   -1    0    0    0  501  0.00000000000E+00  0.00000000000E+00  0.82078205781E+03  0.82078205783E+03  0.50400001928E-02 0.  1.
        1   -1    0    0  501    0  0.00000000000E+00  0.00000000000E+00 -0.29311519277E+04  0.29311519277E+04  0.50400001928E-02 0. -1.
    10030    2    1    2    0    0  0.00000000000E+00  0.00000000000E+00 -0.21103698699E+04  0.37519339856E+04  0.31021520988E+04 0.  0.
        1    1    3    3  502    0 -0.15190039634E+04  0.93707854849E+02 -0.14173832769E+04  0.20796945825E+04  0.50400001928E-02 0.  1.
       -1    1    3    3    0  502  0.15190039634E+04 -0.93707854849E+02 -0.69298659304E+03  0.16722394030E+04  0.50400001928E-02 0. -1.
</event>
<event>
 5   0  0.5055900E-07  0.3099505E+04  0.7818609E-02  0.8215874E-01
        2   -1    0    0  501    0  0.00000000000E+00  0.00000000000E+00  0.15919830502E+04  0.15919830502E+04  0.25500000920E-02 0.  1.
       -2   -1    0    0    0  501  0.00000000000E+00  0.00000000000E+00 -0.15086420422E+04  0.15086420422E+04  0.25500000920E-02 0. -1.
    10030    2    1    2    0    0  0.00000000000E+00  0.00000000000E+00  0.83341007936E+02  0.31006250924E+04  0.30995048379E+04 0.  0.
        2    1    3    3  502    0 -0.13682245260E+04 -0.72742773838E+03  0.18357750783E+02  0.15496859279E+04  0.25500000920E-02 0.  1.
       -2    1    3    3    0  502  0.13682245260E+04  0.72742773838E+03  0.64983257153E+02  0.15509391645E+04  0.25500000920E-02 0. -1.
</event>
<event>
 5   0  0.1845123E-07  0.3087870E+04  0.7818609E-02  0.8219075E-01
        1   -1    0    0  501    0  0.00000000000E+00  0.00000000000E+00  0.13714708070E+04  0.13714708070E+04  0.50400001928E-02 0. -1.
       -1   -1    0    0    0  501  0.00000000000E+00  0.00000000000E+00 -0.17380870479E+04  0.17380870479E+04  0.50400001928E-02 0.  1.
    10030    2    1    2    0    0  0.00000000000E+00  0.00000000000E+00 -0.36661624089E+03  0.31095578549E+04  0.30878702345E+04 0.  0.
        2    1    3    3  502    0  0.81764068209E+03  0.86371743132E+03 -0.11746978424E+04  0.16716635748E+04  0.25500000920E-02 0.  1.
       -2    1    3    3    0  502 -0.81764068209E+03 -0.86371743132E+03  0.80808160152E+03  0.14378942802E+04  0.25500000920E-02 0. -1.
</event>
<event>
 5   0  0.1845123E-07  0.3085018E+04  0.7818609E-02  0.8219862E-01
       -1   -1    0    0    0  501  0.00000000000E+00  0.00000000000E+00  0.25956775132E+04  0.25956775132E+04  0.50400001928E-02 0. -1.
        1   -1    0    0  501    0  0.00000000000E+00  0.00000000000E+00 -0.91665224605E+03  0.91665224606E+03  0.50400001928E-02 0.  1.
    10030    2    1    2    0    0  0.00000000000E+00  0.00000000000E+00  0.16790252671E+04  0.35123297592E+04  0.30850177455E+04 0.  0.
        2    1    3    3  502    0 -0.13014492604E+04 -0.50304484948E+03  0.90765186996E+02  0.13982355371E+04  0.25500000920E-02 0.  1.
       -2    1    3    3    0  502  0.13014492604E+04  0.50304484948E+03  0.15882600801E+04  0.21140942222E+04  0.25500000920E-02 0. -1.
</event>
<event>
 5   0  0.1875284E-07  0.3100859E+04  0.7818609E-02  0.8215502E-01
        1   -1    0    0  501    0  0.00000000000E+00  0.00000000000E+00  0.13358838566E+04  0.13358838566E+04  0.50400001928E-02 0.  1.
       -1   -1    0    0    0  501  0.00000000000E+00  0.00000000000E+00 -0.17994316350E+04  0.17994316350E+04  0.50400001928E-02 0. -1.
    10030    2    1    2    0    0  0.00000000000E+00  0.00000000000E+00 -0.46354777838E+03  0.31353154915E+04  0.31008590243E+04 0.  0.
        4    1    3    3  502    0 -0.41212419554E+03 -0.24198417155E+03 -0.17230962168E+04  0.17881456532E+04  0.12699999809E+01 0. -1.
       -4    1    3    3    0  502  0.41212419554E+03  0.24198417155E+03  0.12595484384E+04  0.13471698384E+04  0.12699999809E+01 0.  1.
</event>
<event>
 5   0  0.1875284E-07  0.3101619E+04  0.7818609E-02  0.8215294E-01
        1   -1    0    0  501    0  0.00000000000E+00  0.00000000000E+00  0.10776344282E+04  0.10776344282E+04  0.50400001928E-02 0. -1.
       -1   -1    0    0    0  501  0.00000000000E+00  0.00000000000E+00 -0.22317492375E+04  0.22317492375E+04  0.50400001928E-02 0.  1.
    10030    2    1    2    0    0  0.00000000000E+00  0.00000000000E+00 -0.11541148092E+04  0.33093836657E+04  0.31016188118E+04 0.  0.
        4    1    3    3  502    0 -0.97843186090E+03  0.67738461144E+03  0.48395235383E+03  0.12846751776E+04  0.12699999809E+01 0. -1.
       -4    1    3    3    0  502  0.97843186090E+03 -0.67738461144E+03 -0.16380671631E+04  0.20247084881E+04  0.12699999809E+01 0.  1.
</event>
<event>
 5   0  0.1814075E-07  0.3097843E+04  0.7818609E-02  0.8216330E-01
        1   -1    0    0  501    0  0.00000000000E+00  0.00000000000E+00  0.13862283966E+04  0.13862283966E+04  0.50400001928E-02 0. -1.
       -1   -1    0    0    0  501  0.00000000000E+00  0.00000000000E+00 -0.17307092745E+04  0.17307092745E+04  0.50400001928E-02 0.  1.
    10030    2    1    2    0    0  0.00000000000E+00  0.00000000000E+00 -0.34448087791E+03  0.31169376711E+04  0.30978433418E+04 0.  0.
        5    1    3    3  502    0 -0.12323073038E+04  0.91029428430E+03 -0.40150291914E+03  0.15838066988E+04  0.46999998093E+01 0. -1.
       -5    1    3    3    0  502  0.12323073038E+04 -0.91029428430E+03  0.57022041232E+02  0.15331309723E+04  0.46999998093E+01 0.  1.
</event>
<event>
 5   0  0.1830902E-07  0.3094975E+04  0.7818609E-02  0.8217118E-01
        1   -1    0    0  501    0  0.00000000000E+00  0.00000000000E+00  0.21336031641E+04  0.21336031641E+04  0.50400001928E-02 0.  1.
       -1   -1    0    0    0  501  0.00000000000E+00  0.00000000000E+00 -0.11223821058E+04  0.11223821058E+04  0.50400001928E-02 0. -1.
    10030    2    1    2    0    0  0.00000000000E+00  0.00000000000E+00  0.10112210583E+04  0.32559852698E+04  0.30949752905E+04 0.  0.
        3    1    3    3  502    0 -0.14955999216E+04 -0.11967832808E+03  0.90423699712E+03  0.17517952462E+04  0.10100000352E+00 0.  1.
       -3    1    3    3    0  502  0.14955999216E+04  0.11967832808E+03  0.10698406119E+03  0.15041900236E+04  0.10100000352E+00 0. -1.
</event>
<event>
 5   0  0.5376678E-07  0.3119847E+04  0.7818609E-02  0.8210312E-01
        2   -1    0    0  501    0  0.00000000000E+00  0.00000000000E+00  0.25546839499E+04  0.25546839499E+04  0.25500000920E-02 0.  1.
       -2   -1    0    0    0  501  0.00000000000E+00  0.00000000000E+00 -0.95250972254E+03  0.95250972254E+03  0.25500000920E-02 0. -1.
    10030    2    1    2    0    0  0.00000000000E+00  0.00000000000E+00  0.16021742274E+04  0.35071936725E+04  0.31198469836E+04 0.  0.
        5    1    3    3  502    0  0.15323230509E+04 -0.16673027718E+03  0.53146243052E+03  0.16304255036E+04  0.46999998093E+01 0.  1.
       -5    1    3    3    0  502 -0.15323230509E+04  0.16673027718E+03  0.10707117969E+04  0.18767681689E+04  0.46999998093E+01 0. -1.
</event>
<event>
 5   0  0.1814075E-07  0.3101966E+04  0.7818609E-02  0.8215199E-01
       -1   -1    0    0    0  501  0.00000000000E+00  0.00000000000E+00  0.10177344215E+04  0.10177344215E+04  0.50400001928E-02 0. -1.
        1   -1    0    0  501    0  0.00000000000E+00  0.00000000000E+00 -0.23636299954E+04  0.23636299954E+04  0.50400001928E-02 0.  1.
    10030    2    1    2    0    0  0.00000000000E+00  0.00000000000E+00 -0.13458955738E+04  0.33813644169E+04  0.31019655743E+04 0.  0.
        5    1    3    3  502    0  0.47249362443E+03 -0.56333190374E+03 -0.21615770712E+04  0.22832062070E+04  0.46999998093E+01 0.  1.
       -5    1    3    3    0  502 -0.47249362443E+03  0.56333190374E+03  0.81568149736E+03  0.10981582099E+04  0.46999998093E+01 0. -1.
</event>
<event>
 5   0  0.5154105E-07  0.3100827E+04  0.7818609E-02  0.8215511E-01
       -2   -1    0    0    0  501  0.00000000000E+00  0.00000000000E+00  0.18888590276E+04  0.18888590276E+04  0.25500000920E-02 0.  1.
        2   -1    0    0  501    0  0.00000000000E+00  0.00000000000E+00 -0.12726105063E+04  0.12726105063E+04  0.25500000920E-02 0. -1.
    10030    2    1    2    0    0  0.00000000000E+00  0.00000000000E+00  0.61624852134E+03  0.31614695339E+04  0.31008268855E+04 0.  0.
        1    1    3    3  502    0  0.13373969275E+04  0.19149286916E+03 -0.46733024476E+03  0.14295795250E+04  0.50400001928E-02 0. -1.
       -1    1    3    3    0  502 -0.13373969275E+04 -0.19149286916E+03  0.10835787661E+04  0.17318900089E+04  0.50400001928E-02 0.  1.
</event>
<event>
 5   0  0.1830902E-07  0.3098590E+04  0.7818609E-02  0.8216125E-01
       -1   -1    0    0    0  501  0.00000000000E+00  0.00000000000E+00  0.99662402583E+03  0.99662402584E+03  0.50400001928E-02 0.  1.
        1   -1    0    0  501    0  0.00000000000E+00  0.00000000000E+00 -0.24084457552E+04  0.24084457552E+04  0.50400001928E-02 0. -1.
    10030    2    1    2    0    0  0.00000000000E+00  0.00000000000E+00 -0.14118217294E+04  0.34050697810E+04  0.30985899403E+04 0.  0.
        3    1    3    3  502    0  0.70482722243E+03 -0.13788803971E+04 -0.65410650428E+03  0.16810555887E+04  0.10100000352E+00 0.  1.
       -3    1    3    3    0  502 -0.70482722243E+03  0.13788803971E+04 -0.75771522508E+03  0.17240141924E+04  0.10100000352E+00 0. -1.
</event>
<event>
 5   0  0.1845123E-07  0.3102114E+04  0.7818609E-02  0.8215158E-01
        1   -1    0    0  501    0  0.00000000000E+00  0.00000000000E+00  0.15805254607E+04  0.15805254607E+04  0.50400001928E-02 0.  1.
       -1   -1    0    0    0  501  0.00000000000E+00  0.00000000000E+00 -0.15221377753E+04  0.15221377753E+04  0.50400001928E-02 0. -1.
    10030    2    1    2    0    0  0.00000000000E+00  0.00000000000E+00  0.58387685388E+02  0.31026632360E+04  0.31021138010E+04 0.  0.
        2    1    3    3  502    0 -0.77310192078E+03 -0.23117953656E+02  0.13738859417E+04  0.15766368004E+04  0.25500000920E-02 0.  1.
       -2    1    3    3    0  502  0.77310192078E+03  0.23117953656E+02 -0.13154982563E+04  0.15260264356E+04  0.25500000920E-02 0. -1.
</event>
<event>
 5   0  0.5154105E-07  0.3100253E+04  0.7818609E-02  0.8215668E-01
        2   -1    0    0  501    0  0.00000000000E+00  0.00000000000E+00  0.17425416059E+04  0.17425416059E+04  0.25500000920E-02 0. -1.
       -2   -1    0    0    0  501  0.00000000000E+00  0.00000000000E+00 -0.13789585758E+04  0.13789585758E+04  0.25500000920E-02 0.  1.
    10030    2    1    2    0    0  0.00000000000E+00  0.00000000000E+00  0.36358303011E+03  0.31215001817E+04  0.31002533387E+04 0.  0.
        1    1    3    3  502    0  0.77691520858E+03  0.79692281291E+03  0.12681714765E+04  0.16872883882E+04  0.50400001928E-02 0. -1.
       -1    1    3    3    0  502 -0.77691520858E+03 -0.79692281291E+03 -0.90458844642E+03  0.14342117935E+04  0.50400001928E-02 0.  1.
</event>
<event>
 5   0  0.5342534E-07  0.3098221E+04  0.7818609E-02  0.8216226E-01
        2   -1    0    0  501    0  0.00000000000E+00  0.00000000000E+00  0.16414563639E+04  0.16414563640E+04  0.25500000920E-02 0. -1.
       -2   -1    0    0    0  501  0.00000000000E+00  0.00000000000E+00 -0.14619595730E+04  0.14619595730E+04  0.25500000920E-02 0.  1.
    10030    2    1    2    0    0  0.00000000000E+00  0.00000000000E+00  0.17949679099E+03  0.31034159369E+04  0.30982206796E+04 0.  0.
        3    1    3    3  502    0 -0.21519330081E+02 -0.48766964478E+03  0.15624034938E+04  0.16368840679E+04  0.10100000352E+00 0. -1.
       -3    1    3    3    0  502  0.21519330081E+02  0.48766964478E+03 -0.13829067028E+04  0.14665318690E+04  0.10100000352E+00 0.  1.
</event>
<event>
 5   0  0.5154105E-07  0.3103272E+04  0.7818609E-02  0.8214841E-01
       -2   -1    0    0    0  501  0.00000000000E+00  0.00000000000E+00  0.14224686644E+04  0.14224686644E+04  0.25500000920E-02 0. -1.
        2   -1    0    0  501    0  0.00000000000E+00  0.00000000000E+00 -0.16925318570E+04  0.16925318570E+04  0.25500000920E-02 0.  1.
    10030    2    1    2    0    0  0.00000000000E+00  0.00000000000E+00 -0.27006319266E+03  0.31150005214E+04  0.31032715190E+04 0.  0.
        1    1    3    3  502    0 -0.10711887861E+04  0.44961786636E+03  0.89743357967E+03  0.14679879669E+04  0.50400001928E-02 0. -1.
       -1    1    3    3    0  502  0.10711887861E+04 -0.44961786636E+03 -0.11674967723E+04  0.16470125545E+04  0.50400001928E-02 0.  1.
</event>
<event>
 5   0  0.5342534E-07  0.3103729E+04  0.7818609E-02  0.8214715E-01
        2   -1    0    0  501    0  0.00000000000E+00  0.00000000000E+00  0.29899946870E+04  0.29899946870E+04  0.25500000920E-02 0.  1.
       -2   -1    0    0    0  501  0.00000000000E+00  0.00000000000E+00 -0.80544725040E+03  0.80544725041E+03  0.25500000920E-02 0. -1.
    10030    2    1    2    0    0  0.00000000000E+00  0.00000000000E+00  0.21845474366E+04  0.37954419374E+04  0.31037287249E+04 0.  0.
        3    1    3    3  502    0 -0.57342740838E+01  0.15015617660E+04  0.15714783418E+04  0.21735373951E+04  0.10100000352E+00 0. -1.
       -3    1    3    3    0  502  0.57342740838E+01 -0.15015617660E+04  0.61306909477E+03  0.16219045423E+04  0.10100000352E+00 0.  1.
</event>
<event>
 5   0  0.5055900E-07  0.3157624E+04  0.7818609E-02  0.8200099E-01
       -2   -1    0    0    0  501  0.00000000000E+00  0.00000000000E+00  0.25070900580E+04  0.25070900580E+04  0.25500000920E-02 0.  1.
        2   -1    0    0  501    0  0.00000000000E+00  0.00000000000E+00 -0.99423946910E+03  0.99423946910E+03  0.25500000920E-02 0. -1.
    10030    2    1    2    0    0  0.00000000000E+00  0.00000000000E+00  0.15128505889E+04  0.35013295271E+04  0.31576243528E+04 0.  0.
        2    1    3    3  502    0 -0.13922800662E+04 -0.74404401101E+03  0.72920501729E+03  0.17389034563E+04  0.25500000920E-02 0. -1.
       -2    1    3    3    0  502  0.13922800662E+04  0.74404401101E+03  0.78364557165E+03  0.17624260708E+04  0.25500000920E-02 0.  1.
</event>
<event>
 5   0  0.5154105E-07  0.3140177E+04  0.7818609E-02  0.8204797E-01
        2   -1    0    0  501    0  0.00000000000E+00  0.00000000000E+00  0.23437223114E+04  0.23437223114E+04  0.25500000920E-02 0. -1.
       -2   -1    0    0    0  501  0.00000000000E+00  0.00000000000E+00 -0.10518217662E+04  0.10518217662E+04  0.25500000920E-02 0.  1.
    10030    2    1    2    0    0  0.00000000000E+00  0.00000000000E+00  0.12919005452E+04  0.33955440775E+04  0.31401771548E+04 0.  0.
        1    1    3    3  502    0 -0.58320866483E+03  0.82678062300E+03  0.19442036836E+04  0.21917177073E+04  0.50400001928E-02 0. -1.
       -1    1    3    3    0  502  0.58320866483E+03 -0.82678062300E+03 -0.65230313836E+03  0.12038263702E+04  0.50400001928E-02 0.  1.
</event>
<event>
 5   0  0.1814075E-07  0.3097921E+04  0.7818609E-02  0.8216309E-01
        1   -1    0    0  501    0  0.00000000000E+00  0.00000000000E+00  0.17078585929E+04  0.17078585929E+04  0.50400001928E-02 0. -1.
       -1   -1    0    0    0  501  0.00000000000E+00  0.00000000000E+00 -0.14048460941E+04  0.14048460941E+04  0.50400001928E-02 0.  1.
    10030    2    1    2    0    0  0.00000000000E+00  0.00000000000E+00  0.30301249887E+03  0.31127046870E+04  0.30979208986E+04 0.  0.
        5    1    3    3  502    0  0.51467708849E+03 -0.12464341885E+04 -0.61421036714E+03  0.14818121193E+04  0.46999998093E+01 0.  1.
       -5    1    3    3    0  502 -0.51467708849E+03  0.12464341885E+04  0.91722286602E+03  0.16308925678E+04  0.46999998093E+01 0. -1.
</event>
<event>
 5   0  0.1814075E-07  0.3107902E+04  0.7818609E-02  0.8213573E-01
       -1   -1    0    0    0  501  0.00000000000E+00  0.00000000000E+00  0.11586785154E+04  0.11586785154E+04  0.50400001928E-02 0. -1.
        1   -1    0    0  501    0  0.00000000000E+00  0.00000000000E+00 -0.20840674995E+04  0.20840674995E+04  0.50400001928E-02 0.  1.
    10030    2    1    2    0    0  0.00000000000E+00  0.00000000000E+00 -0.92538898410E+03  0.32427460149E+04  0.31079023385E+04 0.  0.
        5    1    3    3  502    0 -0.15133177363E+04  0.10862551917E+03 -0.81314230919E+03  0.17213810093E+04  0.46999998093E+01 0. -1.
       -5    1    3    3    0  502  0.15133177363E+04 -0.10862551917E+03 -0.11224667491E+03  0.15213650056E+04  0.46999998093E+01 0.  1.
</event>
<event>
 5   0  0.5055900E-07  0.3101380E+04  0.7818609E-02  0.8215359E-01
        2   -1    0    0  501    0  0.00000000000E+00  0.00000000000E+00  0.13027396689E+04  0.13027396689E+04  0.25500000920E-02 0. -1.
       -2   -1    0    0    0  501  0.00000000000E+00  0.00000000000E+00 -0.18458325220E+04  0.18458325220E+04  0.25500000920E-02 0.  1.
    10030    2    1    2    0    0  0.00000000000E+00  0.00000000000E+00 -0.54309285312E+03  0.31485721909E+04  0.31013798532E+04 0.  0.
        2    1    3    3  502    0 -0.28212141515E+02 -0.12203380933E+04 -0.12424556530E+04  0.17417568822E+04  0.25500000920E-02 0.  1.
       -2    1    3    3    0  502  0.28212141515E+02  0.12203380933E+04  0.69936279991E+03  0.14068153087E+04  0.25500000920E-02 0. -1.
</event>
<event>
 5   0  0.1830902E-07  0.3092206E+04  0.7818609E-02  0.8217880E-01
        1   -1    0    0  501    0  0.00000000000E+00  0.00000000000E+00  0.19467351307E+04  0.19467351307E+04  0.50400001928E-02 0. -1.
       -1   -1    0    0    0  501  0.00000000000E+00  0.00000000000E+00 -0.12279198855E+04  0.12279198855E+04  0.50400001928E-02 0.  1.
    10030    2    1    2    0    0  0.00000000000E+00  0.00000000000E+00  0.71881524523E+03  0.31746550162E+04  0.30922061890E+04 0.  0.
        3    1    3    3  502    0  0.10590504955E+04  0.94367566698E+03  0.99088747026E+03  0.17303091358E+04  0.10100000352E+00 0. -1.
       -3    1    3    3    0  502 -0.10590504955E+04 -0.94367566698E+03 -0.27207222503E+03  0.14443458804E+04  0.10100000352E+00 0.  1.
</event>
<event>
 5   0  0.1814075E-07  0.3100403E+04  0.7818609E-02  0.8215627E-01
        1   -1    0    0  501    0  0.00000000000E+00  0.00000000000E+00  0.31420009608E+04  0.31420009608E+04  0.50400001928E-02 0.  1.
       -1   -1    0    0    0  501  0.00000000000E+00  0.00000000000E+00 -0.76483909772E+03  0.76483909773E+03  0.50400001928E-02 0. -1.
    10030    2    1    2    0    0  0.00000000000E+00  0.00000000000E+00  0.23771618631E+04  0.39068400586E+04  0.31004033157E+04 0.  0.
        5    1    3    3  502    0  0.67370994011E+03  0.12202836124E+04  0.33381779319E+03  0.14333295459E+04  0.46999998093E+01 0. -1.
       -5    1    3    3    0  502 -0.67370994011E+03 -0.12202836124E+04  0.20433440699E+04  0.24735105127E+04  0.46999998093E+01 0.  1.
</event>
<event>
 5   0  0.5376678E-07  0.3096935E+04  0.7818609E-02  0.8216580E-01
        2   -1    0    0  501    0  0.00000000000E+00  0.00000000000E+00  0.19957615847E+04  0.19957615847E+04  0.25500000920E-02 0.  1.
       -2   -1    0    0    0  501  0.00000000000E+00  0.00000000000E+00 -0.12014216423E+04  0.12014216423E+04  0.25500000920E-02 0. -1.
    10030    2    1    2    0    0  0.00000000000E+00  0.00000000000E+00  0.79433994243E+03  0.31971832270E+04  0.30969347173E+04 0.  0.
        5    1    3    3  502    0  0.13731526475E+04  0.53161301075E+03  0.89181267646E+03  0.17214855580E+04  0.46999998093E+01 0. -1.
       -5    1    3    3    0  502 -0.13731526475E+04 -0.53161301075E+03 -0.97472734031E+02  0.14756976690E+04  0.46999998093E+01 0.  1.
</event>
<event>
 5   0  0.5342534E-07  0.3113660E+04  0.7818609E-02  0.8211999E-01
        2   -1    0    0  501    0  0.00000000000E+00  0.00000000000E+00  0.16970083735E+04  0.16970083735E+04  0.25500000920E-02 0. -1.
       -2   -1    0    0    0  501  0.00000000000E+00  0.00000000000E+00 -0.14282305387E+04  0.14282305387E+04  0.25500000920E-02 0.  1.
    10030    2    1    2    0    0  0.00000000000E+00  0.00000000000E+00  0.26877783480E+03  0.31252389121E+04  0.31136597009E+04 0.  0.
        3    1    3    3  502    0  0.94646973319E+03 -0.68431044213E+03  0.11676020179E+04  0.16514781922E+04  0.10100000352E+00 0. -1.
       -3    1    3    3    0  502 -0.94646973319E+03  0.68431044213E+03 -0.89882418311E+03  0.14737607199E+04  0.10100000352E+00 0.  1.
</event>
<event>
 5   0  0.1814075E-07  0.3099221E+04  0.7818609E-02  0.8215952E-01
        1   -1    0    0  501    0  0.00000000000E+00  0.00000000000E+00  0.14595919281E+04  0.14595919281E+04  0.50400001928E-02 0. -1.
       -1   -1    0    0    0  501  0.00000000000E+00  0.00000000000E+00 -0.16451809289E+04  0.16451809289E+04  0.50400001928E-02 0.  1.
    10030    2    1    2    0    0  0.00000000000E+00  0.00000000000E+00 -0.18558900085E+03  0.31047728570E+04  0.30992210661E+04 0.  0.
        5    1    3    3  502    0 -0.12206190793E+04  0.87045817673E+03 -0.48549458859E+03  0.15758602285E+04  0.46999998093E+01 0.  1.
       -5    1    3    3    0  502  0.12206190793E+04 -0.87045817673E+03  0.29990558775E+03  0.15289126285E+04  0.46999998093E+01 0. -1.
</event>
<event>
 5   0  0.5055900E-07  0.3095557E+04  0.7818609E-02  0.8216958E-01
        2   -1    0    0  501    0  0.00000000000E+00  0.00000000000E+00  0.24765004200E+04  0.24765004200E+04  0.25500000920E-02 0.  1.
       -2   -1    0    0    0  501  0.00000000000E+00  0.00000000000E+00 -0.96734026236E+03  0.96734026237E+03  0.25500000920E-02 0. -1.
    10030    2    1    2    0    0  0.00000000000E+00  0.00000000000E+00  0.15091601576E+04  0.34438406824E+04  0.30955571815E+04 0.  0.
        2    1    3    3  502    0  0.95105728905E+03  0.82779899082E+03 -0.24411596269E+03  0.12842716767E+04  0.25500000920E-02 0.  1.
       -2    1    3    3    0  502 -0.95105728905E+03 -0.82779899082E+03  0.17532761203E+04  0.21595690057E+04  0.25500000920E-02 0. -1.
</event>
<event>
 5   0  0.1840359E-07  0.3100911E+04  0.7818609E-02  0.8215488E-01
       -1   -1    0    0    0  501  0.00000000000E+00  0.00000000000E+00  0.10489227541E+04  0.10489227541E+04  0.50400001928E-02 0.  1.
        1   -1    0    0  501    0  0.00000000000E+00  0.00000000000E+00 -0.22917908379E+04  0.22917908379E+04  0.50400001928E-02 0. -1.
    10030    2    1    2    0    0  0.00000000000E+00  0.00000000000E+00 -0.12428680838E+04  0.33407135920E+04  0.31009105485E+04 0.  0.
        1    1    3    3  502    0  0.39669695473E+02 -0.47048906233E+03  0.96958596020E+03  0.10784389537E+04  0.50400001928E-02 0.  1.
       -1    1    3    3    0  502 -0.39669695473E+02  0.47048906233E+03 -0.22124540440E+04  0.22622746383E+04  0.50400001928E-02 0. -1.
</event>
<event>
 5   0  0.1727000E-07  0.3124255E+04  0.7818609E-02  0.8209113E-01
        3   -1    0    0  501    0  0.00000000000E+00  0.00000000000E+00  0.30711014585E+04  0.30711014601E+04  0.10100000352E+00 0. -1.
       -3   -1    0    0    0  501  0.00000000000E+00  0.00000000000E+00 -0.79458223463E+03  0.79458224105E+03  0.10100000352E+00 0.  1.
    10030    2    1    2    0    0  0.00000000000E+00  0.00000000000E+00  0.22765192238E+04  0.38656837012E+04  0.31242552234E+04 0.  0.
        3    1    3    3  502    0 -0.90696715308E+03  0.11402180830E+04  0.44100731519E+03  0.15222267098E+04  0.10100000352E+00 0.  1.
       -3    1    3    3    0  502  0.90696715308E+03 -0.11402180830E+04  0.18355119086E+04  0.23434569914E+04  0.10100000352E+00 0. -1.
</event>
<event>
 5   0  0.5154105E-07  0.3102059E+04  0.7818609E-02  0.8215173E-01
       -2   -1    0    0    0  501  0.00000000000E+00  0.00000000000E+00  0.17794595263E+04  0.17794595263E+04  0.25500000920E-02 0. -1.
        2   -1    0    0  501    0  0.00000000000E+00  0.00000000000E+00 -0.13519228289E+04  0.13519228289E+04  0.25500000920E-02 0.  1.
    10030    2    1    2    0    0  0.00000000000E+00  0.00000000000E+00  0.42753669744E+03  0.31313823553E+04  0.31020586434E+04 0.  0.
        1    1    3    3  502    0  0.14245710188E+04 -0.42959246331E+03  0.65578853221E+03  0.16260414728E+04  0.50400001928E-02 0. -1.
       -1    1    3    3    0  502 -0.14245710188E+04  0.42959246331E+03 -0.22825183478E+03  0.15053408825E+04  0.50400001928E-02 0.  1.
</event>
<event>
 5   0  0.1845123E-07  0.3100472E+04  0.7818609E-02  0.8215608E-01
       -1   -1    0    0    0  501  0.00000000000E+00  0.00000000000E+00  0.10209139978E+04  0.10209139979E+04  0.50400001928E-02 0.  1.
        1   -1    0    0  501    0  0.00000000000E+00  0.00000000000E+00 -0.23539995371E+04  0.23539995371E+04  0.50400001928E-02 0. -1.
    10030    2    1    2    0    0  0.00000000000E+00  0.00000000000E+00 -0.13330855393E+04  0.33749135350E+04  0.31004716276E+04 0.  0.
        2    1    3    3  502    0  0.14139308753E+04  0.44006063808E+03 -0.11658113283E+04  0.18846670631E+04  0.25500000920E-02 0. -1.
       -2    1    3    3    0  502 -0.14139308753E+04 -0.44006063808E+03 -0.16727421099E+03  0.14902464719E+04  0.25500000920E-02 0.  1.
</event>
<event>
 5   0  0.1830902E-07  0.3101551E+04  0.7818609E-02  0.8215312E-01
        1   -1    0    0  501    0  0.00000000000E+00  0.00000000000E+00  0.18937146096E+04  0.18937146097E+04  0.50400001928E-02 0. -1.
       -1   -1    0    0    0  501  0.00000000000E+00  0.00000000000E+00 -0.12699404079E+04  0.12699404080E+04  0.50400001928E-02 0.  1.
    10030    2    1    2    0    0  0.00000000000E+00  0.00000000000E+00  0.62377420169E+03  0.31636550176E+04  0.31015510339E+04 0.  0.
        3    1    3    3  502    0  0.80263022146E+03  0.78573712094E+03 -0.77877831670E+03  0.13667822696E+04  0.10100000352E+00 0.  1.
       -3    1    3    3    0  502 -0.80263022146E+03 -0.78573712094E+03  0.14025525184E+04  0.17968727480E+04  0.10100000352E+00 0. -1.
</event>
<event>
 5   0  0.1814075E-07  0.3082428E+04  0.7818609E-02  0.8220577E-01
        1   -1    0    0  501    0  0.00000000000E+00  0.00000000000E+00  0.14058176370E+04  0.14058176370E+04  0.50400001928E-02 0.  1.
       -1   -1    0    0    0  501  0.00000000000E+00  0.00000000000E+00 -0.16896502853E+04  0.16896502853E+04  0.50400001928E-02 0. -1.
    10030    2    1    2    0    0  0.00000000000E+00  0.00000000000E+00 -0.28383264835E+03  0.30954679223E+04  0.30824277260E+04 0.  0.
        5    1    3    3  502    0 -0.15900087298E+03  0.66062840220E+03 -0.15311003209E+04  0.16751123682E+04  0.46999998093E+01 0. -1.
       -5    1    3    3    0  502  0.15900087298E+03 -0.66062840220E+03  0.12472676725E+04  0.14203555542E+04  0.46999998093E+01 0.  1.
</event>
<event>
 5   0  0.1845123E-07  0.3103636E+04  0.7818609E-02  0.8214741E-01
       -1   -1    0    0    0  501  0.00000000000E+00  0.00000000000E+00  0.14895842014E+04  0.14895842014E+04  0.50400001928E-02 0. -1.
        1   -1    0    0  501    0  0.00000000000E+00  0.00000000000E+00 -0.16166514027E+04  0.16166514027E+04  0.50400001928E-02 0.  1.
    10030    2    1    2    0    0  0.00000000000E+00  0.00000000000E+00 -0.12706720130E+03  0.31062356040E+04  0.31036355382E+04 0.  0.
        2    1    3    3  502    0 -0.44182730853E+02 -0.46497258872E+03  0.14175665376E+04  0.14925302377E+04  0.25500000920E-02 0. -1.
       -2    1    3    3    0  502  0.44182730853E+02  0.46497258872E+03 -0.15446337389E+04  0.16137053663E+04  0.25500000920E-02 0.  1.
</event>
<event>
 5   0  0.5248309E-07  0.3093007E+04  0.7818609E-02  0.8217660E-01
       -2   -1    0    0    0  501  0.00000000000E+00  0.00000000000E+00  0.16018484968E+04  0.16018484968E+04  0.25500000920E-02 0. -1.
        2   -1    0    0  501    0  0.00000000000E+00  0.00000000000E+00 -0.14930705276E+04  0.14930705276E+04  0.25500000920E-02 0.  1.
    10030    2    1    2    0    0  0.00000000000E+00  0.00000000000E+00  0.10877796915E+03  0.30949190244E+04  0.30930068091E+04 0.  0.
        4    1    3    3  502    0  0.69356669960E+02  0.19393563725E+03  0.15880628348E+04  0.16013639683E+04  0.12699999809E+01 0. -1.
       -4    1    3    3    0  502 -0.69356669960E+02 -0.19393563725E+03 -0.14792848656E+04  0.14935550561E+04  0.12699999809E+01 0.  1.
</event>
<event>
 5   0  0.1875284E-07  0.3101706E+04  0.7818609E-02  0.8215270E-01
        1   -1    0    0  501    0  0.00000000000E+00  0.00000000000E+00  0.10814866082E+04  0.10814866082E+04  0.50400001928E-02 0.  1.
       -1   -1    0    0    0  501  0.00000000000E+00  0.00000000000E+00 -0.22239252457E+04  0.22239252457E+04  0.50400001928E-02 0. -1.
    10030    2    1    2    0    0  0.00000000000E+00  0.00000000000E+00 -0.11424386374E+04  0.33054118539E+04  0.31017062214E+04 0.  0.
        4    1    3    3  502    0  0.88422571502E+03  0.33449950186E+03  0.73891084287E+03  0.11998899443E+04  0.12699999809E+01 0.  1.
       -4    1    3    3    0  502 -0.88422571502E+03 -0.33449950186E+03 -0.18813494803E+04  0.21055219096E+04  0.12699999809E+01 0. -1.
</event>
<event>
 5   0  0.1814075E-07  0.3099098E+04  0.7818609E-02  0.8215985E-01
       -1   -1    0    0    0  501  0.00000000000E+00  0.00000000000E+00  0.23323340092E+04  0.23323340092E+04  0.50400001928E-02 0. -1.
        1   -1    0    0  501    0  0.00000000000E+00  0.00000000000E+00 -0.10294848577E+04  0.10294848577E+04  0.50400001928E-02 0.  1.
    10030    2    1    2    0    0  0.00000000000E+00  0.00000000000E+00  0.13028491516E+04  0.33618188669E+04  0.30990982853E+04 0.  0.
        5    1    3    3  502    0 -0.72452903610E+03 -0.64310524014E+02  0.21356236215E+04  0.22561002882E+04  0.46999998093E+01 0. -1.
       -5    1    3    3    0  502  0.72452903610E+03  0.64310524014E+02 -0.83277446991E+03  0.11057185787E+04  0.46999998093E+01 0.  1.
</event>
<event>
 5   0  0.1727000E-07  0.3095295E+04  0.7818609E-02  0.8217030E-01
       -4   -1    0    0    0  501  0.00000000000E+00  0.00000000000E+00  0.17700652373E+04  0.17700656929E+04  0.12699999809E+01 0. -1.
        4   -1    0    0  501    0  0.00000000000E+00  0.00000000000E+00 -0.13531765659E+04  0.13531771619E+04  0.12699999809E+01 0.  1.
    10030    2    1    2    0    0  0.00000000000E+00  0.00000000000E+00  0.41688867135E+03  0.31232428547E+04  0.30952947784E+04 0.  0.
        3    1    3    3  502    0 -0.34855379313E+03  0.14630934400E+04  0.57653989404E+03  0.16107546121E+04  0.10100000352E+00 0. -1.
       -3    1    3    3    0  502  0.34855379313E+03 -0.14630934400E+04 -0.15965122269E+03  0.15124882426E+04  0.10100000352E+00 0.  1.
</event>
<event>
 5   0  0.5154105E-07  0.3095161E+04  0.7818609E-02  0.8217067E-01
        2   -1    0    0  501    0  0.00000000000E+00  0.00000000000E+00  0.16683325317E+04  0.16683325317E+04  0.25500000920E-02 0.  1.
       -2   -1    0    0    0  501  0.00000000000E+00  0.00000000000E+00 -0.14355681440E+04  0.14355681440E+04  0.25500000920E-02 0. -1.
    10030    2    1    2    0    0  0.00000000000E+00  0.00000000000E+00  0.23276438771E+03  0.31039006757E+04  0.30951607623E+04 0.  0.
        1    1    3    3  502    0 -0.11703767615E+04 -0.68085718330E+03 -0.63517165389E+03  0.14955906184E+04  0.50400001928E-02 0.  1.
       -1    1    3    3    0  502  0.11703767615E+04  0.68085718330E+03  0.86793604160E+03  0.16083100573E+04  0.50400001928E-02 0. -1.
</event>
<event>
 5   0  0.5342534E-07  0.3101130E+04  0.7818609E-02  0.8215428E-01
        2   -1    0    0  501    0  0.00000000000E+00  0.00000000000E+00  0.28290927762E+04  0.28290927762E+04  0.25500000920E-02 0.  1.
       -2   -1    0    0    0  501  0.00000000000E+00  0.00000000000E+00 -0.84983157537E+03  0.84983157537E+03  0.25500000920E-02 0. -1.
    10030    2    1    2    0    0  0.00000000000E+00  0.00000000000E+00  0.19792612008E+04  0.36789243516E+04  0.31011303558E+04 0.  0.
        3    1    3    3  502    0 -0.45613500876E+03  0.11454478746E+04 -0.12584978981E+03  0.12393337563E+04  0.10100000352E+00 0. -1.
       -3    1    3    3    0  502  0.45613500876E+03 -0.11454478746E+04  0.21051109906E+04  0.24395905953E+04  0.10100000352E+00 0.  1.
</event>
<event>
 5   0  0.5342534E-07  0.3104009E+04  0.7818609E-02  0.8214639E-01
        2   -1    0    0  501    0  0.00000000000E+00  0.00000000000E+00  0.20230692675E+04  0.20230692675E+04  0.25500000920E-02 0.  1.
       -2   -1    0    0    0  501  0.00000000000E+00  0.00000000000E+00 -0.11906255808E+04  0.11906255808E+04  0.25500000920E-02 0. -1.
    10030    2    1    2    0    0  0.00000000000E+00  0.00000000000E+00  0.83244368674E+03  0.32136948483E+04  0.31040090345E+04 0.  0.
        3    1    3    3  502    0 -0.62229087628E+03  0.55461550847E+03 -0.93918935356E+03  0.12557551310E+04  0.10100000352E+00 0. -1.
       -3    1    3    3    0  502  0.62229087628E+03 -0.55461550847E+03  0.17716330403E+04  0.19579397173E+04  0.10100000352E+00 0.  1.
</event>
<event>
 5   0  0.1875284E-07  0.3100083E+04  0.7818609E-02  0.8215715E-01
       -1   -1    0    0    0  501  0.00000000000E+00  0.00000000000E+00  0.13390191458E+04  0.13390191459E+04  0.50400001928E-02 0. -1.
        1   -1    0    0  501    0  0.00000000000E+00  0.00000000000E+00 -0.17943194104E+04  0.17943194105E+04  0.50400001928E-02 0.  1.
    10030    2    1    2    0    0  0.00000000000E+00  0.00000000000E+00 -0.45530026460E+03  0.31333385563E+04  0.31000826082E+04 0.  0.
        4    1    3    3  502    0  0.13916792563E+04  0.27959053864E+03  0.40167231740E+03  0.14752234696E+04  0.12699999809E+01 0. -1.
       -4    1    3    3    0  502 -0.13916792563E+04 -0.27959053864E+03 -0.85697258200E+03  0.16581150867E+04  0.12699999809E+01 0.  1.
</event>
<event>
 5   0  0.5154105E-07  0.3091836E+04  0.7818609E-02  0.8217982E-01
        2   -1    0    0  501    0  0.00000000000E+00  0.00000000000E+00  0.21649440977E+04  0.21649440977E+04  0.25500000920E-02 0.  1.
       -2   -1    0    0    0  501  0.00000000000E+00  0.00000000000E+00 -0.11038908089E+04  0.11038908089E+04  0.25500000920E-02 0. -1.
    10030    2    1    2    0    0  0.00000000000E+00  0.00000000000E+00  0.10610532887E+04  0.32688349066E+04  0.30918356304E+04 0.  0.
        1    1    3    3  502    0 -0.97297764992E+03  0.11978544451E+04  0.43408440604E+03  0.16031126132E+04  0.50400001928E-02 0. -1.
       -1    1    3    3    0  502  0.97297764992E+03 -0.11978544451E+04  0.62696888268E+03  0.16657222934E+04  0.50400001928E-02 0.  1.
</event>
<event>
 5   0  0.1845123E-07  0.3080032E+04  0.7818609E-02  0.8221239E-01
       -1   -1    0    0    0  501  0.00000000000E+00  0.00000000000E+00  0.22373867088E+04  0.22373867088E+04  0.50400001928E-02 0.  1.
        1   -1    0    0  501    0  0.00000000000E+00  0.00000000000E+00 -0.10600087918E+04  0.10600087918E+04  0.50400001928E-02 0. -1.
    10030    2    1    2    0    0  0.00000000000E+00  0.00000000000E+00  0.11773779171E+04  0.32973955006E+04  0.30800321959E+04 0.  0.
        2    1    3    3  502    0  0.58373122340E+03  0.13849808496E+04  0.94814526490E+03  0.17770462961E+04  0.25500000920E-02 0. -1.
       -2    1    3    3    0  502 -0.58373122340E+03 -0.13849808496E+04  0.22923265216E+03  0.15203492046E+04  0.25500000920E-02 0.  1.
</event>
<event>
 5   0  0.1840359E-07  0.3102225E+04  0.7818609E-02  0.8215128E-01
        1   -1    0    0  501    0  0.00000000000E+00  0.00000000000E+00  0.26923230592E+04  0.26923230592E+04  0.50400001928E-02 0.  1.
       -1   -1    0    0    0  501  0.00000000000E+00  0.00000000000E+00 -0.89363351800E+03  0.89363351802E+03  0.50400001928E-02 0. -1.
    10030    2    1    2    0    0  0.00000000000E+00  0.00000000000E+00  0.17986895412E+04  0.35859565773E+04  0.31022250899E+04 0.  0.
        1    1    3    3  502    0 -0.36608167199E+03  0.93222095159E+03  0.22684752399E+04  0.24797240990E+04  0.50400001928E-02 0.  1.
       -1    1    3    3    0  502  0.36608167199E+03 -0.93222095159E+03 -0.46978569869E+03  0.11062324782E+04  0.50400001928E-02 0. -1.
</event>
<event>
 5   0  0.1814075E-07  0.3099661E+04  0.7818609E-02  0.8215831E-01
        1   -1    0    0  501    0  0.00000000000E+00  0.00000000000E+00  0.22590189335E+04  0.22590189335E+04  0.50400001928E-02 0.  1.
       -1   -1    0    0    0  501  0.00000000000E+00  0.00000000000E+00 -0.10632819929E+04  0.10632819929E+04  0.50400001928E-02 0. -1.
    10030    2    1    2    0    0  0.00000000000E+00  0.00000000000E+00  0.11957369406E+04  0.33223009264E+04  0.30996607257E+04 0.  0.
        5    1    3    3  502    0 -0.76217683536E+03 -0.13863021870E+03 -0.84086561322E+03  0.11433323819E+04  0.46999998093E+01 0. -1.
       -5    1    3    3    0  502  0.76217683536E+03  0.13863021870E+03  0.20366025538E+04  0.21789685445E+04  0.46999998093E+01 0.  1.
</event>
<event>
 5   0  0.5055900E-07  0.3102490E+04  0.7818609E-02  0.8215055E-01
        2   -1    0    0  501    0  0.00000000000E+00  0.00000000000E+00  0.22957813810E+04  0.22957813810E+04  0.25500000920E-02 0.  1.
       -2   -1    0    0    0  501  0.00000000000E+00  0.00000000000E+00 -0.10481663816E+04  0.10481663816E+04  0.25500000920E-02 0. -1.
    10030    2    1    2    0    0  0.00000000000E+00  0.00000000000E+00  0.12476149994E+04  0.33439477626E+04  0.31024898795E+04 0.  0.
        2    1    3    3  502    0  0.10603364635E+04 -0.10998037900E+04  0.91397944357E+03  0.17802360000E+04  0.25500000920E-02 0.  1.
       -2    1    3    3    0  502 -0.10603364635E+04  0.10998037900E+04  0.33363555587E+03  0.15637117626E+04  0.25500000920E-02 0. -1.
</event>
<event>
 5   0  0.5154105E-07  0.3098690E+04  0.7818609E-02  0.8216097E-01
        2   -1    0    0  501    0  0.00000000000E+00  0.00000000000E+00  0.20846368390E+04  0.20846368390E+04  0.25500000920E-02 0.  1.
       -2   -1    0    0    0  501  0.00000000000E+00  0.00000000000E+00 -0.11515051753E+04  0.11515051753E+04  0.25500000920E-02 0. -1.
    10030    2    1    2    0    0  0.00000000000E+00  0.00000000000E+00  0.93313166373E+03  0.32361420143E+04  0.30986901160E+04 0.  0.
        1    1    3    3  502    0 -0.69308049243E+02  0.14754459490E+04 -0.21860856797E+02  0.14772346636E+04  0.50400001928E-02 0. -1.
       -1    1    3    3    0  502  0.69308049243E+02 -0.14754459490E+04  0.95499252053E+03  0.17589073507E+04  0.50400001928E-02 0.  1.
</event>
<event>
 5   0  0.5342534E-07  0.3087721E+04  0.7818609E-02  0.8219116E-01
       -2   -1    0    0    0  501  0.00000000000E+00  0.00000000000E+00  0.13631896040E+04  0.13631896040E+04  0.25500000920E-02 0.  1.
        2   -1    0    0  501    0  0.00000000000E+00  0.00000000000E+00 -0.17484772113E+04  0.17484772113E+04  0.25500000920E-02 0. -1.
    10030    2    1    2    0    0  0.00000000000E+00  0.00000000000E+00 -0.38528760731E+03  0.31116668153E+04  0.30877214623E+04 0.  0.
        3    1    3    3  502    0  0.12861995236E+04  0.75531325577E+03  0.20881551599E+03  0.15061245828E+04  0.10100000352E+00 0.  1.
       -3    1    3    3    0  502 -0.12861995236E+04 -0.75531325577E+03 -0.59410312331E+03  0.16055422325E+04  0.10100000352E+00 0. -1.
</event>
<event>
 5   0  0.1727000E-07  0.3096757E+04  0.7818609E-02  0.8216628E-01
       -3   -1    0    0    0  501  0.00000000000E+00  0.00000000000E+00  0.18112279050E+04  0.18112279078E+04  0.10100000352E+00 0.  1.
        3   -1    0    0  501    0  0.00000000000E+00  0.00000000000E+00 -0.13236743733E+04  0.13236743772E+04  0.10100000352E+00 0. -1.
    10030    2    1    2    0    0  0.00000000000E+00  0.00000000000E+00  0.48755353161E+03  0.31349022850E+04  0.30967569957E+04 0.  0.
        4    1    3    3  502    0 -0.62291659603E+03  0.80890824355E+03  0.14222106843E+04  0.17507262709E+04  0.12699999809E+01 0.  1.
       -4    1    3    3    0  502  0.62291659603E+03 -0.80890824355E+03 -0.93465715267E+03  0.13841760141E+04  0.12699999809E+01 0. -1.
</event>
<event>
 5   0  0.1727000E-07  0.3100440E+04  0.7818609E-02  0.8215617E-01
       -4   -1    0    0    0  501  0.00000000000E+00  0.00000000000E+00  0.22360269299E+04  0.22360272906E+04  0.12699999809E+01 0.  1.
        4   -1    0    0  501    0  0.00000000000E+00  0.00000000000E+00 -0.10747543416E+04  0.10747550920E+04  0.12699999809E+01 0. -1.
    10030    2    1    2    0    0  0.00000000000E+00  0.00000000000E+00  0.11612725883E+04  0.33107823826E+04  0.31004396398E+04 0.  0.
        4    1    3    3  502    0 -0.10660661767E+04 -0.11151117431E+04  0.74331536453E+03  0.17124516451E+04  0.12699999809E+01 0.  1.
       -4    1    3    3    0  502  0.10660661767E+04  0.11151117431E+04  0.41795722378E+03  0.15983307375E+04  0.12699999809E+01 0. -1.
</event>
<event>
 5   0  0.5248309E-07  0.3100317E+04  0.7818609E-02  0.8215651E-01
       -2   -1    0    0    0  501  0.00000000000E+00  0.00000000000E+00  0.13857576649E+04  0.13857576649E+04  0.25500000920E-02 0.  1.
        2   -1    0    0  501    0  0.00000000000E+00  0.00000000000E+00 -0.17340634687E+04  0.17340634687E+04  0.25500000920E-02 0. -1.
    10030    2    1    2    0    0  0.00000000000E+00  0.00000000000E+00 -0.34830580386E+03  0.31198211336E+04  0.31003172374E+04 0.  0.
        4    1    3    3  502    0 -0.11128092084E+04 -0.59999061345E+03 -0.10768228285E+04  0.16606872335E+04  0.12699999809E+01 0. -1.
       -4    1    3    3    0  502  0.11128092084E+04  0.59999061345E+03  0.72851702460E+03  0.14591339002E+04  0.12699999809E+01 0.  1.
</event>
<event>
 5   0  0.5154105E-07  0.3099577E+04  0.7818609E-02  0.8215854E-01
        2   -1    0    0  501    0  0.00000000000E+00  0.00000000000E+00  0.19295699057E+04  0.19295699057E+04  0.25500000920E-02 0. -1.
       -2   -1    0    0    0  501  0.00000000000E+00  0.00000000000E+00 -0.12447559895E+04  0.12447559895E+04  0.25500000920E-02 0.  1.
    10030    2    1    2    0    0  0.00000000000E+00  0.00000000000E+00  0.68481391620E+03  0.31743258951E+04  0.30995765499E+04 0.  0.
        1    1    3    3  502    0  0.39347910095E+03 -0.49331259793E+02  0.18767310624E+04  0.19181707058E+04  0.50400001928E-02 0. -1.
       -1    1    3    3    0  502 -0.39347910095E+03  0.49331259793E+02 -0.11919171462E+04  0.12561551893E+04  0.50400001928E-02 0.  1.
</event>
<event>
 5   0  0.1840359E-07  0.3106141E+04  0.7818609E-02  0.8214055E-01
       -1   -1    0    0    0  501  0.00000000000E+00  0.00000000000E+00  0.15795522356E+04  0.15795522356E+04  0.50400001928E-02 0.  1.
        1   -1    0    0  501    0  0.00000000000E+00  0.00000000000E+00 -0.15270325897E+04  0.15270325897E+04  0.50400001928E-02 0. -1.
    10030    2    1    2    0    0  0.00000000000E+00  0.00000000000E+00  0.52519645865E+02  0.31065848253E+04  0.31061408473E+04 0.  0.
        1    1    3    3  502    0  0.91775303318E+03  0.11812139646E+04  0.44404034685E+03  0.15603553729E+04  0.50400001928E-02 0. -1.
       -1    1    3    3    0  502 -0.91775303318E+03 -0.11812139646E+04 -0.39152070098E+03  0.15462294524E+04  0.50400001928E-02 0.  1.
</event>
<event>
 5   0  0.1814075E-07  0.3087378E+04  0.7818609E-02  0.8219210E-01
       -1   -1    0    0    0  501  0.00000000000E+00  0.00000000000E+00  0.18941031636E+04  0.18941031636E+04  0.50400001928E-02 0.  1.
        1   -1    0    0  501    0  0.00000000000E+00  0.00000000000E+00 -0.12581023540E+04  0.12581023540E+04  0.50400001928E-02 0. -1.
    10030    2    1    2    0    0  0.00000000000E+00  0.00000000000E+00  0.63600080960E+03  0.31522055176E+04  0.30873779482E+04 0.  0.
        5    1    3    3  502    0 -0.62048219686E+03  0.11778409076E+02  0.17611207301E+04  0.18672721290E+04  0.46999998093E+01 0.  1.
       -5    1    3    3    0  502  0.62048219686E+03 -0.11778409076E+02 -0.11251199205E+04  0.12849333886E+04  0.46999998093E+01 0. -1.
</event>
<event>
 5   0  0.5376678E-07  0.3100611E+04  0.7818609E-02  0.8215570E-01
       -2   -1    0    0    0  501  0.00000000000E+00  0.00000000000E+00  0.20475213512E+04  0.20475213512E+04  0.25500000920E-02 0.  1.
        2   -1    0    0  501    0  0.00000000000E+00  0.00000000000E+00 -0.11738327556E+04  0.11738327556E+04  0.25500000920E-02 0. -1.
    10030    2    1    2    0    0  0.00000000000E+00  0.00000000000E+00  0.87368859560E+03  0.32213541068E+04  0.31006113138E+04 0.  0.
        5    1    3    3  502    0  0.10130017963E+04  0.11695173065E+04  0.33567586695E+03  0.15832383735E+04  0.46999998093E+01 0.  1.
       -5    1    3    3    0  502 -0.10130017963E+04 -0.11695173065E+04  0.53801272865E+03  0.16381157333E+04  0.46999998093E+01 0. -1.
</event>
<event>
 5   0  0.5376678E-07  0.3105254E+04  0.7818609E-02  0.8214297E-01
       -2   -1    0    0    0  501  0.00000000000E+00  0.00000000000E+00  0.99657554072E+03  0.99657554072E+03  0.25500000920E-02 0. -1.
        2   -1    0    0  501    0  0.00000000000E+00  0.00000000000E+00 -0.24189342295E+04  0.24189342295E+04  0.25500000920E-02 0.  1.
    10030    2    1    2    0    0  0.00000000000E+00  0.00000000000E+00 -0.14223586887E+04  0.34155097702E+04  0.31052540558E+04 0.  0.
        5    1    3    3  502    0  0.32812000065E+03  0.14418446322E+04 -0.19054742540E+03  0.14909423495E+04  0.46999998093E+01 0. -1.
       -5    1    3    3    0  502 -0.32812000065E+03 -0.14418446322E+04 -0.12318112633E+04  0.19245674207E+04  0.46999998093E+01 0.  1.
</event>
<event>
 5   0  0.5376678E-07  0.3106934E+04  0.7818609E-02  0.8213838E-01
       -2   -1    0    0    0  501  0.00000000000E+00  0.00000000000E+00  0.11646441783E+04  0.11646441783E+04  0.25500000920E-02 0. -1.
        2   -1    0    0  501    0  0.00000000000E+00  0.00000000000E+00 -0.20720998082E+04  0.20720998082E+04  0.25500000920E-02 0.  1.
    10030    2    1    2    0    0  0.00000000000E+00  0.00000000000E+00 -0.90745562992E+03  0.32367439866E+04  0.31069335227E+04 0.  0.
        5    1    3    3  502    0 -0.27144028043E+02 -0.15004557989E+04 -0.87191232541E+03  0.17356144721E+04  0.46999998093E+01 0.  1.
       -5    1    3    3    0  502  0.27144028043E+02  0.15004557989E+04 -0.35543304506E+02  0.15011295144E+04  0.46999998093E+01 0. -1.
</event>
<event>
 5   0  0.5248309E-07  0.3099315E+04  0.7818609E-02  0.8215926E-01
        2   -1    0    0  501    0  0.00000000000E+00  0.00000000000E+00  0.16719191807E+04  0.16719191808E+04  0.25500000920E-02 0.  1.
       -2   -1    0    0    0  501  0.00000000000E+00  0.00000000000E+00 -0.14363363051E+04  0.14363363051E+04  0.25500000920E-02 0. -1.
    10030    2    1    2    0    0  0.00000000000E+00  0.00000000000E+00  0.23558287561E+03  0.31082554859E+04  0.30993149040E+04 0.  0.
        4    1    3    3  502    0 -0.50507413526E+03  0.96937579301E+03  0.12194351907E+04  0.16376242265E+04  0.12699999809E+01 0.  1.
       -4    1    3    3    0  502  0.50507413526E+03 -0.96937579301E+03 -0.98385231508E+03  0.14706312593E+04  0.12699999809E+01 0. -1.
</event>
<event>
 5   0  0.5248309E-07  0.3101381E+04  0.7818609E-02  0.8215359E-01
       -2   -1    0    0    0  501  0.00000000000E+00  0.00000000000E+00  0.10885237079E+04  0.10885237079E+04  0.25500000920E-02 0. -1.
        2   -1    0    0  501    0  0.00000000000E+00  0.00000000000E+00 -0.22090847379E+04  0.22090847379E+04  0.25500000920E-02 0.  1.
    10030    2    1    2    0    0  0.00000000000E+00  0.00000000000E+00 -0.11205610301E+04  0.32976084458E+04  0.31013810536E+04 0.  0.
        4    1    3    3  502    0 -0.11843093009E+02  0.35069557928E+03  0.10457556538E+04  0.11030567295E+04  0.12699999809E+01 0. -1.
       -4    1    3    3    0  502  0.11843093009E+02 -0.35069557928E+03 -0.21663166838E+04  0.21945517163E+04  0.12699999809E+01 0.  1.
</event>
<event>
 5   0  0.1814075E-07  0.3084377E+04  0.7818609E-02  0.8220039E-01
       -1   -1    0    0    0  501  0.00000000000E+00  0.00000000000E+00  0.28397545016E+04  0.28397545016E+04  0.50400001928E-02 0.  1.
        1   -1    0    0  501    0  0.00000000000E+00  0.00000000000E+00 -0.83751778593E+03  0.83751778595E+03  0.50400001928E-02 0. -1.
    10030    2    1    2    0    0  0.00000000000E+00  0.00000000000E+00  0.20022367157E+04  0.36772722876E+04  0.30843766974E+04 0.  0.
        5    1    3    3  502    0  0.77558910205E+03 -0.11079107048E+03  0.25848091809E+04  0.27009394121E+04  0.46999998093E+01 0.  1.
       -5    1    3    3    0  502 -0.77558910205E+03  0.11079107048E+03 -0.58257246517E+03  0.97633287545E+03  0.46999998093E+01 0. -1.
</event>
<event>
 5   0  0.5154105E-07  0.3103166E+04  0.7818609E-02  0.8214870E-01
        2   -1    0    0  501    0  0.00000000000E+00  0.00000000000E+00  0.17614185048E+04  0.17614185048E+04  0.25500000920E-02 0. -1.
       -2   -1    0    0    0  501  0.00000000000E+00  0.00000000000E+00 -0.13667448895E+04  0.13667448895E+04  0.25500000920E-02 0.  1.
    10030    2    1    2    0    0  0.00000000000E+00  0.00000000000E+00  0.39467361532E+03  0.31281633942E+04  0.31031659573E+04 0.  0.
        1    1    3    3  502    0 -0.92347991318E+03 -0.84636059099E+03  0.11202821005E+04  0.16805277102E+04  0.50400001928E-02 0. -1.
       -1    1    3    3    0  502  0.92347991318E+03  0.84636059099E+03 -0.72560848514E+03  0.14476356841E+04  0.50400001928E-02 0.  1.
</event>
<event>
 5   0  0.5055900E-07  0.3110194E+04  0.7818609E-02  0.8212946E-01
        2   -1    0    0  501    0  0.00000000000E+00  0.00000000000E+00  0.18558166771E+04  0.18558166771E+04  0.25500000920E-02 0. -1.
       -2   -1    0    0    0  501  0.00000000000E+00  0.00000000000E+00 -0.13031062229E+04  0.13031062229E+04  0.25500000920E-02 0.  1.
    10030    2    1    2    0    0  0.00000000000E+00  0.00000000000E+00  0.55271045421E+03  0.31589229000E+04  0.31101937307E+04 0.  0.
        2    1    3    3  502    0 -0.91518529070E+02 -0.59958322422E+03 -0.11780192263E+04  0.13249924458E+04  0.25500000920E-02 0.  1.
       -2    1    3    3    0  502  0.91518529070E+02  0.59958322422E+03  0.17307296805E+04  0.18339304542E+04  0.25500000920E-02 0. -1.
</event>
<event>
 5   0  0.1830902E-07  0.3070212E+04  0.7818609E-02  0.8223961E-01
       -1   -1    0    0    0  501  0.00000000000E+00  0.00000000000E+00  0.12190268233E+04  0.12190268233E+04  0.50400001928E-02 0.  1.
        1   -1    0    0  501    0  0.00000000000E+00  0.00000000000E+00 -0.19331410158E+04  0.19331410158E+04  0.50400001928E-02 0. -1.
    10030    2    1    2    0    0  0.00000000000E+00  0.00000000000E+00 -0.71411419245E+03  0.31521678391E+04  0.30702122086E+04 0.  0.
        3    1    3    3  502    0  0.92803175078E+02  0.51739626657E+03 -0.18378611677E+04  0.19115556513E+04  0.10100000352E+00 0. -1.
       -3    1    3    3    0  502 -0.92803175078E+02 -0.51739626657E+03  0.11237469752E+04  0.12406121878E+04  0.10100000352E+00 0.  1.
</event>
<event>
 5   0  0.5376678E-07  0.3098313E+04  0.7818609E-02  0.8216201E-01
       -2   -1    0    0    0  501  0.00000000000E+00  0.00000000000E+00  0.10926330717E+04  0.10926330717E+04  0.25500000920E-02 0.  1.
        2   -1    0    0  501    0  0.00000000000E+00  0.00000000000E+00 -0.21964240191E+04  0.21964240191E+04  0.25500000920E-02 0. -1.
    10030    2    1    2    0    0  0.00000000000E+00  0.00000000000E+00 -0.11037909474E+04  0.32890570908E+04  0.30983127813E+04 0.  0.
        5    1    3    3  502    0 -0.87199072331E+03 -0.12759298130E+04 -0.66572920416E+03  0.16827305704E+04  0.46999998093E+01 0. -1.
       -5    1    3    3    0  502  0.87199072331E+03  0.12759298130E+04 -0.43806174323E+03  0.16063265204E+04  0.46999998093E+01 0.  1.
</event>
<event>
 5   0  0.5055900E-07  0.3099746E+04  0.7818609E-02  0.8215808E-01
        2   -1    0    0  501    0  0.00000000000E+00  0.00000000000E+00  0.16550958453E+04  0.16550958453E+04  0.25500000920E-02 0. -1.
       -2   -1    0    0    0  501  0.00000000000E+00  0.00000000000E+00 -0.14513393637E+04  0.14513393637E+04  0.25500000920E-02 0.  1.
    10030    2    1    2    0    0  0.00000000000E+00  0.00000000000E+00  0.20375648161E+03  0.31064352090E+04  0.30997456354E+04 0.  0.
        2    1    3    3  502    0  0.94462980656E+03  0.52482327650E+03 -0.10115283465E+04  0.14801873323E+04  0.25500000920E-02 0.  1.
       -2    1    3    3    0  502 -0.94462980656E+03 -0.52482327650E+03  0.12152848281E+04  0.16262478767E+04  0.25500000920E-02 0. -1.
</event>
<event>
 5   0  0.1840359E-07  0.3105029E+04  0.7818609E-02  0.8214359E-01
        1   -1    0    0  501    0  0.00000000000E+00  0.00000000000E+00  0.27220481373E+04  0.27220481373E+04  0.50400001928E-02 0.  1.
       -1   -1    0    0    0  501  0.00000000000E+00  0.00000000000E+00 -0.88547345087E+03  0.88547345089E+03  0.50400001928E-02 0. -1.
    10030    2    1    2    0    0  0.00000000000E+00  0.00000000000E+00  0.18365746865E+04  0.36075215882E+04  0.31050290547E+04 0.  0.
        1    1    3    3  502    0 -0.85119981338E+03  0.17890031684E+03  0.24123845158E+04  0.25643996369E+04  0.50400001928E-02 0.  1.
       -1    1    3    3    0  502  0.85119981338E+03 -0.17890031684E+03 -0.57580982936E+03  0.10431219513E+04  0.50400001928E-02 0. -1.
</event>
<event>
 5   0  0.5376678E-07  0.3099899E+04  0.7818609E-02  0.8215766E-01
        2   -1    0    0  501    0  0.00000000000E+00  0.00000000000E+00  0.26569038184E+04  0.26569038184E+04  0.25500000920E-02 0.  1.
       -2   -1    0    0    0  501  0.00000000000E+00  0.00000000000E+00 -0.90418909565E+03  0.90418909566E+03  0.25500000920E-02 0. -1.
    10030    2    1    2    0    0  0.00000000000E+00  0.00000000000E+00  0.17527147228E+04  0.35610929141E+04  0.30998990053E+04 0.  0.
        5    1    3    3  502    0  0.97459810936E+03  0.20013474287E+03  0.22416275561E+04  0.24525112803E+04  0.46999998093E+01 0.  1.
       -5    1    3    3    0  502 -0.97459810936E+03 -0.20013474287E+03 -0.48891283331E+03  0.11085816337E+04  0.46999998093E+01 0. -1.
</event>
<event>
 5   0  0.5376678E-07  0.3100732E+04  0.7818609E-02  0.8215537E-01
       -2   -1    0    0    0  501  0.00000000000E+00  0.00000000000E+00  0.95828517219E+03  0.95828517219E+03  0.25500000920E-02 0.  1.
        2   -1    0    0  501    0  0.00000000000E+00  0.00000000000E+00 -0.25082661343E+04  0.25082661343E+04  0.25500000920E-02 0. -1.
    10030    2    1    2    0    0  0.00000000000E+00  0.00000000000E+00 -0.15499809621E+04  0.34665513065E+04  0.31007316842E+04 0.  0.
        5    1    3    3  502    0 -0.10445478197E+04 -0.85156710649E+03 -0.16318066453E+04  0.21163793852E+04  0.46999998093E+01 0. -1.
       -5    1    3    3    0  502  0.10445478197E+04  0.85156710649E+03  0.81825683176E+02  0.13501719213E+04  0.46999998093E+01 0.  1.
</event>
<event>
 5   0  0.5342534E-07  0.3097679E+04  0.7818609E-02  0.8216375E-01
        2   -1    0    0  501    0  0.00000000000E+00  0.00000000000E+00  0.30112438692E+04  0.30112438692E+04  0.25500000920E-02 0.  1.
       -2   -1    0    0    0  501  0.00000000000E+00  0.00000000000E+00 -0.79664880645E+03  0.79664880645E+03  0.25500000920E-02 0. -1.
    10030    2    1    2    0    0  0.00000000000E+00  0.00000000000E+00  0.22145950628E+04  0.38078926757E+04  0.30976790243E+04 0.  0.
        3    1    3    3  502    0  0.10688716499E+04 -0.37177105412E+02  0.24844315847E+04  0.27048602645E+04  0.10100000352E+00 0.  1.
       -3    1    3    3    0  502 -0.10688716499E+04  0.37177105412E+02 -0.26983652198E+03  0.11030324111E+04  0.10100000352E+00 0. -1.
</event>
<event>
 5   0  0.1845123E-07  0.3023640E+04  0.7818609E-02  0.8237012E-01
       -1   -1    0    0    0  501  0.00000000000E+00  0.00000000000E+00  0.14170268874E+04  0.14170268874E+04  0.50400001928E-02 0. -1.
        1   -1    0    0  501    0  0.00000000000E+00  0.00000000000E+00 -0.16129547146E+04  0.16129547146E+04  0.50400001928E-02 0.  1.
    10030    2    1    2    0    0  0.00000000000E+00  0.00000000000E+00 -0.19592782717E+03  0.30299816020E+04  0.30236403217E+04 0.  0.
        2    1    3    3  502    0 -0.55092510211E+03 -0.96894403629E+03 -0.11214919124E+04  0.15811752348E+04  0.25500000920E-02 0.  1.
       -2    1    3    3    0  502  0.55092510211E+03  0.96894403629E+03  0.92556408526E+03  0.14488063672E+04  0.25500000920E-02 0. -1.
</event>
<event>
 5   0  0.1814075E-07  0.3100064E+04  0.7818609E-02  0.8215720E-01
        1   -1    0    0  501    0  0.00000000000E+00  0.00000000000E+00  0.14186468960E+04  0.14186468960E+04  0.50400001928E-02 0.  1.
       -1   -1    0    0    0  501  0.00000000000E+00  0.00000000000E+00 -0.16935855497E+04  0.16935855497E+04  0.50400001928E-02 0. -1.
    10030    2    1    2    0    0  0.00000000000E+00  0.00000000000E+00 -0.27493865375E+03  0.31122324457E+04  0.31000644401E+04 0.  0.
        5    1    3    3  502    0  0.98025952589E+03 -0.41134227848E+03  0.99499491500E+03  0.14560728619E+04  0.46999998093E+01 0.  1.
       -5    1    3    3    0  502 -0.98025952589E+03  0.41134227848E+03 -0.12699335688E+04  0.16561595839E+04  0.46999998093E+01 0. -1.
</event>
<event>
 5   0  0.5055900E-07  0.3110365E+04  0.7818609E-02  0.8212899E-01
        2   -1    0    0  501    0  0.00000000000E+00  0.00000000000E+00  0.19479055329E+04  0.19479055329E+04  0.25500000920E-02 0.  1.
       -2   -1    0    0    0  501  0.00000000000E+00  0.00000000000E+00 -0.12416372166E+04  0.12416372166E+04  0.25500000920E-02 0. -1.
    10030    2    1    2    0    0  0.00000000000E+00  0.00000000000E+00  0.70626831630E+03  0.31895427495E+04  0.31103646115E+04 0.  0.
        2    1    3    3  502    0  0.13467862107E+03 -0.15406804269E+04  0.52087540016E+03  0.16319147316E+04  0.25500000920E-02 0.  1.
       -2    1    3    3    0  502 -0.13467862107E+03  0.15406804269E+04  0.18539291615E+03  0.15576280179E+04  0.25500000920E-02 0. -1.
</event>
<event>
 5   0  0.5154105E-07  0.3095897E+04  0.7818609E-02  0.8216865E-01
        2   -1    0    0  501    0  0.00000000000E+00  0.00000000000E+00  0.19013330290E+04  0.19013330290E+04  0.25500000920E-02 0. -1.
       -2   -1    0    0    0  501  0.00000000000E+00  0.00000000000E+00 -0.12602446883E+04  0.12602446883E+04  0.25500000920E-02 0.  1.
    10030    2    1    2    0    0  0.00000000000E+00  0.00000000000E+00  0.64108834071E+03  0.31615777173E+04  0.30958971885E+04 0.  0.
        1    1    3    3  502    0  0.13745017761E+04 -0.43480343867E+03 -0.25518556698E+03  0.14640453669E+04  0.50400001928E-02 0. -1.
       -1    1    3    3    0  502 -0.13745017761E+04  0.43480343867E+03  0.89627390770E+03  0.16975323504E+04  0.50400001928E-02 0.  1.
</event>
<event>
 5   0  0.1845123E-07  0.3102593E+04  0.7818609E-02  0.8215027E-01
        1   -1    0    0  501    0  0.00000000000E+00  0.00000000000E+00  0.11845305634E+04  0.11845305634E+04  0.50400001928E-02 0.  1.
       -1   -1    0    0    0  501  0.00000000000E+00  0.00000000000E+00 -0.20316236151E+04  0.20316236151E+04  0.50400001928E-02 0. -1.
    10030    2    1    2    0    0  0.00000000000E+00  0.00000000000E+00 -0.84709305173E+03  0.32161541785E+04  0.31025926354E+04 0.  0.
        2    1    3    3  502    0  0.10365174606E+04 -0.10839314039E+04 -0.83460147111E+03  0.17163435991E+04  0.25500000920E-02 0. -1.
       -2    1    3    3    0  502 -0.10365174606E+04  0.10839314039E+04 -0.12491580627E+02  0.14998105794E+04  0.25500000920E-02 0.  1.
</event>
<event>
 5   0  0.1830902E-07  0.3101038E+04  0.7818609E-02  0.8215453E-01
        1   -1    0    0  501    0  0.00000000000E+00  0.00000000000E+00  0.26168519677E+04  0.26168519677E+04  0.50400001928E-02 0. -1.
       -1   -1    0    0    0  501  0.00000000000E+00  0.00000000000E+00 -0.91870257037E+03  0.91870257039E+03  0.50400001928E-02 0.  1.
    10030    2    1    2    0    0  0.00000000000E+00  0.00000000000E+00  0.16981493973E+04  0.35355545380E+04  0.31010376515E+04 0.  0.
        3    1    3    3  502    0 -0.55078057179E+03  0.35750129927E+03  0.24505036767E+04  0.25369538224E+04  0.10100000352E+00 0. -1.
       -3    1    3    3    0  502  0.55078057179E+03 -0.35750129927E+03 -0.75235427945E+03  0.99860071562E+03  0.10100000352E+00 0.  1.
</event>
<event>
 5   0  0.5055900E-07  0.3092051E+04  0.7818609E-02  0.8217923E-01
       -2   -1    0    0    0  501  0.00000000000E+00  0.00000000000E+00  0.16238629268E+04  0.16238629268E+04  0.25500000920E-02 0. -1.
        2   -1    0    0  501    0  0.00000000000E+00  0.00000000000E+00 -0.14719191128E+04  0.14719191128E+04  0.25500000920E-02 0.  1.
    10030    2    1    2    0    0  0.00000000000E+00  0.00000000000E+00  0.15194381394E+03  0.30957820396E+04  0.30920510206E+04 0.  0.
        2    1    3    3  502    0  0.47675918422E+03 -0.13517097930E+04  0.65613310082E+03  0.15763658618E+04  0.25500000920E-02 0. -1.
       -2    1    3    3    0  502 -0.47675918422E+03  0.13517097930E+04 -0.50418928689E+03  0.15194161778E+04  0.25500000920E-02 0.  1.
</event>
<event>
 5   0  0.1840359E-07  0.3100449E+04  0.7818609E-02  0.8215615E-01
       -1   -1    0    0    0  501  0.00000000000E+00  0.00000000000E+00  0.13496784513E+04  0.13496784513E+04  0.50400001928E-02 0. -1.
        1   -1    0    0  501    0  0.00000000000E+00  0.00000000000E+00 -0.17805690579E+04  0.17805690579E+04  0.50400001928E-02 0.  1.
    10030    2    1    2    0    0  0.00000000000E+00  0.00000000000E+00 -0.43089060655E+03  0.31302475092E+04  0.31004487989E+04 0.  0.
        1    1    3    3  502    0 -0.43508674541E+03 -0.13676791469E+04  0.37614627829E+03  0.14836888985E+04  0.50400001928E-02 0. -1.
       -1    1    3    3    0  502  0.43508674541E+03  0.13676791469E+04 -0.80703688485E+03  0.16465586107E+04  0.50400001928E-02 0.  1.
</event>
<event>
 5   0  0.1840359E-07  0.3098296E+04  0.7818609E-02  0.8216206E-01
        1   -1    0    0  501    0  0.00000000000E+00  0.00000000000E+00  0.17585432519E+04  0.17585432519E+04  0.50400001928E-02 0.  1.
       -1   -1    0    0    0  501  0.00000000000E+00  0.00000000000E+00 -0.13646864661E+04  0.13646864661E+04  0.50400001928E-02 0. -1.
    10030    2    1    2    0    0  0.00000000000E+00  0.00000000000E+00  0.39385678576E+03  0.31232297181E+04  0.30982964197E+04 0.  0.
        1    1    3    3  502    0  0.10407001732E+04  0.10188842818E+04 -0.33521958890E+03  0.14945080137E+04  0.50400001928E-02 0.  1.
       -1    1    3    3    0  502 -0.10407001732E+04 -0.10188842818E+04  0.72907637466E+03  0.16287217044E+04  0.50400001928E-02 0. -1.
</event>
<event>
 5   0  0.1845123E-07  0.3098213E+04  0.7818609E-02  0.8216228E-01
       -1   -1    0    0    0  501  0.00000000000E+00  0.00000000000E+00  0.14639735476E+04  0.14639735476E+04  0.50400001928E-02 0. -1.
        1   -1    0    0  501    0  0.00000000000E+00  0.00000000000E+00 -0.16391901359E+04  0.16391901359E+04  0.50400001928E-02 0.  1.
    10030    2    1    2    0    0  0.00000000000E+00  0.00000000000E+00 -0.17521658834E+03  0.31031636835E+04  0.30982130324E+04 0.  0.
        2    1    3    3  502    0 -0.11940234427E+04 -0.88934943607E+03  0.34097332806E+03  0.15273824706E+04  0.25500000920E-02 0.  1.
       -2    1    3    3    0  502  0.11940234427E+04  0.88934943607E+03 -0.51618991641E+03  0.15757812129E+04  0.25500000920E-02 0. -1.
</event>
<event>
 5   0  0.5248309E-07  0.3096130E+04  0.7818609E-02  0.8216801E-01
       -2   -1    0    0    0  501  0.00000000000E+00  0.00000000000E+00  0.87034266393E+03  0.87034266393E+03  0.25500000920E-02 0. -1.
        2   -1    0    0  501    0  0.00000000000E+00  0.00000000000E+00 -0.27535195926E+04  0.27535195926E+04  0.25500000920E-02 0.  1.
    10030    2    1    2    0    0  0.00000000000E+00  0.00000000000E+00 -0.18831769287E+04  0.36238622565E+04  0.30961302152E+04 0.  0.
        4    1    3    3  502    0  0.52154654028E+03  0.13337056539E+04 -0.25338599995E+03  0.14542997087E+04  0.12699999809E+01 0.  1.
       -4    1    3    3    0  502 -0.52154654028E+03 -0.13337056539E+04 -0.16297909287E+04  0.21695625478E+04  0.12699999809E+01 0. -1.
</event>
<event>
 5   0  0.5376678E-07  0.3094733E+04  0.7818609E-02  0.8217185E-01
        2   -1    0    0  501    0  0.00000000000E+00  0.00000000000E+00  0.26272896148E+04  0.26272896149E+04  0.25500000920E-02 0.  1.
       -2   -1    0    0    0  501  0.00000000000E+00  0.00000000000E+00 -0.91133598006E+03  0.91133598006E+03  0.25500000920E-02 0. -1.
    10030    2    1    2    0    0  0.00000000000E+00  0.00000000000E+00  0.17159536348E+04  0.35386255949E+04  0.30947333042E+04 0.  0.
        5    1    3    3  502    0 -0.11521460064E+04 -0.88158397961E+03  0.14734068518E+04  0.20677477056E+04  0.46999998093E+01 0.  1.
       -5    1    3    3    0  502  0.11521460064E+04  0.88158397961E+03  0.24254678299E+03  0.14708778893E+04  0.46999998093E+01 0. -1.
</event>
<event>
 5   0  0.5248309E-07  0.3103458E+04  0.7818609E-02  0.8214789E-01
        2   -1    0    0  501    0  0.00000000000E+00  0.00000000000E+00  0.12019298579E+04  0.12019298579E+04  0.25500000920E-02 0.  1.
       -2   -1    0    0    0  501  0.00000000000E+00  0.00000000000E+00 -0.20033309345E+04  0.20033309345E+04  0.25500000920E-02 0. -1.
    10030    2    1    2    0    0  0.00000000000E+00  0.00000000000E+00 -0.80140107665E+03  0.32052607924E+04  0.31034582423E+04 0.  0.
        4    1    3    3  502    0 -0.12304708483E+04 -0.88082859100E+03 -0.75539600993E+03  0.16913137675E+04  0.12699999809E+01 0.  1.
       -4    1    3    3    0  502  0.12304708483E+04  0.88082859100E+03 -0.46005066723E+02  0.15139470250E+04  0.12699999809E+01 0. -1.
</event>
<event>
 5   0  0.5154105E-07  0.3097307E+04  0.7818609E-02  0.8216477E-01
       -2   -1    0    0    0  501  0.00000000000E+00  0.00000000000E+00  0.17383602094E+04  0.17383602094E+04  0.25500000920E-02 0. -1.
        2   -1    0    0  501    0  0.00000000000E+00  0.00000000000E+00 -0.13796491288E+04  0.13796491288E+04  0.25500000920E-02 0.  1.
    10030    2    1    2    0    0  0.00000000000E+00  0.00000000000E+00  0.35871108060E+03  0.31180093382E+04  0.30973066677E+04 0.  0.
        1    1    3    3  502    0 -0.16223330447E+03  0.40068535326E+02  0.17292574307E+04  0.17373129811E+04  0.50400001928E-02 0. -1.
       -1    1    3    3    0  502  0.16223330447E+03 -0.40068535326E+02 -0.13705463501E+04  0.13806963571E+04  0.50400001928E-02 0.  1.
</event>
<event>
 5   0  0.5376678E-07  0.3100443E+04  0.7818609E-02  0.8215616E-01
        2   -1    0    0  501    0  0.00000000000E+00  0.00000000000E+00  0.19357395480E+04  0.19357395480E+04  0.25500000920E-02 0. -1.
       -2   -1    0    0    0  501  0.00000000000E+00  0.00000000000E+00 -0.12414826015E+04  0.12414826015E+04  0.25500000920E-02 0.  1.
    10030    2    1    2    0    0  0.00000000000E+00  0.00000000000E+00  0.69425694650E+03  0.31772221495E+04  0.31004431747E+04 0.  0.
        5    1    3    3  502    0  0.10804470385E+04  0.30558777404E+03 -0.74817834186E+03  0.13492748467E+04  0.46999998093E+01 0.  1.
       -5    1    3    3    0  502 -0.10804470385E+04 -0.30558777404E+03  0.14424352884E+04  0.18279473028E+04  0.46999998093E+01 0. -1.
</event>
<event>
 5   0  0.5342534E-07  0.3096463E+04  0.7818609E-02  0.8216709E-01
       -2   -1    0    0    0  501  0.00000000000E+00  0.00000000000E+00  0.10623018544E+04  0.10623018544E+04  0.25500000920E-02 0. -1.
        2   -1    0    0  501    0  0.00000000000E+00  0.00000000000E+00 -0.22564404609E+04  0.22564404609E+04  0.25500000920E-02 0.  1.
    10030    2    1    2    0    0  0.00000000000E+00  0.00000000000E+00 -0.11941386065E+04  0.33187423153E+04  0.30964630700E+04 0.  0.
        3    1    3    3  502    0  0.10452354730E+04 -0.58317965076E+03  0.45546775217E+03  0.12806508434E+04  0.10100000352E+00 0. -1.
       -3    1    3    3    0  502 -0.10452354730E+04  0.58317965076E+03 -0.16496063587E+04  0.20380914719E+04  0.10100000352E+00 0.  1.
</event>
<event>
 5   0  0.5248309E-07  0.3105774E+04  0.7818609E-02  0.8214155E-01
       -2   -1    0    0    0  501  0.00000000000E+00  0.00000000000E+00  0.22553712791E+04  0.22553712791E+04  0.25500000920E-02 0.  1.
        2   -1    0    0  501    0  0.00000000000E+00  0.00000000000E+00 -0.10692068320E+04  0.10692068320E+04  0.25500000920E-02 0. -1.
    10030    2    1    2    0    0  0.00000000000E+00  0.00000000000E+00  0.11861644471E+04  0.33245781111E+04  0.31057742225E+04 0.  0.
        4    1    3    3  502    0  0.18027660772E+03  0.13124880770E+04  0.14603006610E+04  0.19717008498E+04  0.12699999809E+01 0.  1.
       -4    1    3    3    0  502 -0.18027660772E+03 -0.13124880770E+04 -0.27413621390E+03  0.13528772613E+04  0.12699999809E+01 0. -1.
</event>
<event>
 5   0  0.1830902E-07  0.3095938E+04  0.7818609E-02  0.8216853E-01
       -1   -1    0    0    0  501  0.00000000000E+00  0.00000000000E+00  0.11477372439E+04  0.11477372440E+04  0.50400001928E-02 0. -1.
        1   -1    0    0  501    0  0.00000000000E+00  0.00000000000E+00 -0.20877677338E+04  0.20877677338E+04  0.50400001928E-02 0.  1.
    10030    2    1    2    0    0  0.00000000000E+00  0.00000000000E+00 -0.94003048981E+03  0.32355049777E+04  0.30959384908E+04 0.  0.
        3    1    3    3  502    0 -0.54575948276E+03  0.27901011406E+03 -0.19555407511E+04  0.20493510427E+04  0.10100000352E+00 0.  1.
       -3    1    3    3    0  502  0.54575948276E+03 -0.27901011406E+03  0.10155102613E+04  0.11861539351E+04  0.10100000352E+00 0. -1.
</event>
<event>
 5   0  0.1845123E-07  0.3097761E+04  0.7818609E-02  0.8216353E-01
       -1   -1    0    0    0  501  0.00000000000E+00  0.00000000000E+00  0.12100262237E+04  0.12100262238E+04  0.50400001928E-02 0. -1.
        1   -1    0    0  501    0  0.00000000000E+00  0.00000000000E+00 -0.19826276263E+04  0.19826276263E+04  0.50400001928E-02 0.  1.
    10030    2    1    2    0    0  0.00000000000E+00  0.00000000000E+00 -0.77260140254E+03  0.31926538501E+04  0.30977613980E+04 0.  0.
        2    1    3    3  502    0 -0.81763806108E+02 -0.96561018348E+03  0.85899311607E+03  0.12949739456E+04  0.25500000920E-02 0. -1.
       -2    1    3    3    0  502  0.81763806108E+02  0.96561018348E+03 -0.16315945186E+04  0.18976799044E+04  0.25500000920E-02 0.  1.
</event>
<event>
 5   0  0.1814075E-07  0.3101707E+04  0.7818609E-02  0.8215270E-01
       -1   -1    0    0    0  501  0.00000000000E+00  0.00000000000E+00  0.12019869182E+04  0.12019869182E+04  0.50400001928E-02 0. -1.
        1   -1    0    0  501    0  0.00000000000E+00  0.00000000000E+00 -0.20009751974E+04  0.20009751974E+04  0.50400001928E-02 0.  1.
    10030    2    1    2    0    0  0.00000000000E+00  0.00000000000E+00 -0.79898827913E+03  0.32029621156E+04  0.31017066341E+04 0.  0.
        5    1    3    3  502    0 -0.14883736982E+03 -0.98441648679E+03  0.82839665941E+03  0.12951801023E+04  0.46999998093E+01 0. -1.
       -5    1    3    3    0  502  0.14883736982E+03  0.98441648679E+03 -0.16273849385E+04  0.19077820133E+04  0.46999998093E+01 0.  1.
</event>
<event>
 5   0  0.5248309E-07  0.3144064E+04  0.7818609E-02  0.8203748E-01
       -2   -1    0    0    0  501  0.00000000000E+00  0.00000000000E+00  0.15794206251E+04  0.15794206251E+04  0.25500000920E-02 0.  1.
        2   -1    0    0  501    0  0.00000000000E+00  0.00000000000E+00 -0.15646784286E+04  0.15646784286E+04  0.25500000920E-02 0. -1.
    10030    2    1    2    0    0  0.00000000000E+00  0.00000000000E+00  0.14742196505E+02  0.31440990536E+04  0.31440644915E+04 0.  0.
        4    1    3    3  502    0 -0.13957456214E+04  0.20360514354E+02 -0.71566062436E+03  0.15686593424E+04  0.12699999809E+01 0. -1.
       -4    1    3    3    0  502  0.13957456214E+04 -0.20360514354E+02  0.73040282086E+03  0.15754397113E+04  0.12699999809E+01 0.  1.
</event>
<event>
 5   0  0.1840359E-07  0.3094888E+04  0.7818609E-02  0.8217142E-01
        1   -1    0    0  501    0  0.00000000000E+00  0.00000000000E+00  0.20624808956E+04  0.20624808956E+04  0.50400001928E-02 0.  1.
       -1   -1    0    0    0  501  0.00000000000E+00  0.00000000000E+00 -0.11610204311E+04  0.11610204311E+04  0.50400001928E-02 0. -1.
    10030    2    1    2    0    0  0.00000000000E+00  0.00000000000E+00  0.90146046447E+03  0.32235013267E+04  0.30948876933E+04 0.  0.
        1    1    3    3  502    0  0.10127342354E+04  0.41325737108E+03 -0.68936783964E+03  0.12929192955E+04  0.50400001928E-02 0. -1.
       -1    1    3    3    0  502 -0.10127342354E+04 -0.41325737108E+03  0.15908283041E+04  0.19305820313E+04  0.50400001928E-02 0.  1.
</event>
<event>
 5   0  0.1814075E-07  0.3100884E+04  0.7818609E-02  0.8215495E-01
        1   -1    0    0  501    0  0.00000000000E+00  0.00000000000E+00  0.15427626744E+04  0.15427626744E+04  0.50400001928E-02 0. -1.
       -1   -1    0    0    0  501  0.00000000000E+00  0.00000000000E+00 -0.15581596934E+04  0.15581596934E+04  0.50400001928E-02 0.  1.
    10030    2    1    2    0    0  0.00000000000E+00  0.00000000000E+00 -0.15397019045E+02  0.31009223678E+04  0.31008841421E+04 0.  0.
        5    1    3    3  502    0 -0.43971295509E+03  0.14706642463E+04 -0.22598477151E+03  0.15515450413E+04  0.46999998093E+01 0. -1.
       -5    1    3    3    0  502  0.43971295509E+03 -0.14706642463E+04  0.21058775247E+03  0.15493773265E+04  0.46999998093E+01 0.  1.
</event>
<event>
 5   0  0.1840359E-07  0.3094337E+04  0.7818609E-02  0.8217294E-01
        1   -1    0    0  501    0  0.00000000000E+00  0.00000000000E+00  0.23025903130E+04  0.23025903130E+04  0.50400001928E-02 0. -1.
       -1   -1    0    0    0  501  0.00000000000E+00  0.00000000000E+00 -0.10395814662E+04  0.10395814663E+04  0.50400001928E-02 0.  1.
    10030    2    1    2    0    0  0.00000000000E+00  0.00000000000E+00  0.12630088468E+04  0.33421717793E+04  0.30943369007E+04 0.  0.
        1    1    3    3  502    0 -0.48968278541E+03 -0.13573165842E+04  0.28552528750E+02  0.14432299841E+04  0.50400001928E-02 0.  1.
       -1    1    3    3    0  502  0.48968278541E+03  0.13573165842E+04  0.12344563180E+04  0.18989417951E+04  0.50400001928E-02 0. -1.
</event>
<event>
 5   0  0.1845123E-07  0.3100030E+04  0.7818609E-02  0.8215730E-01
        1   -1    0    0  501    0  0.00000000000E+00  0.00000000000E+00  0.20142112003E+04  0.20142112003E+04  0.50400001928E-02 0.  1.
       -1   -1    0    0    0  501  0.00000000000E+00  0.00000000000E+00 -0.11927980534E+04  0.11927980534E+04  0.50400001928E-02 0. -1.
    10030    2    1    2    0    0  0.00000000000E+00  0.00000000000E+00  0.82141314690E+03  0.32070092537E+04  0.31000304508E+04 0.  0.
        2    1    3    3  502    0 -0.26149238307E+03  0.14626464909E+04  0.86733907719E+03  0.17204621759E+04  0.25500000920E-02 0. -1.
       -2    1    3    3    0  502  0.26149238307E+03 -0.14626464909E+04 -0.45925930300E+02  0.14865470779E+04  0.25500000920E-02 0.  1.
</event>
<event>
 5   0  0.5376678E-07  0.3102406E+04  0.7818609E-02  0.8215078E-01
       -2   -1    0    0    0  501  0.00000000000E+00  0.00000000000E+00  0.11262331335E+04  0.11262331335E+04  0.25500000920E-02 0. -1.
        2   -1    0    0  501    0  0.00000000000E+00  0.00000000000E+00 -0.21365293323E+04  0.21365293323E+04  0.25500000920E-02 0.  1.
    10030    2    1    2    0    0  0.00000000000E+00  0.00000000000E+00 -0.10102961988E+04  0.32627624658E+04  0.31024055987E+04 0.  0.
        5    1    3    3  502    0  0.74022388979E+03  0.82824170009E+03 -0.16438363538E+04  0.19839696996E+04  0.46999998093E+01 0.  1.
       -5    1    3    3    0  502 -0.74022388979E+03 -0.82824170009E+03  0.63354015501E+03  0.12787927662E+04  0.46999998093E+01 0. -1.
</event>
<event>
 5   0  0.5248309E-07  0.3101114E+04  0.7818609E-02  0.8215432E-01
        2   -1    0    0  501    0  0.00000000000E+00  0.00000000000E+00  0.24057149641E+04  0.24057149641E+04  0.25500000920E-02 0. -1.
       -2   -1    0    0    0  501  0.00000000000E+00  0.00000000000E+00 -0.99938155937E+03  0.99938155937E+03  0.25500000920E-02 0.  1.
    10030    2    1    2    0    0  0.00000000000E+00  0.00000000000E+00  0.14063334047E+04  0.34050965234E+04  0.31011141044E+04 0.  0.
        4    1    3    3  502    0  0.11635298582E+03 -0.14314564038E+04  0.61390819831E+02  0.14374894431E+04  0.12699999809E+01 0.  1.
       -4    1    3    3    0  502 -0.11635298582E+03  0.14314564038E+04  0.13449425849E+04  0.19676070804E+04  0.12699999809E+01 0. -1.
</event>
<event>
 5   0  0.1830902E-07  0.3103104E+04  0.7818609E-02  0.8214886E-01
       -1   -1    0    0    0  501  0.00000000000E+00  0.00000000000E+00  0.14438122472E+04  0.14438122472E+04  0.50400001928E-02 0.  1.
        1   -1    0    0  501    0  0.00000000000E+00  0.00000000000E+00 -0.16673317305E+04  0.16673317305E+04  0.50400001928E-02 0. -1.
    10030    2    1    2    0    0  0.00000000000E+00  0.00000000000E+00 -0.22351948338E+03  0.31111439777E+04  0.31031042346E+04 0.  0.
        3    1    3    3  502    0  0.59403235355E+03 -0.13849993885E+02  0.13252183634E+04  0.14523325998E+04  0.10100000352E+00 0.  1.
       -3    1    3    3    0  502 -0.59403235355E+03  0.13849993885E+02 -0.15487378468E+04  0.16588113780E+04  0.10100000352E+00 0. -1.
</event>
<event>
 5   0  0.1845123E-07  0.3108649E+04  0.7818609E-02  0.8213368E-01
       -1   -1    0    0    0  501  0.00000000000E+00  0.00000000000E+00  0.13601927705E+04  0.13601927705E+04  0.50400001928E-02 0.  1.
        1   -1    0    0  501    0  0.00000000000E+00  0.00000000000E+00 -0.17761638767E+04  0.17761638767E+04  0.50400001928E-02 0. -1.
    10030    2    1    2    0    0  0.00000000000E+00  0.00000000000E+00 -0.41597110615E+03  0.31363566472E+04  0.31086493944E+04 0.  0.
        2    1    3    3  502    0 -0.11359962434E+04  0.10595851822E+04 -0.26057538592E+03  0.15751532482E+04  0.25500000920E-02 0. -1.
       -2    1    3    3    0  502  0.11359962434E+04 -0.10595851822E+04 -0.15539572023E+03  0.15612033991E+04  0.25500000920E-02 0.  1.
</event>
<event>
 5   0  0.5248309E-07  0.3034605E+04  0.7818609E-02  0.8233918E-01
        2   -1    0    0  501    0  0.00000000000E+00  0.00000000000E+00  0.15724950687E+04  0.15724950687E+04  0.25500000920E-02 0.  1.
       -2   -1    0    0    0  501  0.00000000000E+00  0.00000000000E+00 -0.14640469814E+04  0.14640469814E+04  0.25500000920E-02 0. -1.
    10030    2    1    2    0    0  0.00000000000E+00  0.00000000000E+00  0.10844808731E+03  0.30365420500E+04  0.30346048563E+04 0.  0.
        4    1    3    3  502    0  0.86485416442E+03 -0.11485723813E+04 -0.43086764972E+03  0.15009462966E+04  0.12699999809E+01 0.  1.
       -4    1    3    3    0  502 -0.86485416442E+03  0.11485723813E+04  0.53931573703E+03  0.15355957534E+04  0.12699999809E+01 0. -1.
</event>
<event>
 5   0  0.1840359E-07  0.3097811E+04  0.7818609E-02  0.8216339E-01
        1   -1    0    0  501    0  0.00000000000E+00  0.00000000000E+00  0.18202204509E+04  0.18202204510E+04  0.50400001928E-02 0. -1.
       -1   -1    0    0    0  501  0.00000000000E+00  0.00000000000E+00 -0.13180318105E+04  0.13180318105E+04  0.50400001928E-02 0.  1.
    10030    2    1    2    0    0  0.00000000000E+00  0.00000000000E+00  0.50218864042E+03  0.31382522615E+04  0.30978111347E+04 0.  0.
        1    1    3    3  502    0  0.28008840904E+03 -0.15221891906E+04  0.19031941321E+03  0.15594008234E+04  0.50400001928E-02 0. -1.
       -1    1    3    3    0  502 -0.28008840904E+03  0.15221891906E+04  0.31186922720E+03  0.15788514381E+04  0.50400001928E-02 0.  1.
</event>
<event>
 5   0  0.5248309E-07  0.3098326E+04  0.7818609E-02  0.8216197E-01
        2   -1    0    0  501    0  0.00000000000E+00  0.00000000000E+00  0.18235344448E+04  0.18235344448E+04  0.25500000920E-02 0. -1.
       -2   -1    0    0    0  501  0.00000000000E+00  0.00000000000E+00 -0.13160738742E+04  0.13160738742E+04  0.25500000920E-02 0.  1.
    10030    2    1    2    0    0  0.00000000000E+00  0.00000000000E+00  0.50746057056E+03  0.31396083190E+04  0.30983260264E+04 0.  0.
        4    1    3    3  502    0 -0.11080792159E+04 -0.47851067232E+03  0.12377991297E+04  0.17288609865E+04  0.12699999809E+01 0. -1.
       -4    1    3    3    0  502  0.11080792159E+04  0.47851067232E+03 -0.73033855912E+03  0.14107473325E+04  0.12699999809E+01 0.  1.
</event>
<event>
 5   0  0.1840359E-07  0.3100000E+04  0.7818609E-02  0.8215738E-01
       -1   -1    0    0    0  501  0.00000000000E+00  0.00000000000E+00  0.10927573686E+04  0.10927573686E+04  0.50400001928E-02 0.  1.
        1   -1    0    0  501    0  0.00000000000E+00  0.00000000000E+00 -0.21985663294E+04  0.21985663294E+04  0.50400001928E-02 0. -1.
    10030    2    1    2    0    0  0.00000000000E+00  0.00000000000E+00 -0.11058089608E+04  0.32913236980E+04  0.30999997141E+04 0.  0.
        1    1    3    3  502    0 -0.69349804821E+03 -0.97538030956E+03 -0.15986790358E+04  0.19970180146E+04  0.50400001928E-02 0. -1.
       -1    1    3    3    0  502  0.69349804821E+03  0.97538030956E+03  0.49287007499E+03  0.12943056834E+04  0.50400001928E-02 0.  1.
</event>
<event>
 5   0  0.1840359E-07  0.3100019E+04  0.7818609E-02  0.8215733E-01
       -1   -1    0    0    0  501  0.00000000000E+00  0.00000000000E+00  0.23475851577E+04  0.23475851577E+04  0.50400001928E-02 0. -1.
        1   -1    0    0  501    0  0.00000000000E+00  0.00000000000E+00 -0.10234048412E+04  0.10234048413E+04  0.50400001928E-02 0.  1.
    10030    2    1    2    0    0  0.00000000000E+00  0.00000000000E+00  0.13241803165E+04  0.33709899990E+04  0.31000193649E+04 0.  0.
        1    1    3    3  502    0 -0.41968504789E+03 -0.10411577477E+04  0.18243394955E+04  0.21420456554E+04  0.50400001928E-02 0. -1.
       -1    1    3    3    0  502  0.41968504789E+03  0.10411577477E+04 -0.50015917904E+03  0.12289443435E+04  0.50400001928E-02 0.  1.
</event>
<event>
 5   0  0.5342534E-07  0.3099463E+04  0.7818609E-02  0.8215885E-01
       -2   -1    0    0    0  501  0.00000000000E+00  0.00000000000E+00  0.15761764501E+04  0.15761764501E+04  0.25500000920E-02 0.  1.
        2   -1    0    0  501    0  0.00000000000E+00  0.00000000000E+00 -0.15237301884E+04  0.15237301884E+04  0.25500000920E-02 0. -1.
    10030    2    1    2    0    0  0.00000000000E+00  0.00000000000E+00  0.52446261717E+02  0.30999066385E+04  0.30994629466E+04 0.  0.
        3    1    3    3  502    0  0.30597222940E+03  0.15141336991E+04  0.15052996236E+03  0.15520564241E+04  0.10100000352E+00 0. -1.
       -3    1    3    3    0  502 -0.30597222940E+03 -0.15141336991E+04 -0.98083700640E+02  0.15478502144E+04  0.10100000352E+00 0.  1.
</event>
<event>
 5   0  0.1814075E-07  0.3100696E+04  0.7818609E-02  0.8215547E-01
        1   -1    0    0  501    0  0.00000000000E+00  0.00000000000E+00  0.16577543904E+04  0.16577543904E+04  0.50400001928E-02 0.  1.
       -1   -1    0    0    0  501  0.00000000000E+00  0.00000000000E+00 -0.14499006409E+04  0.14499006409E+04  0.50400001928E-02 0. -1.
    10030    2    1    2    0    0  0.00000000000E+00  0.00000000000E+00  0.20785374954E+03  0.31076550313E+04  0.31006961497E+04 0.  0.
        5    1    3    3  502    0  0.33259196967E+03  0.13586120497E+04 -0.56623885359E+03  0.15090038599E+04  0.46999998093E+01 0.  1.
       -5    1    3    3    0  502 -0.33259196967E+03 -0.13586120497E+04  0.77409260313E+03  0.15986511715E+04  0.46999998093E+01 0. -1.
</event>
<event>
 5   0  0.5342534E-07  0.3097995E+04  0.7818609E-02  0.8216288E-01
       -2   -1    0    0    0  501  0.00000000000E+00  0.00000000000E+00  0.23293949457E+04  0.23293949457E+04  0.25500000920E-02 0.  1.
        2   -1    0    0  501    0  0.00000000000E+00  0.00000000000E+00 -0.10300498258E+04  0.10300498258E+04  0.25500000920E-02 0. -1.
    10030    2    1    2    0    0  0.00000000000E+00  0.00000000000E+00  0.12993451200E+04  0.33594447715E+04  0.30979947437E+04 0.  0.
        3    1    3    3  502    0  0.58629525096E+03  0.79484500902E+03 -0.64429183156E+03  0.11792508995E+04  0.10100000352E+00 0. -1.
       -3    1    3    3    0  502 -0.58629525096E+03 -0.79484500902E+03  0.19436369515E+04  0.21801938719E+04  0.10100000352E+00 0.  1.
</event>
<event>
 5   0  0.5248309E-07  0.3093219E+04  0.7818609E-02  0.8217601E-01
        2   -1    0    0  501    0  0.00000000000E+00  0.00000000000E+00  0.20298904450E+04  0.20298904450E+04  0.25500000920E-02 0. -1.
       -2   -1    0    0    0  501  0.00000000000E+00  0.00000000000E+00 -0.11783892793E+04  0.11783892793E+04  0.25500000920E-02 0.  1.
    10030    2    1    2    0    0  0.00000000000E+00  0.00000000000E+00  0.85150116572E+03  0.32082797244E+04  0.30932191249E+04 0.  0.
        4    1    3    3  502    0  0.39891169672E+03 -0.10898593394E+04 -0.63456561254E+03  0.13227241023E+04  0.12699999809E+01 0.  1.
       -4    1    3    3    0  502 -0.39891169672E+03  0.10898593394E+04  0.14860667783E+04  0.18855556220E+04  0.12699999809E+01 0. -1.
</event>
<event>
 5   0  0.5154105E-07  0.3103729E+04  0.7818609E-02  0.8214715E-01
        2   -1    0    0  501    0  0.00000000000E+00  0.00000000000E+00  0.14127752500E+04  0.14127752500E+04  0.25500000920E-02 0. -1.
       -2   -1    0    0    0  501  0.00000000000E+00  0.00000000000E+00 -0.17046467300E+04  0.17046467300E+04  0.25500000920E-02 0.  1.
    10030    2    1    2    0    0  0.00000000000E+00  0.00000000000E+00 -0.29187148004E+03  0.31174219800E+04  0.31037285384E+04 0.  0.
        1    1    3    3  502    0 -0.10607049292E+04  0.70899864594E+03  0.74142606865E+03  0.14756309302E+04  0.50400001928E-02 0. -1.
       -1    1    3    3    0  502  0.10607049292E+04 -0.70899864594E+03 -0.10332975487E+04  0.16417910497E+04  0.50400001928E-02 0.  1.
</event>
<event>
 5   0  0.5154105E-07  0.3102562E+04  0.7818609E-02  0.8215035E-01
        2   -1    0    0  501    0  0.00000000000E+00  0.00000000000E+00  0.14584124335E+04  0.14584124335E+04  0.25500000920E-02 0.  1.
       -2   -1    0    0    0  501  0.00000000000E+00  0.00000000000E+00 -0.16500631767E+04  0.16500631767E+04  0.25500000920E-02 0. -1.
    10030    2    1    2    0    0  0.00000000000E+00  0.00000000000E+00 -0.19165074323E+03  0.31084756103E+04  0.31025619433E+04 0.  0.
        1    1    3    3  502    0 -0.20654127654E+03  0.31705774037E+03 -0.16031156181E+04  0.16471686601E+04  0.50400001928E-02 0. -1.
       -1    1    3    3    0  502  0.20654127654E+03 -0.31705774037E+03  0.14114648749E+04  0.14613069502E+04  0.50400001928E-02 0.  1.
</event>
<event>
 5   0  0.1845123E-07  0.3096051E+04  0.7818609E-02  0.8216822E-01
        1   -1    0    0  501    0  0.00000000000E+00  0.00000000000E+00  0.23660334557E+04  0.23660334557E+04  0.50400001928E-02 0. -1.
       -1   -1    0    0    0  501  0.00000000000E+00  0.00000000000E+00 -0.10128273439E+04  0.10128273439E+04  0.50400001928E-02 0.  1.
    10030    2    1    2    0    0  0.00000000000E+00  0.00000000000E+00  0.13532061119E+04  0.33788607996E+04  0.30960512790E+04 0.  0.
        2    1    3    3  502    0 -0.12465435610E+04  0.90072925423E+03  0.48383508820E+03  0.16122284055E+04  0.25500000920E-02 0.  1.
       -2    1    3    3    0  502  0.12465435610E+04 -0.90072925423E+03  0.86937102368E+03  0.17666323941E+04  0.25500000920E-02 0. -1.
</event>
<event>
 5   0  0.1875284E-07  0.3100536E+04  0.7818609E-02  0.8215591E-01
        1   -1    0    0  501    0  0.00000000000E+00  0.00000000000E+00  0.18555299350E+04  0.18555299350E+04  0.50400001928E-02 0. -1.
       -1   -1    0    0    0  501  0.00000000000E+00  0.00000000000E+00 -0.12952261323E+04  0.12952261323E+04  0.50400001928E-02 0.  1.
    10030    2    1    2    0    0  0.00000000000E+00  0.00000000000E+00  0.56030380269E+03  0.31507560673E+04  0.31005359931E+04 0.  0.
        4    1    3    3  502    0 -0.13652015389E+04  0.61456637536E+03  0.68898937138E+03  0.16480822304E+04  0.12699999809E+01 0. -1.
       -4    1    3    3    0  502  0.13652015389E+04 -0.61456637536E+03 -0.12868556870E+03  0.15026738369E+04  0.12699999809E+01 0.  1.
</event>
<event>
 5   0  0.5376678E-07  0.3092508E+04  0.7818609E-02  0.8217797E-01
       -2   -1    0    0    0  501  0.00000000000E+00  0.00000000000E+00  0.14442209378E+04  0.14442209378E+04  0.25500000920E-02 0. -1.
        2   -1    0    0  501    0  0.00000000000E+00  0.00000000000E+00 -0.16554956889E+04  0.16554956889E+04  0.25500000920E-02 0.  1.
    10030    2    1    2    0    0  0.00000000000E+00  0.00000000000E+00 -0.21127475118E+03  0.30997166267E+04  0.30925080672E+04 0.  0.
        5    1    3    3  502    0  0.14395917783E+04  0.49905570578E+03  0.15841237272E+03  0.15318608473E+04  0.46999998093E+01 0. -1.
       -5    1    3    3    0  502 -0.14395917783E+04 -0.49905570578E+03 -0.36968712390E+03  0.15678557794E+04  0.46999998093E+01 0.  1.
</event>
<event>
 5   0  0.1840359E-07  0.3097040E+04  0.7818609E-02  0.8216551E-01
       -1   -1    0    0    0  501  0.00000000000E+00  0.00000000000E+00  0.98771182608E+03  0.98771182609E+03  0.50400001928E-02 0.  1.
        1   -1    0    0  501    0  0.00000000000E+00  0.00000000000E+00 -0.24277465344E+04  0.24277465344E+04  0.50400001928E-02 0. -1.
    10030    2    1    2    0    0  0.00000000000E+00  0.00000000000E+00 -0.14400347083E+04  0.34154583605E+04  0.30970398530E+04 0.  0.
        1    1    3    3  502    0 -0.13593138286E+04 -0.51933256023E+02  0.95977550429E+02  0.13636872215E+04  0.50400001928E-02 0.  1.
       -1    1    3    3    0  502  0.13593138286E+04  0.51933256023E+02 -0.15360122587E+04  0.20517711390E+04  0.50400001928E-02 0. -1.
</event>
<event>
 5   0  0.1875284E-07  0.3101150E+04  0.7818609E-02  0.8215422E-01
       -1   -1    0    0    0  501  0.00000000000E+00  0.00000000000E+00  0.13901975725E+04  0.13901975725E+04  0.50400001928E-02 0.  1.
        1   -1    0    0  501    0  0.00000000000E+00  0.00000000000E+00 -0.17294541343E+04  0.17294541343E+04  0.50400001928E-02 0. -1.
    10030    2    1    2    0    0  0.00000000000E+00  0.00000000000E+00 -0.33925656183E+03  0.31196517068E+04  0.31011500701E+04 0.  0.
        4    1    3    3  502    0 -0.11875807916E+04  0.99471993424E+03 -0.10240564146E+03  0.15525155112E+04  0.12699999809E+01 0. -1.
       -4    1    3    3    0  502  0.11875807916E+04 -0.99471993424E+03 -0.23685092038E+03  0.15671361956E+04  0.12699999809E+01 0.  1.
</event>
<event>
 5   0  0.1814075E-07  0.3098929E+04  0.7818609E-02  0.8216032E-01
       -1   -1    0    0    0  501  0.00000000000E+00  0.00000000000E+00  0.14785978967E+04  0.14785978967E+04  0.50400001928E-02 0. -1.
        1   -1    0    0  501    0  0.00000000000E+00  0.00000000000E+00 -0.16237279588E+04  0.16237279588E+04  0.50400001928E-02 0.  1.
    10030    2    1    2    0    0  0.00000000000E+00  0.00000000000E+00 -0.14513006207E+03  0.31023258555E+04  0.30989293278E+04 0.  0.
        5    1    3    3  502    0  0.11024703737E+03 -0.38339219387E+03  0.14262982920E+04  0.14810445272E+04  0.46999998093E+01 0. -1.
       -5    1    3    3    0  502 -0.11024703737E+03  0.38339219387E+03 -0.15714283541E+04  0.16212813284E+04  0.46999998093E+01 0.  1.
</event>
<event>
 5   0  0.5248309E-07  0.3105814E+04  0.7818609E-02  0.8214144E-01
       -2   -1    0    0    0  501  0.00000000000E+00  0.00000000000E+00  0.99296639925E+03  0.99296639926E+03  0.25500000920E-02 0. -1.
        2   -1    0    0  501    0  0.00000000000E+00  0.00000000000E+00 -0.24286018947E+04  0.24286018947E+04  0.25500000920E-02 0.  1.
    10030    2    1    2    0    0  0.00000000000E+00  0.00000000000E+00 -0.14356354955E+04  0.34215682940E+04  0.31058139536E+04 0.  0.
        4    1    3    3  502    0 -0.70757420589E+03 -0.39997389613E+03 -0.21755498914E+04  0.23224253093E+04  0.12699999809E+01 0.  1.
       -4    1    3    3    0  502  0.70757420589E+03  0.39997389613E+03  0.73991439597E+03  0.10991429846E+04  0.12699999809E+01 0. -1.
</event>
<event>
 5   0  0.1840359E-07  0.3076820E+04  0.7818609E-02  0.8222128E-01
        1   -1    0    0  501    0  0.00000000000E+00  0.00000000000E+00  0.12501942475E+04  0.12501942476E+04  0.50400001928E-02 0.  1.
       -1   -1    0    0    0  501  0.00000000000E+00  0.00000000000E+00 -0.18930695603E+04  0.18930695604E+04  0.50400001928E-02 0. -1.
    10030    2    1    2    0    0  0.00000000000E+00  0.00000000000E+00 -0.64287531280E+03  0.31432638079E+04  0.30768195752E+04 0.  0.
        1    1    3    3  502    0 -0.52418811092E+03  0.14304530848E+04 -0.53991448372E+03  0.16163158272E+04  0.50400001928E-02 0.  1.
       -1    1    3    3    0  502  0.52418811092E+03 -0.14304530848E+04 -0.10296082907E+03  0.15269479807E+04  0.50400001928E-02 0. -1.
</event>
<event>
 5   0  0.5055900E-07  0.3105955E+04  0.7818609E-02  0.8214106E-01
        2   -1    0    0  501    0  0.00000000000E+00  0.00000000000E+00  0.18258769864E+04  0.18258769864E+04  0.25500000920E-02 0.  1.
       -2   -1    0    0    0  501  0.00000000000E+00  0.00000000000E+00 -0.13208660330E+04  0.13208660330E+04  0.25500000920E-02 0. -1.
    10030    2    1    2    0    0  0.00000000000E+00  0.00000000000E+00  0.50501095336E+03  0.31467430194E+04  0.31059548559E+04 0.  0.
        2    1    3    3  502    0  0.25605935385E+02  0.23028275880E+03  0.18082666426E+04  0.18230507573E+04  0.25500000920E-02 0.  1.
       -2    1    3    3    0  502 -0.25605935385E+02 -0.23028275880E+03 -0.13032556893E+04  0.13236922620E+04  0.25500000920E-02 0. -1.
</event>
<event>
 5   0  0.5376678E-07  0.3105312E+04  0.7818609E-02  0.8214282E-01
        2   -1    0    0  501    0  0.00000000000E+00  0.00000000000E+00  0.24717567695E+04  0.24717567695E+04  0.25500000920E-02 0.  1.
       -2   -1    0    0    0  501  0.00000000000E+00  0.00000000000E+00 -0.97531446718E+03  0.97531446718E+03  0.25500000920E-02 0. -1.
    10030    2    1    2    0    0  0.00000000000E+00  0.00000000000E+00  0.14964423023E+04  0.34470712367E+04  0.31053116666E+04 0.  0.
        5    1    3    3  502    0 -0.59263340946E+03  0.70073999151E+03  0.21384387362E+04  0.23270567703E+04  0.46999998093E+01 0.  1.
       -5    1    3    3    0  502  0.59263340946E+03 -0.70073999151E+03 -0.64199643391E+03  0.11200144664E+04  0.46999998093E+01 0. -1.
</event>
<event>
 5   0  0.1830902E-07  0.3104899E+04  0.7818609E-02  0.8214395E-01
       -1   -1    0    0    0  501  0.00000000000E+00  0.00000000000E+00  0.14535058995E+04  0.14535058995E+04  0.50400001928E-02 0. -1.
        1   -1    0    0  501    0  0.00000000000E+00  0.00000000000E+00 -0.16581289134E+04  0.16581289134E+04  0.50400001928E-02 0.  1.
    10030    2    1    2    0    0  0.00000000000E+00  0.00000000000E+00 -0.20462301391E+03  0.31116348128E+04  0.31048994558E+04 0.  0.
        3    1    3    3  502    0  0.33458342892E+03  0.19830638261E+03  0.14038887756E+04  0.14567687520E+04  0.10100000352E+00 0. -1.
       -3    1    3    3    0  502 -0.33458342892E+03 -0.19830638261E+03 -0.16085117895E+04  0.16548660609E+04  0.10100000352E+00 0.  1.
</event>
<event>
 5   0  0.1814075E-07  0.3041631E+04  0.7818609E-02  0.8231942E-01
        1   -1    0    0  501    0  0.00000000000E+00  0.00000000000E+00  0.18425457340E+04  0.18425457340E+04  0.50400001928E-02 0. -1.
       -1   -1    0    0    0  501  0.00000000000E+00  0.00000000000E+00 -0.12552634186E+04  0.12552634186E+04  0.50400001928E-02 0.  1.
    10030    2    1    2    0    0  0.00000000000E+00  0.00000000000E+00  0.58728231545E+03  0.30978091526E+04  0.30416313104E+04 0.  0.
        5    1    3    3  502    0 -0.93790271551E+03  0.11596462657E+04  0.59648341284E+03  0.16063173774E+04  0.46999998093E+01 0.  1.
       -5    1    3    3    0  502  0.93790271551E+03 -0.11596462657E+04 -0.92010973932E+01  0.14914917752E+04  0.46999998093E+01 0. -1.
</event>
<event>
 5   0  0.5055900E-07  0.3110680E+04  0.7818609E-02  0.8212813E-01
       -2   -1    0    0    0  501  0.00000000000E+00  0.00000000000E+00  0.15160172309E+04  0.15160172309E+04  0.25500000920E-02 0. -1.
        2   -1    0    0  501    0  0.00000000000E+00  0.00000000000E+00 -0.15956830360E+04  0.15956830360E+04  0.25500000920E-02 0.  1.
    10030    2    1    2    0    0  0.00000000000E+00  0.00000000000E+00 -0.79665805099E+02  0.31117002669E+04  0.31106802971E+04 0.  0.
        2    1    3    3  502    0 -0.10432723342E+04 -0.11535329206E+04 -0.45089672007E+02  0.15559847174E+04  0.25500000920E-02 0.  1.
       -2    1    3    3    0  502  0.10432723342E+04  0.11535329206E+04 -0.34576133091E+02  0.15557155495E+04  0.25500000920E-02 0. -1.
</event>
<event>
 5   0  0.1875284E-07  0.3085973E+04  0.7818609E-02  0.8219598E-01
        1   -1    0    0  501    0  0.00000000000E+00  0.00000000000E+00  0.22292343196E+04  0.22292343196E+04  0.50400001928E-02 0.  1.
       -1   -1    0    0    0  501  0.00000000000E+00  0.00000000000E+00 -0.10679934937E+04  0.10679934937E+04  0.50400001928E-02 0. -1.
    10030    2    1    2    0    0  0.00000000000E+00  0.00000000000E+00  0.11612408259E+04  0.32972278133E+04  0.30859732658E+04 0.  0.
        4    1    3    3  502    0  0.13255757134E+04  0.14026311452E+03  0.14109845535E+04  0.19410573758E+04  0.12699999809E+01 0.  1.
       -4    1    3    3    0  502 -0.13255757134E+04 -0.14026311452E+03 -0.24974372756E+03  0.13561704375E+04  0.12699999809E+01 0. -1.
</event>
<event>
 5   0  0.5342534E-07  0.3100222E+04  0.7818609E-02  0.8215677E-01
        2   -1    0    0  501    0  0.00000000000E+00  0.00000000000E+00  0.11145753057E+04  0.11145753057E+04  0.25500000920E-02 0. -1.
       -2   -1    0    0    0  501  0.00000000000E+00  0.00000000000E+00 -0.21558388003E+04  0.21558388003E+04  0.25500000920E-02 0.  1.
    10030    2    1    2    0    0  0.00000000000E+00  0.00000000000E+00 -0.10412634946E+04  0.32704141060E+04  0.31002223725E+04 0.  0.
        3    1    3    3  502    0  0.53103436866E+03  0.13325041117E+04 -0.11404945773E+04  0.18325644871E+04  0.10100000352E+00 0. -1.
       -3    1    3    3    0  502 -0.53103436866E+03 -0.13325041117E+04  0.99231082700E+02  0.14378496188E+04  0.10100000352E+00 0.  1.
</event>
<event>
 5   0  0.5376678E-07  0.3069772E+04  0.7818609E-02  0.8224083E-01
       -2   -1    0    0    0  501  0.00000000000E+00  0.00000000000E+00  0.10090487279E+04  0.10090487279E+04  0.25500000920E-02 0. -1.
        2   -1    0    0  501    0  0.00000000000E+00  0.00000000000E+00 -0.23347488962E+04  0.23347488962E+04  0.25500000920E-02 0.  1.
    10030    2    1    2    0    0  0.00000000000E+00  0.00000000000E+00 -0.13257001683E+04  0.33437976240E+04  0.30697722414E+04 0.  0.
        5    1    3    3  502    0  0.61846878355E+03  0.77455722443E+03 -0.19393889932E+04  0.21780023616E+04  0.46999998093E+01 0.  1.
       -5    1    3    3    0  502 -0.61846878355E+03 -0.77455722443E+03  0.61368882488E+03  0.11657952624E+04  0.46999998093E+01 0. -1.
</event>
<event>
 5   0  0.5248309E-07  0.3095845E+04  0.7818609E-02  0.8216879E-01
       -2   -1    0    0    0  501  0.00000000000E+00  0.00000000000E+00  0.12678385514E+04  0.12678385514E+04  0.25500000920E-02 0. -1.
        2   -1    0    0  501    0  0.00000000000E+00  0.00000000000E+00 -0.18898813181E+04  0.18898813181E+04  0.25500000920E-02 0.  1.
    10030    2    1    2    0    0  0.00000000000E+00  0.00000000000E+00 -0.62204276669E+03  0.31577198695E+04  0.30958452110E+04 0.  0.
        4    1    3    3  502    0  0.96933294999E+03  0.45139740047E+03 -0.14526302819E+04  0.18037467477E+04  0.12699999809E+01 0.  1.
       -4    1    3    3    0  502 -0.96933294999E+03 -0.45139740047E+03  0.83058751522E+03  0.13539731218E+04  0.12699999809E+01 0. -1.
</event>
<event>
 5   0  0.1875284E-07  0.3094781E+04  0.7818609E-02  0.8217172E-01
       -1   -1    0    0    0  501  0.00000000000E+00  0.00000000000E+00  0.11618777315E+04  0.11618777315E+04  0.50400001928E-02 0.  1.
        1   -1    0    0  501    0  0.00000000000E+00  0.00000000000E+00 -0.20608172064E+04  0.20608172064E+04  0.50400001928E-02 0. -1.
    10030    2    1    2    0    0  0.00000000000E+00  0.00000000000E+00 -0.89893947486E+03  0.32226949379E+04  0.30947811688E+04 0.  0.
        4    1    3    3  502    0  0.13737554358E+04 -0.70717004684E+03 -0.53735307759E+03  0.16358616737E+04  0.12699999809E+01 0. -1.
       -4    1    3    3    0  502 -0.13737554358E+04  0.70717004684E+03 -0.36158639727E+03  0.15868332641E+04  0.12699999809E+01 0.  1.
</event>
<event>
 5   0  0.5154105E-07  0.3095940E+04  0.7818609E-02  0.8216853E-01
       -2   -1    0    0    0  501  0.00000000000E+00  0.00000000000E+00  0.12350796380E+04  0.12350796380E+04  0.25500000920E-02 0. -1.
        2   -1    0    0  501    0  0.00000000000E+00  0.00000000000E+00 -0.19401269277E+04  0.19401269277E+04  0.25500000920E-02 0.  1.
    10030    2    1    2    0    0  0.00000000000E+00  0.00000000000E+00 -0.70504728976E+03  0.31752065657E+04  0.30959400922E+04 0.  0.
        1    1    3    3  502    0 -0.42063721706E+03  0.57948343169E+03  0.10550117136E+04  0.12750633050E+04  0.50400001928E-02 0. -1.
       -1    1    3    3    0  502  0.42063721706E+03 -0.57948343169E+03 -0.17600590033E+04  0.19001432607E+04  0.50400001928E-02 0.  1.
</event>
<event>
 5   0  0.1875284E-07  0.3096623E+04  0.7818609E-02  0.8216665E-01
       -1   -1    0    0    0  501  0.00000000000E+00  0.00000000000E+00  0.24435142523E+04  0.24435142523E+04  0.50400001928E-02 0.  1.
        1   -1    0    0  501    0  0.00000000000E+00  0.00000000000E+00 -0.98107410730E+03  0.98107410731E+03  0.50400001928E-02 0. -1.
    10030    2    1    2    0    0  0.00000000000E+00  0.00000000000E+00  0.14624401450E+04  0.34245883596E+04  0.30966230405E+04 0.  0.
        4    1    3    3  502    0 -0.59648198011E+03  0.14280412958E+04  0.78278748591E+03  0.17343155872E+04  0.12699999809E+01 0.  1.
       -4    1    3    3    0  502  0.59648198011E+03 -0.14280412958E+04  0.67965265908E+03  0.16902727724E+04  0.12699999809E+01 0. -1.
</event>
<event>
 5   0  0.5248309E-07  0.3092970E+04  0.7818609E-02  0.8217670E-01
        2   -1    0    0  501    0  0.00000000000E+00  0.00000000000E+00  0.13521626280E+04  0.13521626280E+04  0.25500000920E-02 0. -1.
       -2   -1    0    0    0  501  0.00000000000E+00  0.00000000000E+00 -0.17687343413E+04  0.17687343413E+04  0.25500000920E-02 0.  1.
    10030    2    1    2    0    0  0.00000000000E+00  0.00000000000E+00 -0.41657171335E+03  0.31208969693E+04  0.30929704009E+04 0.  0.
        4    1    3    3  502    0  0.15018930615E+04  0.17919348044E+03  0.11683731684E+03  0.15170516283E+04  0.12699999809E+01 0.  1.
       -4    1    3    3    0  502 -0.15018930615E+04 -0.17919348044E+03 -0.53340903019E+03  0.16038453410E+04  0.12699999809E+01 0. -1.
</event>
<event>
 5   0  0.1840359E-07  0.3099842E+04  0.7818609E-02  0.8215781E-01
        1   -1    0    0  501    0  0.00000000000E+00  0.00000000000E+00  0.18280393554E+04  0.18280393554E+04  0.50400001928E-02 0.  1.
       -1   -1    0    0    0  501  0.00000000000E+00  0.00000000000E+00 -0.13141153418E+04  0.13141153419E+04  0.50400001928E-02 0. -1.
    10030    2    1    2    0    0  0.00000000000E+00  0.00000000000E+00  0.51392401357E+03  0.31421546973E+04  0.30998416492E+04 0.  0.
        1    1    3    3  502    0 -0.70478837088E+03  0.13628638164E+04  0.47934244564E+03  0.16074494113E+04  0.50400001928E-02 0.  1.
       -1    1    3    3    0  502  0.70478837088E+03 -0.13628638164E+04  0.34581567936E+02  0.15347052859E+04  0.50400001928E-02 0. -1.
</event>
<event>
 5   0  0.5376678E-07  0.3099470E+04  0.7818609E-02  0.8215883E-01
        2   -1    0    0  501    0  0.00000000000E+00  0.00000000000E+00  0.13084669797E+04  0.13084669797E+04  0.25500000920E-02 0.  1.
       -2   -1    0    0    0  501  0.00000000000E+00  0.00000000000E+00 -0.18354898942E+04  0.18354898942E+04  0.25500000920E-02 0. -1.
    10030    2    1    2    0    0  0.00000000000E+00  0.00000000000E+00 -0.52702291452E+03  0.31439568739E+04  0.30994695793E+04 0.  0.
        5    1    3    3  502    0 -0.14110130355E+02 -0.88363817884E+02 -0.18328599553E+04  0.18350490364E+04  0.46999998093E+01 0. -1.
       -5    1    3    3    0  502  0.14110130355E+02  0.88363817884E+02  0.13058370408E+04  0.13089078376E+04  0.46999998093E+01 0.  1.
</event>
<event>
 5   0  0.5376678E-07  0.3099209E+04  0.7818609E-02  0.8215955E-01
       -2   -1    0    0    0  501  0.00000000000E+00  0.00000000000E+00  0.10822953824E+04  0.10822953824E+04  0.25500000920E-02 0. -1.
        2   -1    0    0  501    0  0.00000000000E+00  0.00000000000E+00 -0.22186863731E+04  0.22186863731E+04  0.25500000920E-02 0.  1.
    10030    2    1    2    0    0  0.00000000000E+00  0.00000000000E+00 -0.11363909908E+04  0.33009817555E+04  0.30992089420E+04 0.  0.
        5    1    3    3  502    0  0.48639771440E+01  0.24291342993E+02 -0.22184678473E+04  0.22186111437E+04  0.46999998093E+01 0.  1.
       -5    1    3    3    0  502 -0.48639771440E+01 -0.24291342993E+02  0.10820768566E+04  0.10823706117E+04  0.46999998093E+01 0. -1.
</event>
<event>
 5   0  0.5055900E-07  0.3099334E+04  0.7818609E-02  0.8215921E-01
        2   -1    0    0  501    0  0.00000000000E+00  0.00000000000E+00  0.15620592791E+04  0.15620592791E+04  0.25500000920E-02 0.  1.
       -2   -1    0    0    0  501  0.00000000000E+00  0.00000000000E+00 -0.15373729894E+04  0.15373729894E+04  0.25500000920E-02 0. -1.
    10030    2    1    2    0    0  0.00000000000E+00  0.00000000000E+00  0.24686289648E+02  0.30994322685E+04  0.30993339565E+04 0.  0.
        2    1    3    3  502    0  0.12290299177E+04  0.56556327996E+03 -0.74338670920E+03  0.15436969138E+04  0.25500000920E-02 0. -1.
       -2    1    3    3    0  502 -0.12290299177E+04 -0.56556327996E+03  0.76807299885E+03  0.15557353547E+04  0.25500000920E-02 0.  1.
</event>
<event>
 5   0  0.5055900E-07  0.3087230E+04  0.7818609E-02  0.8219251E-01
        2   -1    0    0  501    0  0.00000000000E+00  0.00000000000E+00  0.22040057872E+04  0.22040057872E+04  0.25500000920E-02 0.  1.
       -2   -1    0    0    0  501  0.00000000000E+00  0.00000000000E+00 -0.10810981831E+04  0.10810981831E+04  0.25500000920E-02 0. -1.
    10030    2    1    2    0    0  0.00000000000E+00  0.00000000000E+00  0.11229076041E+04  0.32851039703E+04  0.30872296009E+04 0.  0.
        2    1    3    3  502    0 -0.48414826381E+03  0.14624670524E+04  0.66537193912E+03  0.16780730729E+04  0.25500000920E-02 0.  1.
       -2    1    3    3    0  502  0.48414826381E+03 -0.14624670524E+04  0.45753566499E+03  0.16070308974E+04  0.25500000920E-02 0. -1.
</event>
<event>
 5   0  0.5154105E-07  0.3100554E+04  0.7818609E-02  0.8215586E-01
       -2   -1    0    0    0  501  0.00000000000E+00  0.00000000000E+00  0.14546637643E+04  0.14546637643E+04  0.25500000920E-02 0.  1.
        2   -1    0    0  501    0  0.00000000000E+00  0.00000000000E+00 -0.16521745191E+04  0.16521745191E+04  0.25500000920E-02 0. -1.
    10030    2    1    2    0    0  0.00000000000E+00  0.00000000000E+00 -0.19751075475E+03  0.31068382834E+04  0.31005537604E+04 0.  0.
        1    1    3    3  502    0  0.79467293462E+03  0.61760540774E+03  0.10827940657E+04  0.14783046037E+04  0.50400001928E-02 0.  1.
       -1    1    3    3    0  502 -0.79467293462E+03 -0.61760540774E+03 -0.12803048204E+04  0.16285336797E+04  0.50400001928E-02 0. -1.
</event>
<event>
 5   0  0.1830902E-07  0.3098946E+04  0.7818609E-02  0.8216027E-01
       -1   -1    0    0    0  501  0.00000000000E+00  0.00000000000E+00  0.14578540711E+04  0.14578540711E+04  0.50400001928E-02 0. -1.
        1   -1    0    0  501    0  0.00000000000E+00  0.00000000000E+00 -0.16468500561E+04  0.16468500561E+04  0.50400001928E-02 0.  1.
    10030    2    1    2    0    0  0.00000000000E+00  0.00000000000E+00 -0.18899598500E+03  0.31047041273E+04  0.30989463105E+04 0.  0.
        3    1    3    3  502    0 -0.10269937230E+04 -0.11601302228E+04 -0.78695045709E+02  0.15513900739E+04  0.10100000352E+00 0.  1.
       -3    1    3    3    0  502  0.10269937230E+04  0.11601302228E+04 -0.11030093929E+03  0.15533140534E+04  0.10100000352E+00 0. -1.
</event>
<event>
 5   0  0.1830902E-07  0.3104992E+04  0.7818609E-02  0.8214369E-01
        1   -1    0    0  501    0  0.00000000000E+00  0.00000000000E+00  0.24737625888E+04  0.24737625888E+04  0.50400001928E-02 0. -1.
       -1   -1    0    0    0  501  0.00000000000E+00  0.00000000000E+00 -0.97432270905E+03  0.97432270906E+03  0.50400001928E-02 0.  1.
    10030    2    1    2    0    0  0.00000000000E+00  0.00000000000E+00  0.14994398797E+04  0.34480852979E+04  0.31049915086E+04 0.  0.
        3    1    3    3  502    0  0.35191457993E+03  0.14558638056E+04  0.29609868284E+03  0.15267801846E+04  0.10100000352E+00 0.  1.
       -3    1    3    3    0  502 -0.35191457993E+03 -0.14558638056E+04  0.12033411969E+04  0.19213051133E+04  0.10100000352E+00 0. -1.
</event>
<event>
 5   0  0.1727000E-07  0.3086800E+04  0.7818609E-02  0.8219370E-01
        3   -1    0    0  501    0  0.00000000000E+00  0.00000000000E+00  0.20952010183E+04  0.20952010208E+04  0.10100000352E+00 0.  1.
       -3   -1    0    0    0  501  0.00000000000E+00  0.00000000000E+00 -0.11369235470E+04  0.11369235515E+04  0.10100000352E+00 0. -1.
    10030    2    1    2    0    0  0.00000000000E+00  0.00000000000E+00  0.95827747130E+03  0.32321245723E+04  0.30867998864E+04 0.  0.
        5    1    3    3  502    0 -0.12291758884E+04  0.24943185233E+02  0.14561068917E+04  0.19057189975E+04  0.46999998093E+01 0.  1.
       -5    1    3    3    0  502  0.12291758884E+04 -0.24943185233E+02 -0.49782942039E+03  0.13264055749E+04  0.46999998093E+01 0. -1.
</event>
<event>
 5   0  0.5342534E-07  0.3100864E+04  0.7818609E-02  0.8215501E-01
       -2   -1    0    0    0  501  0.00000000000E+00  0.00000000000E+00  0.89781393211E+03  0.89781393212E+03  0.25500000920E-02 0. -1.
        2   -1    0    0  501    0  0.00000000000E+00  0.00000000000E+00 -0.26774366778E+04  0.26774366778E+04  0.25500000920E-02 0.  1.
    10030    2    1    2    0    0  0.00000000000E+00  0.00000000000E+00 -0.17796227457E+04  0.35752506099E+04  0.31008643644E+04 0.  0.
        3    1    3    3  502    0  0.89826568853E+02  0.13917490422E+04 -0.16707881807E+04  0.21763656319E+04  0.10100000352E+00 0.  1.
       -3    1    3    3    0  502 -0.89826568853E+02 -0.13917490422E+04 -0.10883456493E+03  0.13988849780E+04  0.10100000352E+00 0. -1.
</event>
<event>
 5   0  0.1840359E-07  0.3096419E+04  0.7818609E-02  0.8216721E-01
       -1   -1    0    0    0  501  0.00000000000E+00  0.00000000000E+00  0.15436810801E+04  0.15436810801E+04  0.50400001928E-02 0.  1.
        1   -1    0    0  501    0  0.00000000000E+00  0.00000000000E+00 -0.15527515021E+04  0.15527515021E+04  0.50400001928E-02 0. -1.
    10030    2    1    2    0    0  0.00000000000E+00  0.00000000000E+00 -0.90704219998E+01  0.30964325822E+04  0.30964192971E+04 0.  0.
        1    1    3    3  502    0 -0.19798460483E+03  0.14630776528E+04  0.46147000069E+03  0.15468512157E+04  0.50400001928E-02 0.  1.
       -1    1    3    3    0  502  0.19798460483E+03 -0.14630776528E+04 -0.47054042269E+03  0.15495813665E+04  0.50400001928E-02 0. -1.
</event>
<event>
 5   0  0.5055900E-07  0.3097382E+04  0.7818609E-02  0.8216457E-01
       -2   -1    0    0    0  501  0.00000000000E+00  0.00000000000E+00  0.10740636174E+04  0.10740636174E+04  0.25500000920E-02 0.  1.
        2   -1    0    0  501    0  0.00000000000E+00  0.00000000000E+00 -0.22330561951E+04  0.22330561951E+04  0.25500000920E-02 0. -1.
    10030    2    1    2    0    0  0.00000000000E+00  0.00000000000E+00 -0.11589925777E+04  0.33071198124E+04  0.30973823882E+04 0.  0.
        2    1    3    3  502    0  0.17294166870E+03  0.44983150284E+03 -0.21509554474E+04  0.22042836792E+04  0.25500000920E-02 0. -1.
       -2    1    3    3    0  502 -0.17294166870E+03 -0.44983150284E+03  0.99196286973E+03  0.11028361332E+04  0.25500000920E-02 0.  1.
</event>
<event>
 5   0  0.1875284E-07  0.3115648E+04  0.7818609E-02  0.8211457E-01
       -1   -1    0    0    0  501  0.00000000000E+00  0.00000000000E+00  0.17101593636E+04  0.17101593636E+04  0.50400001928E-02 0.  1.
        1   -1    0    0  501    0  0.00000000000E+00  0.00000000000E+00 -0.14190582217E+04  0.14190582217E+04  0.50400001928E-02 0. -1.
    10030    2    1    2    0    0  0.00000000000E+00  0.00000000000E+00  0.29110114190E+03  0.31292175853E+04  0.31156480580E+04 0.  0.
        4    1    3    3  502    0  0.86387446920E+02 -0.14890731575E+04 -0.30586487794E+03  0.15226150517E+04  0.12699999809E+01 0. -1.
       -4    1    3    3    0  502 -0.86387446920E+02  0.14890731575E+04  0.59696601983E+03  0.16066025336E+04  0.12699999809E+01 0.  1.
</event>
<event>
 5   0  0.1840359E-07  0.3097701E+04  0.7818609E-02  0.8216369E-01
        1   -1    0    0  501    0  0.00000000000E+00  0.00000000000E+00  0.21396295111E+04  0.21396295111E+04  0.50400001928E-02 0.  1.
       -1   -1    0    0    0  501  0.00000000000E+00  0.00000000000E+00 -0.11211934278E+04  0.11211934278E+04  0.50400001928E-02 0. -1.
    10030    2    1    2    0    0  0.00000000000E+00  0.00000000000E+00  0.10184360833E+04  0.32608229389E+04  0.30977014354E+04 0.  0.
        1    1    3    3  502    0  0.84188774118E+03 -0.12911035894E+04  0.34882965245E+03  0.15803181875E+04  0.50400001928E-02 0. -1.
       -1    1    3    3    0  502 -0.84188774118E+03  0.12911035894E+04  0.66960643081E+03  0.16805047514E+04  0.50400001928E-02 0.  1.
</event>
<event>
 5   0  0.1845123E-07  0.3097351E+04  0.7818609E-02  0.8216465E-01
        1   -1    0    0  501    0  0.00000000000E+00  0.00000000000E+00  0.86389477078E+03  0.86389477079E+03  0.50400001928E-02 0. -1.
       -1   -1    0    0    0  501  0.00000000000E+00  0.00000000000E+00 -0.27762594412E+04  0.27762594412E+04  0.50400001928E-02 0.  1.
    10030    2    1    2    0    0  0.00000000000E+00  0.00000000000E+00 -0.19123646704E+04  0.36401542120E+04  0.30973511352E+04 0.  0.
        2    1    3    3  502    0 -0.25166688138E+03 -0.13681264976E+04 -0.15624557724E+03  0.13998282084E+04  0.25500000920E-02 0.  1.
       -2    1    3    3    0  502  0.25166688138E+03  0.13681264976E+04 -0.17561190932E+04  0.22403260036E+04  0.25500000920E-02 0. -1.
</event>
<event>
 5   0  0.1830902E-07  0.3093510E+04  0.7818609E-02  0.8217521E-01
       -1   -1    0    0    0  501  0.00000000000E+00  0.00000000000E+00  0.11960718658E+04  0.11960718659E+04  0.50400001928E-02 0.  1.
        1   -1    0    0  501    0  0.00000000000E+00  0.00000000000E+00 -0.20002566172E+04  0.20002566172E+04  0.50400001928E-02 0. -1.
    10030    2    1    2    0    0  0.00000000000E+00  0.00000000000E+00 -0.80418475134E+03  0.31963284830E+04  0.30935097636E+04 0.  0.
        3    1    3    3  502    0  0.14539641906E+04  0.45226705866E+03 -0.68296048339E+03  0.16688296473E+04  0.10100000352E+00 0. -1.
       -3    1    3    3    0  502 -0.14539641906E+04 -0.45226705866E+03 -0.12122426795E+03  0.15274988357E+04  0.10100000352E+00 0.  1.
</event>
<event>
 5   0  0.5248309E-07  0.3101361E+04  0.7818609E-02  0.8215364E-01
       -2   -1    0    0    0  501  0.00000000000E+00  0.00000000000E+00  0.13286237475E+04  0.13286237475E+04  0.25500000920E-02 0. -1.
        2   -1    0    0  501    0  0.00000000000E+00  0.00000000000E+00 -0.18098503690E+04  0.18098503690E+04  0.25500000920E-02 0.  1.
    10030    2    1    2    0    0  0.00000000000E+00  0.00000000000E+00 -0.48122662144E+03  0.31384741165E+04  0.31013611074E+04 0.  0.
        4    1    3    3  502    0 -0.20159717826E+03  0.12040651559E+04 -0.12081901328E+04  0.17175969643E+04  0.12699999809E+01 0. -1.
       -4    1    3    3    0  502  0.20159717826E+03 -0.12040651559E+04  0.72696351136E+03  0.14208771522E+04  0.12699999809E+01 0.  1.
</event>
<event>
 5   0  0.5248309E-07  0.3069804E+04  0.7818609E-02  0.8224074E-01
        2   -1    0    0  501    0  0.00000000000E+00  0.00000000000E+00  0.21002535605E+04  0.21002535605E+04  0.25500000920E-02 0.  1.
       -2   -1    0    0    0  501  0.00000000000E+00  0.00000000000E+00 -0.11217330458E+04  0.11217330458E+04  0.25500000920E-02 0. -1.
    10030    2    1    2    0    0  0.00000000000E+00  0.00000000000E+00  0.97852051476E+03  0.32219866063E+04  0.30698037875E+04 0.  0.
        4    1    3    3  502    0 -0.66142642780E+03 -0.51719536776E+03 -0.85932863798E+03  0.12014255236E+04  0.12699999809E+01 0. -1.
       -4    1    3    3    0  502  0.66142642780E+03  0.51719536776E+03  0.18378491527E+04  0.20205610827E+04  0.12699999809E+01 0.  1.
</event>
<event>
 5   0  0.1845123E-07  0.3096598E+04  0.7818609E-02  0.8216672E-01
       -1   -1    0    0    0  501  0.00000000000E+00  0.00000000000E+00  0.10574211823E+04  0.10574211823E+04  0.50400001928E-02 0.  1.
        1   -1    0    0  501    0  0.00000000000E+00  0.00000000000E+00 -0.22670532560E+04  0.22670532560E+04  0.50400001928E-02 0. -1.
    10030    2    1    2    0    0  0.00000000000E+00  0.00000000000E+00 -0.12096320737E+04  0.33244744383E+04  0.30965982202E+04 0.  0.
        2    1    3    3  502    0 -0.12858505141E+04 -0.50296030672E+03  0.14734758195E+03  0.13885574978E+04  0.25500000920E-02 0. -1.
       -2    1    3    3    0  502  0.12858505141E+04  0.50296030672E+03 -0.13569796556E+04  0.19359169405E+04  0.25500000920E-02 0.  1.
</event>
<event>
 5   0  0.5248309E-07  0.3099338E+04  0.7818609E-02  0.8215920E-01
       -2   -1    0    0    0  501  0.00000000000E+00  0.00000000000E+00  0.14992771980E+04  0.14992771981E+04  0.25500000920E-02 0. -1.
        2   -1    0    0  501    0  0.00000000000E+00  0.00000000000E+00 -0.16017548169E+04  0.16017548169E+04  0.25500000920E-02 0.  1.
    10030    2    1    2    0    0  0.00000000000E+00  0.00000000000E+00 -0.10247761885E+03  0.31010320150E+04  0.30993382996E+04 0.  0.
        4    1    3    3  502    0  0.13436067096E+04 -0.70108560841E+03 -0.37494743502E+03  0.15612133782E+04  0.12699999809E+01 0. -1.
       -4    1    3    3    0  502 -0.13436067096E+04  0.70108560841E+03  0.27246981616E+03  0.15398186367E+04  0.12699999809E+01 0.  1.
</event>
<event>
 5   0  0.5154105E-07  0.3102331E+04  0.7818609E-02  0.8215098E-01
        2   -1    0    0  501    0  0.00000000000E+00  0.00000000000E+00  0.21867807722E+04  0.21867807722E+04  0.25500000920E-02 0.  1.
       -2   -1    0    0    0  501  0.00000000000E+00  0.00000000000E+00 -0.11002997578E+04  0.11002997578E+04  0.25500000920E-02 0. -1.
    10030    2    1    2    0    0  0.00000000000E+00  0.00000000000E+00  0.10864810144E+04  0.32870805300E+04  0.31023309650E+04 0.  0.
        1    1    3    3  502    0  0.33931090395E+03  0.34061475734E+03  0.21058420830E+04  0.21600280510E+04  0.50400001928E-02 0.  1.
       -1    1    3    3    0  502 -0.33931090395E+03 -0.34061475734E+03 -0.10193610686E+04  0.11270524791E+04  0.50400001928E-02 0. -1.
</event>
<event>
 5   0  0.5248309E-07  0.3100294E+04  0.7818609E-02  0.8215657E-01
        2   -1    0    0  501    0  0.00000000000E+00  0.00000000000E+00  0.23322832531E+04  0.23322832531E+04  0.25500000920E-02 0.  1.
       -2   -1    0    0    0  501  0.00000000000E+00  0.00000000000E+00 -0.10303017236E+04  0.10303017236E+04  0.25500000920E-02 0. -1.
    10030    2    1    2    0    0  0.00000000000E+00  0.00000000000E+00  0.13019815295E+04  0.33625849767E+04  0.31002938284E+04 0.  0.
        4    1    3    3  502    0  0.13457291562E+04  0.32437123798E+02 -0.18275341392E+03  0.13584695624E+04  0.12699999809E+01 0. -1.
       -4    1    3    3    0  502 -0.13457291562E+04 -0.32437123798E+02  0.14847349434E+04  0.20041154143E+04  0.12699999809E+01 0.  1.
</event>
<event>
 5   0  0.1830902E-07  0.3101684E+04  0.7818609E-02  0.8215276E-01
        1   -1    0    0  501    0  0.00000000000E+00  0.00000000000E+00  0.99368748073E+03  0.99368748074E+03  0.50400001928E-02 0. -1.
       -1   -1    0    0    0  501  0.00000000000E+00  0.00000000000E+00 -0.24203893957E+04  0.24203893957E+04  0.50400001928E-02 0.  1.
    10030    2    1    2    0    0  0.00000000000E+00  0.00000000000E+00 -0.14267019150E+04  0.34140768765E+04  0.31016838273E+04 0.  0.
        3    1    3    3  502    0  0.53141804249E+03  0.13613941171E+04 -0.12845707704E+04  0.19457443697E+04  0.10100000352E+00 0.  1.
       -3    1    3    3    0  502 -0.53141804249E+03 -0.13613941171E+04 -0.14213114464E+03  0.14683325068E+04  0.10100000352E+00 0. -1.
</event>
<event>
 5   0  0.5376678E-07  0.3100546E+04  0.7818609E-02  0.8215588E-01
        2   -1    0    0  501    0  0.00000000000E+00  0.00000000000E+00  0.28870067159E+04  0.28870067159E+04  0.25500000920E-02 0. -1.
       -2   -1    0    0    0  501  0.00000000000E+00  0.00000000000E+00 -0.83247006613E+03  0.83247006613E+03  0.25500000920E-02 0.  1.
    10030    2    1    2    0    0  0.00000000000E+00  0.00000000000E+00  0.20545366497E+04  0.37194767820E+04  0.31005461917E+04 0.  0.
        5    1    3    3  502    0 -0.51184777468E+03  0.65106268102E+03 -0.54485344183E+03  0.99134157692E+03  0.46999998093E+01 0.  1.
       -5    1    3    3    0  502  0.51184777468E+03 -0.65106268102E+03  0.25993900916E+04  0.27281352051E+04  0.46999998093E+01 0. -1.
</event>
<event>
 5   0  0.1830902E-07  0.3099931E+04  0.7818609E-02  0.8215757E-01
        1   -1    0    0  501    0  0.00000000000E+00  0.00000000000E+00  0.19804389779E+04  0.19804389779E+04  0.50400001928E-02 0.  1.
       -1   -1    0    0    0  501  0.00000000000E+00  0.00000000000E+00 -0.12130610708E+04  0.12130610708E+04  0.50400001928E-02 0. -1.
    10030    2    1    2    0    0  0.00000000000E+00  0.00000000000E+00  0.76737790707E+03  0.31935000487E+04  0.30999312426E+04 0.  0.
        3    1    3    3  502    0  0.93404020800E+03  0.97867486091E+03 -0.39555382516E+03  0.14095029026E+04  0.10100000352E+00 0. -1.
       -3    1    3    3    0  502 -0.93404020800E+03 -0.97867486091E+03  0.11629317322E+04  0.17839971462E+04  0.10100000352E+00 0.  1.
</event>
<event>
 5   0  0.1830902E-07  0.3106489E+04  0.7818609E-02  0.8213959E-01
        1   -1    0    0  501    0  0.00000000000E+00  0.00000000000E+00  0.78412436021E+03  0.78412436022E+03  0.50400001928E-02 0.  1.
       -1   -1    0    0    0  501  0.00000000000E+00  0.00000000000E+00 -0.30767669694E+04  0.30767669694E+04  0.50400001928E-02 0. -1.
    10030    2    1    2    0    0  0.00000000000E+00  0.00000000000E+00 -0.22926426092E+04  0.38608913296E+04  0.31064886489E+04 0.  0.
        3    1    3    3  502    0  0.76308393131E+03  0.28973256082E+03  0.49608442632E+03  0.95516585536E+03  0.10100000352E+00 0.  1.
       -3    1    3    3    0  502 -0.76308393131E+03 -0.28973256082E+03 -0.27887270355E+04  0.29057254742E+04  0.10100000352E+00 0. -1.
</event>
<event>
 5   0  0.5342534E-07  0.3102249E+04  0.7818609E-02  0.8215121E-01
       -2   -1    0    0    0  501  0.00000000000E+00  0.00000000000E+00  0.14697223899E+04  0.14697223899E+04  0.25500000920E-02 0.  1.
        2   -1    0    0  501    0  0.00000000000E+00  0.00000000000E+00 -0.16370346964E+04  0.16370346964E+04  0.25500000920E-02 0. -1.
    10030    2    1    2    0    0  0.00000000000E+00  0.00000000000E+00 -0.16731230656E+03  0.31067570863E+04  0.31022485692E+04 0.  0.
        3    1    3    3  502    0 -0.14503143837E+04 -0.48109059406E+03  0.18342707785E+03  0.15389949559E+04  0.10100000352E+00 0. -1.
       -3    1    3    3    0  502  0.14503143837E+04  0.48109059406E+03 -0.35073938441E+03  0.15677621303E+04  0.10100000352E+00 0.  1.
</event>
<event>
 5   0  0.1840359E-07  0.3104233E+04  0.7818609E-02  0.8214577E-01
        1   -1    0    0  501    0  0.00000000000E+00  0.00000000000E+00  0.17380514696E+04  0.17380514696E+04  0.50400001928E-02 0. -1.
       -1   -1    0    0    0  501  0.00000000000E+00  0.00000000000E+00 -0.13860724773E+04  0.13860724773E+04  0.50400001928E-02 0.  1.
    10030    2    1    2    0    0  0.00000000000E+00  0.00000000000E+00  0.35197899229E+03  0.31241239468E+04  0.31042327916E+04 0.  0.
        1    1    3    3  502    0  0.76269070905E+03  0.11491036610E+04 -0.54056219730E+03  0.14813317760E+04  0.50400001928E-02 0.  1.
       -1    1    3    3    0  502 -0.76269070905E+03 -0.11491036610E+04  0.89254118959E+03  0.16427921708E+04  0.50400001928E-02 0. -1.
</event>
<event>
 5   0  0.1875284E-07  0.3097281E+04  0.7818609E-02  0.8216485E-01
       -1   -1    0    0    0  501  0.00000000000E+00  0.00000000000E+00  0.14395337220E+04  0.14395337220E+04  0.50400001928E-02 0.  1.
        1   -1    0    0  501    0  0.00000000000E+00  0.00000000000E+00 -0.16660165025E+04  0.16660165025E+04  0.50400001928E-02 0. -1.
    10030    2    1    2    0    0  0.00000000000E+00  0.00000000000E+00 -0.22648278049E+03  0.31055502245E+04  0.30972807020E+04 0.  0.
        4    1    3    3  502    0  0.98905388683E+03  0.35473953485E+02  0.10810724860E+04  0.14656757231E+04  0.12699999809E+01 0.  1.
       -4    1    3    3    0  502 -0.98905388683E+03 -0.35473953485E+02 -0.13075552665E+04  0.16398745014E+04  0.12699999809E+01 0. -1.
</event>
<event>
 5   0  0.1814075E-07  0.3072997E+04  0.7818609E-02  0.8223188E-01
        1   -1    0    0  501    0  0.00000000000E+00  0.00000000000E+00  0.24477516807E+04  0.24477516807E+04  0.50400001928E-02 0. -1.
       -1   -1    0    0    0  501  0.00000000000E+00  0.00000000000E+00 -0.96448844860E+03  0.96448844861E+03  0.50400001928E-02 0.  1.
    10030    2    1    2    0    0  0.00000000000E+00  0.00000000000E+00  0.14832632321E+04  0.34122401293E+04  0.30729973779E+04 0.  0.
        5    1    3    3  502    0  0.68300339129E+03  0.59762629418E+03  0.21183219763E+04  0.23045522136E+04  0.46999998093E+01 0. -1.
       -5    1    3    3    0  502 -0.68300339129E+03 -0.59762629418E+03 -0.63505874419E+03  0.11076879157E+04  0.46999998093E+01 0.  1.
</event>
<event>
 5   0  0.1875284E-07  0.3100451E+04  0.7818609E-02  0.8215614E-01
       -1   -1    0    0    0  501  0.00000000000E+00  0.00000000000E+00  0.15904001583E+04  0.15904001583E+04  0.50400001928E-02 0.  1.
        1   -1    0    0  501    0  0.00000000000E+00  0.00000000000E+00 -0.15110658962E+04  0.15110658962E+04  0.50400001928E-02 0. -1.
    10030    2    1    2    0    0  0.00000000000E+00  0.00000000000E+00  0.79334262097E+02  0.31014660545E+04  0.31004512191E+04 0.  0.
        4    1    3    3  502    0  0.97946593439E+03 -0.96932464602E+03  0.75000803451E+03  0.15689032637E+04  0.12699999809E+01 0.  1.
       -4    1    3    3    0  502 -0.97946593439E+03  0.96932464602E+03 -0.67067377242E+03  0.15325627909E+04  0.12699999809E+01 0. -1.
</event>
<event>
 5   0  0.1840359E-07  0.3098500E+04  0.7818609E-02  0.8216150E-01
        1   -1    0    0  501    0  0.00000000000E+00  0.00000000000E+00  0.21475211990E+04  0.21475211990E+04  0.50400001928E-02 0. -1.
       -1   -1    0    0    0  501  0.00000000000E+00  0.00000000000E+00 -0.11176490485E+04  0.11176490485E+04  0.50400001928E-02 0.  1.
    10030    2    1    2    0    0  0.00000000000E+00  0.00000000000E+00  0.10298721505E+04  0.32651702476E+04  0.30984996529E+04 0.  0.
        1    1    3    3  502    0 -0.15184810849E+04 -0.78221251801E+02  0.82802306005E+03  0.17313363502E+04  0.50400001928E-02 0. -1.
       -1    1    3    3    0  502  0.15184810849E+04  0.78221251801E+02  0.20184909043E+03  0.15338338974E+04  0.50400001928E-02 0.  1.
</event>
<event>
 5   0  0.5248309E-07  0.3077517E+04  0.7818609E-02  0.8221935E-01
        2   -1    0    0  501    0  0.00000000000E+00  0.00000000000E+00  0.28444417841E+04  0.28444417841E+04  0.25500000920E-02 0. -1.
       -2   -1    0    0    0  501  0.00000000000E+00  0.00000000000E+00 -0.83242251894E+03  0.83242251894E+03  0.25500000920E-02 0.  1.
    10030    2    1    2    0    0  0.00000000000E+00  0.00000000000E+00  0.20120192652E+04  0.36768643031E+04  0.30775167879E+04 0.  0.
        4    1    3    3  502    0 -0.37209512625E+03  0.42261509533E+03  0.27169311500E+04  0.27746666085E+04  0.12699999809E+01 0. -1.
       -4    1    3    3    0  502  0.37209512625E+03 -0.42261509533E+03 -0.70491188481E+03  0.90219769453E+03  0.12699999809E+01 0.  1.
</event>
<event>
 5   0  0.1875284E-07  0.3104283E+04  0.7818609E-02  0.8214563E-01
        1   -1    0    0  501    0  0.00000000000E+00  0.00000000000E+00  0.30970765088E+04  0.30970765088E+04  0.50400001928E-02 0.  1.
       -1   -1    0    0    0  501  0.00000000000E+00  0.00000000000E+00 -0.77787671652E+03  0.77787671654E+03  0.50400001928E-02 0. -1.
    10030    2    1    2    0    0  0.00000000000E+00  0.00000000000E+00  0.23191997923E+04  0.38749532254E+04  0.31042833025E+04 0.  0.
        4    1    3    3  502    0  0.15443068865E+04 -0.15473164559E+03  0.11373945115E+04  0.19241864591E+04  0.12699999809E+01 0. -1.
       -4    1    3    3    0  502 -0.15443068865E+04  0.15473164559E+03  0.11818052808E+04  0.19507667663E+04  0.12699999809E+01 0.  1.
</event>
<event>
 5   0  0.1840359E-07  0.3088574E+04  0.7818609E-02  0.8218881E-01
        1   -1    0    0  501    0  0.00000000000E+00  0.00000000000E+00  0.21065955651E+04  0.21065955651E+04  0.50400001928E-02 0.  1.
       -1   -1    0    0    0  501  0.00000000000E+00  0.00000000000E+00 -0.11320743680E+04  0.11320743680E+04  0.50400001928E-02 0. -1.
    10030    2    1    2    0    0  0.00000000000E+00  0.00000000000E+00  0.97452119708E+03  0.32386699330E+04  0.30885743267E+04 0.  0.
        1    1    3    3  502    0  0.11422408760E+04  0.10359989141E+04  0.40069655170E+03  0.15932877001E+04  0.50400001928E-02 0. -1.
       -1    1    3    3    0  502 -0.11422408760E+04 -0.10359989141E+04  0.57382464538E+03  0.16453822329E+04  0.50400001928E-02 0.  1.
</event>
<event>
 5   0  0.1830902E-07  0.3104184E+04  0.7818609E-02  0.8214591E-01
        1   -1    0    0  501    0  0.00000000000E+00  0.00000000000E+00  0.20936942969E+04  0.20936942969E+04  0.50400001928E-02 0. -1.
       -1   -1    0    0    0  501  0.00000000000E+00  0.00000000000E+00 -0.11505927439E+04  0.11505927439E+04  0.50400001928E-02 0.  1.
    10030    2    1    2    0    0  0.00000000000E+00  0.00000000000E+00  0.94310155306E+03  0.32442870408E+04  0.31041839288E+04 0.  0.
        3    1    3    3  502    0 -0.34464358362E+03  0.50891623431E+03  0.19610823801E+04  0.20551445314E+04  0.10100000352E+00 0. -1.
       -3    1    3    3    0  502  0.34464358362E+03 -0.50891623431E+03 -0.10179808270E+04  0.11891425094E+04  0.10100000352E+00 0.  1.
</event>
<event>
 5   0  0.1830902E-07  0.3092140E+04  0.7818609E-02  0.8217898E-01
        1   -1    0    0  501    0  0.00000000000E+00  0.00000000000E+00  0.16987731633E+04  0.16987731633E+04  0.50400001928E-02 0. -1.
       -1   -1    0    0    0  501  0.00000000000E+00  0.00000000000E+00 -0.14070932047E+04  0.14070932047E+04  0.50400001928E-02 0.  1.
    10030    2    1    2    0    0  0.00000000000E+00  0.00000000000E+00  0.29167995864E+03  0.31058663680E+04  0.30921398251E+04 0.  0.
        3    1    3    3  502    0  0.54417633361E+03 -0.96656720068E+03  0.12276317536E+04  0.16545270527E+04  0.10100000352E+00 0. -1.
       -3    1    3    3    0  502 -0.54417633361E+03  0.96656720068E+03 -0.93595179496E+03  0.14513393153E+04  0.10100000352E+00 0.  1.
</event>
<event>
 5   0  0.5248309E-07  0.3097764E+04  0.7818609E-02  0.8216352E-01
        2   -1    0    0  501    0  0.00000000000E+00  0.00000000000E+00  0.25305226421E+04  0.25305226421E+04  0.25500000920E-02 0.  1.
       -2   -1    0    0    0  501  0.00000000000E+00  0.00000000000E+00 -0.94803966701E+03  0.94803966701E+03  0.25500000920E-02 0. -1.
    10030    2    1    2    0    0  0.00000000000E+00  0.00000000000E+00  0.15824829751E+04  0.34785623091E+04  0.30977642538E+04 0.  0.
        4    1    3    3  502    0  0.13355854437E+04  0.73011730461E+03  0.11131406822E+04  0.18857209622E+04  0.12699999809E+01 0.  1.
       -4    1    3    3    0  502 -0.13355854437E+04 -0.73011730461E+03  0.46934229290E+03  0.15928413470E+04  0.12699999809E+01 0. -1.
</event>
<event>
 5   0  0.1845123E-07  0.3098255E+04  0.7818609E-02  0.8216217E-01
        1   -1    0    0  501    0  0.00000000000E+00  0.00000000000E+00  0.15250989489E+04  0.15250989489E+04  0.50400001928E-02 0. -1.
       -1   -1    0    0    0  501  0.00000000000E+00  0.00000000000E+00 -0.15735344676E+04  0.15735344676E+04  0.50400001928E-02 0.  1.
    10030    2    1    2    0    0  0.00000000000E+00  0.00000000000E+00 -0.48435518768E+02  0.30986334165E+04  0.30982548395E+04 0.  0.
        2    1    3    3  502    0 -0.70263918061E+03  0.70425172857E+03  0.11634135283E+04  0.15307525447E+04  0.25500000920E-02 0. -1.
       -2    1    3    3    0  502  0.70263918061E+03 -0.70425172857E+03 -0.12118490470E+04  0.15678808718E+04  0.25500000920E-02 0.  1.
</event>
<event>
 5   0  0.1875284E-07  0.3102992E+04  0.7818609E-02  0.8214917E-01
       -1   -1    0    0    0  501  0.00000000000E+00  0.00000000000E+00  0.20461361234E+04  0.20461361234E+04  0.50400001928E-02 0.  1.
        1   -1    0    0  501    0  0.00000000000E+00  0.00000000000E+00 -0.11764321268E+04  0.11764321268E+04  0.50400001928E-02 0. -1.
    10030    2    1    2    0    0  0.00000000000E+00  0.00000000000E+00  0.86970399663E+03  0.32225682503E+04  0.31029922794E+04 0.  0.
        4    1    3    3  502    0  0.74150192630E+03  0.79264070815E+03  0.15861915484E+04  0.19220066701E+04  0.12699999809E+01 0.  1.
       -4    1    3    3    0  502 -0.74150192630E+03 -0.79264070815E+03 -0.71648755179E+03  0.13005615801E+04  0.12699999809E+01 0. -1.
</event>
<event>
 5   0  0.5248309E-07  0.3109050E+04  0.7818609E-02  0.8213259E-01
        2   -1    0    0  501    0  0.00000000000E+00  0.00000000000E+00  0.16081659629E+04  0.16081659629E+04  0.25500000920E-02 0.  1.
       -2   -1    0    0    0  501  0.00000000000E+00  0.00000000000E+00 -0.15026731480E+04  0.15026731480E+04  0.25500000920E-02 0. -1.
    10030    2    1    2    0    0  0.00000000000E+00  0.00000000000E+00  0.10549281490E+03  0.31108391109E+04  0.31090498935E+04 0.  0.
        4    1    3    3  502    0 -0.16711801760E+03 -0.95502243059E+03  0.12685794065E+04  0.15966501177E+04  0.12699999809E+01 0.  1.
       -4    1    3    3    0  502  0.16711801760E+03  0.95502243059E+03 -0.11630865916E+04  0.15141889932E+04  0.12699999809E+01 0. -1.
</event>
<event>
 5   0  0.5376678E-07  0.3102021E+04  0.7818609E-02  0.8215184E-01
       -2   -1    0    0    0  501  0.00000000000E+00  0.00000000000E+00  0.17071227454E+04  0.17071227454E+04  0.25500000920E-02 0.  1.
        2   -1    0    0  501    0  0.00000000000E+00  0.00000000000E+00 -0.14091742425E+04  0.14091742425E+04  0.25500000920E-02 0. -1.
    10030    2    1    2    0    0  0.00000000000E+00  0.00000000000E+00  0.29794850290E+03  0.31162969879E+04  0.31020208907E+04 0.  0.
        5    1    3    3  502    0  0.14488702775E+04  0.15048767684E+03  0.68409792769E+03  0.16093115567E+04  0.46999998093E+01 0.  1.
       -5    1    3    3    0  502 -0.14488702775E+04 -0.15048767684E+03 -0.38614942478E+03  0.15069854313E+04  0.46999998093E+01 0. -1.
</event>
<event>
 5   0  0.1875284E-07  0.3103242E+04  0.7818609E-02  0.8214849E-01
        1   -1    0    0  501    0  0.00000000000E+00  0.00000000000E+00  0.23467673715E+04  0.23467673715E+04  0.50400001928E-02 0.  1.
       -1   -1    0    0    0  501  0.00000000000E+00  0.00000000000E+00 -0.10258913503E+04  0.10258913503E+04  0.50400001928E-02 0. -1.
    10030    2    1    2    0    0  0.00000000000E+00  0.00000000000E+00  0.13208760212E+04  0.33726587218E+04  0.31032423995E+04 0.  0.
        4    1    3    3  502    0 -0.14971489210E+04  0.36334771671E+03  0.86098541211E+03  0.17648722185E+04  0.12699999809E+01 0. -1.
       -4    1    3    3    0  502  0.14971489210E+04 -0.36334771671E+03  0.45989060909E+03  0.16077865033E+04  0.12699999809E+01 0.  1.
</event>
<event>
 5   0  0.5248309E-07  0.3100135E+04  0.7818609E-02  0.8215701E-01
        2   -1    0    0  501    0  0.00000000000E+00  0.00000000000E+00  0.20518073370E+04  0.20518073370E+04  0.25500000920E-02 0. -1.
       -2   -1    0    0    0  501  0.00000000000E+00  0.00000000000E+00 -0.11710210892E+04  0.11710210892E+04  0.25500000920E-02 0.  1.
    10030    2    1    2    0    0  0.00000000000E+00  0.00000000000E+00  0.88078624779E+03  0.32228284262E+04  0.31001352632E+04 0.  0.
        4    1    3    3  502    0  0.45264184772E+03  0.96522738476E+03 -0.72937761058E+03  0.12917205032E+04  0.12699999809E+01 0.  1.
       -4    1    3    3    0  502 -0.45264184772E+03 -0.96522738476E+03  0.16101638584E+04  0.19311079230E+04  0.12699999809E+01 0. -1.
</event>
<event>
 5   0  0.5342534E-07  0.3097835E+04  0.7818609E-02  0.8216332E-01
        2   -1    0    0  501    0  0.00000000000E+00  0.00000000000E+00  0.10974480515E+04  0.10974480515E+04  0.25500000920E-02 0. -1.
       -2   -1    0    0    0  501  0.00000000000E+00  0.00000000000E+00 -0.21861124091E+04  0.21861124091E+04  0.25500000920E-02 0.  1.
    10030    2    1    2    0    0  0.00000000000E+00  0.00000000000E+00 -0.10886643576E+04  0.32835604606E+04  0.30978346009E+04 0.  0.
        3    1    3    3  502    0 -0.71677802330E+02  0.19862254372E+03  0.10821200762E+04  0.11025300412E+04  0.10100000352E+00 0. -1.
       -3    1    3    3    0  502  0.71677802330E+02 -0.19862254372E+03 -0.21707844338E+04  0.21810304194E+04  0.10100000352E+00 0.  1.
</event>
<event>
 5   0  0.1814075E-07  0.3097494E+04  0.7818609E-02  0.8216426E-01
       -1   -1    0    0    0  501  0.00000000000E+00  0.00000000000E+00  0.13917192795E+04  0.13917192795E+04  0.50400001928E-02 0.  1.
        1   -1    0    0  501    0  0.00000000000E+00  0.00000000000E+00 -0.17234918694E+04  0.17234918694E+04  0.50400001928E-02 0. -1.
    10030    2    1    2    0    0  0.00000000000E+00  0.00000000000E+00 -0.33177258984E+03  0.31152111489E+04  0.30974937370E+04 0.  0.
        5    1    3    3  502    0  0.62136241878E+03  0.74960362469E+03 -0.13771831153E+04  0.16866096978E+04  0.46999998093E+01 0. -1.
       -5    1    3    3    0  502 -0.62136241878E+03 -0.74960362469E+03  0.10454105254E+04  0.14286014512E+04  0.46999998093E+01 0.  1.
</event>
<event>
 5   0  0.5055900E-07  0.3103723E+04  0.7818609E-02  0.8214717E-01
       -2   -1    0    0    0  501  0.00000000000E+00  0.00000000000E+00  0.11046340592E+04  0.11046340592E+04  0.25500000920E-02 0.  1.
        2   -1    0    0  501    0  0.00000000000E+00  0.00000000000E+00 -0.21801557136E+04  0.21801557136E+04  0.25500000920E-02 0. -1.
    10030    2    1    2    0    0  0.00000000000E+00  0.00000000000E+00 -0.10755216544E+04  0.32847897729E+04  0.31037230905E+04 0.  0.
        2    1    3    3  502    0  0.20284230824E+03  0.88056902540E+03 -0.18729996923E+04  0.20795852129E+04  0.25500000920E-02 0. -1.
       -2    1    3    3    0  502 -0.20284230824E+03 -0.88056902540E+03  0.79747803783E+03  0.12052045600E+04  0.25500000920E-02 0.  1.
</event>
<event>
 5   0  0.1814075E-07  0.3082312E+04  0.7818609E-02  0.8220609E-01
        1   -1    0    0  501    0  0.00000000000E+00  0.00000000000E+00  0.14177498995E+04  0.14177498996E+04  0.50400001928E-02 0. -1.
       -1   -1    0    0    0  501  0.00000000000E+00  0.00000000000E+00 -0.16753041028E+04  0.16753041028E+04  0.50400001928E-02 0.  1.
    10030    2    1    2    0    0  0.00000000000E+00  0.00000000000E+00 -0.25755420329E+03  0.30930540024E+04  0.30823122642E+04 0.  0.
        5    1    3    3  502    0 -0.12483353269E+03  0.12247331388E+04  0.80159225764E+03  0.14690564692E+04  0.46999998093E+01 0. -1.
       -5    1    3    3    0  502  0.12483353269E+03 -0.12247331388E+04 -0.10591464609E+04  0.16239975332E+04  0.46999998093E+01 0.  1.
</event>
<event>
 5   0  0.5055900E-07  0.3097389E+04  0.7818609E-02  0.8216455E-01
       -2   -1    0    0    0  501  0.00000000000E+00  0.00000000000E+00  0.18675923977E+04  0.18675923977E+04  0.25500000920E-02 0. -1.
        2   -1    0    0  501    0  0.00000000000E+00  0.00000000000E+00 -0.12842499301E+04  0.12842499301E+04  0.25500000920E-02 0.  1.
    10030    2    1    2    0    0  0.00000000000E+00  0.00000000000E+00  0.58334246756E+03  0.31518423278E+04  0.30973894854E+04 0.  0.
        2    1    3    3  502    0  0.12548179080E+03  0.15206594194E+04  0.56148289066E+03  0.16258578616E+04  0.25500000920E-02 0.  1.
       -2    1    3    3    0  502 -0.12548179080E+03 -0.15206594194E+04  0.21859576904E+02  0.15259844661E+04  0.25500000920E-02 0. -1.
</event>
<event>
 5   0  0.1830902E-07  0.3099571E+04  0.7818609E-02  0.8215856E-01
       -1   -1    0    0    0  501  0.00000000000E+00  0.00000000000E+00  0.16955485231E+04  0.16955485231E+04  0.50400001928E-02 0.  1.
        1   -1    0    0  501    0  0.00000000000E+00  0.00000000000E+00 -0.14165534518E+04  0.14165534518E+04  0.50400001928E-02 0. -1.
    10030    2    1    2    0    0  0.00000000000E+00  0.00000000000E+00  0.27899507134E+03  0.31121019749E+04  0.30995710110E+04 0.  0.
        3    1    3    3  502    0 -0.82843667909E+03  0.12360086498E+04  0.57462053067E+03  0.15950590830E+04  0.10100000352E+00 0.  1.
       -3    1    3    3    0  502  0.82843667909E+03 -0.12360086498E+04 -0.29562545933E+03  0.15170428920E+04  0.10100000352E+00 0. -1.
</event>
<event>
 5   0  0.5342534E-07  0.3100203E+04  0.7818609E-02  0.8215682E-01
       -2   -1    0    0    0  501  0.00000000000E+00  0.00000000000E+00  0.12950449317E+04  0.12950449317E+04  0.25500000920E-02 0. -1.
        2   -1    0    0  501    0  0.00000000000E+00  0.00000000000E+00 -0.18553912546E+04  0.18553912547E+04  0.25500000920E-02 0.  1.
    10030    2    1    2    0    0  0.00000000000E+00  0.00000000000E+00 -0.56034632292E+03  0.31504361864E+04  0.31002032454E+04 0.  0.
        3    1    3    3  502    0 -0.78908461835E+03 -0.10228114971E+04  0.59045682343E+03  0.14203651516E+04  0.10100000352E+00 0. -1.
       -3    1    3    3    0  502  0.78908461835E+03  0.10228114971E+04 -0.11508031464E+04  0.17300710348E+04  0.10100000352E+00 0.  1.
</event>
<event>
 5   0  0.1875284E-07  0.3101197E+04  0.7818609E-02  0.8215410E-01
        1   -1    0    0  501    0  0.00000000000E+00  0.00000000000E+00  0.20473101611E+04  0.20473101611E+04  0.50400001928E-02 0.  1.
       -1   -1    0    0    0  501  0.00000000000E+00  0.00000000000E+00 -0.11743971591E+04  0.11743971591E+04  0.50400001928E-02 0. -1.
    10030    2    1    2    0    0  0.00000000000E+00  0.00000000000E+00  0.87291300203E+03  0.32217073202E+04  0.31011966961E+04 0.  0.
        4    1    3    3  502    0  0.12911978410E+04 -0.64848561019E+03  0.10210198046E+04  0.17692395274E+04  0.12699999809E+01 0. -1.
       -4    1    3    3    0  502 -0.12911978410E+04  0.64848561019E+03 -0.14810680255E+03  0.14524677928E+04  0.12699999809E+01 0.  1.
</event>
<event>
 5   0  0.1840359E-07  0.3102587E+04  0.7818609E-02  0.8215028E-01
        1   -1    0    0  501    0  0.00000000000E+00  0.00000000000E+00  0.19904573465E+04  0.19904573465E+04  0.50400001928E-02 0. -1.
       -1   -1    0    0    0  501  0.00000000000E+00  0.00000000000E+00 -0.12090244061E+04  0.12090244061E+04  0.50400001928E-02 0.  1.
    10030    2    1    2    0    0  0.00000000000E+00  0.00000000000E+00  0.78143294041E+03  0.31994817526E+04  0.31025869923E+04 0.  0.
        1    1    3    3  502    0 -0.84206448281E+03 -0.54235550405E+03  0.16123172366E+04  0.18981014086E+04  0.50400001928E-02 0. -1.
       -1    1    3    3    0  502  0.84206448281E+03  0.54235550405E+03 -0.83088429621E+03  0.13013803440E+04  0.50400001928E-02 0.  1.
</event>
<event>
 5   0  0.5055900E-07  0.3100353E+04  0.7818609E-02  0.8215641E-01
       -2   -1    0    0    0  501  0.00000000000E+00  0.00000000000E+00  0.16148403496E+04  0.16148403496E+04  0.25500000920E-02 0. -1.
        2   -1    0    0  501    0  0.00000000000E+00  0.00000000000E+00 -0.14881024723E+04  0.14881024723E+04  0.25500000920E-02 0.  1.
    10030    2    1    2    0    0  0.00000000000E+00  0.00000000000E+00  0.12673787730E+03  0.31029428219E+04  0.31003534744E+04 0.  0.
        2    1    3    3  502    0  0.55400950580E+03  0.13495746862E+04  0.58799137914E+03  0.15728993064E+04  0.25500000920E-02 0. -1.
       -2    1    3    3    0  502 -0.55400950580E+03 -0.13495746862E+04 -0.46125350184E+03  0.15300435154E+04  0.25500000920E-02 0.  1.
</event>
<event>
 5   0  0.1830902E-07  0.3125379E+04  0.7818609E-02  0.8208807E-01
        1   -1    0    0  501    0  0.00000000000E+00  0.00000000000E+00  0.15106702912E+04  0.15106702912E+04  0.50400001928E-02 0. -1.
       -1   -1    0    0    0  501  0.00000000000E+00  0.00000000000E+00 -0.16165004403E+04  0.16165004403E+04  0.50400001928E-02 0.  1.
    10030    2    1    2    0    0  0.00000000000E+00  0.00000000000E+00 -0.10583014909E+03  0.31271707315E+04  0.31253794591E+04 0.  0.
        3    1    3    3  502    0  0.95383204160E+03  0.17345124693E+03  0.11733967195E+04  0.15220843506E+04  0.10100000352E+00 0. -1.
       -3    1    3    3    0  502 -0.95383204160E+03 -0.17345124693E+03 -0.12792268686E+04  0.16050863809E+04  0.10100000352E+00 0.  1.
</event>
<event>
 5   0  0.5248309E-07  0.3097850E+04  0.7818609E-02  0.8216328E-01
        2   -1    0    0  501    0  0.00000000000E+00  0.00000000000E+00  0.28195112579E+04  0.28195112579E+04  0.25500000920E-02 0. -1.
       -2   -1    0    0    0  501  0.00000000000E+00  0.00000000000E+00 -0.85091668728E+03  0.85091668728E+03  0.25500000920E-02 0.  1.
    10030    2    1    2    0    0  0.00000000000E+00  0.00000000000E+00  0.19685945706E+04  0.36704279452E+04  0.30978503381E+04 0.  0.
        4    1    3    3  502    0 -0.12824613203E+03 -0.15405274201E+04  0.86884003051E+03  0.17732897152E+04  0.12699999809E+01 0. -1.
       -4    1    3    3    0  502  0.12824613203E+03  0.15405274201E+04  0.10997545401E+04  0.18971382300E+04  0.12699999809E+01 0.  1.
</event>
<event>
 5   0  0.5342534E-07  0.3100760E+04  0.7818609E-02  0.8215529E-01
       -2   -1    0    0    0  501  0.00000000000E+00  0.00000000000E+00  0.14812012605E+04  0.14812012605E+04  0.25500000920E-02 0. -1.
        2   -1    0    0  501    0  0.00000000000E+00  0.00000000000E+00 -0.16227895739E+04  0.16227895739E+04  0.25500000920E-02 0.  1.
    10030    2    1    2    0    0  0.00000000000E+00  0.00000000000E+00 -0.14158831334E+03  0.31039908344E+04  0.31007598826E+04 0.  0.
        3    1    3    3  502    0 -0.25255448475E+03  0.15293341439E+04 -0.10294086638E+03  0.15534617870E+04  0.10100000352E+00 0. -1.
       -3    1    3    3    0  502  0.25255448475E+03 -0.15293341439E+04 -0.38647446961E+02  0.15505290474E+04  0.10100000352E+00 0.  1.
</event>
<event>
 5   0  0.5376678E-07  0.3130295E+04  0.7818609E-02  0.8207472E-01
        2   -1    0    0  501    0  0.00000000000E+00  0.00000000000E+00  0.17757960279E+04  0.17757960279E+04  0.25500000920E-02 0.  1.
       -2   -1    0    0    0  501  0.00000000000E+00  0.00000000000E+00 -0.13794869188E+04  0.13794869188E+04  0.25500000920E-02 0. -1.
    10030    2    1    2    0    0  0.00000000000E+00  0.00000000000E+00  0.39630910906E+03  0.31552829467E+04  0.31302954435E+04 0.  0.
        5    1    3    3  502    0 -0.13595071727E+04  0.28731495497E+03  0.92422082597E+03  0.16688366790E+04  0.46999998093E+01 0.  1.
       -5    1    3    3    0  502  0.13595071727E+04 -0.28731495497E+03 -0.52791171691E+03  0.14864462677E+04  0.46999998093E+01 0. -1.
</event>
<event>
 5   0  0.1875284E-07  0.3091993E+04  0.7818609E-02  0.8217939E-01
        1   -1    0    0  501    0  0.00000000000E+00  0.00000000000E+00  0.19608749526E+04  0.19608749526E+04  0.50400001928E-02 0. -1.
       -1   -1    0    0    0  501  0.00000000000E+00  0.00000000000E+00 -0.12188969816E+04  0.12188969816E+04  0.50400001928E-02 0.  1.
    10030    2    1    2    0    0  0.00000000000E+00  0.00000000000E+00  0.74197797101E+03  0.31797719343E+04  0.30919926010E+04 0.  0.
        4    1    3    3  502    0 -0.13278323568E+04  0.41001425366E+03  0.10676059930E+04  0.17524367678E+04  0.12699999809E+01 0.  1.
       -4    1    3    3    0  502  0.13278323568E+04 -0.41001425366E+03 -0.32562802198E+03  0.14273351665E+04  0.12699999809E+01 0. -1.
</event>
<event>
 5   0  0.1830902E-07  0.3100035E+04  0.7818609E-02  0.8215728E-01
        1   -1    0    0  501    0  0.00000000000E+00  0.00000000000E+00  0.21054245787E+04  0.21054245788E+04  0.50400001928E-02 0. -1.
       -1   -1    0    0    0  501  0.00000000000E+00  0.00000000000E+00 -0.11411260837E+04  0.11411260837E+04  0.50400001928E-02 0.  1.
    10030    2    1    2    0    0  0.00000000000E+00  0.00000000000E+00  0.96429849503E+03  0.32465506625E+04  0.31000354218E+04 0.  0.
        3    1    3    3  502    0 -0.13969482562E+04  0.10804157595E+03  0.11763645674E+04  0.18294728799E+04  0.10100000352E+00 0. -1.
       -3    1    3    3    0  502  0.13969482562E+04 -0.10804157595E+03 -0.21206607232E+03  0.14170777826E+04  0.10100000352E+00 0.  1.
</event>
<event>
 5   0  0.1814075E-07  0.3108214E+04  0.7818609E-02  0.8213487E-01
        1   -1    0    0  501    0  0.00000000000E+00  0.00000000000E+00  0.18317450983E+04  0.18317450983E+04  0.50400001928E-02 0. -1.
       -1   -1    0    0    0  501  0.00000000000E+00  0.00000000000E+00 -0.13185508818E+04  0.13185508818E+04  0.50400001928E-02 0.  1.
    10030    2    1    2    0    0  0.00000000000E+00  0.00000000000E+00  0.51319421651E+03  0.31502959801E+04  0.31082143520E+04 0.  0.
        5    1    3    3  502    0  0.10751250273E+04 -0.11020744987E+04  0.42155186620E+02  0.15402146521E+04  0.46999998093E+01 0. -1.
       -5    1    3    3    0  502 -0.10751250273E+04  0.11020744987E+04  0.47103902989E+03  0.16100813279E+04  0.46999998093E+01 0.  1.
</event>
<event>
 5   0  0.5055900E-07  0.3052876E+04  0.7818609E-02  0.8228791E-01
        2   -1    0    0  501    0  0.00000000000E+00  0.00000000000E+00  0.22113041299E+04  0.22113041299E+04  0.25500000920E-02 0.  1.
       -2   -1    0    0    0  501  0.00000000000E+00  0.00000000000E+00 -0.10536825817E+04  0.10536825817E+04  0.25500000920E-02 0. -1.
    10030    2    1    2    0    0  0.00000000000E+00  0.00000000000E+00  0.11576215482E+04  0.32649867116E+04  0.30528757881E+04 0.  0.
        2    1    3    3  502    0 -0.73937015330E+03  0.13340756297E+04  0.64286029537E+03  0.16552025159E+04  0.25500000920E-02 0.  1.
       -2    1    3    3    0  502  0.73937015330E+03 -0.13340756297E+04  0.51476125283E+03  0.16097841957E+04  0.25500000920E-02 0. -1.
</event>
<event>
 5   0  0.5248309E-07  0.3098723E+04  0.7818609E-02  0.8216088E-01
       -2   -1    0    0    0  501  0.00000000000E+00  0.00000000000E+00  0.19097448013E+04  0.19097448013E+04  0.25500000920E-02 0.  1.
        2   -1    0    0  501    0  0.00000000000E+00  0.00000000000E+00 -0.12569851568E+04  0.12569851568E+04  0.25500000920E-02 0. -1.
    10030    2    1    2    0    0  0.00000000000E+00  0.00000000000E+00  0.65275964455E+03  0.31667299581E+04  0.30987228779E+04 0.  0.
        4    1    3    3  502    0 -0.98301354674E+03  0.32899134575E+03 -0.85039905831E+03  0.13407949545E+04  0.12699999809E+01 0. -1.
       -4    1    3    3    0  502  0.98301354674E+03 -0.32899134575E+03  0.15031587029E+04  0.18259350036E+04  0.12699999809E+01 0.  1.
</event>
<event>
 5   0  0.5376678E-07  0.3106306E+04  0.7818609E-02  0.8214009E-01
        2   -1    0    0  501    0  0.00000000000E+00  0.00000000000E+00  0.98439956470E+03  0.98439956470E+03  0.25500000920E-02 0. -1.
       -2   -1    0    0    0  501  0.00000000000E+00  0.00000000000E+00 -0.24505130462E+04  0.24505130462E+04  0.25500000920E-02 0.  1.
    10030    2    1    2    0    0  0.00000000000E+00  0.00000000000E+00 -0.14661134815E+04  0.34349126109E+04  0.31063058291E+04 0.  0.
        5    1    3    3  502    0 -0.66679163299E+03 -0.59137528518E+03 -0.21395926300E+04  0.23178038144E+04  0.46999998093E+01 0.  1.
       -5    1    3    3    0  502  0.66679163299E+03  0.59137528518E+03  0.67347914849E+03  0.11171087965E+04  0.46999998093E+01 0. -1.
</event>
<event>
 5   0  0.5248309E-07  0.3096878E+04  0.7818609E-02  0.8216595E-01
       -2   -1    0    0    0  501  0.00000000000E+00  0.00000000000E+00  0.12782713035E+04  0.12782713035E+04  0.25500000920E-02 0.  1.
        2   -1    0    0  501    0  0.00000000000E+00  0.00000000000E+00 -0.18757077931E+04  0.18757077931E+04  0.25500000920E-02 0. -1.
    10030    2    1    2    0    0  0.00000000000E+00  0.00000000000E+00 -0.59743648958E+03  0.31539790966E+04  0.30968780704E+04 0.  0.
        4    1    3    3  502    0  0.11935979468E+04  0.13852297624E+03 -0.12933509059E+04  0.17653959477E+04  0.12699999809E+01 0. -1.
       -4    1    3    3    0  502 -0.11935979468E+04 -0.13852297624E+03  0.69591441636E+03  0.13885831489E+04  0.12699999809E+01 0.  1.
</event>
<event>
 5   0  0.5055900E-07  0.3096240E+04  0.7818609E-02  0.8216770E-01
        2   -1    0    0  501    0  0.00000000000E+00  0.00000000000E+00  0.25744108398E+04  0.25744108398E+04  0.25500000920E-02 0. -1.
       -2   -1    0    0    0  501  0.00000000000E+00  0.00000000000E+00 -0.93096103203E+03  0.93096103204E+03  0.25500000920E-02 0.  1.
    10030    2    1    2    0    0  0.00000000000E+00  0.00000000000E+00  0.16434498078E+04  0.35053718718E+04  0.30962404121E+04 0.  0.
        2    1    3    3  502    0  0.12195489608E+04  0.82465489440E+03  0.13638770183E+04  0.20068671814E+04  0.25500000920E-02 0. -1.
       -2    1    3    3    0  502 -0.12195489608E+04 -0.82465489440E+03  0.27957278947E+03  0.14985046905E+04  0.25500000920E-02 0.  1.
</event>
<event>
 5   0  0.5376678E-07  0.3100477E+04  0.7818609E-02  0.8215607E-01
       -2   -1    0    0    0  501  0.00000000000E+00  0.00000000000E+00  0.12565051039E+04  0.12565051039E+04  0.25500000920E-02 0. -1.
        2   -1    0    0  501    0  0.00000000000E+00  0.00000000000E+00 -0.19126380873E+04  0.19126380873E+04  0.25500000920E-02 0.  1.
    10030    2    1    2    0    0  0.00000000000E+00  0.00000000000E+00 -0.65613298335E+03  0.31691431912E+04  0.31004770721E+04 0.  0.
        5    1    3    3  502    0  0.46284806776E+03 -0.13472349725E+04  0.29698871710E+03  0.14551614320E+04  0.46999998093E+01 0. -1.
       -5    1    3    3    0  502 -0.46284806776E+03  0.13472349725E+04 -0.95312170045E+03  0.17139817592E+04  0.46999998093E+01 0.  1.
</event>
<event>
 5   0  0.5376678E-07  0.3100675E+04  0.7818609E-02  0.8215553E-01
       -2   -1    0    0    0  501  0.00000000000E+00  0.00000000000E+00  0.11823702423E+04  0.11823702423E+04  0.25500000920E-02 0.  1.
        2   -1    0    0  501    0  0.00000000000E+00  0.00000000000E+00 -0.20328199160E+04  0.20328199160E+04  0.25500000920E-02 0. -1.
    10030    2    1    2    0    0  0.00000000000E+00  0.00000000000E+00 -0.85044967368E+03  0.32151901584E+04  0.31006746213E+04 0.  0.
        5    1    3    3  502    0  0.24194173973E+03 -0.55113364934E+03 -0.19067105231E+04  0.19994627313E+04  0.46999998093E+01 0. -1.
       -5    1    3    3    0  502 -0.24194173973E+03  0.55113364934E+03  0.10562608494E+04  0.12157274271E+04  0.46999998093E+01 0.  1.
</event>
<event>
 5   0  0.1845123E-07  0.3099718E+04  0.7818609E-02  0.8215815E-01
        1   -1    0    0  501    0  0.00000000000E+00  0.00000000000E+00  0.16485768265E+04  0.16485768265E+04  0.50400001928E-02 0. -1.
       -1   -1    0    0    0  501  0.00000000000E+00  0.00000000000E+00 -0.14570522416E+04  0.14570522417E+04  0.50400001928E-02 0.  1.
    10030    2    1    2    0    0  0.00000000000E+00  0.00000000000E+00  0.19152458486E+03  0.31056290682E+04  0.30997177682E+04 0.  0.
        2    1    3    3  502    0  0.96211908716E+03 -0.47112134644E+03  0.12179134343E+04  0.16220177541E+04  0.25500000920E-02 0. -1.
       -2    1    3    3    0  502 -0.96211908716E+03  0.47112134644E+03 -0.10263888495E+04  0.14836113141E+04  0.25500000920E-02 0.  1.
</event>
<event>
 5   0  0.1845123E-07  0.3101442E+04  0.7818609E-02  0.8215342E-01
        1   -1    0    0  501    0  0.00000000000E+00  0.00000000000E+00  0.20472146073E+04  0.20472146073E+04  0.50400001928E-02 0. -1.
       -1   -1    0    0    0  501  0.00000000000E+00  0.00000000000E+00 -0.11746378211E+04  0.11746378211E+04  0.50400001928E-02 0.  1.
    10030    2    1    2    0    0  0.00000000000E+00  0.00000000000E+00  0.87257678618E+03  0.32218524284E+04  0.31014420553E+04 0.  0.
        2    1    3    3  502    0  0.14791795962E+04  0.11050881163E+03 -0.33544069632E+02  0.14836811248E+04  0.25500000920E-02 0. -1.
       -2    1    3    3    0  502 -0.14791795962E+04 -0.11050881163E+03  0.90612085581E+03  0.17381713036E+04  0.25500000920E-02 0.  1.
</event>
<event>
 5   0  0.1727000E-07  0.3100971E+04  0.7818609E-02  0.8215471E-01
        4   -1    0    0  501    0  0.00000000000E+00  0.00000000000E+00  0.11954362820E+04  0.11954369566E+04  0.12699999809E+01 0.  1.
       -4   -1    0    0    0  501  0.00000000000E+00  0.00000000000E+00 -0.20109842445E+04  0.20109846455E+04  0.12699999809E+01 0. -1.
    10030    2    1    2    0    0  0.00000000000E+00  0.00000000000E+00 -0.81554796243E+03  0.32064216021E+04  0.31009709788E+04 0.  0.
        5    1    3    3  502    0 -0.29281827934E+02 -0.14650039174E+04  0.11630398065E+03  0.14699124495E+04  0.46999998093E+01 0.  1.
       -5    1    3    3    0  502  0.29281827934E+02  0.14650039174E+04 -0.93185194308E+03  0.17365091526E+04  0.46999998093E+01 0. -1.
</event>
<event>
 5   0  0.1814075E-07  0.3077336E+04  0.7818609E-02  0.8221985E-01
       -1   -1    0    0    0  501  0.00000000000E+00  0.00000000000E+00  0.95167035788E+03  0.95167035790E+03  0.50400001928E-02 0.  1.
        1   -1    0    0  501    0  0.00000000000E+00  0.00000000000E+00 -0.24877308313E+04  0.24877308313E+04  0.50400001928E-02 0. -1.
    10030    2    1    2    0    0  0.00000000000E+00  0.00000000000E+00 -0.15360604735E+04  0.34394011892E+04  0.30773363096E+04 0.  0.
        5    1    3    3  502    0 -0.79460851212E+02  0.70762251586E+03 -0.22924866226E+04  0.24005334109E+04  0.46999998093E+01 0. -1.
       -5    1    3    3    0  502  0.79460851212E+02 -0.70762251586E+03  0.75642614916E+03  0.10388677784E+04  0.46999998093E+01 0.  1.
</event>
<event>
 5   0  0.5342534E-07  0.3094544E+04  0.7818609E-02  0.8217237E-01
       -2   -1    0    0    0  501  0.00000000000E+00  0.00000000000E+00  0.10295095052E+04  0.10295095052E+04  0.25500000920E-02 0. -1.
        2   -1    0    0  501    0  0.00000000000E+00  0.00000000000E+00 -0.23254282436E+04  0.23254282436E+04  0.25500000920E-02 0.  1.
    10030    2    1    2    0    0  0.00000000000E+00  0.00000000000E+00 -0.12959187384E+04  0.33549377488E+04  0.30945438956E+04 0.  0.
        3    1    3    3  502    0  0.40905791236E+03 -0.25765707704E+03 -0.22414457724E+04  0.22929881609E+04  0.10100000352E+00 0.  1.
       -3    1    3    3    0  502 -0.40905791236E+03  0.25765707704E+03  0.94552703402E+03  0.10619495879E+04  0.10100000352E+00 0. -1.
</event>
<event>
 5   0  0.1840359E-07  0.3075653E+04  0.7818609E-02  0.8222452E-01
        1   -1    0    0  501    0  0.00000000000E+00  0.00000000000E+00  0.20108018770E+04  0.20108018770E+04  0.50400001928E-02 0. -1.
       -1   -1    0    0    0  501  0.00000000000E+00  0.00000000000E+00 -0.11761034564E+04  0.11761034564E+04  0.50400001928E-02 0.  1.
    10030    2    1    2    0    0  0.00000000000E+00  0.00000000000E+00  0.83469842058E+03  0.31869053334E+04  0.30756534511E+04 0.  0.
        1    1    3    3  502    0  0.13618801520E+04  0.16125584627E+03 -0.30365813586E+03  0.14046100027E+04  0.50400001928E-02 0.  1.
       -1    1    3    3    0  502 -0.13618801520E+04 -0.16125584627E+03  0.11383565564E+04  0.17822953307E+04  0.50400001928E-02 0. -1.
</event>
<event>
 5   0  0.1845123E-07  0.3100716E+04  0.7818609E-02  0.8215542E-01
       -1   -1    0    0    0  501  0.00000000000E+00  0.00000000000E+00  0.14690536051E+04  0.14690536051E+04  0.50400001928E-02 0.  1.
        1   -1    0    0  501    0  0.00000000000E+00  0.00000000000E+00 -0.16361618831E+04  0.16361618831E+04  0.50400001928E-02 0. -1.
    10030    2    1    2    0    0  0.00000000000E+00  0.00000000000E+00 -0.16710827804E+03  0.31052154882E+04  0.31007157322E+04 0.  0.
        2    1    3    3  502    0  0.22909537484E+03  0.37773834852E+03  0.14046840749E+04  0.14725176743E+04  0.25500000920E-02 0.  1.
       -2    1    3    3    0  502 -0.22909537484E+03 -0.37773834852E+03 -0.15717923530E+04  0.16326978139E+04  0.25500000920E-02 0. -1.
</event>
<event>
 5   0  0.1814075E-07  0.3101037E+04  0.7818609E-02  0.8215453E-01
       -1   -1    0    0    0  501  0.00000000000E+00  0.00000000000E+00  0.13939595672E+04  0.13939595673E+04  0.50400001928E-02 0.  1.
        1   -1    0    0  501    0  0.00000000000E+00  0.00000000000E+00 -0.17246611289E+04  0.17246611289E+04  0.50400001928E-02 0. -1.
    10030    2    1    2    0    0  0.00000000000E+00  0.00000000000E+00 -0.33070156165E+03  0.31186206962E+04  0.31010371690E+04 0.  0.
        5    1    3    3  502    0  0.10951484258E+04  0.58804963659E+03  0.76669085945E+03  0.14604757491E+04  0.46999998093E+01 0.  1.
       -5    1    3    3    0  502 -0.10951484258E+04 -0.58804963659E+03 -0.10973924211E+04  0.16581449471E+04  0.46999998093E+01 0. -1.
</event>
<event>
 5   0  0.5055900E-07  0.3093245E+04  0.7818609E-02  0.8217594E-01
        2   -1    0    0  501    0  0.00000000000E+00  0.00000000000E+00  0.16044286720E+04  0.16044286720E+04  0.25500000920E-02 0. -1.
       -2   -1    0    0    0  501  0.00000000000E+00  0.00000000000E+00 -0.14908986921E+04  0.14908986921E+04  0.25500000920E-02 0.  1.
    10030    2    1    2    0    0  0.00000000000E+00  0.00000000000E+00  0.11352997991E+03  0.30953273641E+04  0.30932446451E+04 0.  0.
        2    1    3    3  502    0  0.35527638425E+03  0.15037643667E+04  0.12398185418E+03  0.15501290527E+04  0.25500000920E-02 0. -1.
       -2    1    3    3    0  502 -0.35527638425E+03 -0.15037643667E+04 -0.10451874261E+02  0.15451983114E+04  0.25500000920E-02 0.  1.
</event>
<event>
 5   0  0.5248309E-07  0.3120515E+04  0.7818609E-02  0.8210130E-01
        2   -1    0    0  501    0  0.00000000000E+00  0.00000000000E+00  0.18048621357E+04  0.18048621357E+04  0.25500000920E-02 0. -1.
       -2   -1    0    0    0  501  0.00000000000E+00  0.00000000000E+00 -0.13488034061E+04  0.13488034061E+04  0.25500000920E-02 0.  1.
    10030    2    1    2    0    0  0.00000000000E+00  0.00000000000E+00  0.45605872962E+03  0.31536655418E+04  0.31205154677E+04 0.  0.
        4    1    3    3  502    0 -0.10591881317E+03  0.52154420055E+03  0.17102989869E+04  0.17911871442E+04  0.12699999809E+01 0. -1.
       -4    1    3    3    0  502  0.10591881317E+03 -0.52154420055E+03 -0.12542402572E+04  0.13624783976E+04  0.12699999809E+01 0.  1.
</event>
<event>
 5   0  0.1830902E-07  0.3094895E+04  0.7818609E-02  0.8217140E-01
        1   -1    0    0  501    0  0.00000000000E+00  0.00000000000E+00  0.22077139236E+04  0.22077139236E+04  0.50400001928E-02 0. -1.
       -1   -1    0    0    0  501  0.00000000000E+00  0.00000000000E+00 -0.10846489062E+04  0.10846489062E+04  0.50400001928E-02 0.  1.
    10030    2    1    2    0    0  0.00000000000E+00  0.00000000000E+00  0.11230650174E+04  0.32923628298E+04  0.30948954699E+04 0.  0.
        3    1    3    3  502    0 -0.95502475851E+03  0.10369404962E+04 -0.11736846878E+03  0.14146000317E+04  0.10100000352E+00 0.  1.
       -3    1    3    3    0  502  0.95502475851E+03 -0.10369404962E+04  0.12404334862E+04  0.18777627981E+04  0.10100000352E+00 0. -1.
</event>
<event>
 5   0  0.5055900E-07  0.3039638E+04  0.7818609E-02  0.8232502E-01
       -2   -1    0    0    0  501  0.00000000000E+00  0.00000000000E+00  0.13383229250E+04  0.13383229250E+04  0.25500000920E-02 0. -1.
        2   -1    0    0  501    0  0.00000000000E+00  0.00000000000E+00 -0.17259291385E+04  0.17259291385E+04  0.25500000920E-02 0.  1.
    10030    2    1    2    0    0  0.00000000000E+00  0.00000000000E+00 -0.38760621343E+03  0.30642520635E+04  0.30396384871E+04 0.  0.
        2    1    3    3  502    0 -0.41292978762E+03  0.29489741563E+02  0.12803891345E+04  0.13456511398E+04  0.25500000920E-02 0. -1.
       -2    1    3    3    0  502  0.41292978762E+03 -0.29489741563E+02 -0.16679953479E+04  0.17186009237E+04  0.25500000920E-02 0.  1.
</event>
<event>
 5   0  0.1814075E-07  0.3116781E+04  0.7818609E-02  0.8211148E-01
       -1   -1    0    0    0  501  0.00000000000E+00  0.00000000000E+00  0.10474616174E+04  0.10474616174E+04  0.50400001928E-02 0.  1.
        1   -1    0    0  501    0  0.00000000000E+00  0.00000000000E+00 -0.23185393088E+04  0.23185393088E+04  0.50400001928E-02 0. -1.
    10030    2    1    2    0    0  0.00000000000E+00  0.00000000000E+00 -0.12710776914E+04  0.33660009262E+04  0.31167809896E+04 0.  0.
        5    1    3    3  502    0 -0.13056340123E+04 -0.70461301451E+03 -0.12054459298E+03  0.14885270449E+04  0.46999998093E+01 0. -1.
       -5    1    3    3    0  502  0.13056340123E+04  0.70461301451E+03 -0.11505330985E+04  0.18774738813E+04  0.46999998093E+01 0.  1.
</event>
<event>
 5   0  0.1727000E-07  0.3103407E+04  0.7818609E-02  0.8214804E-01
        3   -1    0    0  501    0  0.00000000000E+00  0.00000000000E+00  0.78752293297E+03  0.78752293945E+03  0.10100000352E+00 0. -1.
       -3   -1    0    0    0  501  0.00000000000E+00  0.00000000000E+00 -0.30574134148E+04  0.30574134165E+04  0.10100000352E+00 0.  1.
    10030    2    1    2    0    0  0.00000000000E+00  0.00000000000E+00 -0.22698904819E+04  0.38449363559E+04  0.31034066414E+04 0.  0.
        5    1    3    3  502    0 -0.71760057951E+03 -0.10746902429E+04 -0.70716651169E+02  0.12941918886E+04  0.46999998093E+01 0. -1.
       -5    1    3    3    0  502  0.71760057951E+03  0.10746902429E+04 -0.21991738307E+04  0.25507444673E+04  0.46999998093E+01 0.  1.
</event>
<event>
 5   0  0.1875284E-07  0.3107214E+04  0.7818609E-02  0.8213761E-01
       -1   -1    0    0    0  501  0.00000000000E+00  0.00000000000E+00  0.14342109531E+04  0.14342109531E+04  0.50400001928E-02 0. -1.
        1   -1    0    0  501    0  0.00000000000E+00  0.00000000000E+00 -0.16829421045E+04  0.16829421045E+04  0.50400001928E-02 0.  1.
    10030    2    1    2    0    0  0.00000000000E+00  0.00000000000E+00 -0.24873115136E+03  0.31171530576E+04  0.31072135425E+04 0.  0.
        4    1    3    3  502    0 -0.26287647139E+03 -0.13833967702E+04 -0.78282003389E+03  0.16111174636E+04  0.12699999809E+01 0.  1.
       -4    1    3    3    0  502  0.26287647139E+03  0.13833967702E+04  0.53408888253E+03  0.15060355940E+04  0.12699999809E+01 0. -1.
</event>
<event>
 5   0  0.1845123E-07  0.3133323E+04  0.7818609E-02  0.8206652E-01
        1   -1    0    0  501    0  0.00000000000E+00  0.00000000000E+00  0.11363870832E+04  0.11363870832E+04  0.50400001928E-02 0.  1.
       -1   -1    0    0    0  501  0.00000000000E+00  0.00000000000E+00 -0.21598519159E+04  0.21598519159E+04  0.50400001928E-02 0. -1.
    10030    2    1    2    0    0  0.00000000000E+00  0.00000000000E+00 -0.10234648327E+04  0.32962389991E+04  0.31333227213E+04 0.  0.
        2    1    3    3  502    0 -0.75544665241E+03 -0.54176893776E+03 -0.18383368138E+04  0.20600231716E+04  0.25500000920E-02 0. -1.
       -2    1    3    3    0  502  0.75544665241E+03  0.54176893776E+03  0.81487198116E+03  0.12362158275E+04  0.25500000920E-02 0.  1.
</event>
<event>
 5   0  0.1814075E-07  0.3105851E+04  0.7818609E-02  0.8214134E-01
       -1   -1    0    0    0  501  0.00000000000E+00  0.00000000000E+00  0.10231547101E+04  0.10231547102E+04  0.50400001928E-02 0.  1.
        1   -1    0    0  501    0  0.00000000000E+00  0.00000000000E+00 -0.23570017862E+04  0.23570017862E+04  0.50400001928E-02 0. -1.
    10030    2    1    2    0    0  0.00000000000E+00  0.00000000000E+00 -0.13338470761E+04  0.33801564964E+04  0.31058509169E+04 0.  0.
        5    1    3    3  502    0 -0.23947514077E+03 -0.11042855712E+04 -0.18262567911E+04  0.21475639509E+04  0.46999998093E+01 0. -1.
       -5    1    3    3    0  502  0.23947514077E+03  0.11042855712E+04  0.49240971502E+03  0.12325925456E+04  0.46999998093E+01 0.  1.
</event>
<event>
 5   0  0.1840359E-07  0.3104298E+04  0.7818609E-02  0.8214559E-01
       -1   -1    0    0    0  501  0.00000000000E+00  0.00000000000E+00  0.14273145470E+04  0.14273145470E+04  0.50400001928E-02 0. -1.
        1   -1    0    0  501    0  0.00000000000E+00  0.00000000000E+00 -0.16879020331E+04  0.16879020331E+04  0.50400001928E-02 0.  1.
    10030    2    1    2    0    0  0.00000000000E+00  0.00000000000E+00 -0.26058748612E+03  0.31152165802E+04  0.31042983915E+04 0.  0.
        1    1    3    3  502    0  0.10981285875E+03 -0.31687387615E+03  0.13905228634E+04  0.14303921669E+04  0.50400001928E-02 0. -1.
       -1    1    3    3    0  502 -0.10981285875E+03  0.31687387615E+03 -0.16511103495E+04  0.16848244133E+04  0.50400001928E-02 0.  1.
</event>
<event>
 5   0  0.5342534E-07  0.3099936E+04  0.7818609E-02  0.8215755E-01
        2   -1    0    0  501    0  0.00000000000E+00  0.00000000000E+00  0.13573823160E+04  0.13573823160E+04  0.25500000920E-02 0. -1.
       -2   -1    0    0    0  501  0.00000000000E+00  0.00000000000E+00 -0.17698781872E+04  0.17698781872E+04  0.25500000920E-02 0.  1.
    10030    2    1    2    0    0  0.00000000000E+00  0.00000000000E+00 -0.41249587119E+03  0.31272605032E+04  0.30999363560E+04 0.  0.
        3    1    3    3  502    0  0.11772149377E+03  0.15357273928E+04 -0.38122524152E+03  0.15867103296E+04  0.10100000352E+00 0.  1.
       -3    1    3    3    0  502 -0.11772149377E+03 -0.15357273928E+04 -0.31270629672E+02  0.15405501736E+04  0.10100000352E+00 0. -1.
</event>
<event>
 5   0  0.5342534E-07  0.3118531E+04  0.7818609E-02  0.8210671E-01
        2   -1    0    0  501    0  0.00000000000E+00  0.00000000000E+00  0.11735072489E+04  0.11735072489E+04  0.25500000920E-02 0.  1.
       -2   -1    0    0    0  501  0.00000000000E+00  0.00000000000E+00 -0.20718312604E+04  0.20718312604E+04  0.25500000920E-02 0. -1.
    10030    2    1    2    0    0  0.00000000000E+00  0.00000000000E+00 -0.89832401142E+03  0.32453385093E+04  0.31185310661E+04 0.  0.
        3    1    3    3  502    0  0.18097513085E+03  0.11426669503E+04  0.63875064926E+03  0.13215302340E+04  0.10100000352E+00 0.  1.
       -3    1    3    3    0  502 -0.18097513085E+03 -0.11426669503E+04 -0.15370746607E+04  0.19238082753E+04  0.10100000352E+00 0. -1.
</event>
<event>
 5   0  0.1814075E-07  0.3099182E+04  0.7818609E-02  0.8215962E-01
        1   -1    0    0  501    0  0.00000000000E+00  0.00000000000E+00  0.21305566105E+04  0.21305566105E+04  0.50400001928E-02 0.  1.
       -1   -1    0    0    0  501  0.00000000000E+00  0.00000000000E+00 -0.11270448670E+04  0.11270448670E+04  0.50400001928E-02 0. -1.
    10030    2    1    2    0    0  0.00000000000E+00  0.00000000000E+00  0.10035117435E+04  0.32576014775E+04  0.30991824030E+04 0.  0.
        5    1    3    3  502    0  0.20045890036E+03 -0.13183787897E+04  0.13313420629E+04  0.18843567025E+04  0.46999998093E+01 0.  1.
       -5    1    3    3    0  502 -0.20045890036E+03  0.13183787897E+04 -0.32783031937E+03  0.13732447750E+04  0.46999998093E+01 0. -1.
</event>
<event>
 5   0  0.1830902E-07  0.3092381E+04  0.7818609E-02  0.8217832E-01
        1   -1    0    0  501    0  0.00000000000E+00  0.00000000000E+00  0.15557701169E+04  0.15557701169E+04  0.50400001928E-02 0.  1.
       -1   -1    0    0    0  501  0.00000000000E+00  0.00000000000E+00 -0.15366696541E+04  0.15366696541E+04  0.50400001928E-02 0. -1.
    10030    2    1    2    0    0  0.00000000000E+00  0.00000000000E+00  0.19100462835E+02  0.30924397710E+04  0.30923807834E+04 0.  0.
        3    1    3    3  502    0 -0.12328796102E+04  0.63365417059E+03 -0.67544091901E+03  0.15419890358E+04  0.10100000352E+00 0. -1.
       -3    1    3    3    0  502  0.12328796102E+04 -0.63365417059E+03  0.69454138185E+03  0.15504507352E+04  0.10100000352E+00 0.  1.
</event>
<event>
 5   0  0.1830902E-07  0.3125937E+04  0.7818609E-02  0.8208656E-01
       -1   -1    0    0    0  501  0.00000000000E+00  0.00000000000E+00  0.15618189611E+04  0.15618189611E+04  0.50400001928E-02 0. -1.
        1   -1    0    0  501    0  0.00000000000E+00  0.00000000000E+00 -0.15641190539E+04  0.15641190539E+04  0.50400001928E-02 0.  1.
    10030    2    1    2    0    0  0.00000000000E+00  0.00000000000E+00 -0.23000927550E+01  0.31259380150E+04  0.31259371688E+04 0.  0.
        3    1    3    3  502    0  0.14548048557E+04  0.54992003311E+03  0.15377441119E+03  0.15628550127E+04  0.10100000352E+00 0. -1.
       -3    1    3    3    0  502 -0.14548048557E+04 -0.54992003311E+03 -0.15607450395E+03  0.15630830023E+04  0.10100000352E+00 0.  1.
</event>
<event>
 5   0  0.5055900E-07  0.3092885E+04  0.7818609E-02  0.8217693E-01
       -2   -1    0    0    0  501  0.00000000000E+00  0.00000000000E+00  0.16658390909E+04  0.16658390909E+04  0.25500000920E-02 0. -1.
        2   -1    0    0  501    0  0.00000000000E+00  0.00000000000E+00 -0.14356030629E+04  0.14356030629E+04  0.25500000920E-02 0.  1.
    10030    2    1    2    0    0  0.00000000000E+00  0.00000000000E+00  0.23023602802E+03  0.31014421538E+04  0.30928845444E+04 0.  0.
        2    1    3    3  502    0  0.29614973017E+03 -0.47923160546E+03 -0.13290459672E+04  0.14435133450E+04  0.25500000920E-02 0.  1.
       -2    1    3    3    0  502 -0.29614973017E+03  0.47923160546E+03  0.15592819952E+04  0.16579288088E+04  0.25500000920E-02 0. -1.
</event>
<event>
 5   0  0.5055900E-07  0.3094281E+04  0.7818609E-02  0.8217309E-01
        2   -1    0    0  501    0  0.00000000000E+00  0.00000000000E+00  0.15150831045E+04  0.15150831045E+04  0.25500000920E-02 0.  1.
       -2   -1    0    0    0  501  0.00000000000E+00  0.00000000000E+00 -0.15798757142E+04  0.15798757142E+04  0.25500000920E-02 0. -1.
    10030    2    1    2    0    0  0.00000000000E+00  0.00000000000E+00 -0.64792609679E+02  0.30949588188E+04  0.30942805315E+04 0.  0.
        2    1    3    3  502    0  0.76246432587E+03  0.13054790232E+04 -0.36112572909E+03  0.15543613224E+04  0.25500000920E-02 0. -1.
       -2    1    3    3    0  502 -0.76246432587E+03 -0.13054790232E+04  0.29633311941E+03  0.15405974964E+04  0.25500000920E-02 0.  1.
</event>
<event>
 5   0  0.1875284E-07  0.3099072E+04  0.7818609E-02  0.8215993E-01
       -1   -1    0    0    0  501  0.00000000000E+00  0.00000000000E+00  0.15380476021E+04  0.15380476021E+04  0.50400001928E-02 0. -1.
        1   -1    0    0  501    0  0.00000000000E+00  0.00000000000E+00 -0.15611099798E+04  0.15611099798E+04  0.50400001928E-02 0.  1.
    10030    2    1    2    0    0  0.00000000000E+00  0.00000000000E+00 -0.23062377713E+02  0.30991575819E+04  0.30990717714E+04 0.  0.
        4    1    3    3  502    0  0.11354972222E+04 -0.73072314026E+03 -0.77165064923E+03  0.15552352191E+04  0.12699999809E+01 0.  1.
       -4    1    3    3    0  502 -0.11354972222E+04  0.73072314026E+03  0.74858827152E+03  0.15439223628E+04  0.12699999809E+01 0. -1.
</event>
<event>
 5   0  0.5154105E-07  0.3113433E+04  0.7818609E-02  0.8212061E-01
        2   -1    0    0  501    0  0.00000000000E+00  0.00000000000E+00  0.15215785669E+04  0.15215785669E+04  0.25500000920E-02 0. -1.
       -2   -1    0    0    0  501  0.00000000000E+00  0.00000000000E+00 -0.15926663470E+04  0.15926663470E+04  0.25500000920E-02 0.  1.
    10030    2    1    2    0    0  0.00000000000E+00  0.00000000000E+00 -0.71087780109E+02  0.31142449140E+04  0.31134334603E+04 0.  0.
        1    1    3    3  502    0  0.89129106097E+02 -0.12069428172E+04 -0.10149374878E+04  0.15794787323E+04  0.50400001928E-02 0.  1.
       -1    1    3    3    0  502 -0.89129106097E+02  0.12069428172E+04  0.94384970774E+03  0.15347661817E+04  0.50400001928E-02 0. -1.
</event>
<event>
 5   0  0.1727000E-07  0.3107913E+04  0.7818609E-02  0.8213569E-01
        3   -1    0    0  501    0  0.00000000000E+00  0.00000000000E+00  0.16741672795E+04  0.16741672825E+04  0.10100000352E+00 0. -1.
       -3   -1    0    0    0  501  0.00000000000E+00  0.00000000000E+00 -0.14423776888E+04  0.14423776923E+04  0.10100000352E+00 0.  1.
    10030    2    1    2    0    0  0.00000000000E+00  0.00000000000E+00  0.23178959070E+03  0.31165449749E+04  0.31079134747E+04 0.  0.
        3    1    3    3  502    0  0.42518575764E+03  0.84762399783E+03  0.13503833212E+04  0.16500862082E+04  0.10100000352E+00 0. -1.
       -3    1    3    3    0  502 -0.42518575764E+03 -0.84762399783E+03 -0.11185937305E+04  0.14664587666E+04  0.10100000352E+00 0.  1.
</event>
<event>
 5   0  0.5376678E-07  0.3101447E+04  0.7818609E-02  0.8215341E-01
        2   -1    0    0  501    0  0.00000000000E+00  0.00000000000E+00  0.18571174622E+04  0.18571174622E+04  0.25500000920E-02 0.  1.
       -2   -1    0    0    0  501  0.00000000000E+00  0.00000000000E+00 -0.12948792463E+04  0.12948792463E+04  0.25500000920E-02 0. -1.
    10030    2    1    2    0    0  0.00000000000E+00  0.00000000000E+00  0.56223821593E+03  0.31519967085E+04  0.31014466687E+04 0.  0.
        5    1    3    3  502    0 -0.34208577815E+03  0.29885583662E+03 -0.12257417220E+04  0.13072116698E+04  0.46999998093E+01 0. -1.
       -5    1    3    3    0  502  0.34208577815E+03 -0.29885583662E+03  0.17879799379E+04  0.18447850387E+04  0.46999998093E+01 0.  1.
</event>
<event>
 5   0  0.5376678E-07  0.3098043E+04  0.7818609E-02  0.8216275E-01
        2   -1    0    0  501    0  0.00000000000E+00  0.00000000000E+00  0.14633823941E+04  0.14633823941E+04  0.25500000920E-02 0.  1.
       -2   -1    0    0    0  501  0.00000000000E+00  0.00000000000E+00 -0.16396726525E+04  0.16396726525E+04  0.25500000920E-02 0. -1.
    10030    2    1    2    0    0  0.00000000000E+00  0.00000000000E+00 -0.17629025839E+03  0.31030550466E+04  0.30980433127E+04 0.  0.
        5    1    3    3  502    0 -0.11571158959E+03 -0.26702889792E+03 -0.16120373986E+04  0.16381026430E+04  0.46999998093E+01 0. -1.
       -5    1    3    3    0  502  0.11571158959E+03  0.26702889792E+03  0.14357471402E+04  0.14649524037E+04  0.46999998093E+01 0.  1.
</event>
<event>
 5   0  0.5055900E-07  0.3112297E+04  0.7818609E-02  0.8212371E-01
        2   -1    0    0  501    0  0.00000000000E+00  0.00000000000E+00  0.18115308962E+04  0.18115308962E+04  0.25500000920E-02 0.  1.
       -2   -1    0    0    0  501  0.00000000000E+00  0.00000000000E+00 -0.13367691333E+04  0.13367691333E+04  0.25500000920E-02 0. -1.
    10030    2    1    2    0    0  0.00000000000E+00  0.00000000000E+00  0.47476176295E+03  0.31483000295E+04  0.31122972776E+04 0.  0.
        2    1    3    3  502    0  0.20026526254E+03  0.32676838355E+03  0.17630435531E+04  0.18042190338E+04  0.25500000920E-02 0.  1.
       -2    1    3    3    0  502 -0.20026526254E+03 -0.32676838355E+03 -0.12882817902E+04  0.13440809956E+04  0.25500000920E-02 0. -1.
</event>
<event>
 5   0  0.1814075E-07  0.3097124E+04  0.7818609E-02  0.8216528E-01
       -1   -1    0    0    0  501  0.00000000000E+00  0.00000000000E+00  0.18214637974E+04  0.18214637974E+04  0.50400001928E-02 0.  1.
        1   -1    0    0  501    0  0.00000000000E+00  0.00000000000E+00 -0.13165482849E+04  0.13165482849E+04  0.50400001928E-02 0. -1.
    10030    2    1    2    0    0  0.00000000000E+00  0.00000000000E+00  0.50491551249E+03  0.31380120823E+04  0.30971244977E+04 0.  0.
        5    1    3    3  502    0  0.10807240909E+03  0.13388851080E+03  0.18117411310E+04  0.18198993914E+04  0.46999998093E+01 0.  1.
       -5    1    3    3    0  502 -0.10807240909E+03 -0.13388851080E+03 -0.13068256185E+04  0.13181126910E+04  0.46999998093E+01 0. -1.
</event>
<event>
 5   0  0.5342534E-07  0.3100284E+04  0.7818609E-02  0.8215660E-01
        2   -1    0    0  501    0  0.00000000000E+00  0.00000000000E+00  0.21580663293E+04  0.21580663293E+04  0.25500000920E-02 0.  1.
       -2   -1    0    0    0  501  0.00000000000E+00  0.00000000000E+00 -0.11134690931E+04  0.11134690931E+04  0.25500000920E-02 0. -1.
    10030    2    1    2    0    0  0.00000000000E+00  0.00000000000E+00  0.10445972363E+04  0.32715354224E+04  0.31002839602E+04 0.  0.
        3    1    3    3  502    0  0.50622124669E+03  0.36853657992E+03  0.20186761469E+04  0.21135592155E+04  0.10100000352E+00 0.  1.
       -3    1    3    3    0  502 -0.50622124669E+03 -0.36853657992E+03 -0.97407891062E+03  0.11579762069E+04  0.10100000352E+00 0. -1.
</event>
<event>
 5   0  0.1830902E-07  0.3110406E+04  0.7818609E-02  0.8212888E-01
        1   -1    0    0  501    0  0.00000000000E+00  0.00000000000E+00  0.19676678749E+04  0.19676678749E+04  0.50400001928E-02 0. -1.
       -1   -1    0    0    0  501  0.00000000000E+00  0.00000000000E+00 -0.12291994040E+04  0.12291994041E+04  0.50400001928E-02 0.  1.
    10030    2    1    2    0    0  0.00000000000E+00  0.00000000000E+00  0.73846847082E+03  0.31968672789E+04  0.31104058765E+04 0.  0.
        3    1    3    3  502    0  0.20718442906E+03 -0.19139989187E+03  0.19411586016E+04  0.19615442980E+04  0.10100000352E+00 0. -1.
       -3    1    3    3    0  502 -0.20718442906E+03  0.19139989187E+03 -0.12026901308E+04  0.12353229809E+04  0.10100000352E+00 0.  1.
</event>
<event>
 5   0  0.5248309E-07  0.3100554E+04  0.7818609E-02  0.8215586E-01
       -2   -1    0    0    0  501  0.00000000000E+00  0.00000000000E+00  0.98126445929E+03  0.98126445929E+03  0.25500000920E-02 0. -1.
        2   -1    0    0  501    0  0.00000000000E+00  0.00000000000E+00 -0.24492471382E+04  0.24492471382E+04  0.25500000920E-02 0.  1.
    10030    2    1    2    0    0  0.00000000000E+00  0.00000000000E+00 -0.14679826789E+04  0.34305115975E+04  0.31005542529E+04 0.  0.
        4    1    3    3  502    0  0.83862801200E+03 -0.12099175569E+04 -0.12716700444E+04  0.19453389812E+04  0.12699999809E+01 0.  1.
       -4    1    3    3    0  502 -0.83862801200E+03  0.12099175569E+04 -0.19631263456E+03  0.14851726164E+04  0.12699999809E+01 0. -1.
</event>
<event>
 5   0  0.1845123E-07  0.3111792E+04  0.7818609E-02  0.8212509E-01
        1   -1    0    0  501    0  0.00000000000E+00  0.00000000000E+00  0.23054094968E+04  0.23054094968E+04  0.50400001928E-02 0.  1.
       -1   -1    0    0    0  501  0.00000000000E+00  0.00000000000E+00 -0.10500572093E+04  0.10500572094E+04  0.50400001928E-02 0. -1.
    10030    2    1    2    0    0  0.00000000000E+00  0.00000000000E+00  0.12553522875E+04  0.33554667062E+04  0.31117916785E+04 0.  0.
        2    1    3    3  502    0 -0.46722731130E+03 -0.63914283580E+02 -0.97113914307E+03  0.10795821559E+04  0.25500000920E-02 0. -1.
       -2    1    3    3    0  502  0.46722731130E+03  0.63914283580E+02  0.22264914305E+04  0.22758845503E+04  0.25500000920E-02 0.  1.
</event>
<event>
 5   0  0.1840359E-07  0.3100552E+04  0.7818609E-02  0.8215586E-01
        1   -1    0    0  501    0  0.00000000000E+00  0.00000000000E+00  0.12554311613E+04  0.12554311614E+04  0.50400001928E-02 0.  1.
       -1   -1    0    0    0  501  0.00000000000E+00  0.00000000000E+00 -0.19143669056E+04  0.19143669056E+04  0.50400001928E-02 0. -1.
    10030    2    1    2    0    0  0.00000000000E+00  0.00000000000E+00 -0.65893574422E+03  0.31697980669E+04  0.31005521234E+04 0.  0.
        1    1    3    3  502    0  0.26224486070E+03  0.56926643276E+03 -0.17790628480E+04  0.18862399782E+04  0.50400001928E-02 0. -1.
       -1    1    3    3    0  502 -0.26224486070E+03 -0.56926643276E+03  0.11201271038E+04  0.12835580887E+04  0.50400001928E-02 0.  1.
</event>
<event>
 5   0  0.5376678E-07  0.3102142E+04  0.7818609E-02  0.8215150E-01
        2   -1    0    0  501    0  0.00000000000E+00  0.00000000000E+00  0.22748780609E+04  0.22748780609E+04  0.25500000920E-02 0. -1.
       -2   -1    0    0    0  501  0.00000000000E+00  0.00000000000E+00 -0.10575608128E+04  0.10575608128E+04  0.25500000920E-02 0.  1.
    10030    2    1    2    0    0  0.00000000000E+00  0.00000000000E+00  0.12173172481E+04  0.33324388737E+04  0.31021424153E+04 0.  0.
        5    1    3    3  502    0 -0.14696596939E+04 -0.19057081096E+03  0.11004471999E+04  0.18458664577E+04  0.46999998093E+01 0. -1.
       -5    1    3    3    0  502  0.14696596939E+04  0.19057081096E+03  0.11687004820E+03  0.14865724160E+04  0.46999998093E+01 0.  1.
</event>
<event>
 5   0  0.1814075E-07  0.3109405E+04  0.7818609E-02  0.8213161E-01
       -1   -1    0    0    0  501  0.00000000000E+00  0.00000000000E+00  0.10499371004E+04  0.10499371005E+04  0.50400001928E-02 0. -1.
        1   -1    0    0  501    0  0.00000000000E+00  0.00000000000E+00 -0.23021383808E+04  0.23021383809E+04  0.50400001928E-02 0.  1.
    10030    2    1    2    0    0  0.00000000000E+00  0.00000000000E+00 -0.12522012804E+04  0.33520754813E+04  0.31094054071E+04 0.  0.
        5    1    3    3  502    0  0.11625109417E+04  0.21915433487E+03 -0.17135996001E+04  0.20822838403E+04  0.46999998093E+01 0.  1.
       -5    1    3    3    0  502 -0.11625109417E+04 -0.21915433487E+03  0.46139831967E+03  0.12697916410E+04  0.46999998093E+01 0. -1.
</event>
<event>
 5   0  0.5342534E-07  0.3104509E+04  0.7818609E-02  0.8214502E-01
        2   -1    0    0  501    0  0.00000000000E+00  0.00000000000E+00  0.27083225561E+04  0.27083225561E+04  0.25500000920E-02 0.  1.
       -2   -1    0    0    0  501  0.00000000000E+00  0.00000000000E+00 -0.88966289542E+03  0.88966289543E+03  0.25500000920E-02 0. -1.
    10030    2    1    2    0    0  0.00000000000E+00  0.00000000000E+00  0.18186596606E+04  0.35979854515E+04  0.31045090349E+04 0.  0.
        3    1    3    3  502    0  0.33913247766E+03  0.13431546382E+04  0.17209448124E+04  0.22092365824E+04  0.10100000352E+00 0.  1.
       -3    1    3    3    0  502 -0.33913247766E+03 -0.13431546382E+04  0.97714848227E+02  0.13887488691E+04  0.10100000352E+00 0. -1.
</event>
<event>
 5   0  0.5154105E-07  0.3087416E+04  0.7818609E-02  0.8219200E-01
        2   -1    0    0  501    0  0.00000000000E+00  0.00000000000E+00  0.17550062429E+04  0.17550062429E+04  0.25500000920E-02 0.  1.
       -2   -1    0    0    0  501  0.00000000000E+00  0.00000000000E+00 -0.13578497265E+04  0.13578497265E+04  0.25500000920E-02 0. -1.
    10030    2    1    2    0    0  0.00000000000E+00  0.00000000000E+00  0.39715651636E+03  0.31128559694E+04  0.30874162317E+04 0.  0.
        1    1    3    3  502    0  0.10459941799E+04  0.93445580937E+03  0.84865706382E+03  0.16393688713E+04  0.50400001928E-02 0.  1.
       -1    1    3    3    0  502 -0.10459941799E+04 -0.93445580937E+03 -0.45150054746E+03  0.14734870982E+04  0.50400001928E-02 0. -1.
</event>
<event>
 5   0  0.1845123E-07  0.3106612E+04  0.7818609E-02  0.8213926E-01
       -1   -1    0    0    0  501  0.00000000000E+00  0.00000000000E+00  0.16705180236E+04  0.16705180236E+04  0.50400001928E-02 0.  1.
        1   -1    0    0  501    0  0.00000000000E+00  0.00000000000E+00 -0.14443185064E+04  0.14443185064E+04  0.50400001928E-02 0. -1.
    10030    2    1    2    0    0  0.00000000000E+00  0.00000000000E+00  0.22619951717E+03  0.31148365299E+04  0.31066123651E+04 0.  0.
        2    1    3    3  502    0  0.13862790331E+04 -0.54169245261E+03 -0.33255393479E+03  0.15250548811E+04  0.25500000920E-02 0. -1.
       -2    1    3    3    0  502 -0.13862790331E+04  0.54169245261E+03  0.55875345196E+03  0.15897816488E+04  0.25500000920E-02 0.  1.
</event>
<event>
 5   0  0.1845123E-07  0.3108900E+04  0.7818609E-02  0.8213300E-01
       -1   -1    0    0    0  501  0.00000000000E+00  0.00000000000E+00  0.10360748129E+04  0.10360748130E+04  0.50400001928E-02 0. -1.
        1   -1    0    0  501    0  0.00000000000E+00  0.00000000000E+00 -0.23321819887E+04  0.23321819887E+04  0.50400001928E-02 0.  1.
    10030    2    1    2    0    0  0.00000000000E+00  0.00000000000E+00 -0.12961071758E+04  0.33682568017E+04  0.31089001385E+04 0.  0.
        2    1    3    3  502    0  0.88054191149E+03  0.59312008566E+03 -0.18781904659E+04  0.21574857868E+04  0.25500000920E-02 0.  1.
       -2    1    3    3    0  502 -0.88054191149E+03 -0.59312008566E+03  0.58208329013E+03  0.12107710149E+04  0.25500000920E-02 0. -1.
</event>
<event>
 5   0  0.5342534E-07  0.3096301E+04  0.7818609E-02  0.8216754E-01
       -2   -1    0    0    0  501  0.00000000000E+00  0.00000000000E+00  0.21199750185E+04  0.21199750185E+04  0.25500000920E-02 0.  1.
        2   -1    0    0  501    0  0.00000000000E+00  0.00000000000E+00 -0.11305650091E+04  0.11305650091E+04  0.25500000920E-02 0. -1.
    10030    2    1    2    0    0  0.00000000000E+00  0.00000000000E+00  0.98941000943E+03  0.32505400276E+04  0.30963007452E+04 0.  0.
        3    1    3    3  502    0 -0.20628738660E+03  0.87229081534E+02 -0.11134669533E+04  0.11357693713E+04  0.10100000352E+00 0. -1.
       -3    1    3    3    0  502  0.20628738660E+03 -0.87229081534E+02  0.21028769627E+04  0.21147706563E+04  0.10100000352E+00 0.  1.
</event>
<event>
 5   0  0.5342534E-07  0.3083282E+04  0.7818609E-02  0.8220341E-01
        2   -1    0    0  501    0  0.00000000000E+00  0.00000000000E+00  0.11092727497E+04  0.11092727497E+04  0.25500000920E-02 0.  1.
       -2   -1    0    0    0  501  0.00000000000E+00  0.00000000000E+00 -0.21425363626E+04  0.21425363626E+04  0.25500000920E-02 0. -1.
    10030    2    1    2    0    0  0.00000000000E+00  0.00000000000E+00 -0.10332636129E+04  0.32518091123E+04  0.30832821488E+04 0.  0.
        3    1    3    3  502    0 -0.69474886905E+03 -0.78660567693E+03 -0.17076173698E+04  0.20043406831E+04  0.10100000352E+00 0. -1.
       -3    1    3    3    0  502  0.69474886905E+03  0.78660567693E+03  0.67435375697E+03  0.12474684292E+04  0.10100000352E+00 0.  1.
</event>
<event>
 5   0  0.1875284E-07  0.3091330E+04  0.7818609E-02  0.8218121E-01
        1   -1    0    0  501    0  0.00000000000E+00  0.00000000000E+00  0.10728831513E+04  0.10728831513E+04  0.50400001928E-02 0.  1.
       -1   -1    0    0    0  501  0.00000000000E+00  0.00000000000E+00 -0.22267849753E+04  0.22267849753E+04  0.50400001928E-02 0. -1.
    10030    2    1    2    0    0  0.00000000000E+00  0.00000000000E+00 -0.11539018240E+04  0.32996681266E+04  0.30913298637E+04 0.  0.
        4    1    3    3  502    0 -0.44566016001E+03  0.14290942012E+04 -0.16610076971E+03  0.15061587873E+04  0.12699999809E+01 0.  1.
       -4    1    3    3    0  502  0.44566016001E+03 -0.14290942012E+04 -0.98780105431E+03  0.17935093392E+04  0.12699999809E+01 0. -1.
</event>
<event>
 5   0  0.1875284E-07  0.3098120E+04  0.7818609E-02  0.8216254E-01
       -1   -1    0    0    0  501  0.00000000000E+00  0.00000000000E+00  0.10187758533E+04  0.10187758533E+04  0.50400001928E-02 0.  1.
        1   -1    0    0  501    0  0.00000000000E+00  0.00000000000E+00 -0.23553629070E+04  0.23553629070E+04  0.50400001928E-02 0. -1.
    10030    2    1    2    0    0  0.00000000000E+00  0.00000000000E+00 -0.13365870537E+04  0.33741387603E+04  0.30981199818E+04 0.  0.
        4    1    3    3  502    0  0.82233420509E+02 -0.40282533860E+03 -0.22948574686E+04  0.23313950766E+04  0.12699999809E+01 0. -1.
       -4    1    3    3    0  502 -0.82233420509E+02  0.40282533860E+03  0.95827041493E+03  0.10427436837E+04  0.12699999809E+01 0.  1.
</event>
<event>
 5   0  0.1840359E-07  0.3129911E+04  0.7818609E-02  0.8207577E-01
        1   -1    0    0  501    0  0.00000000000E+00  0.00000000000E+00  0.22139860859E+04  0.22139860859E+04  0.50400001928E-02 0.  1.
       -1   -1    0    0    0  501  0.00000000000E+00  0.00000000000E+00 -0.11061884050E+04  0.11061884050E+04  0.50400001928E-02 0. -1.
    10030    2    1    2    0    0  0.00000000000E+00  0.00000000000E+00  0.11077976810E+04  0.33201744909E+04  0.31299110128E+04 0.  0.
        1    1    3    3  502    0 -0.40705023799E+03  0.81525388634E+03  0.19035444313E+04  0.21104052211E+04  0.50400001928E-02 0.  1.
       -1    1    3    3    0  502  0.40705023799E+03 -0.81525388634E+03 -0.79574675033E+03  0.12097692698E+04  0.50400001928E-02 0. -1.
</event>
<event>
 5   0  0.1840359E-07  0.3101808E+04  0.7818609E-02  0.8215242E-01
       -1   -1    0    0    0  501  0.00000000000E+00  0.00000000000E+00  0.11723525531E+04  0.11723525531E+04  0.50400001928E-02 0.  1.
        1   -1    0    0  501    0  0.00000000000E+00  0.00000000000E+00 -0.20516894471E+04  0.20516894471E+04  0.50400001928E-02 0. -1.
    10030    2    1    2    0    0  0.00000000000E+00  0.00000000000E+00 -0.87933689396E+03  0.32240420002E+04  0.31018080931E+04 0.  0.
        1    1    3    3  502    0 -0.42348013767E+03  0.77608537993E+03 -0.17641113300E+04  0.19732543497E+04  0.50400001928E-02 0. -1.
       -1    1    3    3    0  502  0.42348013767E+03 -0.77608537993E+03  0.88477443607E+03  0.12507876505E+04  0.50400001928E-02 0.  1.
</event>
<event>
 5   0  0.1845123E-07  0.3114853E+04  0.7818609E-02  0.8211674E-01
        1   -1    0    0  501    0  0.00000000000E+00  0.00000000000E+00  0.16705443666E+04  0.16705443666E+04  0.50400001928E-02 0. -1.
       -1   -1    0    0    0  501  0.00000000000E+00  0.00000000000E+00 -0.14519677997E+04  0.14519677997E+04  0.50400001928E-02 0.  1.
    10030    2    1    2    0    0  0.00000000000E+00  0.00000000000E+00  0.21857656685E+03  0.31225121663E+04  0.31148525669E+04 0.  0.
        2    1    3    3  502    0  0.20900205910E+01 -0.12469445660E+04  0.10446967416E+04  0.16267348895E+04  0.25500000920E-02 0. -1.
       -2    1    3    3    0  502 -0.20900205910E+01  0.12469445660E+04 -0.82612017471E+03  0.14957772768E+04  0.25500000920E-02 0.  1.
</event>
<event>
 5   0  0.1814075E-07  0.3101477E+04  0.7818609E-02  0.8215333E-01
        1   -1    0    0  501    0  0.00000000000E+00  0.00000000000E+00  0.17272728805E+04  0.17272728805E+04  0.50400001928E-02 0.  1.
       -1   -1    0    0    0  501  0.00000000000E+00  0.00000000000E+00 -0.13922466580E+04  0.13922466580E+04  0.50400001928E-02 0. -1.
    10030    2    1    2    0    0  0.00000000000E+00  0.00000000000E+00  0.33502622251E+03  0.31195195385E+04  0.31014770000E+04 0.  0.
        5    1    3    3  502    0 -0.16947858685E+03 -0.14318428912E+04 -0.40665865697E+03  0.14980955943E+04  0.46999998093E+01 0. -1.
       -5    1    3    3    0  502  0.16947858685E+03  0.14318428912E+04  0.74168487948E+03  0.16214239442E+04  0.46999998093E+01 0.  1.
</event>
<event>
 5   0  0.1845123E-07  0.3102774E+04  0.7818609E-02  0.8214977E-01
        1   -1    0    0  501    0  0.00000000000E+00  0.00000000000E+00  0.15188926524E+04  0.15188926524E+04  0.50400001928E-02 0.  1.
       -1   -1    0    0    0  501  0.00000000000E+00  0.00000000000E+00 -0.15845765886E+04  0.15845765886E+04  0.50400001928E-02 0. -1.
    10030    2    1    2    0    0  0.00000000000E+00  0.00000000000E+00 -0.65683936182E+02  0.31034692410E+04  0.31027740734E+04 0.  0.
        2    1    3    3  502    0  0.11510836141E+04  0.45200385711E+02  0.10065083419E+04  0.15297371029E+04  0.25500000920E-02 0.  1.
       -2    1    3    3    0  502 -0.11510836141E+04 -0.45200385711E+02 -0.10721922781E+04  0.15737321382E+04  0.25500000920E-02 0. -1.
</event>
<event>
 5   0  0.5154105E-07  0.3101037E+04  0.7818609E-02  0.8215453E-01
       -2   -1    0    0    0  501  0.00000000000E+00  0.00000000000E+00  0.20536501254E+04  0.20536501254E+04  0.25500000920E-02 0. -1.
        2   -1    0    0  501    0  0.00000000000E+00  0.00000000000E+00 -0.11706506951E+04  0.11706506951E+04  0.25500000920E-02 0.  1.
    10030    2    1    2    0    0  0.00000000000E+00  0.00000000000E+00  0.88299943031E+03  0.32243008205E+04  0.31010365666E+04 0.  0.
        1    1    3    3  502    0 -0.25184775204E+03  0.13993097272E+04  0.10846432794E+04  0.17882801923E+04  0.50400001928E-02 0. -1.
       -1    1    3    3    0  502  0.25184775204E+03 -0.13993097272E+04 -0.20164384906E+03  0.14360206282E+04  0.50400001928E-02 0.  1.
</event>
<event>
 5   0  0.5154105E-07  0.3106417E+04  0.7818609E-02  0.8213979E-01
       -2   -1    0    0    0  501  0.00000000000E+00  0.00000000000E+00  0.11760736875E+04  0.11760736875E+04  0.25500000920E-02 0. -1.
        2   -1    0    0  501    0  0.00000000000E+00  0.00000000000E+00 -0.20512797079E+04  0.20512797079E+04  0.25500000920E-02 0.  1.
    10030    2    1    2    0    0  0.00000000000E+00  0.00000000000E+00 -0.87520602043E+03  0.32273533953E+04  0.31064166431E+04 0.  0.
        1    1    3    3  502    0  0.13044243904E+04 -0.79862727761E+03 -0.71855194772E+03  0.16898655036E+04  0.50400001928E-02 0. -1.
       -1    1    3    3    0  502 -0.13044243904E+04  0.79862727761E+03 -0.15665407271E+03  0.15374878917E+04  0.50400001928E-02 0.  1.
</event>
<event>
 5   0  0.5055900E-07  0.3119953E+04  0.7818609E-02  0.8210283E-01
        2   -1    0    0  501    0  0.00000000000E+00  0.00000000000E+00  0.12830345649E+04  0.12830345649E+04  0.25500000920E-02 0. -1.
       -2   -1    0    0    0  501  0.00000000000E+00  0.00000000000E+00 -0.18966961115E+04  0.18966961115E+04  0.25500000920E-02 0.  1.
    10030    2    1    2    0    0  0.00000000000E+00  0.00000000000E+00 -0.61366154662E+03  0.31797306763E+04  0.31199529933E+04 0.  0.
        2    1    3    3  502    0  0.52639127645E+03 -0.27027738558E+03 -0.17778809021E+04  0.18737657653E+04  0.25500000920E-02 0.  1.
       -2    1    3    3    0  502 -0.52639127645E+03  0.27027738558E+03  0.11642193555E+04  0.13059649110E+04  0.25500000920E-02 0. -1.
</event>
<event>
 5   0  0.1875284E-07  0.3186236E+04  0.7818609E-02  0.8192462E-01
        1   -1    0    0  501    0  0.00000000000E+00  0.00000000000E+00  0.16043659314E+04  0.16043659314E+04  0.50400001928E-02 0.  1.
       -1   -1    0    0    0  501  0.00000000000E+00  0.00000000000E+00 -0.15819486889E+04  0.15819486889E+04  0.50400001928E-02 0. -1.
    10030    2    1    2    0    0  0.00000000000E+00  0.00000000000E+00  0.22417242524E+02  0.31863146203E+04  0.31862357614E+04 0.  0.
        4    1    3    3  502    0 -0.13788483755E+04  0.44296881843E+03  0.67498611487E+03  0.15978273013E+04  0.12699999809E+01 0.  1.
       -4    1    3    3    0  502  0.13788483755E+04 -0.44296881843E+03 -0.65256887235E+03  0.15884873190E+04  0.12699999809E+01 0. -1.
</event>
<event>
 5   0  0.1875284E-07  0.3108620E+04  0.7818609E-02  0.8213376E-01
        1   -1    0    0  501    0  0.00000000000E+00  0.00000000000E+00  0.14192051648E+04  0.14192051648E+04  0.50400001928E-02 0.  1.
       -1   -1    0    0    0  501  0.00000000000E+00  0.00000000000E+00 -0.17022766152E+04  0.17022766153E+04  0.50400001928E-02 0. -1.
    10030    2    1    2    0    0  0.00000000000E+00  0.00000000000E+00 -0.28307145047E+03  0.31214817800E+04  0.31086201211E+04 0.  0.
        4    1    3    3  502    0 -0.16320586075E+03  0.43558461374E+03 -0.16307456701E+04  0.16957898344E+04  0.12699999809E+01 0. -1.
       -4    1    3    3    0  502  0.16320586075E+03 -0.43558461374E+03  0.13476742197E+04  0.14256919457E+04  0.12699999809E+01 0.  1.
</event>
<event>
 5   0  0.1840359E-07  0.3097148E+04  0.7818609E-02  0.8216521E-01
       -1   -1    0    0    0  501  0.00000000000E+00  0.00000000000E+00  0.12730191127E+04  0.12730191127E+04  0.50400001928E-02 0. -1.
        1   -1    0    0  501    0  0.00000000000E+00  0.00000000000E+00 -0.18837742878E+04  0.18837742878E+04  0.50400001928E-02 0.  1.
    10030    2    1    2    0    0  0.00000000000E+00  0.00000000000E+00 -0.61075517507E+03  0.31567934005E+04  0.30971475085E+04 0.  0.
        1    1    3    3  502    0 -0.44703244104E+03 -0.12059534092E+04 -0.11844954575E+04  0.17484825185E+04  0.50400001928E-02 0.  1.
       -1    1    3    3    0  502  0.44703244104E+03  0.12059534092E+04  0.57374028246E+03  0.14083108820E+04  0.50400001928E-02 0. -1.
</event>
<event>
 5   0  0.1845123E-07  0.3135377E+04  0.7818609E-02  0.8206096E-01
       -1   -1    0    0    0  501  0.00000000000E+00  0.00000000000E+00  0.13470245559E+04  0.13470245559E+04  0.50400001928E-02 0.  1.
        1   -1    0    0  501    0  0.00000000000E+00  0.00000000000E+00 -0.18245004179E+04  0.18245004180E+04  0.50400001928E-02 0. -1.
    10030    2    1    2    0    0  0.00000000000E+00  0.00000000000E+00 -0.47747586205E+03  0.31715249739E+04  0.31353767654E+04 0.  0.
        2    1    3    3  502    0 -0.27541502547E+03  0.37411865941E+03  0.12757980944E+04  0.13577477621E+04  0.25500000920E-02 0.  1.
       -2    1    3    3    0  502  0.27541502547E+03 -0.37411865941E+03 -0.17532739565E+04  0.18137772118E+04  0.25500000920E-02 0. -1.
</event>
<event>
 5   0  0.1845123E-07  0.3098439E+04  0.7818609E-02  0.8216166E-01
       -1   -1    0    0    0  501  0.00000000000E+00  0.00000000000E+00  0.12938037019E+04  0.12938037019E+04  0.50400001928E-02 0. -1.
        1   -1    0    0  501    0  0.00000000000E+00  0.00000000000E+00 -0.18550581597E+04  0.18550581597E+04  0.50400001928E-02 0.  1.
    10030    2    1    2    0    0  0.00000000000E+00  0.00000000000E+00 -0.56125445786E+03  0.31488618616E+04  0.30984390356E+04 0.  0.
        2    1    3    3  502    0  0.27830078036E+03 -0.14861994763E+04  0.62266723893E+02  0.15133133690E+04  0.25500000920E-02 0. -1.
       -2    1    3    3    0  502 -0.27830078036E+03  0.14861994763E+04 -0.62352118175E+03  0.16355484927E+04  0.25500000920E-02 0.  1.
</event>
<event>
 5   0  0.5342534E-07  0.3107357E+04  0.7818609E-02  0.8213722E-01
       -2   -1    0    0    0  501  0.00000000000E+00  0.00000000000E+00  0.10499315630E+04  0.10499315630E+04  0.25500000920E-02 0.  1.
        2   -1    0    0  501    0  0.00000000000E+00  0.00000000000E+00 -0.22991185385E+04  0.22991185385E+04  0.25500000920E-02 0. -1.
    10030    2    1    2    0    0  0.00000000000E+00  0.00000000000E+00 -0.12491869755E+04  0.33490501015E+04  0.31073571540E+04 0.  0.
        3    1    3    3  502    0  0.89306738614E+03 -0.92523942163E+03 -0.15643539901E+04  0.20250532734E+04  0.10100000352E+00 0. -1.
       -3    1    3    3    0  502 -0.89306738614E+03  0.92523942163E+03  0.31516701453E+03  0.13239968281E+04  0.10100000352E+00 0.  1.
</event>
<event>
 5   0  0.5154105E-07  0.3102251E+04  0.7818609E-02  0.8215121E-01
       -2   -1    0    0    0  501  0.00000000000E+00  0.00000000000E+00  0.13052155881E+04  0.13052155881E+04  0.25500000920E-02 0. -1.
        2   -1    0    0  501    0  0.00000000000E+00  0.00000000000E+00 -0.18433658362E+04  0.18433658362E+04  0.25500000920E-02 0.  1.
    10030    2    1    2    0    0  0.00000000000E+00  0.00000000000E+00 -0.53815024811E+03  0.31485814244E+04  0.31022506824E+04 0.  0.
        1    1    3    3  502    0  0.20318239212E+03  0.12874675129E+04  0.58439621949E+03  0.14284168238E+04  0.50400001928E-02 0. -1.
       -1    1    3    3    0  502 -0.20318239212E+03 -0.12874675129E+04 -0.11225464676E+04  0.17201646006E+04  0.50400001928E-02 0.  1.
</event>
<event>
 5   0  0.5342534E-07  0.3099578E+04  0.7818609E-02  0.8215854E-01
       -2   -1    0    0    0  501  0.00000000000E+00  0.00000000000E+00  0.16534683446E+04  0.16534683446E+04  0.25500000920E-02 0.  1.
        2   -1    0    0  501    0  0.00000000000E+00  0.00000000000E+00 -0.14526103681E+04  0.14526103681E+04  0.25500000920E-02 0. -1.
    10030    2    1    2    0    0  0.00000000000E+00  0.00000000000E+00  0.20085797644E+03  0.31060787127E+04  0.30995775587E+04 0.  0.
        3    1    3    3  502    0  0.79357335748E+03  0.13308956904E+04  0.72028089059E+02  0.15512027811E+04  0.10100000352E+00 0. -1.
       -3    1    3    3    0  502 -0.79357335748E+03 -0.13308956904E+04  0.12882988739E+03  0.15548759315E+04  0.10100000352E+00 0.  1.
</event>
<event>
 5   0  0.1840359E-07  0.3097191E+04  0.7818609E-02  0.8216509E-01
       -1   -1    0    0    0  501  0.00000000000E+00  0.00000000000E+00  0.11723137395E+04  0.11723137395E+04  0.50400001928E-02 0.  1.
        1   -1    0    0  501    0  0.00000000000E+00  0.00000000000E+00 -0.20456537821E+04  0.20456537821E+04  0.50400001928E-02 0. -1.
    10030    2    1    2    0    0  0.00000000000E+00  0.00000000000E+00 -0.87334004265E+03  0.32179675217E+04  0.30971910081E+04 0.  0.
        1    1    3    3  502    0 -0.42626569314E+03  0.81737208273E+03 -0.17295196701E+04  0.19598565897E+04  0.50400001928E-02 0. -1.
       -1    1    3    3    0  502  0.42626569314E+03 -0.81737208273E+03  0.85617962744E+03  0.12581109320E+04  0.50400001928E-02 0.  1.
</event>
<event>
 5   0  0.5055900E-07  0.3088328E+04  0.7818609E-02  0.8218949E-01
       -2   -1    0    0    0  501  0.00000000000E+00  0.00000000000E+00  0.78531616605E+03  0.78531616605E+03  0.25500000920E-02 0. -1.
        2   -1    0    0  501    0  0.00000000000E+00  0.00000000000E+00 -0.30362832443E+04  0.30362832443E+04  0.25500000920E-02 0.  1.
    10030    2    1    2    0    0  0.00000000000E+00  0.00000000000E+00 -0.22509670782E+04  0.38215994103E+04  0.30883279077E+04 0.  0.
        2    1    3    3  502    0 -0.53147759384E+03  0.25856157781E+03 -0.28907763172E+04  0.29505779499E+04  0.25500000920E-02 0.  1.
       -2    1    3    3    0  502  0.53147759384E+03 -0.25856157781E+03  0.63980923897E+03  0.87102146044E+03  0.25500000920E-02 0. -1.
</event>
<event>
 5   0  0.5055900E-07  0.3105852E+04  0.7818609E-02  0.8214134E-01
        2   -1    0    0  501    0  0.00000000000E+00  0.00000000000E+00  0.16368450516E+04  0.16368450516E+04  0.25500000920E-02 0. -1.
       -2   -1    0    0    0  501  0.00000000000E+00  0.00000000000E+00 -0.14733089552E+04  0.14733089552E+04  0.25500000920E-02 0.  1.
    10030    2    1    2    0    0  0.00000000000E+00  0.00000000000E+00  0.16353609642E+03  0.31101540067E+04  0.31058515565E+04 0.  0.
        2    1    3    3  502    0  0.16767723386E+02 -0.19941667091E+03 -0.14603426123E+04  0.14739907430E+04  0.25500000920E-02 0.  1.
       -2    1    3    3    0  502 -0.16767723386E+02  0.19941667091E+03  0.16238787087E+04  0.16361632638E+04  0.25500000920E-02 0. -1.
</event>
<event>
 5   0  0.1840359E-07  0.3088457E+04  0.7818609E-02  0.8218913E-01
        1   -1    0    0  501    0  0.00000000000E+00  0.00000000000E+00  0.23060124085E+04  0.23060124086E+04  0.50400001928E-02 0. -1.
       -1   -1    0    0    0  501  0.00000000000E+00  0.00000000000E+00 -0.10340975445E+04  0.10340975446E+04  0.50400001928E-02 0.  1.
    10030    2    1    2    0    0  0.00000000000E+00  0.00000000000E+00  0.12719148640E+04  0.33401099531E+04  0.30884570707E+04 0.  0.
        1    1    3    3  502    0 -0.17628994706E+03  0.10339207372E+04 -0.58978251862E+03  0.12032928386E+04  0.50400001928E-02 0.  1.
       -1    1    3    3    0  502  0.17628994706E+03 -0.10339207372E+04  0.18616973826E+04  0.21368171145E+04  0.50400001928E-02 0. -1.
</event>
<event>
 5   0  0.1875284E-07  0.3087001E+04  0.7818609E-02  0.8219314E-01
        1   -1    0    0  501    0  0.00000000000E+00  0.00000000000E+00  0.19272654836E+04  0.19272654836E+04  0.50400001928E-02 0. -1.
       -1   -1    0    0    0  501  0.00000000000E+00  0.00000000000E+00 -0.12361526894E+04  0.12361526894E+04  0.50400001928E-02 0.  1.
    10030    2    1    2    0    0  0.00000000000E+00  0.00000000000E+00  0.69111279418E+03  0.31634181730E+04  0.30870013999E+04 0.  0.
        4    1    3    3  502    0 -0.12110713668E+04  0.75754243204E+03  0.94469024235E+03  0.17126020141E+04  0.12699999809E+01 0. -1.
       -4    1    3    3    0  502  0.12110713668E+04 -0.75754243204E+03 -0.25357744817E+03  0.14508161589E+04  0.12699999809E+01 0.  1.
</event>
<event>
 5   0  0.1814075E-07  0.3100944E+04  0.7818609E-02  0.8215479E-01
       -1   -1    0    0    0  501  0.00000000000E+00  0.00000000000E+00  0.10735839014E+04  0.10735839014E+04  0.50400001928E-02 0. -1.
        1   -1    0    0  501    0  0.00000000000E+00  0.00000000000E+00 -0.22391942060E+04  0.22391942060E+04  0.50400001928E-02 0.  1.
    10030    2    1    2    0    0  0.00000000000E+00  0.00000000000E+00 -0.11656103046E+04  0.33127781074E+04  0.31009436317E+04 0.  0.
        5    1    3    3  502    0  0.13771871403E+04  0.21535575858E+03  0.14248273225E+03  0.14011944694E+04  0.46999998093E+01 0. -1.
       -5    1    3    3    0  502 -0.13771871403E+04 -0.21535575858E+03 -0.13080930368E+04  0.19115836380E+04  0.46999998093E+01 0.  1.
</event>
<event>
 5   0  0.5248309E-07  0.3105029E+04  0.7818609E-02  0.8214359E-01
        2   -1    0    0  501    0  0.00000000000E+00  0.00000000000E+00  0.16177223578E+04  0.16177223578E+04  0.25500000920E-02 0.  1.
       -2   -1    0    0    0  501  0.00000000000E+00  0.00000000000E+00 -0.14899346103E+04  0.14899346103E+04  0.25500000920E-02 0. -1.
    10030    2    1    2    0    0  0.00000000000E+00  0.00000000000E+00  0.12778774756E+03  0.31076569681E+04  0.31050285221E+04 0.  0.
        4    1    3    3  502    0  0.10319013783E+04  0.11436259283E+04 -0.13017281857E+03  0.15458484059E+04  0.12699999809E+01 0.  1.
       -4    1    3    3    0  502 -0.10319013783E+04 -0.11436259283E+04  0.25796056613E+03  0.15618085622E+04  0.12699999809E+01 0. -1.
</event>
<event>
 5   0  0.1814075E-07  0.3098729E+04  0.7818609E-02  0.8216087E-01
       -1   -1    0    0    0  501  0.00000000000E+00  0.00000000000E+00  0.99972245770E+03  0.99972245771E+03  0.50400001928E-02 0.  1.
        1   -1    0    0  501    0  0.00000000000E+00  0.00000000000E+00 -0.24011974483E+04  0.24011974483E+04  0.50400001928E-02 0. -1.
    10030    2    1    2    0    0  0.00000000000E+00  0.00000000000E+00 -0.14014749906E+04  0.34009199060E+04  0.30987294264E+04 0.  0.
        5    1    3    3  502    0 -0.92920913225E+02  0.15242119979E+04 -0.98830555925E+03  0.18189630230E+04  0.46999998093E+01 0. -1.
       -5    1    3    3    0  502  0.92920913225E+02 -0.15242119979E+04 -0.41316943133E+03  0.15819568830E+04  0.46999998093E+01 0.  1.
</event>
<event>
 5   0  0.5154105E-07  0.3096907E+04  0.7818609E-02  0.8216587E-01
        2   -1    0    0  501    0  0.00000000000E+00  0.00000000000E+00  0.11418893961E+04  0.11418893961E+04  0.25500000920E-02 0.  1.
       -2   -1    0    0    0  501  0.00000000000E+00  0.00000000000E+00 -0.20997726682E+04  0.20997726682E+04  0.25500000920E-02 0. -1.
    10030    2    1    2    0    0  0.00000000000E+00  0.00000000000E+00 -0.95788327216E+03  0.32416620643E+04  0.30969069369E+04 0.  0.
        1    1    3    3  502    0  0.18432061203E+03 -0.64165448981E+02 -0.20868464236E+04  0.20959530741E+04  0.50400001928E-02 0. -1.
       -1    1    3    3    0  502 -0.18432061203E+03  0.64165448981E+02  0.11289631515E+04  0.11457089902E+04  0.50400001928E-02 0.  1.
</event>
<event>
 5   0  0.1814075E-07  0.3104533E+04  0.7818609E-02  0.8214495E-01
       -1   -1    0    0    0  501  0.00000000000E+00  0.00000000000E+00  0.10727094274E+04  0.10727094274E+04  0.50400001928E-02 0. -1.
        1   -1    0    0  501    0  0.00000000000E+00  0.00000000000E+00 -0.22462100771E+04  0.22462100771E+04  0.50400001928E-02 0.  1.
    10030    2    1    2    0    0  0.00000000000E+00  0.00000000000E+00 -0.11735006497E+04  0.33189195045E+04  0.31045326383E+04 0.  0.
        5    1    3    3  502    0  0.28502198172E+03  0.73069219202E+03 -0.20187907643E+04  0.21657993558E+04  0.46999998093E+01 0.  1.
       -5    1    3    3    0  502 -0.28502198172E+03 -0.73069219202E+03  0.84529011457E+03  0.11531201487E+04  0.46999998093E+01 0. -1.
</event>
<event>
 5   0  0.1830902E-07  0.3095013E+04  0.7818609E-02  0.8217108E-01
        1   -1    0    0  501    0  0.00000000000E+00  0.00000000000E+00  0.21243266525E+04  0.21243266525E+04  0.50400001928E-02 0. -1.
       -1   -1    0    0    0  501  0.00000000000E+00  0.00000000000E+00 -0.11273109097E+04  0.11273109097E+04  0.50400001928E-02 0.  1.
    10030    2    1    2    0    0  0.00000000000E+00  0.00000000000E+00  0.99701574280E+03  0.32516375622E+04  0.30950131574E+04 0.  0.
        3    1    3    3  502    0 -0.35243651229E+03  0.15049300695E+04  0.41883767257E+03  0.16013903382E+04  0.10100000352E+00 0.  1.
       -3    1    3    3    0  502  0.35243651229E+03 -0.15049300695E+04  0.57817807023E+03  0.16502472240E+04  0.10100000352E+00 0. -1.
</event>
<event>
 5   0  0.1830902E-07  0.3100667E+04  0.7818609E-02  0.8215555E-01
       -1   -1    0    0    0  501  0.00000000000E+00  0.00000000000E+00  0.14418119862E+04  0.14418119862E+04  0.50400001928E-02 0. -1.
        1   -1    0    0  501    0  0.00000000000E+00  0.00000000000E+00 -0.16670231287E+04  0.16670231287E+04  0.50400001928E-02 0.  1.
    10030    2    1    2    0    0  0.00000000000E+00  0.00000000000E+00 -0.22521114248E+03  0.31088351149E+04  0.31006669787E+04 0.  0.
        3    1    3    3  502    0 -0.11099554078E+02 -0.62578672766E+03 -0.15347219845E+04  0.16574389305E+04  0.10100000352E+00 0.  1.
       -3    1    3    3    0  502  0.11099554078E+02  0.62578672766E+03  0.13095108420E+04  0.14513961844E+04  0.10100000352E+00 0. -1.
</event>
<event>
 5   0  0.1814075E-07  0.3097071E+04  0.7818609E-02  0.8216542E-01
        1   -1    0    0  501    0  0.00000000000E+00  0.00000000000E+00  0.12003343249E+04  0.12003343249E+04  0.50400001928E-02 0.  1.
       -1   -1    0    0    0  501  0.00000000000E+00  0.00000000000E+00 -0.19977454259E+04  0.19977454259E+04  0.50400001928E-02 0. -1.
    10030    2    1    2    0    0  0.00000000000E+00  0.00000000000E+00 -0.79741110096E+03  0.31980797508E+04  0.30970711371E+04 0.  0.
        5    1    3    3  502    0  0.17153461938E+03 -0.96668965034E+02  0.11873480023E+04  0.12035723423E+04  0.46999998093E+01 0.  1.
       -5    1    3    3    0  502 -0.17153461938E+03  0.96668965034E+02 -0.19847591033E+04  0.19945074085E+04  0.46999998093E+01 0. -1.
</event>
<event>
 5   0  0.5248309E-07  0.3094036E+04  0.7818609E-02  0.8217377E-01
        2   -1    0    0  501    0  0.00000000000E+00  0.00000000000E+00  0.16965204356E+04  0.16965204356E+04  0.25500000920E-02 0.  1.
       -2   -1    0    0    0  501  0.00000000000E+00  0.00000000000E+00 -0.14106898624E+04  0.14106898624E+04  0.25500000920E-02 0. -1.
    10030    2    1    2    0    0  0.00000000000E+00  0.00000000000E+00  0.28583057320E+03  0.31072102979E+04  0.30940356687E+04 0.  0.
        4    1    3    3  502    0  0.35308523323E+03 -0.14773704373E+04  0.43737015146E+03  0.15806918907E+04  0.12699999809E+01 0.  1.
       -4    1    3    3    0  502 -0.35308523323E+03  0.14773704373E+04 -0.15153957826E+03  0.15265184072E+04  0.12699999809E+01 0. -1.
</event>
<event>
 5   0  0.5342534E-07  0.3049378E+04  0.7818609E-02  0.8229770E-01
       -2   -1    0    0    0  501  0.00000000000E+00  0.00000000000E+00  0.21799466473E+04  0.21799466473E+04  0.25500000920E-02 0. -1.
        2   -1    0    0  501    0  0.00000000000E+00  0.00000000000E+00 -0.10663915353E+04  0.10663915353E+04  0.25500000920E-02 0.  1.
    10030    2    1    2    0    0  0.00000000000E+00  0.00000000000E+00  0.11135551120E+04  0.32463381826E+04  0.30493780691E+04 0.  0.
        3    1    3    3  502    0  0.40431351943E+03 -0.79808817790E+03 -0.75757649215E+03  0.11723209089E+04  0.10100000352E+00 0.  1.
       -3    1    3    3    0  502 -0.40431351943E+03  0.79808817790E+03  0.18711316041E+04  0.20740172738E+04  0.10100000352E+00 0. -1.
</event>
<event>
 5   0  0.5055900E-07  0.3097735E+04  0.7818609E-02  0.8216360E-01
       -2   -1    0    0    0  501  0.00000000000E+00  0.00000000000E+00  0.24219185593E+04  0.24219185593E+04  0.25500000920E-02 0.  1.
        2   -1    0    0  501    0  0.00000000000E+00  0.00000000000E+00 -0.99053295080E+03  0.99053295080E+03  0.25500000920E-02 0. -1.
    10030    2    1    2    0    0  0.00000000000E+00  0.00000000000E+00  0.14313856085E+04  0.34124515101E+04  0.30977347447E+04 0.  0.
        2    1    3    3  502    0 -0.55626295324E+03  0.60245001849E+02 -0.87531517053E+03  0.10388621570E+04  0.25500000920E-02 0. -1.
       -2    1    3    3    0  502  0.55626295324E+03 -0.60245001849E+02  0.23067007790E+04  0.23735893531E+04  0.25500000920E-02 0.  1.
</event>
<event>
 5   0  0.5154105E-07  0.3072871E+04  0.7818609E-02  0.8223223E-01
        2   -1    0    0  501    0  0.00000000000E+00  0.00000000000E+00  0.13323868757E+04  0.13323868757E+04  0.25500000920E-02 0. -1.
       -2   -1    0    0    0  501  0.00000000000E+00  0.00000000000E+00 -0.17717330020E+04  0.17717330020E+04  0.25500000920E-02 0.  1.
    10030    2    1    2    0    0  0.00000000000E+00  0.00000000000E+00 -0.43934612621E+03  0.31041198777E+04  0.30728708395E+04 0.  0.
        1    1    3    3  502    0  0.57193243748E+03  0.13029173311E+04 -0.80516490133E+03  0.16349283786E+04  0.50400001928E-02 0.  1.
       -1    1    3    3    0  502 -0.57193243748E+03 -0.13029173311E+04  0.36581877512E+03  0.14691914991E+04  0.50400001928E-02 0. -1.
</event>
<event>
 5   0  0.5376678E-07  0.3103429E+04  0.7818609E-02  0.8214797E-01
       -2   -1    0    0    0  501  0.00000000000E+00  0.00000000000E+00  0.13047641196E+04  0.13047641196E+04  0.25500000920E-02 0. -1.
        2   -1    0    0  501    0  0.00000000000E+00  0.00000000000E+00 -0.18454048396E+04  0.18454048396E+04  0.25500000920E-02 0.  1.
    10030    2    1    2    0    0  0.00000000000E+00  0.00000000000E+00 -0.54064071997E+03  0.31501689592E+04  0.31034290846E+04 0.  0.
        5    1    3    3  502    0 -0.92581422577E+03  0.55402198425E+03  0.86169927017E+03  0.13808041360E+04  0.46999998093E+01 0. -1.
       -5    1    3    3    0  502  0.92581422577E+03 -0.55402198425E+03 -0.14023399901E+04  0.17693648232E+04  0.46999998093E+01 0.  1.
</event>
<event>
 5   0  0.5342534E-07  0.3101181E+04  0.7818609E-02  0.8215414E-01
        2   -1    0    0  501    0  0.00000000000E+00  0.00000000000E+00  0.14627955259E+04  0.14627955259E+04  0.25500000920E-02 0. -1.
       -2   -1    0    0    0  501  0.00000000000E+00  0.00000000000E+00 -0.16436552491E+04  0.16436552491E+04  0.25500000920E-02 0.  1.
    10030    2    1    2    0    0  0.00000000000E+00  0.00000000000E+00 -0.18085972322E+03  0.31064507749E+04  0.31011814164E+04 0.  0.
        3    1    3    3  502    0  0.36623227641E+03 -0.48860148661E+03  0.13372898049E+04  0.14701025562E+04  0.10100000352E+00 0. -1.
       -3    1    3    3    0  502 -0.36623227641E+03  0.48860148661E+03 -0.15181495282E+04  0.16363482188E+04  0.10100000352E+00 0.  1.
</event>
<event>
 5   0  0.1840359E-07  0.3033055E+04  0.7818609E-02  0.8234354E-01
        1   -1    0    0  501    0  0.00000000000E+00  0.00000000000E+00  0.18109204201E+04  0.18109204201E+04  0.50400001928E-02 0. -1.
       -1   -1    0    0    0  501  0.00000000000E+00  0.00000000000E+00 -0.12699922602E+04  0.12699922602E+04  0.50400001928E-02 0.  1.
    10030    2    1    2    0    0  0.00000000000E+00  0.00000000000E+00  0.54092815988E+03  0.30809126803E+04  0.30330545114E+04 0.  0.
        1    1    3    3  502    0 -0.12574341583E+04 -0.12121411864E+03  0.11227633212E+04  0.16900979263E+04  0.50400001928E-02 0. -1.
       -1    1    3    3    0  502  0.12574341583E+04  0.12121411864E+03 -0.58183516130E+03  0.13908147540E+04  0.50400001928E-02 0.  1.
</event>
<event>
 5   0  0.1830902E-07  0.3109843E+04  0.7818609E-02  0.8213042E-01
        1   -1    0    0  501    0  0.00000000000E+00  0.00000000000E+00  0.16745611802E+04  0.16745611802E+04  0.50400001928E-02 0.  1.
       -1   -1    0    0    0  501  0.00000000000E+00  0.00000000000E+00 -0.14438297578E+04  0.14438297578E+04  0.50400001928E-02 0. -1.
    10030    2    1    2    0    0  0.00000000000E+00  0.00000000000E+00  0.23073142237E+03  0.31183909380E+04  0.31098432522E+04 0.  0.
        3    1    3    3  502    0  0.74798426005E+02  0.12612308436E+04  0.10242140240E+04  0.16264416444E+04  0.10100000352E+00 0.  1.
       -3    1    3    3    0  502 -0.74798426005E+02 -0.12612308436E+04 -0.79348260161E+03  0.14919492936E+04  0.10100000352E+00 0. -1.
</event>
<event>
 5   0  0.1814075E-07  0.3089317E+04  0.7818609E-02  0.8218676E-01
        1   -1    0    0  501    0  0.00000000000E+00  0.00000000000E+00  0.19787102897E+04  0.19787102897E+04  0.50400001928E-02 0.  1.
       -1   -1    0    0    0  501  0.00000000000E+00  0.00000000000E+00 -0.12058206867E+04  0.12058206867E+04  0.50400001928E-02 0. -1.
    10030    2    1    2    0    0  0.00000000000E+00  0.00000000000E+00  0.77288960296E+03  0.31845309764E+04  0.30893169474E+04 0.  0.
        5    1    3    3  502    0 -0.65567262236E+03 -0.11411487644E+04  0.12199576857E+04  0.17945600952E+04  0.46999998093E+01 0.  1.
       -5    1    3    3    0  502  0.65567262236E+03  0.11411487644E+04 -0.44706808274E+03  0.13899708813E+04  0.46999998093E+01 0. -1.
</event>
<event>
 5   0  0.1830902E-07  0.3102704E+04  0.7818609E-02  0.8214996E-01
        1   -1    0    0  501    0  0.00000000000E+00  0.00000000000E+00  0.15941473535E+04  0.15941473535E+04  0.50400001928E-02 0. -1.
       -1   -1    0    0    0  501  0.00000000000E+00  0.00000000000E+00 -0.15097059351E+04  0.15097059351E+04  0.50400001928E-02 0.  1.
    10030    2    1    2    0    0  0.00000000000E+00  0.00000000000E+00  0.84441418371E+02  0.31038532886E+04  0.31027044468E+04 0.  0.
        3    1    3    3  502    0  0.13524001176E+03  0.11901456888E+03  0.15836479480E+04  0.15938617135E+04  0.10100000352E+00 0. -1.
       -3    1    3    3    0  502 -0.13524001176E+03 -0.11901456888E+03 -0.14992065296E+04  0.15099915751E+04  0.10100000352E+00 0.  1.
</event>
<event>
 5   0  0.5055900E-07  0.3114761E+04  0.7818609E-02  0.8211699E-01
       -2   -1    0    0    0  501  0.00000000000E+00  0.00000000000E+00  0.14271273297E+04  0.14271273297E+04  0.25500000920E-02 0.  1.
        2   -1    0    0  501    0  0.00000000000E+00  0.00000000000E+00 -0.16995217499E+04  0.16995217499E+04  0.25500000920E-02 0. -1.
    10030    2    1    2    0    0  0.00000000000E+00  0.00000000000E+00 -0.27239442021E+03  0.31266490796E+04  0.31147609454E+04 0.  0.
        2    1    3    3  502    0 -0.13714382962E+04  0.64223031182E+03  0.22868866263E+03  0.15315355948E+04  0.25500000920E-02 0.  1.
       -2    1    3    3    0  502  0.13714382962E+04 -0.64223031182E+03 -0.50108308284E+03  0.15951134848E+04  0.25500000920E-02 0. -1.
</event>
<event>
 5   0  0.5154105E-07  0.3097219E+04  0.7818609E-02  0.8216501E-01
       -2   -1    0    0    0  501  0.00000000000E+00  0.00000000000E+00  0.13196603818E+04  0.13196603818E+04  0.25500000920E-02 0. -1.
        2   -1    0    0  501    0  0.00000000000E+00  0.00000000000E+00 -0.18172794745E+04  0.18172794745E+04  0.25500000920E-02 0.  1.
    10030    2    1    2    0    0  0.00000000000E+00  0.00000000000E+00 -0.49761909267E+03  0.31369398564E+04  0.30972192207E+04 0.  0.
        1    1    3    3  502    0  0.30587347988E+03 -0.10354107190E+04  0.87563460678E+03  0.13900970856E+04  0.50400001928E-02 0. -1.
       -1    1    3    3    0  502 -0.30587347988E+03  0.10354107190E+04 -0.13732536994E+04  0.17468427708E+04  0.50400001928E-02 0.  1.
</event>
<event>
 5   0  0.1830902E-07  0.3116122E+04  0.7818609E-02  0.8211327E-01
        1   -1    0    0  501    0  0.00000000000E+00  0.00000000000E+00  0.15495151930E+04  0.15495151930E+04  0.50400001928E-02 0.  1.
       -1   -1    0    0    0  501  0.00000000000E+00  0.00000000000E+00 -0.15666535980E+04  0.15666535980E+04  0.50400001928E-02 0. -1.
    10030    2    1    2    0    0  0.00000000000E+00  0.00000000000E+00 -0.17138405084E+02  0.31161687910E+04  0.31161216615E+04 0.  0.
        3    1    3    3  502    0  0.55231134816E+03 -0.24593234481E+03 -0.14445655023E+04  0.15659821340E+04  0.10100000352E+00 0. -1.
       -3    1    3    3    0  502 -0.55231134816E+03  0.24593234481E+03  0.14274270972E+04  0.15501866570E+04  0.10100000352E+00 0.  1.
</event>
<event>
 5   0  0.1845123E-07  0.3105303E+04  0.7818609E-02  0.8214284E-01
        1   -1    0    0  501    0  0.00000000000E+00  0.00000000000E+00  0.20307464883E+04  0.20307464883E+04  0.50400001928E-02 0.  1.
       -1   -1    0    0    0  501  0.00000000000E+00  0.00000000000E+00 -0.11871138759E+04  0.11871138759E+04  0.50400001928E-02 0. -1.
    10030    2    1    2    0    0  0.00000000000E+00  0.00000000000E+00  0.84363261239E+03  0.32178603643E+04  0.31053034214E+04 0.  0.
        2    1    3    3  502    0  0.14659971339E+04  0.46760275488E+03  0.20711709202E+03  0.15526420781E+04  0.25500000920E-02 0. -1.
       -2    1    3    3    0  502 -0.14659971339E+04 -0.46760275488E+03  0.63651552037E+03  0.16652182862E+04  0.25500000920E-02 0.  1.
</event>
<event>
 5   0  0.5055900E-07  0.3103478E+04  0.7818609E-02  0.8214784E-01
       -2   -1    0    0    0  501  0.00000000000E+00  0.00000000000E+00  0.17486939936E+04  0.17486939936E+04  0.25500000920E-02 0.  1.
        2   -1    0    0  501    0  0.00000000000E+00  0.00000000000E+00 -0.13769674006E+04  0.13769674006E+04  0.25500000920E-02 0. -1.
    10030    2    1    2    0    0  0.00000000000E+00  0.00000000000E+00  0.37172659304E+03  0.31256613943E+04  0.31034784503E+04 0.  0.
        2    1    3    3  502    0  0.16014842985E+03  0.93683624758E+03  0.14212460983E+04  0.17097514867E+04  0.25500000920E-02 0.  1.
       -2    1    3    3    0  502 -0.16014842985E+03 -0.93683624758E+03 -0.10495195053E+04  0.14159099075E+04  0.25500000920E-02 0. -1.
</event>
<event>
 5   0  0.1875284E-07  0.3091802E+04  0.7818609E-02  0.8217991E-01
       -1   -1    0    0    0  501  0.00000000000E+00  0.00000000000E+00  0.13915380814E+04  0.13915380814E+04  0.50400001928E-02 0. -1.
        1   -1    0    0  501    0  0.00000000000E+00  0.00000000000E+00 -0.17173871485E+04  0.17173871485E+04  0.50400001928E-02 0.  1.
    10030    2    1    2    0    0  0.00000000000E+00  0.00000000000E+00 -0.32584906714E+03  0.31089252299E+04  0.30918018162E+04 0.  0.
        4    1    3    3  502    0 -0.89550493190E+03 -0.65497031585E+02 -0.14283013575E+04  0.16870878237E+04  0.12699999809E+01 0.  1.
       -4    1    3    3    0  502  0.89550493190E+03  0.65497031585E+02  0.11024522904E+04  0.14218374062E+04  0.12699999809E+01 0. -1.
</event>
<event>
 5   0  0.5154105E-07  0.3097997E+04  0.7818609E-02  0.8216288E-01
        2   -1    0    0  501    0  0.00000000000E+00  0.00000000000E+00  0.21039745799E+04  0.21039745799E+04  0.25500000920E-02 0.  1.
       -2   -1    0    0    0  501  0.00000000000E+00  0.00000000000E+00 -0.11404116396E+04  0.11404116396E+04  0.25500000920E-02 0. -1.
    10030    2    1    2    0    0  0.00000000000E+00  0.00000000000E+00  0.96356294035E+03  0.32443862195E+04  0.30979974825E+04 0.  0.
        1    1    3    3  502    0  0.12167057719E+04 -0.94443309720E+03  0.65408649437E+03  0.16733666521E+04  0.50400001928E-02 0. -1.
       -1    1    3    3    0  502 -0.12167057719E+04  0.94443309720E+03  0.30947644598E+03  0.15710195674E+04  0.50400001928E-02 0.  1.
</event>
<event>
 5   0  0.1875284E-07  0.3102728E+04  0.7818609E-02  0.8214990E-01
       -1   -1    0    0    0  501  0.00000000000E+00  0.00000000000E+00  0.10130463970E+04  0.10130463970E+04  0.50400001928E-02 0.  1.
        1   -1    0    0  501    0  0.00000000000E+00  0.00000000000E+00 -0.23757351662E+04  0.23757351662E+04  0.50400001928E-02 0. -1.
    10030    2    1    2    0    0  0.00000000000E+00  0.00000000000E+00 -0.13626887692E+04  0.33887815632E+04  0.31027278000E+04 0.  0.
        4    1    3    3  502    0 -0.41572229532E+03 -0.13475820184E+04  0.24728610022E+02  0.14104663910E+04  0.12699999809E+01 0.  1.
       -4    1    3    3    0  502  0.41572229532E+03  0.13475820184E+04 -0.13874173792E+04  0.19783151721E+04  0.12699999809E+01 0. -1.
</event>
<event>
 5   0  0.1830902E-07  0.3102979E+04  0.7818609E-02  0.8214921E-01
        1   -1    0    0  501    0  0.00000000000E+00  0.00000000000E+00  0.12674081102E+04  0.12674081102E+04  0.50400001928E-02 0.  1.
       -1   -1    0    0    0  501  0.00000000000E+00  0.00000000000E+00 -0.18992464926E+04  0.18992464926E+04  0.50400001928E-02 0. -1.
    10030    2    1    2    0    0  0.00000000000E+00  0.00000000000E+00 -0.63183838233E+03  0.31666546028E+04  0.31029794766E+04 0.  0.
        3    1    3    3  502    0  0.12539423389E+04  0.86299294177E+03 -0.97762813294E+01  0.15222430137E+04  0.10100000352E+00 0.  1.
       -3    1    3    3    0  502 -0.12539423389E+04 -0.86299294177E+03 -0.62206210100E+03  0.16444115891E+04  0.10100000352E+00 0. -1.
</event>
<event>
 5   0  0.1845123E-07  0.3095502E+04  0.7818609E-02  0.8216973E-01
        1   -1    0    0  501    0  0.00000000000E+00  0.00000000000E+00  0.27527928867E+04  0.27527928867E+04  0.50400001928E-02 0.  1.
       -1   -1    0    0    0  501  0.00000000000E+00  0.00000000000E+00 -0.87021904144E+03  0.87021904146E+03  0.50400001928E-02 0. -1.
    10030    2    1    2    0    0  0.00000000000E+00  0.00000000000E+00  0.18825738453E+04  0.36230119282E+04  0.30955017604E+04 0.  0.
        2    1    3    3  502    0  0.59264860854E+03 -0.25637914860E+02  0.26144614199E+04  0.26809136861E+04  0.25500000920E-02 0.  1.
       -2    1    3    3    0  502 -0.59264860854E+03  0.25637914860E+02 -0.73188757464E+03  0.94209824212E+03  0.25500000920E-02 0. -1.
</event>
<event>
 5   0  0.5154105E-07  0.3095029E+04  0.7818609E-02  0.8217103E-01
        2   -1    0    0  501    0  0.00000000000E+00  0.00000000000E+00  0.18415846379E+04  0.18415846379E+04  0.25500000920E-02 0.  1.
       -2   -1    0    0    0  501  0.00000000000E+00  0.00000000000E+00 -0.13004027799E+04  0.13004027799E+04  0.25500000920E-02 0. -1.
    10030    2    1    2    0    0  0.00000000000E+00  0.00000000000E+00  0.54118185799E+03  0.31419874178E+04  0.30950294232E+04 0.  0.
        1    1    3    3  502    0  0.41041423110E+01  0.66518761705E+02  0.18401271169E+04  0.18413335917E+04  0.50400001928E-02 0.  1.
       -1    1    3    3    0  502 -0.41041423110E+01 -0.66518761705E+02 -0.12989452589E+04  0.13006538261E+04  0.50400001928E-02 0. -1.
</event>
<event>
 5   0  0.5376678E-07  0.3101478E+04  0.7818609E-02  0.8215332E-01
        2   -1    0    0  501    0  0.00000000000E+00  0.00000000000E+00  0.16630888867E+04  0.16630888867E+04  0.25500000920E-02 0.  1.
       -2   -1    0    0    0  501  0.00000000000E+00  0.00000000000E+00 -0.14459793540E+04  0.14459793540E+04  0.25500000920E-02 0. -1.
    10030    2    1    2    0    0  0.00000000000E+00  0.00000000000E+00  0.21710953271E+03  0.31090682407E+04  0.31014784823E+04 0.  0.
        5    1    3    3  502    0  0.43408791158E+01  0.15303901702E+04 -0.14237196631E+03  0.15370116405E+04  0.46999998093E+01 0. -1.
       -5    1    3    3    0  502 -0.43408791158E+01 -0.15303901702E+04  0.35948149902E+03  0.15720566002E+04  0.46999998093E+01 0.  1.
</event>
<event>
 5   0  0.1814075E-07  0.3114118E+04  0.7818609E-02  0.8211874E-01
       -1   -1    0    0    0  501  0.00000000000E+00  0.00000000000E+00  0.11611759763E+04  0.11611759763E+04  0.50400001928E-02 0. -1.
        1   -1    0    0  501    0  0.00000000000E+00  0.00000000000E+00 -0.20879113928E+04  0.20879113928E+04  0.50400001928E-02 0.  1.
    10030    2    1    2    0    0  0.00000000000E+00  0.00000000000E+00 -0.92673541652E+03  0.32490873692E+04  0.31141178848E+04 0.  0.
        5    1    3    3  502    0 -0.91305761526E+03  0.93581666512E+03  0.41884706640E+03  0.13729100460E+04  0.46999998093E+01 0. -1.
       -5    1    3    3    0  502  0.91305761526E+03 -0.93581666512E+03 -0.13455824829E+04  0.18761773231E+04  0.46999998093E+01 0.  1.
</event>
<event>
 5   0  0.5248309E-07  0.3101622E+04  0.7818609E-02  0.8215293E-01
        2   -1    0    0  501    0  0.00000000000E+00  0.00000000000E+00  0.16864238975E+04  0.16864238975E+04  0.25500000920E-02 0.  1.
       -2   -1    0    0    0  501  0.00000000000E+00  0.00000000000E+00 -0.14261030481E+04  0.14261030481E+04  0.25500000920E-02 0. -1.
    10030    2    1    2    0    0  0.00000000000E+00  0.00000000000E+00  0.26032084937E+03  0.31125269457E+04  0.31016216795E+04 0.  0.
        4    1    3    3  502    0  0.88071919444E+03  0.68792049821E+03  0.12091672735E+04  0.16465078255E+04  0.12699999809E+01 0.  1.
       -4    1    3    3    0  502 -0.88071919444E+03 -0.68792049821E+03 -0.94884642409E+03  0.14660191202E+04  0.12699999809E+01 0. -1.
</event>
<event>
 5   0  0.1840359E-07  0.3105095E+04  0.7818609E-02  0.8214341E-01
       -1   -1    0    0    0  501  0.00000000000E+00  0.00000000000E+00  0.87386611962E+03  0.87386611963E+03  0.50400001928E-02 0.  1.
        1   -1    0    0  501    0  0.00000000000E+00  0.00000000000E+00 -0.27583221097E+04  0.27583221097E+04  0.50400001928E-02 0. -1.
    10030    2    1    2    0    0  0.00000000000E+00  0.00000000000E+00 -0.18844559901E+04  0.36321882293E+04  0.31050953213E+04 0.  0.
        1    1    3    3  502    0  0.14739836030E+04 -0.18824236675E+03 -0.14684097345E+04  0.20890883177E+04  0.50400001928E-02 0. -1.
       -1    1    3    3    0  502 -0.14739836030E+04  0.18824236675E+03 -0.41604625551E+03  0.15430999116E+04  0.50400001928E-02 0.  1.
</event>
<event>
 5   0  0.1814075E-07  0.3096367E+04  0.7818609E-02  0.8216736E-01
        1   -1    0    0  501    0  0.00000000000E+00  0.00000000000E+00  0.70801703348E+03  0.70801703350E+03  0.50400001928E-02 0. -1.
       -1   -1    0    0    0  501  0.00000000000E+00  0.00000000000E+00 -0.33853305936E+04  0.33853305936E+04  0.50400001928E-02 0.  1.
    10030    2    1    2    0    0  0.00000000000E+00  0.00000000000E+00 -0.26773135601E+04  0.40933476271E+04  0.30963667252E+04 0.  0.
        5    1    3    3  502    0 -0.10326179676E+04 -0.15525945125E+03 -0.28496818890E+04  0.30349817665E+04  0.46999998093E+01 0.  1.
       -5    1    3    3    0  502  0.10326179676E+04  0.15525945125E+03  0.17236832890E+03  0.10583658606E+04  0.46999998093E+01 0. -1.
</event>
<event>
 5   0  0.1845123E-07  0.3027544E+04  0.7818609E-02  0.8235909E-01
       -1   -1    0    0    0  501  0.00000000000E+00  0.00000000000E+00  0.10071350167E+04  0.10071350167E+04  0.50400001928E-02 0. -1.
        1   -1    0    0  501    0  0.00000000000E+00  0.00000000000E+00 -0.22752716945E+04  0.22752716946E+04  0.50400001928E-02 0.  1.
    10030    2    1    2    0    0  0.00000000000E+00  0.00000000000E+00 -0.12681366779E+04  0.32824067113E+04  0.30275440846E+04 0.  0.
        2    1    3    3  502    0 -0.14830866932E+04 -0.15143256115E+03 -0.34921976759E+03  0.15311539459E+04  0.25500000920E-02 0. -1.
       -2    1    3    3    0  502  0.14830866932E+04  0.15143256115E+03 -0.91891691028E+03  0.17512527653E+04  0.25500000920E-02 0.  1.
</event>
<event>
 5   0  0.1845123E-07  0.3097426E+04  0.7818609E-02  0.8216445E-01
       -1   -1    0    0    0  501  0.00000000000E+00  0.00000000000E+00  0.12366622926E+04  0.12366622926E+04  0.50400001928E-02 0.  1.
        1   -1    0    0  501    0  0.00000000000E+00  0.00000000000E+00 -0.19395046998E+04  0.19395046998E+04  0.50400001928E-02 0. -1.
    10030    2    1    2    0    0  0.00000000000E+00  0.00000000000E+00 -0.70284240715E+03  0.31761669924E+04  0.30974262403E+04 0.  0.
        2    1    3    3  502    0  0.11359087880E+04  0.76606575398E+03 -0.10918342236E+04  0.17519267924E+04  0.25500000920E-02 0. -1.
       -2    1    3    3    0  502 -0.11359087880E+04 -0.76606575398E+03  0.38899181649E+03  0.14242402000E+04  0.25500000920E-02 0.  1.
</event>
<event>
 5   0  0.1814075E-07  0.3099166E+04  0.7818609E-02  0.8215967E-01
        1   -1    0    0  501    0  0.00000000000E+00  0.00000000000E+00  0.18654598312E+04  0.18654598312E+04  0.50400001928E-02 0.  1.
       -1   -1    0    0    0  501  0.00000000000E+00  0.00000000000E+00 -0.12871935453E+04  0.12871935453E+04  0.50400001928E-02 0. -1.
    10030    2    1    2    0    0  0.00000000000E+00  0.00000000000E+00  0.57826628593E+03  0.31526533765E+04  0.30991662452E+04 0.  0.
        5    1    3    3  502    0  0.10867612474E+04  0.57742143469E+03  0.12470430440E+04  0.17520285288E+04  0.46999998093E+01 0.  1.
       -5    1    3    3    0  502 -0.10867612474E+04 -0.57742143469E+03 -0.66877675805E+03  0.14006248478E+04  0.46999998093E+01 0. -1.
</event>
<event>
 5   0  0.1814075E-07  0.3094860E+04  0.7818609E-02  0.8217150E-01
       -1   -1    0    0    0  501  0.00000000000E+00  0.00000000000E+00  0.10548840973E+04  0.10548840973E+04  0.50400001928E-02 0.  1.
        1   -1    0    0  501    0  0.00000000000E+00  0.00000000000E+00 -0.22699554398E+04  0.22699554398E+04  0.50400001928E-02 0. -1.
    10030    2    1    2    0    0  0.00000000000E+00  0.00000000000E+00 -0.12150713425E+04  0.33248395370E+04  0.30948601874E+04 0.  0.
        5    1    3    3  502    0 -0.53072896362E+03  0.14232994420E+04 -0.92452682673E+03  0.17782650190E+04  0.46999998093E+01 0. -1.
       -5    1    3    3    0  502  0.53072896362E+03 -0.14232994420E+04 -0.29054451579E+03  0.15465745181E+04  0.46999998093E+01 0.  1.
</event>
<event>
 5   0  0.1845123E-07  0.3097038E+04  0.7818609E-02  0.8216551E-01
        1   -1    0    0  501    0  0.00000000000E+00  0.00000000000E+00  0.20517585559E+04  0.20517585559E+04  0.50400001928E-02 0. -1.
       -1   -1    0    0    0  501  0.00000000000E+00  0.00000000000E+00 -0.11687103728E+04  0.11687103728E+04  0.50400001928E-02 0.  1.
    10030    2    1    2    0    0  0.00000000000E+00  0.00000000000E+00  0.88304818311E+03  0.32204689287E+04  0.30970382670E+04 0.  0.
        2    1    3    3  502    0  0.10228062911E+04 -0.82627478656E+03 -0.40902900834E+03  0.13770139657E+04  0.25500000920E-02 0.  1.
       -2    1    3    3    0  502 -0.10228062911E+04  0.82627478656E+03  0.12920771914E+04  0.18434549630E+04  0.25500000920E-02 0. -1.
</event>
<event>
 5   0  0.1845123E-07  0.3100524E+04  0.7818609E-02  0.8215594E-01
       -1   -1    0    0    0  501  0.00000000000E+00  0.00000000000E+00  0.13212933541E+04  0.13212933541E+04  0.50400001928E-02 0. -1.
        1   -1    0    0  501    0  0.00000000000E+00  0.00000000000E+00 -0.18189085561E+04  0.18189085561E+04  0.50400001928E-02 0.  1.
    10030    2    1    2    0    0  0.00000000000E+00  0.00000000000E+00 -0.49761520202E+03  0.31402019102E+04  0.31005236892E+04 0.  0.
        2    1    3    3  502    0  0.32395177857E+03  0.61907922536E+03  0.11527764553E+04  0.13479975512E+04  0.25500000920E-02 0. -1.
       -2    1    3    3    0  502 -0.32395177857E+03 -0.61907922536E+03 -0.16503916573E+04  0.17922043590E+04  0.25500000920E-02 0.  1.
</event>
<event>
 5   0  0.1727000E-07  0.3105569E+04  0.7818609E-02  0.8214211E-01
        4   -1    0    0  501    0  0.00000000000E+00  0.00000000000E+00  0.13710717626E+04  0.13710723508E+04  0.12699999809E+01 0. -1.
       -4   -1    0    0    0  501  0.00000000000E+00  0.00000000000E+00 -0.17585791529E+04  0.17585796115E+04  0.12699999809E+01 0.  1.
    10030    2    1    2    0    0  0.00000000000E+00  0.00000000000E+00 -0.38750739026E+03  0.31296519623E+04  0.31055690988E+04 0.  0.
        1    1    3    3  502    0 -0.11489417624E+04  0.75065520636E+03  0.53823250953E+03  0.14741928797E+04  0.50400001928E-02 0. -1.
       -1    1    3    3    0  502  0.11489417624E+04 -0.75065520636E+03 -0.92573989979E+03  0.16554590826E+04  0.50400001928E-02 0.  1.
</event>
<event>
 5   0  0.5154105E-07  0.3102921E+04  0.7818609E-02  0.8214937E-01
        2   -1    0    0  501    0  0.00000000000E+00  0.00000000000E+00  0.11024292675E+04  0.11024292675E+04  0.25500000920E-02 0.  1.
       -2   -1    0    0    0  501  0.00000000000E+00  0.00000000000E+00 -0.21833868912E+04  0.21833868912E+04  0.25500000920E-02 0. -1.
    10030    2    1    2    0    0  0.00000000000E+00  0.00000000000E+00 -0.10809576238E+04  0.32858161587E+04  0.31029209536E+04 0.  0.
        1    1    3    3  502    0 -0.46135201068E+03 -0.10173328084E+04  0.59965306009E+03  0.12678310271E+04  0.50400001928E-02 0.  1.
       -1    1    3    3    0  502  0.46135201068E+03  0.10173328084E+04 -0.16806106839E+04  0.20179851316E+04  0.50400001928E-02 0. -1.
</event>
<event>
 5   0  0.1814075E-07  0.3107962E+04  0.7818609E-02  0.8213556E-01
       -1   -1    0    0    0  501  0.00000000000E+00  0.00000000000E+00  0.20507822853E+04  0.20507822853E+04  0.50400001928E-02 0. -1.
        1   -1    0    0  501    0  0.00000000000E+00  0.00000000000E+00 -0.11775300173E+04  0.11775300174E+04  0.50400001928E-02 0.  1.
    10030    2    1    2    0    0  0.00000000000E+00  0.00000000000E+00  0.87325226796E+03  0.32283123027E+04  0.31079624837E+04 0.  0.
        5    1    3    3  502    0 -0.10708010875E+04 -0.17567073953E+03 -0.71881516240E+03  0.13016115032E+04  0.46999998093E+01 0.  1.
       -5    1    3    3    0  502  0.10708010875E+04  0.17567073953E+03  0.15920674304E+04  0.19267007994E+04  0.46999998093E+01 0. -1.
</event>
<event>
 5   0  0.1845123E-07  0.3114279E+04  0.7818609E-02  0.8211830E-01
       -1   -1    0    0    0  501  0.00000000000E+00  0.00000000000E+00  0.10199803626E+04  0.10199803627E+04  0.50400001928E-02 0. -1.
        1   -1    0    0  501    0  0.00000000000E+00  0.00000000000E+00 -0.23771858945E+04  0.23771858945E+04  0.50400001928E-02 0.  1.
    10030    2    1    2    0    0  0.00000000000E+00  0.00000000000E+00 -0.13572055319E+04  0.33971662572E+04  0.31142786843E+04 0.  0.
        2    1    3    3  502    0 -0.15169747217E+04 -0.30790449016E+03 -0.49391475399E+03  0.16247982230E+04  0.25500000920E-02 0. -1.
       -2    1    3    3    0  502  0.15169747217E+04  0.30790449016E+03 -0.86329077789E+03  0.17723680342E+04  0.25500000920E-02 0.  1.
</event>
<event>
 5   0  0.1840359E-07  0.3099193E+04  0.7818609E-02  0.8215959E-01
       -1   -1    0    0    0  501  0.00000000000E+00  0.00000000000E+00  0.11389741723E+04  0.11389741723E+04  0.50400001928E-02 0. -1.
        1   -1    0    0  501    0  0.00000000000E+00  0.00000000000E+00 -0.21082559405E+04  0.21082559405E+04  0.50400001928E-02 0.  1.
    10030    2    1    2    0    0  0.00000000000E+00  0.00000000000E+00 -0.96928176815E+03  0.32472301128E+04  0.30991928400E+04 0.  0.
        1    1    3    3  502    0  0.14927422095E+04  0.32080918888E+02 -0.50177026654E+02  0.14939297919E+04  0.50400001928E-02 0. -1.
       -1    1    3    3    0  502 -0.14927422095E+04 -0.32080918888E+02 -0.91910474150E+03  0.17533003209E+04  0.50400001928E-02 0.  1.
</event>
<event>
 5   0  0.5376678E-07  0.3093412E+04  0.7818609E-02  0.8217548E-01
       -2   -1    0    0    0  501  0.00000000000E+00  0.00000000000E+00  0.28931252590E+04  0.28931252590E+04  0.25500000920E-02 0.  1.
        2   -1    0    0  501    0  0.00000000000E+00  0.00000000000E+00 -0.82689097307E+03  0.82689097308E+03  0.25500000920E-02 0. -1.
    10030    2    1    2    0    0  0.00000000000E+00  0.00000000000E+00  0.20662342859E+04  0.37200162320E+04  0.30934118126E+04 0.  0.
        5    1    3    3  502    0  0.16193011747E+03  0.86342587628E+03  0.25639878361E+04  0.27103101889E+04  0.46999998093E+01 0.  1.
       -5    1    3    3    0  502 -0.16193011747E+03 -0.86342587628E+03 -0.49775355017E+03  0.10097060431E+04  0.46999998093E+01 0. -1.
</event>
<event>
 5   0  0.5376678E-07  0.3100718E+04  0.7818609E-02  0.8215541E-01
       -2   -1    0    0    0  501  0.00000000000E+00  0.00000000000E+00  0.30896955629E+04  0.30896955629E+04  0.25500000920E-02 0. -1.
        2   -1    0    0  501    0  0.00000000000E+00  0.00000000000E+00 -0.77794498296E+03  0.77794498296E+03  0.25500000920E-02 0.  1.
    10030    2    1    2    0    0  0.00000000000E+00  0.00000000000E+00  0.23117505799E+04  0.38676405458E+04  0.31007180859E+04 0.  0.
        5    1    3    3  502    0 -0.49460515396E+03  0.14215819918E+04  0.16193435995E+04  0.22108426903E+04  0.46999998093E+01 0. -1.
       -5    1    3    3    0  502  0.49460515396E+03 -0.14215819918E+04  0.69240698039E+03  0.16567978556E+04  0.46999998093E+01 0.  1.
</event>
<event>
 5   0  0.5248309E-07  0.3100424E+04  0.7818609E-02  0.8215621E-01
       -2   -1    0    0    0  501  0.00000000000E+00  0.00000000000E+00  0.18610076418E+04  0.18610076418E+04  0.25500000920E-02 0.  1.
        2   -1    0    0  501    0  0.00000000000E+00  0.00000000000E+00 -0.12913208330E+04  0.12913208330E+04  0.25500000920E-02 0. -1.
    10030    2    1    2    0    0  0.00000000000E+00  0.00000000000E+00  0.56968680881E+03  0.31523284749E+04  0.31004244473E+04 0.  0.
        4    1    3    3  502    0 -0.79712727499E+03 -0.95014188343E+03 -0.66076657832E+03  0.14052741993E+04  0.12699999809E+01 0. -1.
       -4    1    3    3    0  502  0.79712727499E+03  0.95014188343E+03  0.12304533871E+04  0.17470542756E+04  0.12699999809E+01 0.  1.
</event>
<event>
 5   0  0.1814075E-07  0.3098218E+04  0.7818609E-02  0.8216227E-01
        1   -1    0    0  501    0  0.00000000000E+00  0.00000000000E+00  0.19153363827E+04  0.19153363827E+04  0.50400001928E-02 0. -1.
       -1   -1    0    0    0  501  0.00000000000E+00  0.00000000000E+00 -0.12529067728E+04  0.12529067729E+04  0.50400001928E-02 0.  1.
    10030    2    1    2    0    0  0.00000000000E+00  0.00000000000E+00  0.66242960984E+03  0.31682431556E+04  0.30982175044E+04 0.  0.
        5    1    3    3  502    0  0.77474108194E+03  0.13373926333E+04  0.22458416313E+03  0.15618267945E+04  0.46999998093E+01 0. -1.
       -5    1    3    3    0  502 -0.77474108194E+03 -0.13373926333E+04  0.43784544671E+03  0.16064163610E+04  0.46999998093E+01 0.  1.
</event>
<event>
 5   0  0.5055900E-07  0.3103740E+04  0.7818609E-02  0.8214712E-01
        2   -1    0    0  501    0  0.00000000000E+00  0.00000000000E+00  0.26337749886E+04  0.26337749887E+04  0.25500000920E-02 0.  1.
       -2   -1    0    0    0  501  0.00000000000E+00  0.00000000000E+00 -0.91439101633E+03  0.91439101634E+03  0.25500000920E-02 0. -1.
    10030    2    1    2    0    0  0.00000000000E+00  0.00000000000E+00  0.17193839723E+04  0.35481660050E+04  0.31037398014E+04 0.  0.
        2    1    3    3  502    0  0.16835726455E+03 -0.14426797039E+04  0.23497073178E+03  0.14713531667E+04  0.25500000920E-02 0. -1.
       -2    1    3    3    0  502 -0.16835726455E+03  0.14426797039E+04  0.14844132405E+04  0.20768128383E+04  0.25500000920E-02 0.  1.
</event>
<event>
 5   0  0.1845123E-07  0.3113803E+04  0.7818609E-02  0.8211960E-01
        1   -1    0    0  501    0  0.00000000000E+00  0.00000000000E+00  0.27926436064E+04  0.27926436064E+04  0.50400001928E-02 0. -1.
       -1   -1    0    0    0  501  0.00000000000E+00  0.00000000000E+00 -0.86797405831E+03  0.86797405832E+03  0.50400001928E-02 0.  1.
    10030    2    1    2    0    0  0.00000000000E+00  0.00000000000E+00  0.19246695481E+04  0.36606176647E+04  0.31138029510E+04 0.  0.
        2    1    3    3  502    0 -0.28019023386E+02  0.53234453130E+03  0.26820099850E+04  0.27344749634E+04  0.25500000920E-02 0. -1.
       -2    1    3    3    0  502  0.28019023386E+02 -0.53234453130E+03 -0.75734043697E+03  0.92614270129E+03  0.25500000920E-02 0.  1.
</event>
<event>
 5   0  0.5055900E-07  0.3042965E+04  0.7818609E-02  0.8231567E-01
       -2   -1    0    0    0  501  0.00000000000E+00  0.00000000000E+00  0.11315305837E+04  0.11315305837E+04  0.25500000920E-02 0.  1.
        2   -1    0    0  501    0  0.00000000000E+00  0.00000000000E+00 -0.20458204214E+04  0.20458204214E+04  0.25500000920E-02 0. -1.
    10030    2    1    2    0    0  0.00000000000E+00  0.00000000000E+00 -0.91428983761E+03  0.31773510051E+04  0.30429645911E+04 0.  0.
        2    1    3    3  502    0  0.60655721453E+03 -0.17118470749E+03 -0.19031099240E+04  0.20047551575E+04  0.25500000920E-02 0. -1.
       -2    1    3    3    0  502 -0.60655721453E+03  0.17118470749E+03  0.98882008640E+03  0.11725958476E+04  0.25500000920E-02 0.  1.
</event>
<event>
 5   0  0.1814075E-07  0.3127691E+04  0.7818609E-02  0.8208179E-01
        1   -1    0    0  501    0  0.00000000000E+00  0.00000000000E+00  0.13210747173E+04  0.13210747173E+04  0.50400001928E-02 0.  1.
       -1   -1    0    0    0  501  0.00000000000E+00  0.00000000000E+00 -0.18512302047E+04  0.18512302047E+04  0.50400001928E-02 0. -1.
    10030    2    1    2    0    0  0.00000000000E+00  0.00000000000E+00 -0.53015548742E+03  0.31723049221E+04  0.31276914294E+04 0.  0.
        5    1    3    3  502    0  0.99963401433E+03  0.29640099114E+03  0.91708152095E+03  0.13885900461E+04  0.46999998093E+01 0.  1.
       -5    1    3    3    0  502 -0.99963401433E+03 -0.29640099114E+03 -0.14472370084E+04  0.17837148759E+04  0.46999998093E+01 0. -1.
</event>
<event>
 5   0  0.5248309E-07  0.3070576E+04  0.7818609E-02  0.8223860E-01
        2   -1    0    0  501    0  0.00000000000E+00  0.00000000000E+00  0.20715796465E+04  0.20715796465E+04  0.25500000920E-02 0.  1.
       -2   -1    0    0    0  501  0.00000000000E+00  0.00000000000E+00 -0.11378317413E+04  0.11378317413E+04  0.25500000920E-02 0. -1.
    10030    2    1    2    0    0  0.00000000000E+00  0.00000000000E+00  0.93374790523E+03  0.32094113878E+04  0.30705758915E+04 0.  0.
        4    1    3    3  502    0 -0.24682903433E+02  0.76198038355E+03  0.18597512650E+04  0.20099501813E+04  0.12699999809E+01 0.  1.
       -4    1    3    3    0  502  0.24682903433E+02 -0.76198038355E+03 -0.92600335981E+03  0.11994612065E+04  0.12699999809E+01 0. -1.
</event>
<event>
 5   0  0.1840359E-07  0.3097500E+04  0.7818609E-02  0.8216424E-01
       -1   -1    0    0    0  501  0.00000000000E+00  0.00000000000E+00  0.16128275580E+04  0.16128275580E+04  0.50400001928E-02 0. -1.
        1   -1    0    0  501    0  0.00000000000E+00  0.00000000000E+00 -0.14872179738E+04  0.14872179738E+04  0.50400001928E-02 0.  1.
    10030    2    1    2    0    0  0.00000000000E+00  0.00000000000E+00  0.12560958419E+03  0.31000455318E+04  0.30974997226E+04 0.  0.
        1    1    3    3  502    0  0.34915149870E+03  0.14956917354E+04 -0.13642060577E+03  0.15419504266E+04  0.50400001928E-02 0. -1.
       -1    1    3    3    0  502 -0.34915149870E+03 -0.14956917354E+04  0.26203018996E+03  0.15580951052E+04  0.50400001928E-02 0.  1.
</event>
<event>
 5   0  0.1814075E-07  0.3095687E+04  0.7818609E-02  0.8216923E-01
       -1   -1    0    0    0  501  0.00000000000E+00  0.00000000000E+00  0.20307460208E+04  0.20307460208E+04  0.50400001928E-02 0. -1.
        1   -1    0    0  501    0  0.00000000000E+00  0.00000000000E+00 -0.11797729485E+04  0.11797729485E+04  0.50400001928E-02 0.  1.
    10030    2    1    2    0    0  0.00000000000E+00  0.00000000000E+00  0.85097307229E+03  0.32105189693E+04  0.30956868192E+04 0.  0.
        5    1    3    3  502    0  0.23149151037E+03 -0.57524586045E+02 -0.11605895766E+04  0.11848576508E+04  0.46999998093E+01 0.  1.
       -5    1    3    3    0  502 -0.23149151037E+03  0.57524586045E+02  0.20115626488E+04  0.20256613186E+04  0.46999998093E+01 0. -1.
</event>
<event>
 5   0  0.1840359E-07  0.3101993E+04  0.7818609E-02  0.8215191E-01
       -1   -1    0    0    0  501  0.00000000000E+00  0.00000000000E+00  0.14614167886E+04  0.14614167886E+04  0.50400001928E-02 0.  1.
        1   -1    0    0  501    0  0.00000000000E+00  0.00000000000E+00 -0.16460666614E+04  0.16460666614E+04  0.50400001928E-02 0. -1.
    10030    2    1    2    0    0  0.00000000000E+00  0.00000000000E+00 -0.18464987282E+03  0.31074834500E+04  0.31019925558E+04 0.  0.
        1    1    3    3  502    0  0.12045888339E+03  0.54108511717E+01 -0.16413640608E+04  0.16457872280E+04  0.50400001928E-02 0. -1.
       -1    1    3    3    0  502 -0.12045888339E+03 -0.54108511717E+01  0.14567141880E+04  0.14616962220E+04  0.50400001928E-02 0.  1.
</event>
<event>
 5   0  0.5055900E-07  0.3099431E+04  0.7818609E-02  0.8215894E-01
       -2   -1    0    0    0  501  0.00000000000E+00  0.00000000000E+00  0.13063231363E+04  0.13063231363E+04  0.25500000920E-02 0.  1.
        2   -1    0    0  501    0  0.00000000000E+00  0.00000000000E+00 -0.18384561689E+04  0.18384561689E+04  0.25500000920E-02 0. -1.
    10030    2    1    2    0    0  0.00000000000E+00  0.00000000000E+00 -0.53213303268E+03  0.31447793052E+04  0.30994308048E+04 0.  0.
        2    1    3    3  502    0  0.11306624411E+04  0.93454839982E+03 -0.77321932138E+03  0.16582057732E+04  0.25500000920E-02 0. -1.
       -2    1    3    3    0  502 -0.11306624411E+04 -0.93454839982E+03  0.24108628870E+03  0.14865735320E+04  0.25500000920E-02 0.  1.
</event>
<event>
 5   0  0.5154105E-07  0.3097180E+04  0.7818609E-02  0.8216512E-01
       -2   -1    0    0    0  501  0.00000000000E+00  0.00000000000E+00  0.12335718234E+04  0.12335718234E+04  0.25500000920E-02 0.  1.
        2   -1    0    0  501    0  0.00000000000E+00  0.00000000000E+00 -0.19440547139E+04  0.19440547139E+04  0.25500000920E-02 0. -1.
    10030    2    1    2    0    0  0.00000000000E+00  0.00000000000E+00 -0.71048289053E+03  0.31776265373E+04  0.30971800840E+04 0.  0.
        1    1    3    3  502    0 -0.43809091117E+03  0.64787618328E+03  0.10160618540E+04  0.12822046976E+04  0.50400001928E-02 0.  1.
       -1    1    3    3    0  502  0.43809091117E+03 -0.64787618328E+03 -0.17265447446E+04  0.18954218397E+04  0.50400001928E-02 0. -1.
</event>
<event>
 5   0  0.1814075E-07  0.3102652E+04  0.7818609E-02  0.8215010E-01
       -1   -1    0    0    0  501  0.00000000000E+00  0.00000000000E+00  0.16620370606E+04  0.16620370606E+04  0.50400001928E-02 0.  1.
        1   -1    0    0  501    0  0.00000000000E+00  0.00000000000E+00 -0.14479897859E+04  0.14479897859E+04  0.50400001928E-02 0. -1.
    10030    2    1    2    0    0  0.00000000000E+00  0.00000000000E+00  0.21404727468E+03  0.31100268466E+04  0.31026522123E+04 0.  0.
        5    1    3    3  502    0 -0.17356792443E+03  0.15326849988E+04 -0.58721941814E+02  0.15436060010E+04  0.46999998093E+01 0. -1.
       -5    1    3    3    0  502  0.17356792443E+03 -0.15326849988E+04  0.27276921650E+03  0.15664208456E+04  0.46999998093E+01 0.  1.
</event>
<event>
 5   0  0.5376678E-07  0.3096274E+04  0.7818609E-02  0.8216761E-01
       -2   -1    0    0    0  501  0.00000000000E+00  0.00000000000E+00  0.11491457060E+04  0.11491457060E+04  0.25500000920E-02 0.  1.
        2   -1    0    0  501    0  0.00000000000E+00  0.00000000000E+00 -0.20856605413E+04  0.20856605413E+04  0.25500000920E-02 0. -1.
    10030    2    1    2    0    0  0.00000000000E+00  0.00000000000E+00 -0.93651483528E+03  0.32348062472E+04  0.30962737961E+04 0.  0.
        5    1    3    3  502    0 -0.69466678432E+03  0.37284639013E+03 -0.18602083411E+04  0.20203894511E+04  0.46999998093E+01 0. -1.
       -5    1    3    3    0  502  0.69466678432E+03 -0.37284639013E+03  0.92369350585E+03  0.12144167961E+04  0.46999998093E+01 0.  1.
</event>
<event>
 5   0  0.5376678E-07  0.3101586E+04  0.7818609E-02  0.8215303E-01
        2   -1    0    0  501    0  0.00000000000E+00  0.00000000000E+00  0.20973461110E+04  0.20973461110E+04  0.25500000920E-02 0.  1.
       -2   -1    0    0    0  501  0.00000000000E+00  0.00000000000E+00 -0.11466679951E+04  0.11466679951E+04  0.25500000920E-02 0. -1.
    10030    2    1    2    0    0  0.00000000000E+00  0.00000000000E+00  0.95067811595E+03  0.32440141061E+04  0.31015864715E+04 0.  0.
        5    1    3    3  502    0 -0.11077756661E+04  0.10255540880E+04  0.10406003765E+03  0.15132014721E+04  0.46999998093E+01 0. -1.
       -5    1    3    3    0  502  0.11077756661E+04 -0.10255540880E+04  0.84661807830E+03  0.17308126340E+04  0.46999998093E+01 0.  1.
</event>
<event>
 5   0  0.5376678E-07  0.3094304E+04  0.7818609E-02  0.8217303E-01
        2   -1    0    0  501    0  0.00000000000E+00  0.00000000000E+00  0.15011545869E+04  0.15011545869E+04  0.25500000920E-02 0.  1.
       -2   -1    0    0    0  501  0.00000000000E+00  0.00000000000E+00 -0.15945589460E+04  0.15945589460E+04  0.25500000920E-02 0. -1.
    10030    2    1    2    0    0  0.00000000000E+00  0.00000000000E+00 -0.93404359044E+02  0.30957135329E+04  0.30943041065E+04 0.  0.
        5    1    3    3  502    0 -0.12292849788E+04 -0.90993117165E+03 -0.28034889325E+03  0.15549063921E+04  0.46999998093E+01 0. -1.
       -5    1    3    3    0  502  0.12292849788E+04  0.90993117165E+03  0.18694453420E+03  0.15408071408E+04  0.46999998093E+01 0.  1.
</event>
<event>
 5   0  0.1840359E-07  0.3103308E+04  0.7818609E-02  0.8214831E-01
        1   -1    0    0  501    0  0.00000000000E+00  0.00000000000E+00  0.23714246992E+04  0.23714246992E+04  0.50400001928E-02 0. -1.
       -1   -1    0    0    0  501  0.00000000000E+00  0.00000000000E+00 -0.10152675039E+04  0.10152675039E+04  0.50400001928E-02 0.  1.
    10030    2    1    2    0    0  0.00000000000E+00  0.00000000000E+00  0.13561571953E+04  0.33866922031E+04  0.31033081929E+04 0.  0.
        1    1    3    3  502    0  0.14240183026E+04 -0.60509982422E+03  0.55054614514E+03  0.16422773765E+04  0.50400001928E-02 0. -1.
       -1    1    3    3    0  502 -0.14240183026E+04  0.60509982422E+03  0.80561105015E+03  0.17444148267E+04  0.50400001928E-02 0.  1.
</event>
<event>
 5   0  0.5248309E-07  0.3101158E+04  0.7818609E-02  0.8215420E-01
        2   -1    0    0  501    0  0.00000000000E+00  0.00000000000E+00  0.18539082965E+04  0.18539082965E+04  0.25500000920E-02 0. -1.
       -2   -1    0    0    0  501  0.00000000000E+00  0.00000000000E+00 -0.12968793138E+04  0.12968793139E+04  0.25500000920E-02 0.  1.
    10030    2    1    2    0    0  0.00000000000E+00  0.00000000000E+00  0.55702898265E+03  0.31507876104E+04  0.31011580543E+04 0.  0.
        4    1    3    3  502    0  0.29620425272E+03  0.17061372144E+03 -0.12581208416E+04  0.13037314394E+04  0.12699999809E+01 0.  1.
       -4    1    3    3    0  502 -0.29620425272E+03 -0.17061372144E+03  0.18151498242E+04  0.18470561709E+04  0.12699999809E+01 0. -1.
</event>
<event>
 5   0  0.1840359E-07  0.3106804E+04  0.7818609E-02  0.8213873E-01
        1   -1    0    0  501    0  0.00000000000E+00  0.00000000000E+00  0.26098920430E+04  0.26098920431E+04  0.50400001928E-02 0. -1.
       -1   -1    0    0    0  501  0.00000000000E+00  0.00000000000E+00 -0.92458124148E+03  0.92458124149E+03  0.50400001928E-02 0.  1.
    10030    2    1    2    0    0  0.00000000000E+00  0.00000000000E+00  0.16853108016E+04  0.35344732845E+04  0.31068036470E+04 0.  0.
        1    1    3    3  502    0 -0.24737915761E+03 -0.13959086966E+03 -0.89478574211E+03  0.93878835890E+03  0.50400001928E-02 0.  1.
       -1    1    3    3    0  502  0.24737915761E+03  0.13959086966E+03  0.25800965437E+04  0.25956849256E+04  0.50400001928E-02 0. -1.
</event>
<event>
 5   0  0.1840359E-07  0.3106105E+04  0.7818609E-02  0.8214065E-01
       -1   -1    0    0    0  501  0.00000000000E+00  0.00000000000E+00  0.17539818270E+04  0.17539818270E+04  0.50400001928E-02 0. -1.
        1   -1    0    0  501    0  0.00000000000E+00  0.00000000000E+00 -0.13751404894E+04  0.13751404894E+04  0.50400001928E-02 0.  1.
    10030    2    1    2    0    0  0.00000000000E+00  0.00000000000E+00  0.37884133761E+03  0.31291223164E+04  0.31061045880E+04 0.  0.
        1    1    3    3  502    0  0.35283088217E+03  0.67938218729E+03 -0.11718595468E+04  0.13997516156E+04  0.50400001928E-02 0.  1.
       -1    1    3    3    0  502 -0.35283088217E+03 -0.67938218729E+03  0.15507008844E+04  0.17293707008E+04  0.50400001928E-02 0. -1.
</event>
<event>
 5   0  0.1845123E-07  0.3096927E+04  0.7818609E-02  0.8216582E-01
       -1   -1    0    0    0  501  0.00000000000E+00  0.00000000000E+00  0.29654857091E+04  0.29654857091E+04  0.50400001928E-02 0. -1.
        1   -1    0    0  501    0  0.00000000000E+00  0.00000000000E+00 -0.80854865129E+03  0.80854865130E+03  0.50400001928E-02 0.  1.
    10030    2    1    2    0    0  0.00000000000E+00  0.00000000000E+00  0.21569370578E+04  0.37740343604E+04  0.30969271677E+04 0.  0.
        2    1    3    3  502    0  0.13898533773E+03 -0.12411763315E+04  0.21939746395E+04  0.25245515104E+04  0.25500000920E-02 0. -1.
       -2    1    3    3    0  502 -0.13898533773E+03  0.12411763315E+04 -0.37037581685E+02  0.12494828500E+04  0.25500000920E-02 0.  1.
</event>
<event>
 5   0  0.5248309E-07  0.3089228E+04  0.7818609E-02  0.8218701E-01
        2   -1    0    0  501    0  0.00000000000E+00  0.00000000000E+00  0.16254825835E+04  0.16254825835E+04  0.25500000920E-02 0.  1.
       -2   -1    0    0    0  501  0.00000000000E+00  0.00000000000E+00 -0.14677682642E+04  0.14677682642E+04  0.25500000920E-02 0. -1.
    10030    2    1    2    0    0  0.00000000000E+00  0.00000000000E+00  0.15771431933E+03  0.30932508477E+04  0.30892275734E+04 0.  0.
        4    1    3    3  502    0 -0.88228037570E+03 -0.10742112937E+04  0.75314458388E+03  0.15810050417E+04  0.12699999809E+01 0.  1.
       -4    1    3    3    0  502  0.88228037570E+03  0.10742112937E+04 -0.59543026456E+03  0.15122458060E+04  0.12699999809E+01 0. -1.
</event>
<event>
 5   0  0.1875284E-07  0.3102517E+04  0.7818609E-02  0.8215047E-01
       -1   -1    0    0    0  501  0.00000000000E+00  0.00000000000E+00  0.14394012861E+04  0.14394012862E+04  0.50400001928E-02 0.  1.
        1   -1    0    0  501    0  0.00000000000E+00  0.00000000000E+00 -0.16718082718E+04  0.16718082718E+04  0.50400001928E-02 0. -1.
    10030    2    1    2    0    0  0.00000000000E+00  0.00000000000E+00 -0.23240698567E+03  0.31112095580E+04  0.31025170276E+04 0.  0.
        4    1    3    3  502    0  0.59382824586E+03  0.57601643843E+02  0.13197482124E+04  0.14483393566E+04  0.12699999809E+01 0.  1.
       -4    1    3    3    0  502 -0.59382824586E+03 -0.57601643843E+02 -0.15521551980E+04  0.16628702014E+04  0.12699999809E+01 0. -1.
</event>
<event>
 5   0  0.1830902E-07  0.3102833E+04  0.7818609E-02  0.8214961E-01
        1   -1    0    0  501    0  0.00000000000E+00  0.00000000000E+00  0.19855461847E+04  0.19855461847E+04  0.50400001928E-02 0. -1.
       -1   -1    0    0    0  501  0.00000000000E+00  0.00000000000E+00 -0.12122071409E+04  0.12122071409E+04  0.50400001928E-02 0.  1.
    10030    2    1    2    0    0  0.00000000000E+00  0.00000000000E+00  0.77333904385E+03  0.31977533256E+04  0.31028330691E+04 0.  0.
        3    1    3    3  502    0 -0.12516527916E+04  0.12054478206E+03 -0.54982431093E+03  0.13723966403E+04  0.10100000352E+00 0.  1.
       -3    1    3    3    0  502  0.12516527916E+04 -0.12054478206E+03  0.13231633548E+04  0.18253566854E+04  0.10100000352E+00 0. -1.
</event>
<event>
 5   0  0.5154105E-07  0.3101562E+04  0.7818609E-02  0.8215309E-01
        2   -1    0    0  501    0  0.00000000000E+00  0.00000000000E+00  0.22940330776E+04  0.22940330776E+04  0.25500000920E-02 0. -1.
       -2   -1    0    0    0  501  0.00000000000E+00  0.00000000000E+00 -0.10483381696E+04  0.10483381696E+04  0.25500000920E-02 0.  1.
    10030    2    1    2    0    0  0.00000000000E+00  0.00000000000E+00  0.12456949080E+04  0.33423712471E+04  0.31015624691E+04 0.  0.
        1    1    3    3  502    0 -0.53349411293E+03 -0.50542849996E+03 -0.84877339377E+03  0.11227155522E+04  0.50400001928E-02 0.  1.
       -1    1    3    3    0  502  0.53349411293E+03  0.50542849996E+03  0.20944683018E+04  0.22196556950E+04  0.50400001928E-02 0. -1.
</event>
<event>
 5   0  0.5376678E-07  0.3098963E+04  0.7818609E-02  0.8216023E-01
        2   -1    0    0  501    0  0.00000000000E+00  0.00000000000E+00  0.20271439791E+04  0.20271439791E+04  0.25500000920E-02 0.  1.
       -2   -1    0    0    0  501  0.00000000000E+00  0.00000000000E+00 -0.11843720869E+04  0.11843720869E+04  0.25500000920E-02 0. -1.
    10030    2    1    2    0    0  0.00000000000E+00  0.00000000000E+00  0.84277189220E+03  0.32115160660E+04  0.30989628878E+04 0.  0.
        5    1    3    3  502    0 -0.50127054707E+03 -0.81851329243E+03 -0.83919560196E+03  0.12749539284E+04  0.46999998093E+01 0. -1.
       -5    1    3    3    0  502  0.50127054707E+03  0.81851329243E+03  0.16819674942E+04  0.19365621376E+04  0.46999998093E+01 0.  1.
</event>
<event>
 5   0  0.1875284E-07  0.3072029E+04  0.7818609E-02  0.8223457E-01
        1   -1    0    0  501    0  0.00000000000E+00  0.00000000000E+00  0.14816359258E+04  0.14816359259E+04  0.50400001928E-02 0. -1.
       -1   -1    0    0    0  501  0.00000000000E+00  0.00000000000E+00 -0.15923886323E+04  0.15923886323E+04  0.50400001928E-02 0.  1.
    10030    2    1    2    0    0  0.00000000000E+00  0.00000000000E+00 -0.11075270644E+03  0.30740245581E+04  0.30720287795E+04 0.  0.
        4    1    3    3  502    0 -0.66381132779E+03  0.13701277089E+04 -0.25908457767E+03  0.15443515949E+04  0.12699999809E+01 0. -1.
       -4    1    3    3    0  502  0.66381132779E+03 -0.13701277089E+04  0.14833187123E+03  0.15296729632E+04  0.12699999809E+01 0.  1.
</event>
<event>
 5   0  0.5248309E-07  0.3103646E+04  0.7818609E-02  0.8214738E-01
        2   -1    0    0  501    0  0.00000000000E+00  0.00000000000E+00  0.20658600718E+04  0.20658600718E+04  0.25500000920E-02 0.  1.
       -2   -1    0    0    0  501  0.00000000000E+00  0.00000000000E+00 -0.11656912814E+04  0.11656912814E+04  0.25500000920E-02 0. -1.
    10030    2    1    2    0    0  0.00000000000E+00  0.00000000000E+00  0.90016879042E+03  0.32315513531E+04  0.31036462905E+04 0.  0.
        4    1    3    3  502    0  0.13077721794E+04  0.15220002208E+03 -0.40518081612E+03  0.13775362161E+04  0.12699999809E+01 0. -1.
       -4    1    3    3    0  502 -0.13077721794E+04 -0.15220002208E+03  0.13053496065E+04  0.18540151370E+04  0.12699999809E+01 0.  1.
</event>
<event>
 5   0  0.5055900E-07  0.3068495E+04  0.7818609E-02  0.8224438E-01
       -2   -1    0    0    0  501  0.00000000000E+00  0.00000000000E+00  0.20333549372E+04  0.20333549372E+04  0.25500000920E-02 0. -1.
        2   -1    0    0  501    0  0.00000000000E+00  0.00000000000E+00 -0.11576512205E+04  0.11576512205E+04  0.25500000920E-02 0.  1.
    10030    2    1    2    0    0  0.00000000000E+00  0.00000000000E+00  0.87570371671E+03  0.31910061576E+04  0.30684952825E+04 0.  0.
        2    1    3    3  502    0 -0.37318471668E+03 -0.59511688991E+03  0.18563058529E+04  0.19847675846E+04  0.25500000920E-02 0. -1.
       -2    1    3    3    0  502  0.37318471668E+03  0.59511688991E+03 -0.98060213621E+03  0.12062385730E+04  0.25500000920E-02 0.  1.
</event>
<event>
 5   0  0.1840359E-07  0.3098909E+04  0.7818609E-02  0.8216037E-01
        1   -1    0    0  501    0  0.00000000000E+00  0.00000000000E+00  0.16046276191E+04  0.16046276191E+04  0.50400001928E-02 0.  1.
       -1   -1    0    0    0  501  0.00000000000E+00  0.00000000000E+00 -0.14961787716E+04  0.14961787716E+04  0.50400001928E-02 0. -1.
    10030    2    1    2    0    0  0.00000000000E+00  0.00000000000E+00  0.10844884746E+03  0.31008063907E+04  0.30989093437E+04 0.  0.
        1    1    3    3  502    0  0.56733373105E+03 -0.11890708789E+04  0.87023126023E+03  0.15789425460E+04  0.50400001928E-02 0.  1.
       -1    1    3    3    0  502 -0.56733373105E+03  0.11890708789E+04 -0.76178241277E+03  0.15218638447E+04  0.50400001928E-02 0. -1.
</event>
<event>
 5   0  0.5055900E-07  0.3098870E+04  0.7818609E-02  0.8216048E-01
        2   -1    0    0  501    0  0.00000000000E+00  0.00000000000E+00  0.21091694548E+04  0.21091694548E+04  0.25500000920E-02 0. -1.
       -2   -1    0    0    0  501  0.00000000000E+00  0.00000000000E+00 -0.11382434701E+04  0.11382434701E+04  0.25500000920E-02 0.  1.
    10030    2    1    2    0    0  0.00000000000E+00  0.00000000000E+00  0.97092598464E+03  0.32474129249E+04  0.30988697032E+04 0.  0.
        2    1    3    3  502    0 -0.72562273747E+03  0.10261042835E+04  0.14351774346E+04  0.19076563177E+04  0.25500000920E-02 0. -1.
       -2    1    3    3    0  502  0.72562273747E+03 -0.10261042835E+04 -0.46425144997E+03  0.13397566072E+04  0.25500000920E-02 0.  1.
</event>
<event>
 5   0  0.1845123E-07  0.3102147E+04  0.7818609E-02  0.8215149E-01
       -1   -1    0    0    0  501  0.00000000000E+00  0.00000000000E+00  0.18259421470E+04  0.18259421470E+04  0.50400001928E-02 0. -1.
        1   -1    0    0  501    0  0.00000000000E+00  0.00000000000E+00 -0.13175826361E+04  0.13175826361E+04  0.50400001928E-02 0.  1.
    10030    2    1    2    0    0  0.00000000000E+00  0.00000000000E+00  0.50835951095E+03  0.31435247831E+04  0.31021474288E+04 0.  0.
        2    1    3    3  502    0  0.12745824738E+04  0.43385860992E+03  0.10345396550E+04  0.16979593852E+04  0.25500000920E-02 0. -1.
       -2    1    3    3    0  502 -0.12745824738E+04 -0.43385860992E+03 -0.52618014405E+03  0.14455653980E+04  0.25500000920E-02 0.  1.
</event>
<event>
 5   0  0.1875284E-07  0.3102993E+04  0.7818609E-02  0.8214917E-01
        1   -1    0    0  501    0  0.00000000000E+00  0.00000000000E+00  0.12461420830E+04  0.12461420830E+04  0.50400001928E-02 0.  1.
       -1   -1    0    0    0  501  0.00000000000E+00  0.00000000000E+00 -0.19316745572E+04  0.19316745572E+04  0.50400001928E-02 0. -1.
    10030    2    1    2    0    0  0.00000000000E+00  0.00000000000E+00 -0.68553247413E+03  0.31778166402E+04  0.31029927208E+04 0.  0.
        4    1    3    3  502    0 -0.42623713444E+03  0.88251782845E+02 -0.18678609657E+04  0.19179084107E+04  0.12699999809E+01 0. -1.
       -4    1    3    3    0  502  0.42623713444E+03 -0.88251782845E+02  0.11823284915E+04  0.12599082295E+04  0.12699999809E+01 0.  1.
</event>
<event>
 5   0  0.5154105E-07  0.3114629E+04  0.7818609E-02  0.8211735E-01
       -2   -1    0    0    0  501  0.00000000000E+00  0.00000000000E+00  0.92949000703E+03  0.92949000703E+03  0.25500000920E-02 0. -1.
        2   -1    0    0  501    0  0.00000000000E+00  0.00000000000E+00 -0.26092034283E+04  0.26092034283E+04  0.25500000920E-02 0.  1.
    10030    2    1    2    0    0  0.00000000000E+00  0.00000000000E+00 -0.16797134212E+04  0.35386934353E+04  0.31146290392E+04 0.  0.
        1    1    3    3  502    0 -0.12343458820E+04 -0.94892367876E+03 -0.87859614789E+03  0.17877351861E+04  0.50400001928E-02 0. -1.
       -1    1    3    3    0  502  0.12343458820E+04  0.94892367876E+03 -0.80111727334E+03  0.17509582492E+04  0.50400001928E-02 0.  1.
</event>
<event>
 5   0  0.5055900E-07  0.3094042E+04  0.7818609E-02  0.8217375E-01
       -2   -1    0    0    0  501  0.00000000000E+00  0.00000000000E+00  0.11277096141E+04  0.11277096141E+04  0.25500000920E-02 0.  1.
        2   -1    0    0  501    0  0.00000000000E+00  0.00000000000E+00 -0.21222434594E+04  0.21222434594E+04  0.25500000920E-02 0. -1.
    10030    2    1    2    0    0  0.00000000000E+00  0.00000000000E+00 -0.99453384530E+03  0.32499530734E+04  0.30940422444E+04 0.  0.
        2    1    3    3  502    0  0.12361183798E+04  0.85246400782E+02 -0.14702364565E+04  0.19227196456E+04  0.25500000920E-02 0. -1.
       -2    1    3    3    0  502 -0.12361183798E+04 -0.85246400782E+02  0.47570261119E+03  0.13272334278E+04  0.25500000920E-02 0.  1.
</event>
<event>
 5   0  0.1840359E-07  0.3100313E+04  0.7818609E-02  0.8215652E-01
        1   -1    0    0  501    0  0.00000000000E+00  0.00000000000E+00  0.17165463583E+04  0.17165463583E+04  0.50400001928E-02 0. -1.
       -1   -1    0    0    0  501  0.00000000000E+00  0.00000000000E+00 -0.13998953453E+04  0.13998953453E+04  0.50400001928E-02 0.  1.
    10030    2    1    2    0    0  0.00000000000E+00  0.00000000000E+00  0.31665101302E+03  0.31164417036E+04  0.31003130532E+04 0.  0.
        1    1    3    3  502    0  0.11304122759E+04  0.78756152453E+03 -0.55593432161E+03  0.14856473466E+04  0.50400001928E-02 0.  1.
       -1    1    3    3    0  502 -0.11304122759E+04 -0.78756152453E+03  0.87258533463E+03  0.16307943570E+04  0.50400001928E-02 0. -1.
</event>
<event>
 5   0  0.1845123E-07  0.3099882E+04  0.7818609E-02  0.8215770E-01
       -1   -1    0    0    0  501  0.00000000000E+00  0.00000000000E+00  0.19509208107E+04  0.19509208107E+04  0.50400001928E-02 0. -1.
        1   -1    0    0  501    0  0.00000000000E+00  0.00000000000E+00 -0.12313759441E+04  0.12313759441E+04  0.50400001928E-02 0.  1.
    10030    2    1    2    0    0  0.00000000000E+00  0.00000000000E+00  0.71954486653E+03  0.31822967548E+04  0.30998819043E+04 0.  0.
        2    1    3    3  502    0  0.10322816763E+04 -0.10639248406E+04  0.82432455716E+03  0.16961876373E+04  0.25500000920E-02 0. -1.
       -2    1    3    3    0  502 -0.10322816763E+04  0.10639248406E+04 -0.10477969063E+03  0.14861091175E+04  0.25500000920E-02 0.  1.
</event>
<event>
 5   0  0.5154105E-07  0.3101720E+04  0.7818609E-02  0.8215266E-01
       -2   -1    0    0    0  501  0.00000000000E+00  0.00000000000E+00  0.20444280084E+04  0.20444280084E+04  0.25500000920E-02 0.  1.
        2   -1    0    0  501    0  0.00000000000E+00  0.00000000000E+00 -0.11764497936E+04  0.11764497936E+04  0.25500000920E-02 0. -1.
    10030    2    1    2    0    0  0.00000000000E+00  0.00000000000E+00  0.86797821479E+03  0.32208778020E+04  0.31017201090E+04 0.  0.
        1    1    3    3  502    0 -0.53736594782E+03 -0.56441333036E+03  0.18263359828E+04  0.19856554816E+04  0.50400001928E-02 0.  1.
       -1    1    3    3    0  502  0.53736594782E+03  0.56441333036E+03 -0.95835776804E+03  0.12352223205E+04  0.50400001928E-02 0. -1.
</event>
<event>
 5   0  0.1845123E-07  0.3098111E+04  0.7818609E-02  0.8216256E-01
        1   -1    0    0  501    0  0.00000000000E+00  0.00000000000E+00  0.22053576812E+04  0.22053576812E+04  0.50400001928E-02 0. -1.
       -1   -1    0    0    0  501  0.00000000000E+00  0.00000000000E+00 -0.10880654252E+04  0.10880654252E+04  0.50400001928E-02 0.  1.
    10030    2    1    2    0    0  0.00000000000E+00  0.00000000000E+00  0.11172922560E+04  0.32934231064E+04  0.30981113235E+04 0.  0.
        2    1    3    3  502    0  0.80687634745E+03 -0.16745013154E+03  0.19530092427E+04  0.21197485909E+04  0.25500000920E-02 0. -1.
       -2    1    3    3    0  502 -0.80687634745E+03  0.16745013154E+03 -0.83571698666E+03  0.11736745155E+04  0.25500000920E-02 0.  1.
</event>
<event>
 5   0  0.1830902E-07  0.3097295E+04  0.7818609E-02  0.8216481E-01
       -1   -1    0    0    0  501  0.00000000000E+00  0.00000000000E+00  0.19224246788E+04  0.19224246788E+04  0.50400001928E-02 0.  1.
        1   -1    0    0  501    0  0.00000000000E+00  0.00000000000E+00 -0.12475436674E+04  0.12475436674E+04  0.50400001928E-02 0. -1.
    10030    2    1    2    0    0  0.00000000000E+00  0.00000000000E+00  0.67488101137E+03  0.31699683462E+04  0.30972947771E+04 0.  0.
        3    1    3    3  502    0  0.83889067458E+02 -0.70773742506E+03  0.17446113792E+04  0.18845685218E+04  0.10100000352E+00 0.  1.
       -3    1    3    3    0  502 -0.83889067458E+02  0.70773742506E+03 -0.10697303679E+04  0.12853998244E+04  0.10100000352E+00 0. -1.
</event>
<event>
 5   0  0.5248309E-07  0.3066820E+04  0.7818609E-02  0.8224903E-01
        2   -1    0    0  501    0  0.00000000000E+00  0.00000000000E+00  0.14440154860E+04  0.14440154860E+04  0.25500000920E-02 0.  1.
       -2   -1    0    0    0  501  0.00000000000E+00  0.00000000000E+00 -0.16283391502E+04  0.16283391502E+04  0.25500000920E-02 0. -1.
    10030    2    1    2    0    0  0.00000000000E+00  0.00000000000E+00 -0.18432366427E+03  0.30723546362E+04  0.30668204704E+04 0.  0.
        4    1    3    3  502    0 -0.19193069415E+03 -0.15202018505E+04 -0.32942736939E+02  0.15326245119E+04  0.12699999809E+01 0.  1.
       -4    1    3    3    0  502  0.19193069415E+03  0.15202018505E+04 -0.15138092733E+03  0.15397301243E+04  0.12699999809E+01 0. -1.
</event>
<event>
 5   0  0.5248309E-07  0.3103524E+04  0.7818609E-02  0.8214771E-01
        2   -1    0    0  501    0  0.00000000000E+00  0.00000000000E+00  0.13327567263E+04  0.13327567263E+04  0.25500000920E-02 0.  1.
       -2   -1    0    0    0  501  0.00000000000E+00  0.00000000000E+00 -0.18067557961E+04  0.18067557961E+04  0.25500000920E-02 0. -1.
    10030    2    1    2    0    0  0.00000000000E+00  0.00000000000E+00 -0.47399906979E+03  0.31395125224E+04  0.31035244094E+04 0.  0.
        4    1    3    3  502    0  0.32433268820E+03 -0.26591315516E+03  0.12743338005E+04  0.13415773353E+04  0.12699999809E+01 0.  1.
       -4    1    3    3    0  502 -0.32433268820E+03  0.26591315516E+03 -0.17483328703E+04  0.17979351871E+04  0.12699999809E+01 0. -1.
</event>
<event>
 5   0  0.5248309E-07  0.3095812E+04  0.7818609E-02  0.8216888E-01
        2   -1    0    0  501    0  0.00000000000E+00  0.00000000000E+00  0.20298898330E+04  0.20298898330E+04  0.25500000920E-02 0.  1.
       -2   -1    0    0    0  501  0.00000000000E+00  0.00000000000E+00 -0.11803662517E+04  0.11803662517E+04  0.25500000920E-02 0. -1.
    10030    2    1    2    0    0  0.00000000000E+00  0.00000000000E+00  0.84952358129E+03  0.32102560848E+04  0.30958123029E+04 0.  0.
        4    1    3    3  502    0 -0.79721410736E+03 -0.13147971344E+04  0.60959231054E+03  0.16540393694E+04  0.12699999809E+01 0. -1.
       -4    1    3    3    0  502  0.79721410736E+03  0.13147971344E+04  0.23993127074E+03  0.15562167154E+04  0.12699999809E+01 0.  1.
</event>
<event>
 5   0  0.5342534E-07  0.3101909E+04  0.7818609E-02  0.8215214E-01
       -2   -1    0    0    0  501  0.00000000000E+00  0.00000000000E+00  0.12659968696E+04  0.12659968696E+04  0.25500000920E-02 0.  1.
        2   -1    0    0  501    0  0.00000000000E+00  0.00000000000E+00 -0.19000522038E+04  0.19000522038E+04  0.25500000920E-02 0. -1.
    10030    2    1    2    0    0  0.00000000000E+00  0.00000000000E+00 -0.63405533419E+03  0.31660490734E+04  0.31019091812E+04 0.  0.
        3    1    3    3  502    0 -0.11800255352E+04  0.10052700237E+04 -0.26669214317E+03  0.15729439894E+04  0.10100000352E+00 0.  1.
       -3    1    3    3    0  502  0.11800255352E+04 -0.10052700237E+04 -0.36736319102E+03  0.15931050840E+04  0.10100000352E+00 0. -1.
</event>
<event>
 5   0  0.1840359E-07  0.3103901E+04  0.7818609E-02  0.8214668E-01
        1   -1    0    0  501    0  0.00000000000E+00  0.00000000000E+00  0.12917972122E+04  0.12917972122E+04  0.50400001928E-02 0.  1.
       -1   -1    0    0    0  501  0.00000000000E+00  0.00000000000E+00 -0.18644951714E+04  0.18644951715E+04  0.50400001928E-02 0. -1.
    10030    2    1    2    0    0  0.00000000000E+00  0.00000000000E+00 -0.57269795922E+03  0.31562923837E+04  0.31039005556E+04 0.  0.
        1    1    3    3  502    0 -0.10420298522E+04 -0.91888837181E+03 -0.98966468033E+03  0.17057603091E+04  0.50400001928E-02 0. -1.
       -1    1    3    3    0  502  0.10420298522E+04  0.91888837181E+03  0.41696672111E+03  0.14505320745E+04  0.50400001928E-02 0.  1.
</event>
<event>
 5   0  0.5055900E-07  0.3111529E+04  0.7818609E-02  0.8212581E-01
       -2   -1    0    0    0  501  0.00000000000E+00  0.00000000000E+00  0.98430005163E+03  0.98430005163E+03  0.25500000920E-02 0.  1.
        2   -1    0    0  501    0  0.00000000000E+00  0.00000000000E+00 -0.24590095705E+04  0.24590095705E+04  0.25500000920E-02 0. -1.
    10030    2    1    2    0    0  0.00000000000E+00  0.00000000000E+00 -0.14747095189E+04  0.34433096221E+04  0.31115290436E+04 0.  0.
        2    1    3    3  502    0  0.10724589598E+04  0.10078652535E+04 -0.17914531699E+03  0.14825834325E+04  0.25500000920E-02 0.  1.
       -2    1    3    3    0  502 -0.10724589598E+04 -0.10078652535E+04 -0.12955642019E+04  0.19607261897E+04  0.25500000920E-02 0. -1.
</event>
<event>
 5   0  0.5154105E-07  0.3111411E+04  0.7818609E-02  0.8212613E-01
       -2   -1    0    0    0  501  0.00000000000E+00  0.00000000000E+00  0.12507845911E+04  0.12507845911E+04  0.25500000920E-02 0. -1.
        2   -1    0    0  501    0  0.00000000000E+00  0.00000000000E+00 -0.19349617288E+04  0.19349617288E+04  0.25500000920E-02 0.  1.
    10030    2    1    2    0    0  0.00000000000E+00  0.00000000000E+00 -0.68417713771E+03  0.31857463199E+04  0.31114114577E+04 0.  0.
        1    1    3    3  502    0  0.10101496799E+04 -0.57743864615E+03 -0.13994178466E+04  0.18199472726E+04  0.50400001928E-02 0.  1.
       -1    1    3    3    0  502 -0.10101496799E+04  0.57743864615E+03  0.71524070887E+03  0.13657990473E+04  0.50400001928E-02 0. -1.
</event>
<event>
 5   0  0.1845123E-07  0.3097772E+04  0.7818609E-02  0.8216349E-01
        1   -1    0    0  501    0  0.00000000000E+00  0.00000000000E+00  0.21627166112E+04  0.21627166112E+04  0.50400001928E-02 0.  1.
       -1   -1    0    0    0  501  0.00000000000E+00  0.00000000000E+00 -0.11092755162E+04  0.11092755163E+04  0.50400001928E-02 0. -1.
    10030    2    1    2    0    0  0.00000000000E+00  0.00000000000E+00  0.10534410949E+04  0.32719921274E+04  0.30977724806E+04 0.  0.
        2    1    3    3  502    0  0.81194181825E+03  0.55424541387E+03 -0.73751176764E+03  0.12289674945E+04  0.25500000920E-02 0. -1.
       -2    1    3    3    0  502 -0.81194181825E+03 -0.55424541387E+03  0.17909528626E+04  0.20430246330E+04  0.25500000920E-02 0.  1.
</event>
<event>
 5   0  0.1845123E-07  0.3110198E+04  0.7818609E-02  0.8212945E-01
       -1   -1    0    0    0  501  0.00000000000E+00  0.00000000000E+00  0.10162090517E+04  0.10162090517E+04  0.50400001928E-02 0. -1.
        1   -1    0    0  501    0  0.00000000000E+00  0.00000000000E+00 -0.23797599177E+04  0.23797599177E+04  0.50400001928E-02 0.  1.
    10030    2    1    2    0    0  0.00000000000E+00  0.00000000000E+00 -0.13635508660E+04  0.33959689694E+04  0.31101984305E+04 0.  0.
        2    1    3    3  502    0 -0.52977018541E+02  0.80917954453E+03  0.76708028272E+03  0.11162393381E+04  0.25500000920E-02 0. -1.
       -2    1    3    3    0  502  0.52977018541E+02 -0.80917954453E+03 -0.21306311488E+04  0.22797296313E+04  0.25500000920E-02 0.  1.
</event>
<event>
 5   0  0.5248309E-07  0.3101641E+04  0.7818609E-02  0.8215288E-01
        2   -1    0    0  501    0  0.00000000000E+00  0.00000000000E+00  0.22637377202E+04  0.22637377202E+04  0.25500000920E-02 0.  1.
       -2   -1    0    0    0  501  0.00000000000E+00  0.00000000000E+00 -0.10624214616E+04  0.10624214617E+04  0.25500000920E-02 0. -1.
    10030    2    1    2    0    0  0.00000000000E+00  0.00000000000E+00  0.12013162585E+04  0.33261591818E+04  0.31016405578E+04 0.  0.
        4    1    3    3  502    0 -0.16280130358E+03 -0.11222914131E+04 -0.53374270415E+03  0.12533655362E+04  0.12699999809E+01 0. -1.
       -4    1    3    3    0  502  0.16280130358E+03  0.11222914131E+04  0.17350589627E+04  0.20727936456E+04  0.12699999809E+01 0.  1.
</event>
<event>
 5   0  0.5248309E-07  0.3103523E+04  0.7818609E-02  0.8214772E-01
       -2   -1    0    0    0  501  0.00000000000E+00  0.00000000000E+00  0.13841531587E+04  0.13841531587E+04  0.25500000920E-02 0. -1.
        2   -1    0    0  501    0  0.00000000000E+00  0.00000000000E+00 -0.17396660652E+04  0.17396660652E+04  0.25500000920E-02 0.  1.
    10030    2    1    2    0    0  0.00000000000E+00  0.00000000000E+00 -0.35551290647E+03  0.31238192239E+04  0.31035233392E+04 0.  0.
        4    1    3    3  502    0 -0.33041661532E+02 -0.15513765322E+04 -0.18791055255E+03  0.15630652209E+04  0.12699999809E+01 0.  1.
       -4    1    3    3    0  502  0.33041661532E+02  0.15513765322E+04 -0.16760235392E+03  0.15607540031E+04  0.12699999809E+01 0. -1.
</event>
<event>
 5   0  0.5248309E-07  0.3099572E+04  0.7818609E-02  0.8215855E-01
       -2   -1    0    0    0  501  0.00000000000E+00  0.00000000000E+00  0.13758782202E+04  0.13758782202E+04  0.25500000920E-02 0.  1.
        2   -1    0    0  501    0  0.00000000000E+00  0.00000000000E+00 -0.17456758305E+04  0.17456758305E+04  0.25500000920E-02 0. -1.
    10030    2    1    2    0    0  0.00000000000E+00  0.00000000000E+00 -0.36979761030E+03  0.31215540507E+04  0.30995724575E+04 0.  0.
        4    1    3    3  502    0 -0.92467219814E+03 -0.51673333117E+03 -0.13242057700E+04  0.16957460139E+04  0.12699999809E+01 0. -1.
       -4    1    3    3    0  502  0.92467219814E+03  0.51673333117E+03  0.95440815972E+03  0.14258080368E+04  0.12699999809E+01 0.  1.
</event>
<event>
 5   0  0.1830902E-07  0.3101709E+04  0.7818609E-02  0.8215269E-01
        1   -1    0    0  501    0  0.00000000000E+00  0.00000000000E+00  0.18250928730E+04  0.18250928730E+04  0.50400001928E-02 0.  1.
       -1   -1    0    0    0  501  0.00000000000E+00  0.00000000000E+00 -0.13178233244E+04  0.13178233244E+04  0.50400001928E-02 0. -1.
    10030    2    1    2    0    0  0.00000000000E+00  0.00000000000E+00  0.50726954862E+03  0.31429161974E+04  0.31017091787E+04 0.  0.
        3    1    3    3  502    0 -0.14426790351E+04  0.32143843142E+03 -0.22218275560E+03  0.14946607142E+04  0.10100000352E+00 0.  1.
       -3    1    3    3    0  502  0.14426790351E+04 -0.32143843142E+03  0.72945230422E+03  0.16482554832E+04  0.10100000352E+00 0. -1.
</event>
<event>
 5   0  0.1814075E-07  0.3097906E+04  0.7818609E-02  0.8216313E-01
        1   -1    0    0  501    0  0.00000000000E+00  0.00000000000E+00  0.13279204116E+04  0.13279204116E+04  0.50400001928E-02 0.  1.
       -1   -1    0    0    0  501  0.00000000000E+00  0.00000000000E+00 -0.18067759885E+04  0.18067759885E+04  0.50400001928E-02 0. -1.
    10030    2    1    2    0    0  0.00000000000E+00  0.00000000000E+00 -0.47885557691E+03  0.31346964002E+04  0.30979055598E+04 0.  0.
        5    1    3    3  502    0 -0.32521949111E+03  0.99511745340E+03  0.91571021805E+03  0.13908895560E+04  0.46999998093E+01 0.  1.
       -5    1    3    3    0  502  0.32521949111E+03 -0.99511745340E+03 -0.13945657950E+04  0.17438068442E+04  0.46999998093E+01 0. -1.
</event>
<event>
 5   0  0.5055900E-07  0.3099288E+04  0.7818609E-02  0.8215933E-01
        2   -1    0    0  501    0  0.00000000000E+00  0.00000000000E+00  0.25101780079E+04  0.25101780079E+04  0.25500000920E-02 0.  1.
       -2   -1    0    0    0  501  0.00000000000E+00  0.00000000000E+00 -0.95666358171E+03  0.95666358171E+03  0.25500000920E-02 0. -1.
    10030    2    1    2    0    0  0.00000000000E+00  0.00000000000E+00  0.15535144262E+04  0.34668415896E+04  0.30992875851E+04 0.  0.
        2    1    3    3  502    0 -0.71203915313E+03 -0.59252524450E+03  0.21663856768E+04  0.23561224123E+04  0.25500000920E-02 0.  1.
       -2    1    3    3    0  502  0.71203915313E+03  0.59252524450E+03 -0.61287125065E+03  0.11107191773E+04  0.25500000920E-02 0. -1.
</event>
<event>
 5   0  0.1845123E-07  0.3094407E+04  0.7818609E-02  0.8217275E-01
        1   -1    0    0  501    0  0.00000000000E+00  0.00000000000E+00  0.13621378383E+04  0.13621378383E+04  0.50400001928E-02 0. -1.
       -1   -1    0    0    0  501  0.00000000000E+00  0.00000000000E+00 -0.17574126131E+04  0.17574126131E+04  0.50400001928E-02 0.  1.
    10030    2    1    2    0    0  0.00000000000E+00  0.00000000000E+00 -0.39527477478E+03  0.31195504513E+04  0.30944067074E+04 0.  0.
        2    1    3    3  502    0 -0.48426846296E+03 -0.14347442712E+04 -0.51775677676E+03  0.16003371981E+04  0.25500000920E-02 0.  1.
       -2    1    3    3    0  502  0.48426846296E+03  0.14347442712E+04  0.12248200198E+03  0.15192132532E+04  0.25500000920E-02 0. -1.
</event>
<event>
 5   0  0.1845123E-07  0.3103762E+04  0.7818609E-02  0.8214706E-01
        1   -1    0    0  501    0  0.00000000000E+00  0.00000000000E+00  0.10409409508E+04  0.10409409508E+04  0.50400001928E-02 0.  1.
       -1   -1    0    0    0  501  0.00000000000E+00  0.00000000000E+00 -0.23136127187E+04  0.23136127187E+04  0.50400001928E-02 0. -1.
    10030    2    1    2    0    0  0.00000000000E+00  0.00000000000E+00 -0.12726717678E+04  0.33545536695E+04  0.31037617327E+04 0.  0.
        2    1    3    3  502    0 -0.34550754495E+03 -0.86804832535E+03  0.70292237090E+03  0.11691805756E+04  0.25500000920E-02 0.  1.
       -2    1    3    3    0  502  0.34550754495E+03  0.86804832535E+03 -0.19755941387E+04  0.21853730940E+04  0.25500000920E-02 0. -1.
</event>
<event>
 5   0  0.1840359E-07  0.3100313E+04  0.7818609E-02  0.8215652E-01
        1   -1    0    0  501    0  0.00000000000E+00  0.00000000000E+00  0.24208480537E+04  0.24208480537E+04  0.50400001928E-02 0.  1.
       -1   -1    0    0    0  501  0.00000000000E+00  0.00000000000E+00 -0.99262121653E+03  0.99262121654E+03  0.50400001928E-02 0. -1.
    10030    2    1    2    0    0  0.00000000000E+00  0.00000000000E+00  0.14282268371E+04  0.34134692702E+04  0.31003129778E+04 0.  0.
        1    1    3    3  502    0  0.83866541634E+03 -0.12918485687E+04  0.90719121467E+03  0.17875201551E+04  0.50400001928E-02 0. -1.
       -1    1    3    3    0  502 -0.83866541634E+03  0.12918485687E+04  0.52103562245E+03  0.16259491151E+04  0.50400001928E-02 0.  1.
</event>
<event>
 5   0  0.5055900E-07  0.3106388E+04  0.7818609E-02  0.8213987E-01
        2   -1    0    0  501    0  0.00000000000E+00  0.00000000000E+00  0.13220311206E+04  0.13220311206E+04  0.25500000920E-02 0. -1.
       -2   -1    0    0    0  501  0.00000000000E+00  0.00000000000E+00 -0.18247766512E+04  0.18247766512E+04  0.25500000920E-02 0.  1.
    10030    2    1    2    0    0  0.00000000000E+00  0.00000000000E+00 -0.50274553064E+03  0.31468077718E+04  0.31063879481E+04 0.  0.
        2    1    3    3  502    0  0.93563551676E+03 -0.43466706615E+03  0.92479559894E+03  0.13854949218E+04  0.25500000920E-02 0. -1.
       -2    1    3    3    0  502 -0.93563551676E+03  0.43466706615E+03 -0.14275411296E+04  0.17613128499E+04  0.25500000920E-02 0.  1.
</event>
<event>
 5   0  0.5248309E-07  0.3100815E+04  0.7818609E-02  0.8215514E-01
        2   -1    0    0  501    0  0.00000000000E+00  0.00000000000E+00  0.20634750239E+04  0.20634750239E+04  0.25500000920E-02 0. -1.
       -2   -1    0    0    0  501  0.00000000000E+00  0.00000000000E+00 -0.11649100540E+04  0.11649100540E+04  0.25500000920E-02 0.  1.
    10030    2    1    2    0    0  0.00000000000E+00  0.00000000000E+00  0.89856496987E+03  0.32283850779E+04  0.31008146037E+04 0.  0.
        4    1    3    3  502    0 -0.10340717795E+04  0.87316999003E+03 -0.33816079251E+03  0.13950213658E+04  0.12699999809E+01 0.  1.
       -4    1    3    3    0  502  0.10340717795E+04 -0.87316999003E+03  0.12367257624E+04  0.18333637121E+04  0.12699999809E+01 0. -1.
</event>
<event>
 5   0  0.1840359E-07  0.3093046E+04  0.7818609E-02  0.8217649E-01
        1   -1    0    0  501    0  0.00000000000E+00  0.00000000000E+00  0.32487588569E+04  0.32487588569E+04  0.50400001928E-02 0.  1.
       -1   -1    0    0    0  501  0.00000000000E+00  0.00000000000E+00 -0.73619911296E+03  0.73619911297E+03  0.50400001928E-02 0. -1.
    10030    2    1    2    0    0  0.00000000000E+00  0.00000000000E+00  0.25125597440E+04  0.39849579699E+04  0.30930459995E+04 0.  0.
        1    1    3    3  502    0  0.64401586054E+03 -0.88205583564E+03  0.26669930089E+04  0.28819491036E+04  0.50400001928E-02 0.  1.
       -1    1    3    3    0  502 -0.64401586054E+03  0.88205583564E+03 -0.15443326499E+03  0.11030088663E+04  0.50400001928E-02 0. -1.
</event>
<event>
 5   0  0.5154105E-07  0.3060542E+04  0.7818609E-02  0.8226651E-01
       -2   -1    0    0    0  501  0.00000000000E+00  0.00000000000E+00  0.11334839631E+04  0.11334839631E+04  0.25500000920E-02 0.  1.
        2   -1    0    0  501    0  0.00000000000E+00  0.00000000000E+00 -0.20659569471E+04  0.20659569471E+04  0.25500000920E-02 0. -1.
    10030    2    1    2    0    0  0.00000000000E+00  0.00000000000E+00 -0.93247298395E+03  0.31994409102E+04  0.30605418265E+04 0.  0.
        1    1    3    3  502    0 -0.88247428881E+03 -0.12403501366E+04 -0.30260892308E+03  0.15520314082E+04  0.50400001928E-02 0. -1.
       -1    1    3    3    0  502  0.88247428881E+03  0.12403501366E+04 -0.62986406087E+03  0.16474095019E+04  0.50400001928E-02 0.  1.
</event>
<event>
 5   0  0.1845123E-07  0.3090873E+04  0.7818609E-02  0.8218247E-01
        1   -1    0    0  501    0  0.00000000000E+00  0.00000000000E+00  0.12452708740E+04  0.12452708740E+04  0.50400001928E-02 0.  1.
       -1   -1    0    0    0  501  0.00000000000E+00  0.00000000000E+00 -0.19179551619E+04  0.19179551619E+04  0.50400001928E-02 0. -1.
    10030    2    1    2    0    0  0.00000000000E+00  0.00000000000E+00 -0.67268428787E+03  0.31632260359E+04  0.30908728222E+04 0.  0.
        2    1    3    3  502    0 -0.11312023672E+04  0.21056276190E+03 -0.13921994817E+04  0.18061491824E+04  0.25500000920E-02 0. -1.
       -2    1    3    3    0  502  0.11312023672E+04 -0.21056276190E+03  0.71951519382E+03  0.13570768535E+04  0.25500000920E-02 0.  1.
</event>
<event>
 5   0  0.1840359E-07  0.3109409E+04  0.7818609E-02  0.8213160E-01
       -1   -1    0    0    0  501  0.00000000000E+00  0.00000000000E+00  0.16369361781E+04  0.16369361781E+04  0.50400001928E-02 0.  1.
        1   -1    0    0  501    0  0.00000000000E+00  0.00000000000E+00 -0.14766038437E+04  0.14766038437E+04  0.50400001928E-02 0. -1.
    10030    2    1    2    0    0  0.00000000000E+00  0.00000000000E+00  0.16033233440E+03  0.31135400219E+04  0.31094091095E+04 0.  0.
        1    1    3    3  502    0  0.21213804974E+03 -0.23353760474E+03 -0.14442110296E+04  0.14782719178E+04  0.50400001928E-02 0. -1.
       -1    1    3    3    0  502 -0.21213804974E+03  0.23353760474E+03  0.16045433640E+04  0.16352681040E+04  0.50400001928E-02 0.  1.
</event>
<event>
 5   0  0.1840359E-07  0.3098055E+04  0.7818609E-02  0.8216272E-01
       -1   -1    0    0    0  501  0.00000000000E+00  0.00000000000E+00  0.20151110433E+04  0.20151110433E+04  0.50400001928E-02 0.  1.
        1   -1    0    0  501    0  0.00000000000E+00  0.00000000000E+00 -0.11907465117E+04  0.11907465117E+04  0.50400001928E-02 0. -1.
    10030    2    1    2    0    0  0.00000000000E+00  0.00000000000E+00  0.82436453152E+03  0.32058575550E+04  0.30980551612E+04 0.  0.
        1    1    3    3  502    0 -0.59034341152E+03 -0.37239255772E+03  0.18431625251E+04  0.19708956478E+04  0.50400001928E-02 0.  1.
       -1    1    3    3    0  502  0.59034341152E+03  0.37239255772E+03 -0.10187979936E+04  0.12349619072E+04  0.50400001928E-02 0. -1.
</event>
<event>
 5   0  0.1840359E-07  0.3101441E+04  0.7818609E-02  0.8215343E-01
        1   -1    0    0  501    0  0.00000000000E+00  0.00000000000E+00  0.16811063935E+04  0.16811063935E+04  0.50400001928E-02 0. -1.
       -1   -1    0    0    0  501  0.00000000000E+00  0.00000000000E+00 -0.14304470861E+04  0.14304470861E+04  0.50400001928E-02 0.  1.
    10030    2    1    2    0    0  0.00000000000E+00  0.00000000000E+00  0.25065930739E+03  0.31115534796E+04  0.31014407890E+04 0.  0.
        1    1    3    3  502    0  0.46569505684E+03 -0.16737630033E+03  0.15997634340E+04  0.16745535992E+04  0.50400001928E-02 0. -1.
       -1    1    3    3    0  502 -0.46569505684E+03  0.16737630033E+03 -0.13491041266E+04  0.14369998804E+04  0.50400001928E-02 0.  1.
</event>
<event>
 5   0  0.1840359E-07  0.3098584E+04  0.7818609E-02  0.8216127E-01
       -1   -1    0    0    0  501  0.00000000000E+00  0.00000000000E+00  0.12075500807E+04  0.12075500807E+04  0.50400001928E-02 0. -1.
        1   -1    0    0  501    0  0.00000000000E+00  0.00000000000E+00 -0.19877482999E+04  0.19877483000E+04  0.50400001928E-02 0.  1.
    10030    2    1    2    0    0  0.00000000000E+00  0.00000000000E+00 -0.78019821928E+03  0.31952983806E+04  0.30985839475E+04 0.  0.
        1    1    3    3  502    0  0.12003597353E+04 -0.52004015554E+03  0.46586957772E+03  0.13886467229E+04  0.50400001928E-02 0. -1.
       -1    1    3    3    0  502 -0.12003597353E+04  0.52004015554E+03 -0.12460677970E+04  0.18066516577E+04  0.50400001928E-02 0.  1.
</event>
<event>
 5   0  0.1845123E-07  0.3071800E+04  0.7818609E-02  0.8223520E-01
       -1   -1    0    0    0  501  0.00000000000E+00  0.00000000000E+00  0.16045186531E+04  0.16045186532E+04  0.50400001928E-02 0.  1.
        1   -1    0    0  501    0  0.00000000000E+00  0.00000000000E+00 -0.14702161221E+04  0.14702161221E+04  0.50400001928E-02 0. -1.
    10030    2    1    2    0    0  0.00000000000E+00  0.00000000000E+00  0.13430253105E+03  0.30747347753E+04  0.30718002488E+04 0.  0.
        2    1    3    3  502    0 -0.78952118628E+03  0.71362965660E+03 -0.10413262794E+04  0.14889497676E+04  0.25500000920E-02 0. -1.
       -2    1    3    3    0  502  0.78952118628E+03 -0.71362965660E+03  0.11756288105E+04  0.15857850076E+04  0.25500000920E-02 0.  1.
</event>
<event>
 5   0  0.1840359E-07  0.3095726E+04  0.7818609E-02  0.8216912E-01
       -1   -1    0    0    0  501  0.00000000000E+00  0.00000000000E+00  0.19996492126E+04  0.19996492126E+04  0.50400001928E-02 0.  1.
        1   -1    0    0  501    0  0.00000000000E+00  0.00000000000E+00 -0.11981497408E+04  0.11981497408E+04  0.50400001928E-02 0. -1.
    10030    2    1    2    0    0  0.00000000000E+00  0.00000000000E+00  0.80149947182E+03  0.31977989534E+04  0.30957255600E+04 0.  0.
        1    1    3    3  502    0  0.38862109129E+02 -0.13012427084E+04 -0.46419814791E+03  0.13821080892E+04  0.50400001928E-02 0. -1.
       -1    1    3    3    0  502 -0.38862109129E+02  0.13012427084E+04  0.12656976197E+04  0.18156908642E+04  0.50400001928E-02 0.  1.
</event>
<event>
 5   0  0.5055900E-07  0.3095827E+04  0.7818609E-02  0.8216884E-01
       -2   -1    0    0    0  501  0.00000000000E+00  0.00000000000E+00  0.10397279234E+04  0.10397279234E+04  0.25500000920E-02 0. -1.
        2   -1    0    0  501    0  0.00000000000E+00  0.00000000000E+00 -0.23044841564E+04  0.23044841564E+04  0.25500000920E-02 0.  1.
    10030    2    1    2    0    0  0.00000000000E+00  0.00000000000E+00 -0.12647562330E+04  0.33442120798E+04  0.30958272087E+04 0.  0.
        2    1    3    3  502    0  0.19269529524E+03  0.14239177389E+04 -0.12542047458E+04  0.19072762643E+04  0.25500000920E-02 0. -1.
       -2    1    3    3    0  502 -0.19269529524E+03 -0.14239177389E+04 -0.10551487246E+02  0.14369358155E+04  0.25500000920E-02 0.  1.
</event>
<event>
 5   0  0.1845123E-07  0.3068931E+04  0.7818609E-02  0.8224317E-01
        1   -1    0    0  501    0  0.00000000000E+00  0.00000000000E+00  0.15637611907E+04  0.15637611907E+04  0.50400001928E-02 0. -1.
       -1   -1    0    0    0  501  0.00000000000E+00  0.00000000000E+00 -0.15057182522E+04  0.15057182522E+04  0.50400001928E-02 0.  1.
    10030    2    1    2    0    0  0.00000000000E+00  0.00000000000E+00  0.58042938492E+02  0.30694794430E+04  0.30689306066E+04 0.  0.
        2    1    3    3  502    0  0.10790713825E+04  0.69465441851E+03 -0.81234473221E+03  0.15188297382E+04  0.25500000920E-02 0.  1.
       -2    1    3    3    0  502 -0.10790713825E+04 -0.69465441851E+03  0.87038767070E+03  0.15506497048E+04  0.25500000920E-02 0. -1.
</event>
<event>
 5   0  0.1814075E-07  0.3089941E+04  0.7818609E-02  0.8218504E-01
        1   -1    0    0  501    0  0.00000000000E+00  0.00000000000E+00  0.25792937699E+04  0.25792937699E+04  0.50400001928E-02 0. -1.
       -1   -1    0    0    0  501  0.00000000000E+00  0.00000000000E+00 -0.92542132051E+03  0.92542132053E+03  0.50400001928E-02 0.  1.
    10030    2    1    2    0    0  0.00000000000E+00  0.00000000000E+00  0.16538724493E+04  0.35047150904E+04  0.30899407415E+04 0.  0.
        5    1    3    3  502    0 -0.38859081139E+03 -0.78474774056E+02 -0.86674112011E+03  0.95311246354E+03  0.46999998093E+01 0.  1.
       -5    1    3    3    0  502  0.38859081139E+03  0.78474774056E+02  0.25206135695E+04  0.25516026269E+04  0.46999998093E+01 0. -1.
</event>
<event>
 5   0  0.5154105E-07  0.3102387E+04  0.7818609E-02  0.8215083E-01
       -2   -1    0    0    0  501  0.00000000000E+00  0.00000000000E+00  0.13451142031E+04  0.13451142031E+04  0.25500000920E-02 0. -1.
        2   -1    0    0  501    0  0.00000000000E+00  0.00000000000E+00 -0.17888457124E+04  0.17888457124E+04  0.25500000920E-02 0.  1.
    10030    2    1    2    0    0  0.00000000000E+00  0.00000000000E+00 -0.44373150933E+03  0.31339599155E+04  0.31023873226E+04 0.  0.
        1    1    3    3  502    0  0.14004090747E+04 -0.37704600174E+03  0.33409186656E+03  0.14882629604E+04  0.50400001928E-02 0. -1.
       -1    1    3    3    0  502 -0.14004090747E+04  0.37704600174E+03 -0.77782337590E+03  0.16456969551E+04  0.50400001928E-02 0.  1.
</event>
<event>
 5   0  0.5154105E-07  0.3100718E+04  0.7818609E-02  0.8215541E-01
       -2   -1    0    0    0  501  0.00000000000E+00  0.00000000000E+00  0.27222626793E+04  0.27222626793E+04  0.25500000920E-02 0.  1.
        2   -1    0    0  501    0  0.00000000000E+00  0.00000000000E+00 -0.88294650082E+03  0.88294650082E+03  0.25500000920E-02 0. -1.
    10030    2    1    2    0    0  0.00000000000E+00  0.00000000000E+00  0.18393161785E+04  0.36052091801E+04  0.31007175344E+04 0.  0.
        1    1    3    3  502    0  0.73036124333E+03  0.72143904499E+03  0.22704503720E+04  0.24917557531E+04  0.50400001928E-02 0.  1.
       -1    1    3    3    0  502 -0.73036124333E+03 -0.72143904499E+03 -0.43113419348E+03  0.11134534271E+04  0.50400001928E-02 0. -1.
</event>
<event>
 5   0  0.5055900E-07  0.3104716E+04  0.7818609E-02  0.8214445E-01
        2   -1    0    0  501    0  0.00000000000E+00  0.00000000000E+00  0.25358863166E+04  0.25358863166E+04  0.25500000920E-02 0.  1.
       -2   -1    0    0    0  501  0.00000000000E+00  0.00000000000E+00 -0.95028549490E+03  0.95028549490E+03  0.25500000920E-02 0. -1.
    10030    2    1    2    0    0  0.00000000000E+00  0.00000000000E+00  0.15856008217E+04  0.34861718115E+04  0.31047164014E+04 0.  0.
        2    1    3    3  502    0  0.10836730865E+04  0.52933223961E+03 -0.30466612257E+03  0.12439298310E+04  0.25500000920E-02 0.  1.
       -2    1    3    3    0  502 -0.10836730865E+04 -0.52933223961E+03  0.18902669442E+04  0.22422419804E+04  0.25500000920E-02 0. -1.
</event>
<event>
 5   0  0.5376678E-07  0.3102752E+04  0.7818609E-02  0.8214983E-01
       -2   -1    0    0    0  501  0.00000000000E+00  0.00000000000E+00  0.10304334202E+04  0.10304334202E+04  0.25500000920E-02 0.  1.
        2   -1    0    0  501    0  0.00000000000E+00  0.00000000000E+00 -0.23356847443E+04  0.23356847443E+04  0.25500000920E-02 0. -1.
    10030    2    1    2    0    0  0.00000000000E+00  0.00000000000E+00 -0.13052513241E+04  0.33661181645E+04  0.31027520813E+04 0.  0.
        5    1    3    3  502    0  0.77457381020E+03 -0.66792520470E+03 -0.19181094625E+04  0.21737650900E+04  0.46999998093E+01 0. -1.
       -5    1    3    3    0  502 -0.77457381020E+03  0.66792520470E+03  0.61285813834E+03  0.11923530745E+04  0.46999998093E+01 0.  1.
</event>
<event>
 5   0  0.1875284E-07  0.3100311E+04  0.7818609E-02  0.8215653E-01
       -1   -1    0    0    0  501  0.00000000000E+00  0.00000000000E+00  0.11658582850E+04  0.11658582850E+04  0.50400001928E-02 0. -1.
        1   -1    0    0  501    0  0.00000000000E+00  0.00000000000E+00 -0.20611266299E+04  0.20611266299E+04  0.50400001928E-02 0.  1.
    10030    2    1    2    0    0  0.00000000000E+00  0.00000000000E+00 -0.89526834492E+03  0.32269849150E+04  0.31003106670E+04 0.  0.
        4    1    3    3  502    0  0.10999260164E+04  0.50577707441E+03  0.56008263374E+03  0.13339197353E+04  0.12699999809E+01 0. -1.
       -4    1    3    3    0  502 -0.10999260164E+04 -0.50577707441E+03 -0.14553509787E+04  0.18930651797E+04  0.12699999809E+01 0.  1.
</event>
<event>
 5   0  0.5154105E-07  0.3102127E+04  0.7818609E-02  0.8215154E-01
        2   -1    0    0  501    0  0.00000000000E+00  0.00000000000E+00  0.17980610829E+04  0.17980610829E+04  0.25500000920E-02 0.  1.
       -2   -1    0    0    0  501  0.00000000000E+00  0.00000000000E+00 -0.13379958337E+04  0.13379958337E+04  0.25500000920E-02 0. -1.
    10030    2    1    2    0    0  0.00000000000E+00  0.00000000000E+00  0.46006524926E+03  0.31360569166E+04  0.31021271655E+04 0.  0.
        1    1    3    3  502    0 -0.62618528947E+03  0.10007975372E+04  0.12470652243E+04  0.17172289891E+04  0.50400001928E-02 0.  1.
       -1    1    3    3    0  502  0.62618528947E+03 -0.10007975372E+04 -0.78699997503E+03  0.14188279275E+04  0.50400001928E-02 0. -1.
</event>
<event>
 5   0  0.1840359E-07  0.3101466E+04  0.7818609E-02  0.8215336E-01
       -1   -1    0    0    0  501  0.00000000000E+00  0.00000000000E+00  0.16154735114E+04  0.16154735114E+04  0.50400001928E-02 0.  1.
        1   -1    0    0  501    0  0.00000000000E+00  0.00000000000E+00 -0.14885870187E+04  0.14885870188E+04  0.50400001928E-02 0. -1.
    10030    2    1    2    0    0  0.00000000000E+00  0.00000000000E+00  0.12688649268E+03  0.31040605302E+04  0.31014660393E+04 0.  0.
        1    1    3    3  502    0  0.14109228598E+04  0.47762921269E+03 -0.36812498517E+03  0.15343887988E+04  0.50400001928E-02 0. -1.
       -1    1    3    3    0  502 -0.14109228598E+04 -0.47762921269E+03  0.49501147785E+03  0.15696717314E+04  0.50400001928E-02 0.  1.
</event>
<event>
 5   0  0.1845123E-07  0.3101890E+04  0.7818609E-02  0.8215219E-01
       -1   -1    0    0    0  501  0.00000000000E+00  0.00000000000E+00  0.17563703322E+04  0.17563703322E+04  0.50400001928E-02 0.  1.
        1   -1    0    0  501    0  0.00000000000E+00  0.00000000000E+00 -0.13695464401E+04  0.13695464401E+04  0.50400001928E-02 0. -1.
    10030    2    1    2    0    0  0.00000000000E+00  0.00000000000E+00  0.38682389213E+03  0.31259167724E+04  0.31018902212E+04 0.  0.
        2    1    3    3  502    0 -0.30468040737E+03 -0.14539073413E+04 -0.25585964444E+03  0.15073622210E+04  0.25500000920E-02 0.  1.
       -2    1    3    3    0  502  0.30468040737E+03  0.14539073413E+04  0.64268353657E+03  0.16185545514E+04  0.25500000920E-02 0. -1.
</event>
<event>
 5   0  0.1840359E-07  0.3095620E+04  0.7818609E-02  0.8216941E-01
        1   -1    0    0  501    0  0.00000000000E+00  0.00000000000E+00  0.18140863314E+04  0.18140863314E+04  0.50400001928E-02 0.  1.
       -1   -1    0    0    0  501  0.00000000000E+00  0.00000000000E+00 -0.13206186378E+04  0.13206186378E+04  0.50400001928E-02 0. -1.
    10030    2    1    2    0    0  0.00000000000E+00  0.00000000000E+00  0.49346769363E+03  0.31347049692E+04  0.30956202738E+04 0.  0.
        1    1    3    3  502    0  0.23420825323E+03 -0.42812386310E+03  0.17341473040E+04  0.18015022676E+04  0.50400001928E-02 0.  1.
       -1    1    3    3    0  502 -0.23420825323E+03  0.42812386310E+03 -0.12406796104E+04  0.13332027017E+04  0.50400001928E-02 0. -1.
</event>
<event>
 5   0  0.1814075E-07  0.3098257E+04  0.7818609E-02  0.8216216E-01
        1   -1    0    0  501    0  0.00000000000E+00  0.00000000000E+00  0.17848689649E+04  0.17848689649E+04  0.50400001928E-02 0.  1.
       -1   -1    0    0    0  501  0.00000000000E+00  0.00000000000E+00 -0.13445238164E+04  0.13445238164E+04  0.50400001928E-02 0. -1.
    10030    2    1    2    0    0  0.00000000000E+00  0.00000000000E+00  0.44034514859E+03  0.31293927813E+04  0.30982568212E+04 0.  0.
        5    1    3    3  502    0 -0.48463709771E+02 -0.11688289426E+04  0.12458911113E+04  0.17090279633E+04  0.46999998093E+01 0.  1.
       -5    1    3    3    0  502  0.48463709771E+02  0.11688289426E+04 -0.80554596270E+03  0.14203648180E+04  0.46999998093E+01 0. -1.
</event>
<event>
 5   0  0.1845123E-07  0.3098903E+04  0.7818609E-02  0.8216039E-01
        1   -1    0    0  501    0  0.00000000000E+00  0.00000000000E+00  0.12000830373E+04  0.12000830373E+04  0.50400001928E-02 0. -1.
       -1   -1    0    0    0  501  0.00000000000E+00  0.00000000000E+00 -0.20005284631E+04  0.20005284631E+04  0.50400001928E-02 0.  1.
    10030    2    1    2    0    0  0.00000000000E+00  0.00000000000E+00 -0.80044542578E+03  0.32006115003E+04  0.30989032086E+04 0.  0.
        2    1    3    3  502    0  0.39664685045E+03  0.42111147772E+03  0.10843602523E+04  0.12290243111E+04  0.25500000920E-02 0. -1.
       -2    1    3    3    0  502 -0.39664685045E+03 -0.42111147772E+03 -0.18848056781E+04  0.19715871892E+04  0.25500000920E-02 0.  1.
</event>
<event>
 5   0  0.5154105E-07  0.3093406E+04  0.7818609E-02  0.8217550E-01
        2   -1    0    0  501    0  0.00000000000E+00  0.00000000000E+00  0.17189454551E+04  0.17189454551E+04  0.25500000920E-02 0. -1.
       -2   -1    0    0    0  501  0.00000000000E+00  0.00000000000E+00 -0.13917194563E+04  0.13917194563E+04  0.25500000920E-02 0.  1.
    10030    2    1    2    0    0  0.00000000000E+00  0.00000000000E+00  0.32722599878E+03  0.31106649114E+04  0.30934057827E+04 0.  0.
        1    1    3    3  502    0 -0.74357318306E+03 -0.51294782409E+03  0.14261150578E+04  0.16881411988E+04  0.50400001928E-02 0. -1.
       -1    1    3    3    0  502  0.74357318306E+03  0.51294782409E+03 -0.10988890591E+04  0.14225237126E+04  0.50400001928E-02 0.  1.
</event>
<event>
 5   0  0.5342534E-07  0.3103504E+04  0.7818609E-02  0.8214777E-01
        2   -1    0    0  501    0  0.00000000000E+00  0.00000000000E+00  0.12082109067E+04  0.12082109067E+04  0.25500000920E-02 0.  1.
       -2   -1    0    0    0  501  0.00000000000E+00  0.00000000000E+00 -0.19929748751E+04  0.19929748751E+04  0.25500000920E-02 0. -1.
    10030    2    1    2    0    0  0.00000000000E+00  0.00000000000E+00 -0.78476396842E+03  0.32011857819E+04  0.31035038141E+04 0.  0.
        3    1    3    3  502    0  0.63132038637E+03  0.11209725830E+04  0.50256071726E+03  0.13811995680E+04  0.10100000352E+00 0.  1.
       -3    1    3    3    0  502 -0.63132038637E+03 -0.11209725830E+04 -0.12873246857E+04  0.18199862138E+04  0.10100000352E+00 0. -1.
</event>
<event>
 5   0  0.1840359E-07  0.3100179E+04  0.7818609E-02  0.8215689E-01
       -1   -1    0    0    0  501  0.00000000000E+00  0.00000000000E+00  0.15824909509E+04  0.15824909509E+04  0.50400001928E-02 0.  1.
        1   -1    0    0  501    0  0.00000000000E+00  0.00000000000E+00 -0.15183514759E+04  0.15183514759E+04  0.50400001928E-02 0. -1.
    10030    2    1    2    0    0  0.00000000000E+00  0.00000000000E+00  0.64139475029E+02  0.31008424268E+04  0.31001790083E+04 0.  0.
        1    1    3    3  502    0 -0.13878743993E+03 -0.91903892718E+03  0.12728524181E+04  0.15760862227E+04  0.50400001928E-02 0.  1.
       -1    1    3    3    0  502  0.13878743993E+03  0.91903892718E+03 -0.12087129431E+04  0.15247562041E+04  0.50400001928E-02 0. -1.
</event>
<event>
 5   0  0.1845123E-07  0.3099346E+04  0.7818609E-02  0.8215918E-01
       -1   -1    0    0    0  501  0.00000000000E+00  0.00000000000E+00  0.87004175829E+03  0.87004175831E+03  0.50400001928E-02 0. -1.
        1   -1    0    0  501    0  0.00000000000E+00  0.00000000000E+00 -0.27601958604E+04  0.27601958604E+04  0.50400001928E-02 0.  1.
    10030    2    1    2    0    0  0.00000000000E+00  0.00000000000E+00 -0.18901541021E+04  0.36302376187E+04  0.30993455178E+04 0.  0.
        2    1    3    3  502    0  0.13706319722E+04  0.72060750026E+03 -0.87500984879E+03  0.17786369523E+04  0.25500000920E-02 0.  1.
       -2    1    3    3    0  502 -0.13706319722E+04 -0.72060750026E+03 -0.10151442533E+04  0.18516006664E+04  0.25500000920E-02 0. -1.
</event>
<event>
 5   0  0.1840359E-07  0.3114605E+04  0.7818609E-02  0.8211741E-01
        1   -1    0    0  501    0  0.00000000000E+00  0.00000000000E+00  0.16110555590E+04  0.16110555590E+04  0.50400001928E-02 0.  1.
       -1   -1    0    0    0  501  0.00000000000E+00  0.00000000000E+00 -0.15053433301E+04  0.15053433301E+04  0.50400001928E-02 0. -1.
    10030    2    1    2    0    0  0.00000000000E+00  0.00000000000E+00  0.10571222887E+03  0.31163988891E+04  0.31146054261E+04 0.  0.
        1    1    3    3  502    0  0.13659179375E+04  0.74043281713E+03 -0.53125466733E+02  0.15546044140E+04  0.50400001928E-02 0. -1.
       -1    1    3    3    0  502 -0.13659179375E+04 -0.74043281713E+03  0.15883769560E+03  0.15617944751E+04  0.50400001928E-02 0.  1.
</event>
<event>
 5   0  0.1845123E-07  0.3130116E+04  0.7818609E-02  0.8207521E-01
       -1   -1    0    0    0  501  0.00000000000E+00  0.00000000000E+00  0.11004953402E+04  0.11004953402E+04  0.50400001928E-02 0.  1.
        1   -1    0    0  501    0  0.00000000000E+00  0.00000000000E+00 -0.22257307356E+04  0.22257307356E+04  0.50400001928E-02 0. -1.
    10030    2    1    2    0    0  0.00000000000E+00  0.00000000000E+00 -0.11252353954E+04  0.33262260758E+04  0.31301158465E+04 0.  0.
        2    1    3    3  502    0  0.31718885843E+03 -0.11399423620E+04 -0.16511646809E+04  0.20313596835E+04  0.25500000920E-02 0. -1.
       -2    1    3    3    0  502 -0.31718885843E+03  0.11399423620E+04  0.52592928550E+03  0.12948663923E+04  0.25500000920E-02 0.  1.
</event>
<event>
 5   0  0.1830902E-07  0.3106105E+04  0.7818609E-02  0.8214064E-01
       -1   -1    0    0    0  501  0.00000000000E+00  0.00000000000E+00  0.10342875310E+04  0.10342875310E+04  0.50400001928E-02 0.  1.
        1   -1    0    0  501    0  0.00000000000E+00  0.00000000000E+00 -0.23320137198E+04  0.23320137198E+04  0.50400001928E-02 0. -1.
    10030    2    1    2    0    0  0.00000000000E+00  0.00000000000E+00 -0.12977261888E+04  0.33663012509E+04  0.31061054152E+04 0.  0.
        3    1    3    3  502    0 -0.71625527821E+03 -0.10128956537E+04  0.36374707876E+03  0.12927842729E+04  0.10100000352E+00 0.  1.
       -3    1    3    3    0  502  0.71625527821E+03  0.10128956537E+04 -0.16614732676E+04  0.20735169779E+04  0.10100000352E+00 0. -1.
</event>
<event>
 5   0  0.5154105E-07  0.3105073E+04  0.7818609E-02  0.8214347E-01
        2   -1    0    0  501    0  0.00000000000E+00  0.00000000000E+00  0.17316515991E+04  0.17316515991E+04  0.25500000920E-02 0.  1.
       -2   -1    0    0    0  501  0.00000000000E+00  0.00000000000E+00 -0.13919480579E+04  0.13919480579E+04  0.25500000920E-02 0. -1.
    10030    2    1    2    0    0  0.00000000000E+00  0.00000000000E+00  0.33970354122E+03  0.31235996569E+04  0.31050726756E+04 0.  0.
        1    1    3    3  502    0  0.84026250197E+03 -0.52165538845E+03  0.13737394978E+04  0.16927272741E+04  0.50400001928E-02 0.  1.
       -1    1    3    3    0  502 -0.84026250197E+03  0.52165538845E+03 -0.10340359566E+04  0.14308723829E+04  0.50400001928E-02 0. -1.
</event>
<event>
 5   0  0.1814075E-07  0.3103023E+04  0.7818609E-02  0.8214909E-01
       -1   -1    0    0    0  501  0.00000000000E+00  0.00000000000E+00  0.25920156745E+04  0.25920156745E+04  0.50400001928E-02 0.  1.
        1   -1    0    0  501    0  0.00000000000E+00  0.00000000000E+00 -0.92869337570E+03  0.92869337572E+03  0.50400001928E-02 0. -1.
    10030    2    1    2    0    0  0.00000000000E+00  0.00000000000E+00  0.16633222988E+04  0.35207090502E+04  0.31030229046E+04 0.  0.
        5    1    3    3  502    0  0.15133157882E+04 -0.11118233844E+03  0.46456824120E+03  0.15869253064E+04  0.46999998093E+01 0. -1.
       -5    1    3    3    0  502 -0.15133157882E+04  0.11118233844E+03  0.11987540576E+04  0.19337837438E+04  0.46999998093E+01 0.  1.
</event>
<event>
 5   0  0.5055900E-07  0.3100889E+04  0.7818609E-02  0.8215494E-01
       -2   -1    0    0    0  501  0.00000000000E+00  0.00000000000E+00  0.15075273271E+04  0.15075273271E+04  0.25500000920E-02 0.  1.
        2   -1    0    0  501    0  0.00000000000E+00  0.00000000000E+00 -0.15945835308E+04  0.15945835308E+04  0.25500000920E-02 0. -1.
    10030    2    1    2    0    0  0.00000000000E+00  0.00000000000E+00 -0.87056203692E+02  0.31021108579E+04  0.31008890647E+04 0.  0.
        2    1    3    3  502    0 -0.25731580963E+02 -0.10366007808E+04  0.11096077070E+04  0.15186943592E+04  0.25500000920E-02 0.  1.
       -2    1    3    3    0  502  0.25731580963E+02  0.10366007808E+04 -0.11966639107E+04  0.15834164987E+04  0.25500000920E-02 0. -1.
</event>
<event>
 5   0  0.1845123E-07  0.3099247E+04  0.7818609E-02  0.8215945E-01
        1   -1    0    0  501    0  0.00000000000E+00  0.00000000000E+00  0.11948668579E+04  0.11948668579E+04  0.50400001928E-02 0. -1.
       -1   -1    0    0    0  501  0.00000000000E+00  0.00000000000E+00 -0.20097077786E+04  0.20097077786E+04  0.50400001928E-02 0.  1.
    10030    2    1    2    0    0  0.00000000000E+00  0.00000000000E+00 -0.81484092063E+03  0.32045746365E+04  0.30992471465E+04 0.  0.
        2    1    3    3  502    0  0.14566889461E+04 -0.24507264143E+03  0.76822297608E+02  0.14791568378E+04  0.25500000920E-02 0. -1.
       -2    1    3    3    0  502 -0.14566889461E+04  0.24507264143E+03 -0.89166321824E+03  0.17254177987E+04  0.25500000920E-02 0.  1.
</event>
<event>
 5   0  0.5342534E-07  0.3091115E+04  0.7818609E-02  0.8218181E-01
       -2   -1    0    0    0  501  0.00000000000E+00  0.00000000000E+00  0.10036905692E+04  0.10036905692E+04  0.25500000920E-02 0. -1.
        2   -1    0    0  501    0  0.00000000000E+00  0.00000000000E+00 -0.23799645496E+04  0.23799645496E+04  0.25500000920E-02 0.  1.
    10030    2    1    2    0    0  0.00000000000E+00  0.00000000000E+00 -0.13762739804E+04  0.33836551188E+04  0.30911149921E+04 0.  0.
        3    1    3    3  502    0  0.76002278224E+03  0.70986318650E+03 -0.19396725965E+04  0.22008794072E+04  0.10100000352E+00 0.  1.
       -3    1    3    3    0  502 -0.76002278224E+03 -0.70986318650E+03  0.56339861618E+03  0.11827757116E+04  0.10100000352E+00 0. -1.
</event>
<event>
 5   0  0.1840359E-07  0.3097610E+04  0.7818609E-02  0.8216394E-01
       -1   -1    0    0    0  501  0.00000000000E+00  0.00000000000E+00  0.13142816028E+04  0.13142816028E+04  0.50400001928E-02 0.  1.
        1   -1    0    0  501    0  0.00000000000E+00  0.00000000000E+00 -0.18251767867E+04  0.18251767867E+04  0.50400001928E-02 0. -1.
    10030    2    1    2    0    0  0.00000000000E+00  0.00000000000E+00 -0.51089518392E+03  0.31394583895E+04  0.30976095768E+04 0.  0.
        1    1    3    3  502    0 -0.25904731013E+03 -0.92914531471E+03 -0.14835858091E+04  0.17695884770E+04  0.50400001928E-02 0. -1.
       -1    1    3    3    0  502  0.25904731013E+03  0.92914531471E+03  0.97269062522E+03  0.13698699125E+04  0.50400001928E-02 0.  1.
</event>
<event>
 5   0  0.5342534E-07  0.3100361E+04  0.7818609E-02  0.8215639E-01
        2   -1    0    0  501    0  0.00000000000E+00  0.00000000000E+00  0.19510963266E+04  0.19510963266E+04  0.25500000920E-02 0.  1.
       -2   -1    0    0    0  501  0.00000000000E+00  0.00000000000E+00 -0.12316455270E+04  0.12316455270E+04  0.25500000920E-02 0. -1.
    10030    2    1    2    0    0  0.00000000000E+00  0.00000000000E+00  0.71945079961E+03  0.31827418535E+04  0.31003606650E+04 0.  0.
        3    1    3    3  502    0 -0.13413854135E+04 -0.49178988661E+03  0.97728040781E+03  0.17309676848E+04  0.10100000352E+00 0.  1.
       -3    1    3    3    0  502  0.13413854135E+04  0.49178988661E+03 -0.25782960820E+03  0.14517741688E+04  0.10100000352E+00 0. -1.
</event>
<event>
 5   0  0.1830902E-07  0.3096642E+04  0.7818609E-02  0.8216660E-01
       -1   -1    0    0    0  501  0.00000000000E+00  0.00000000000E+00  0.13228782451E+04  0.13228782451E+04  0.50400001928E-02 0.  1.
        1   -1    0    0  501    0  0.00000000000E+00  0.00000000000E+00 -0.18121835152E+04  0.18121835152E+04  0.50400001928E-02 0. -1.
    10030    2    1    2    0    0  0.00000000000E+00  0.00000000000E+00 -0.48930527013E+03  0.31350617603E+04  0.30966421481E+04 0.  0.
        3    1    3    3  502    0 -0.78866377358E+03 -0.96605917048E+03  0.68435811039E+03  0.14225353781E+04  0.10100000352E+00 0.  1.
       -3    1    3    3    0  502  0.78866377358E+03  0.96605917048E+03 -0.11736633805E+04  0.17125263822E+04  0.10100000352E+00 0. -1.
</event>
<event>
 5   0  0.1814075E-07  0.3102660E+04  0.7818609E-02  0.8215008E-01
        1   -1    0    0  501    0  0.00000000000E+00  0.00000000000E+00  0.24341726755E+04  0.24341726755E+04  0.50400001928E-02 0. -1.
       -1   -1    0    0    0  501  0.00000000000E+00  0.00000000000E+00 -0.98868260505E+03  0.98868260506E+03  0.50400001928E-02 0.  1.
    10030    2    1    2    0    0  0.00000000000E+00  0.00000000000E+00  0.14454900704E+04  0.34228552805E+04  0.31026596217E+04 0.  0.
        5    1    3    3  502    0  0.85154028138E+03 -0.11630082795E+04  0.13554215413E+04  0.19786103086E+04  0.46999998093E+01 0. -1.
       -5    1    3    3    0  502 -0.85154028138E+03  0.11630082795E+04  0.90068529161E+02  0.14442449719E+04  0.46999998093E+01 0.  1.
</event>
<event>
 5   0  0.1830902E-07  0.3086904E+04  0.7818609E-02  0.8219341E-01
       -1   -1    0    0    0  501  0.00000000000E+00  0.00000000000E+00  0.92950937984E+03  0.92950937986E+03  0.50400001928E-02 0.  1.
        1   -1    0    0  501    0  0.00000000000E+00  0.00000000000E+00 -0.25629042701E+04  0.25629042701E+04  0.50400001928E-02 0. -1.
    10030    2    1    2    0    0  0.00000000000E+00  0.00000000000E+00 -0.16333948903E+04  0.34924136500E+04  0.30869036647E+04 0.  0.
        3    1    3    3  502    0 -0.99555027498E+03  0.72966937558E+03 -0.18650921022E+04  0.22365389126E+04  0.10100000352E+00 0. -1.
       -3    1    3    3    0  502  0.99555027498E+03 -0.72966937558E+03  0.23169721196E+03  0.12558747373E+04  0.10100000352E+00 0.  1.
</event>
<event>
 5   0  0.5376678E-07  0.3096242E+04  0.7818609E-02  0.8216770E-01
        2   -1    0    0  501    0  0.00000000000E+00  0.00000000000E+00  0.17825463518E+04  0.17825463518E+04  0.25500000920E-02 0.  1.
       -2   -1    0    0    0  501  0.00000000000E+00  0.00000000000E+00 -0.13445256436E+04  0.13445256436E+04  0.25500000920E-02 0. -1.
    10030    2    1    2    0    0  0.00000000000E+00  0.00000000000E+00  0.43802070823E+03  0.31270719953E+04  0.30962424200E+04 0.  0.
        5    1    3    3  502    0 -0.13159491376E+04 -0.50145485794E+03  0.86843560560E+03  0.16545034295E+04  0.46999998093E+01 0.  1.
       -5    1    3    3    0  502  0.13159491376E+04  0.50145485794E+03 -0.43041489736E+03  0.14725685658E+04  0.46999998093E+01 0. -1.
</event>
<event>
 5   0  0.5154105E-07  0.3102971E+04  0.7818609E-02  0.8214923E-01
       -2   -1    0    0    0  501  0.00000000000E+00  0.00000000000E+00  0.13124308990E+04  0.13124308990E+04  0.25500000920E-02 0. -1.
        2   -1    0    0  501    0  0.00000000000E+00  0.00000000000E+00 -0.18340833097E+04  0.18340833097E+04  0.25500000920E-02 0.  1.
    10030    2    1    2    0    0  0.00000000000E+00  0.00000000000E+00 -0.52165241074E+03  0.31465142087E+04  0.31029712257E+04 0.  0.
        1    1    3    3  502    0 -0.75431614130E+03  0.13086202742E+04  0.98587578836E+02  0.15136708274E+04  0.50400001928E-02 0. -1.
       -1    1    3    3    0  502  0.75431614130E+03 -0.13086202742E+04 -0.62023998958E+03  0.16328433813E+04  0.50400001928E-02 0.  1.
</event>
<event>
 5   0  0.5154105E-07  0.3101881E+04  0.7818609E-02  0.8215222E-01
        2   -1    0    0  501    0  0.00000000000E+00  0.00000000000E+00  0.18576852552E+04  0.18576852552E+04  0.25500000920E-02 0. -1.
       -2   -1    0    0    0  501  0.00000000000E+00  0.00000000000E+00 -0.12948457879E+04  0.12948457879E+04  0.25500000920E-02 0.  1.
    10030    2    1    2    0    0  0.00000000000E+00  0.00000000000E+00  0.56283946733E+03  0.31525310431E+04  0.31018806733E+04 0.  0.
        1    1    3    3  502    0  0.65179296590E+03 -0.10193166624E+04 -0.70477308664E+03  0.14001948551E+04  0.50400001928E-02 0.  1.
       -1    1    3    3    0  502 -0.65179296590E+03  0.10193166624E+04  0.12676125540E+04  0.17523361880E+04  0.50400001928E-02 0. -1.
</event>
<event>
 5   0  0.1845123E-07  0.3100270E+04  0.7818609E-02  0.8215664E-01
       -1   -1    0    0    0  501  0.00000000000E+00  0.00000000000E+00  0.15137667716E+04  0.15137667716E+04  0.50400001928E-02 0.  1.
        1   -1    0    0  501    0  0.00000000000E+00  0.00000000000E+00 -0.15873770335E+04  0.15873770335E+04  0.50400001928E-02 0. -1.
    10030    2    1    2    0    0  0.00000000000E+00  0.00000000000E+00 -0.73610261927E+02  0.31011438051E+04  0.31002700575E+04 0.  0.
        2    1    3    3  502    0 -0.48440254924E+03  0.39875715687E+03 -0.14546902489E+04  0.15842275153E+04  0.25500000920E-02 0. -1.
       -2    1    3    3    0  502  0.48440254924E+03 -0.39875715687E+03  0.13810799870E+04  0.15169162898E+04  0.25500000920E-02 0.  1.
</event>
<event>
 5   0  0.5376678E-07  0.3113188E+04  0.7818609E-02  0.8212128E-01
        2   -1    0    0  501    0  0.00000000000E+00  0.00000000000E+00  0.12282700720E+04  0.12282700720E+04  0.25500000920E-02 0. -1.
       -2   -1    0    0    0  501  0.00000000000E+00  0.00000000000E+00 -0.19726806849E+04  0.19726806849E+04  0.25500000920E-02 0.  1.
    10030    2    1    2    0    0  0.00000000000E+00  0.00000000000E+00 -0.74441061298E+03  0.32009507569E+04  0.31131878497E+04 0.  0.
        5    1    3    3  502    0 -0.84953540974E+03  0.12369696273E+04 -0.79758096062E+03  0.16994004090E+04  0.46999998093E+01 0.  1.
       -5    1    3    3    0  502  0.84953540974E+03 -0.12369696273E+04  0.53170347645E+02  0.15015503479E+04  0.46999998093E+01 0. -1.
</event>
<event>
 5   0  0.5055900E-07  0.3099461E+04  0.7818609E-02  0.8215886E-01
        2   -1    0    0  501    0  0.00000000000E+00  0.00000000000E+00  0.22640943553E+04  0.22640943553E+04  0.25500000920E-02 0.  1.
       -2   -1    0    0    0  501  0.00000000000E+00  0.00000000000E+00 -0.10607617895E+04  0.10607617895E+04  0.25500000920E-02 0. -1.
    10030    2    1    2    0    0  0.00000000000E+00  0.00000000000E+00  0.12033325658E+04  0.33248561447E+04  0.30994611014E+04 0.  0.
        2    1    3    3  502    0  0.15210736029E+04 -0.25152016822E+03  0.43294712730E+03  0.16013652036E+04  0.25500000920E-02 0. -1.
       -2    1    3    3    0  502 -0.15210736029E+04  0.25152016822E+03  0.77038543848E+03  0.17234909411E+04  0.25500000920E-02 0.  1.
</event>
<event>
 5   0  0.1814075E-07  0.3112952E+04  0.7818609E-02  0.8212192E-01
       -1   -1    0    0    0  501  0.00000000000E+00  0.00000000000E+00  0.17853224976E+04  0.17853224976E+04  0.50400001928E-02 0.  1.
        1   -1    0    0  501    0  0.00000000000E+00  0.00000000000E+00 -0.13569633874E+04  0.13569633874E+04  0.50400001928E-02 0. -1.
    10030    2    1    2    0    0  0.00000000000E+00  0.00000000000E+00  0.42835911027E+03  0.31422858850E+04  0.31129518235E+04 0.  0.
        5    1    3    3  502    0 -0.68319627406E+03  0.88905168466E+02 -0.11946563211E+04  0.13790892260E+04  0.46999998093E+01 0. -1.
       -5    1    3    3    0  502  0.68319627406E+03 -0.88905168466E+02  0.16230154313E+04  0.17631966590E+04  0.46999998093E+01 0.  1.
</event>
<event>
 5   0  0.1875284E-07  0.3097725E+04  0.7818609E-02  0.8216363E-01
        1   -1    0    0  501    0  0.00000000000E+00  0.00000000000E+00  0.16905756934E+04  0.16905756935E+04  0.50400001928E-02 0. -1.
       -1   -1    0    0    0  501  0.00000000000E+00  0.00000000000E+00 -0.14190282353E+04  0.14190282353E+04  0.50400001928E-02 0.  1.
    10030    2    1    2    0    0  0.00000000000E+00  0.00000000000E+00  0.27154745819E+03  0.31096039287E+04  0.30977247411E+04 0.  0.
        4    1    3    3  502    0  0.93327030550E+03 -0.37352127516E+03 -0.10470748730E+04  0.14515092175E+04  0.12699999809E+01 0.  1.
       -4    1    3    3    0  502 -0.93327030550E+03  0.37352127516E+03  0.13186223311E+04  0.16580947112E+04  0.12699999809E+01 0. -1.
</event>
<event>
 5   0  0.1830902E-07  0.3101810E+04  0.7818609E-02  0.8215241E-01
       -1   -1    0    0    0  501  0.00000000000E+00  0.00000000000E+00  0.17496018171E+04  0.17496018171E+04  0.50400001928E-02 0. -1.
        1   -1    0    0  501    0  0.00000000000E+00  0.00000000000E+00 -0.13747734685E+04  0.13747734685E+04  0.50400001928E-02 0.  1.
    10030    2    1    2    0    0  0.00000000000E+00  0.00000000000E+00  0.37482834860E+03  0.31243752856E+04  0.31018098966E+04 0.  0.
        3    1    3    3  502    0  0.13357719727E+04 -0.78128918437E+03  0.83676615206E+02  0.15497423459E+04  0.10100000352E+00 0.  1.
       -3    1    3    3    0  502 -0.13357719727E+04  0.78128918437E+03  0.29115173339E+03  0.15746329397E+04  0.10100000352E+00 0. -1.
</event>
<event>
 5   0  0.1814075E-07  0.3087064E+04  0.7818609E-02  0.8219297E-01
       -1   -1    0    0    0  501  0.00000000000E+00  0.00000000000E+00  0.19633400720E+04  0.19633400721E+04  0.50400001928E-02 0.  1.
        1   -1    0    0  501    0  0.00000000000E+00  0.00000000000E+00 -0.12134883839E+04  0.12134883839E+04  0.50400001928E-02 0. -1.
    10030    2    1    2    0    0  0.00000000000E+00  0.00000000000E+00  0.74985168816E+03  0.31768284560E+04  0.30870635699E+04 0.  0.
        5    1    3    3  502    0  0.56335914761E+03  0.14059828754E+04  0.69120179307E+02  0.15162325231E+04  0.46999998093E+01 0. -1.
       -5    1    3    3    0  502 -0.56335914761E+03 -0.14059828754E+04  0.68073150885E+03  0.16605959328E+04  0.46999998093E+01 0.  1.
</event>
<event>
 5   0  0.5055900E-07  0.3095461E+04  0.7818609E-02  0.8216985E-01
        2   -1    0    0  501    0  0.00000000000E+00  0.00000000000E+00  0.22960473310E+04  0.22960473310E+04  0.25500000920E-02 0. -1.
       -2   -1    0    0    0  501  0.00000000000E+00  0.00000000000E+00 -0.10433017061E+04  0.10433017061E+04  0.25500000920E-02 0.  1.
    10030    2    1    2    0    0  0.00000000000E+00  0.00000000000E+00  0.12527456248E+04  0.33393490371E+04  0.30954612566E+04 0.  0.
        2    1    3    3  502    0  0.84989253628E+03 -0.87534493204E+03  0.16537310217E+04  0.20550845154E+04  0.25500000920E-02 0. -1.
       -2    1    3    3    0  502 -0.84989253628E+03  0.87534493204E+03 -0.40098539687E+03  0.12842645217E+04  0.25500000920E-02 0.  1.
</event>
<event>
 5   0  0.5055900E-07  0.3092938E+04  0.7818609E-02  0.8217679E-01
       -2   -1    0    0    0  501  0.00000000000E+00  0.00000000000E+00  0.77538912994E+03  0.77538912994E+03  0.25500000920E-02 0. -1.
        2   -1    0    0  501    0  0.00000000000E+00  0.00000000000E+00 -0.30843435287E+04  0.30843435287E+04  0.25500000920E-02 0.  1.
    10030    2    1    2    0    0  0.00000000000E+00  0.00000000000E+00 -0.23089543988E+04  0.38597326586E+04  0.30929380499E+04 0.  0.
        2    1    3    3  502    0 -0.12101271614E+04  0.67101370874E+03 -0.29269137470E+03  0.14143321339E+04  0.25500000920E-02 0. -1.
       -2    1    3    3    0  502  0.12101271614E+04 -0.67101370874E+03 -0.20162630241E+04  0.24454005247E+04  0.25500000920E-02 0.  1.
</event>
<event>
 5   0  0.1875284E-07  0.3093689E+04  0.7818609E-02  0.8217472E-01
        1   -1    0    0  501    0  0.00000000000E+00  0.00000000000E+00  0.21863495359E+04  0.21863495359E+04  0.50400001928E-02 0. -1.
       -1   -1    0    0    0  501  0.00000000000E+00  0.00000000000E+00 -0.10943943770E+04  0.10943943770E+04  0.50400001928E-02 0.  1.
    10030    2    1    2    0    0  0.00000000000E+00  0.00000000000E+00  0.10919551589E+04  0.32807439129E+04  0.30936894727E+04 0.  0.
        4    1    3    3  502    0 -0.14046181131E+04 -0.64789977668E+03  0.54696174691E+03  0.16406995245E+04  0.12699999809E+01 0.  1.
       -4    1    3    3    0  502  0.14046181131E+04  0.64789977668E+03  0.54499341196E+03  0.16400443885E+04  0.12699999809E+01 0. -1.
</event>
<event>
 5   0  0.1840359E-07  0.3102222E+04  0.7818609E-02  0.8215128E-01
        1   -1    0    0  501    0  0.00000000000E+00  0.00000000000E+00  0.25192329373E+04  0.25192329373E+04  0.50400001928E-02 0. -1.
       -1   -1    0    0    0  501  0.00000000000E+00  0.00000000000E+00 -0.95503068719E+03  0.95503068721E+03  0.50400001928E-02 0.  1.
    10030    2    1    2    0    0  0.00000000000E+00  0.00000000000E+00  0.15642022501E+04  0.34742636245E+04  0.31022216319E+04 0.  0.
        1    1    3    3  502    0  0.13207955448E+04  0.20372850153E+03 -0.99687075105E+02  0.13401282351E+04  0.50400001928E-02 0.  1.
       -1    1    3    3    0  502 -0.13207955448E+04 -0.20372850153E+03  0.16638893252E+04  0.21341353894E+04  0.50400001928E-02 0. -1.
</event>
<event>
 5   0  0.1840359E-07  0.3098109E+04  0.7818609E-02  0.8216257E-01
       -1   -1    0    0    0  501  0.00000000000E+00  0.00000000000E+00  0.18496552068E+04  0.18496552068E+04  0.50400001928E-02 0.  1.
        1   -1    0    0  501    0  0.00000000000E+00  0.00000000000E+00 -0.12973069499E+04  0.12973069499E+04  0.50400001928E-02 0. -1.
    10030    2    1    2    0    0  0.00000000000E+00  0.00000000000E+00  0.55234825695E+03  0.31469621567E+04  0.30981094588E+04 0.  0.
        1    1    3    3  502    0 -0.18804658964E+03  0.70879899606E+03  0.16621727363E+04  0.18167486733E+04  0.50400001928E-02 0.  1.
       -1    1    3    3    0  502  0.18804658964E+03 -0.70879899606E+03 -0.11098244793E+04  0.13302134835E+04  0.50400001928E-02 0. -1.
</event>
<event>
 5   0  0.1814075E-07  0.3098851E+04  0.7818609E-02  0.8216053E-01
       -1   -1    0    0    0  501  0.00000000000E+00  0.00000000000E+00  0.13293495494E+04  0.13293495494E+04  0.50400001928E-02 0. -1.
        1   -1    0    0  501    0  0.00000000000E+00  0.00000000000E+00 -0.18059351324E+04  0.18059351324E+04  0.50400001928E-02 0.  1.
    10030    2    1    2    0    0  0.00000000000E+00  0.00000000000E+00 -0.47658558294E+03  0.31352846818E+04  0.30988507899E+04 0.  0.
        5    1    3    3  502    0  0.10382082672E+04 -0.96216906175E+02  0.92128995923E+03  0.13913775110E+04  0.46999998093E+01 0. -1.
       -5    1    3    3    0  502 -0.10382082672E+04  0.96216906175E+02 -0.13978755422E+04  0.17439071708E+04  0.46999998093E+01 0.  1.
</event>
<event>
 5   0  0.5248309E-07  0.3101903E+04  0.7818609E-02  0.8215216E-01
        2   -1    0    0  501    0  0.00000000000E+00  0.00000000000E+00  0.21839256540E+04  0.21839256540E+04  0.25500000920E-02 0.  1.
       -2   -1    0    0    0  501  0.00000000000E+00  0.00000000000E+00 -0.11014344778E+04  0.11014344778E+04  0.25500000920E-02 0. -1.
    10030    2    1    2    0    0  0.00000000000E+00  0.00000000000E+00  0.10824911762E+04  0.32853601318E+04  0.31019032946E+04 0.  0.
        4    1    3    3  502    0 -0.88694173387E+03  0.10952251681E+04 -0.14455734685E+03  0.14167153023E+04  0.12699999809E+01 0. -1.
       -4    1    3    3    0  502  0.88694173387E+03 -0.10952251681E+04  0.12270485231E+04  0.18686448296E+04  0.12699999809E+01 0.  1.
</event>
<event>
 5   0  0.5342534E-07  0.3110444E+04  0.7818609E-02  0.8212877E-01
        2   -1    0    0  501    0  0.00000000000E+00  0.00000000000E+00  0.16744620277E+04  0.16744620277E+04  0.25500000920E-02 0.  1.
       -2   -1    0    0    0  501  0.00000000000E+00  0.00000000000E+00 -0.14444736313E+04  0.14444736313E+04  0.25500000920E-02 0. -1.
    10030    2    1    2    0    0  0.00000000000E+00  0.00000000000E+00  0.22998839636E+03  0.31189356590E+04  0.31104444992E+04 0.  0.
        3    1    3    3  502    0 -0.83252863420E+03  0.37733239021E+03 -0.11467064258E+04  0.14664308018E+04  0.10100000352E+00 0. -1.
       -3    1    3    3    0  502  0.83252863420E+03 -0.37733239021E+03  0.13766948222E+04  0.16525048572E+04  0.10100000352E+00 0.  1.
</event>
<event>
 5   0  0.5154105E-07  0.3097199E+04  0.7818609E-02  0.8216507E-01
       -2   -1    0    0    0  501  0.00000000000E+00  0.00000000000E+00  0.91964569148E+03  0.91964569149E+03  0.25500000920E-02 0. -1.
        2   -1    0    0  501    0  0.00000000000E+00  0.00000000000E+00 -0.26076998828E+04  0.26076998828E+04  0.25500000920E-02 0.  1.
    10030    2    1    2    0    0  0.00000000000E+00  0.00000000000E+00 -0.16880541914E+04  0.35273455743E+04  0.30971987098E+04 0.  0.
        1    1    3    3  502    0  0.10872512160E+04  0.10655989840E+04 -0.52080997892E+03  0.16089932988E+04  0.50400001928E-02 0. -1.
       -1    1    3    3    0  502 -0.10872512160E+04 -0.10655989840E+04 -0.11672442124E+04  0.19183522755E+04  0.50400001928E-02 0.  1.
</event>
<event>
 5   0  0.5342534E-07  0.3092689E+04  0.7818609E-02  0.8217747E-01
       -2   -1    0    0    0  501  0.00000000000E+00  0.00000000000E+00  0.84637282605E+03  0.84637282606E+03  0.25500000920E-02 0.  1.
        2   -1    0    0  501    0  0.00000000000E+00  0.00000000000E+00 -0.28252100559E+04  0.28252100559E+04  0.25500000920E-02 0. -1.
    10030    2    1    2    0    0  0.00000000000E+00  0.00000000000E+00 -0.19788372298E+04  0.36715828819E+04  0.30926888102E+04 0.  0.
        3    1    3    3  502    0  0.75762377287E+03 -0.13130969601E+04 -0.13513894526E+04  0.20308793343E+04  0.10100000352E+00 0. -1.
       -3    1    3    3    0  502 -0.75762377287E+03  0.13130969601E+04 -0.62744777726E+03  0.16407035476E+04  0.10100000352E+00 0.  1.
</event>
<event>
 5   0  0.5376678E-07  0.3108093E+04  0.7818609E-02  0.8213520E-01
       -2   -1    0    0    0  501  0.00000000000E+00  0.00000000000E+00  0.12276618448E+04  0.12276618448E+04  0.25500000920E-02 0.  1.
        2   -1    0    0  501    0  0.00000000000E+00  0.00000000000E+00 -0.19672028864E+04  0.19672028864E+04  0.25500000920E-02 0. -1.
    10030    2    1    2    0    0  0.00000000000E+00  0.00000000000E+00 -0.73954104160E+03  0.31948647312E+04  0.31080926142E+04 0.  0.
        5    1    3    3  502    0 -0.12663191368E+04 -0.89488653328E+03 -0.47585929592E+03  0.16219895878E+04  0.46999998093E+01 0. -1.
       -5    1    3    3    0  502  0.12663191368E+04  0.89488653328E+03 -0.26368174569E+03  0.15728751433E+04  0.46999998093E+01 0.  1.
</event>
<event>
 5   0  0.5376678E-07  0.3096875E+04  0.7818609E-02  0.8216596E-01
        2   -1    0    0  501    0  0.00000000000E+00  0.00000000000E+00  0.25859380424E+04  0.25859380424E+04  0.25500000920E-02 0. -1.
       -2   -1    0    0    0  501  0.00000000000E+00  0.00000000000E+00 -0.92719092539E+03  0.92719092539E+03  0.25500000920E-02 0.  1.
    10030    2    1    2    0    0  0.00000000000E+00  0.00000000000E+00  0.16587471170E+04  0.35131289678E+04  0.30968747385E+04 0.  0.
        5    1    3    3  502    0 -0.16853960823E+03  0.11410987113E+04  0.20012395858E+04  0.23098687924E+04  0.46999998093E+01 0. -1.
       -5    1    3    3    0  502  0.16853960823E+03 -0.11410987113E+04 -0.34249246880E+03  0.12032601754E+04  0.46999998093E+01 0.  1.
</event>
<event>
 5   0  0.1830902E-07  0.3095964E+04  0.7818609E-02  0.8216847E-01
       -1   -1    0    0    0  501  0.00000000000E+00  0.00000000000E+00  0.87384602498E+03  0.87384602499E+03  0.50400001928E-02 0.  1.
        1   -1    0    0  501    0  0.00000000000E+00  0.00000000000E+00 -0.27421851367E+04  0.27421851367E+04  0.50400001928E-02 0. -1.
    10030    2    1    2    0    0  0.00000000000E+00  0.00000000000E+00 -0.18683391117E+04  0.36160311617E+04  0.30959635537E+04 0.  0.
        3    1    3    3  502    0 -0.51766769258E+03  0.57359726610E+03  0.63251857144E+03  0.99853563634E+03  0.10100000352E+00 0.  1.
       -3    1    3    3    0  502  0.51766769258E+03 -0.57359726610E+03 -0.25008576832E+04  0.26174955254E+04  0.10100000352E+00 0. -1.
</event>
<event>
 5   0  0.5248309E-07  0.3102307E+04  0.7818609E-02  0.8215105E-01
        2   -1    0    0  501    0  0.00000000000E+00  0.00000000000E+00  0.21146096203E+04  0.21146096203E+04  0.25500000920E-02 0. -1.
       -2   -1    0    0    0  501  0.00000000000E+00  0.00000000000E+00 -0.11378349834E+04  0.11378349834E+04  0.25500000920E-02 0.  1.
    10030    2    1    2    0    0  0.00000000000E+00  0.00000000000E+00  0.97677463690E+03  0.32524446037E+04  0.31023067561E+04 0.  0.
        4    1    3    3  502    0  0.42345844198E+03 -0.74388956254E+03 -0.86781129012E+03  0.12189285383E+04  0.12699999809E+01 0.  1.
       -4    1    3    3    0  502 -0.42345844198E+03  0.74388956254E+03  0.18445859270E+04  0.20335160654E+04  0.12699999809E+01 0. -1.
</event>
<event>
 5   0  0.1830902E-07  0.3100729E+04  0.7818609E-02  0.8215538E-01
        1   -1    0    0  501    0  0.00000000000E+00  0.00000000000E+00  0.17071713372E+04  0.17071713372E+04  0.50400001928E-02 0. -1.
       -1   -1    0    0    0  501  0.00000000000E+00  0.00000000000E+00 -0.14079607315E+04  0.14079607315E+04  0.50400001928E-02 0.  1.
    10030    2    1    2    0    0  0.00000000000E+00  0.00000000000E+00  0.29921060568E+03  0.31151320687E+04  0.31007290786E+04 0.  0.
        3    1    3    3  502    0 -0.89920893573E+03  0.12629533386E+04  0.15114504554E+03  0.15577139277E+04  0.10100000352E+00 0. -1.
       -3    1    3    3    0  502  0.89920893573E+03 -0.12629533386E+04  0.14806556014E+03  0.15574181410E+04  0.10100000352E+00 0.  1.
</event>
<event>
 5   0  0.1845123E-07  0.3102093E+04  0.7818609E-02  0.8215164E-01
        1   -1    0    0  501    0  0.00000000000E+00  0.00000000000E+00  0.21199104880E+04  0.21199104880E+04  0.50400001928E-02 0.  1.
       -1   -1    0    0    0  501  0.00000000000E+00  0.00000000000E+00 -0.11348335785E+04  0.11348335785E+04  0.50400001928E-02 0. -1.
    10030    2    1    2    0    0  0.00000000000E+00  0.00000000000E+00  0.98507690948E+03  0.32547440665E+04  0.31020932321E+04 0.  0.
        2    1    3    3  502    0  0.89081373486E+02  0.41733433320E+03 -0.10720295631E+04  0.11538417660E+04  0.25500000920E-02 0. -1.
       -2    1    3    3    0  502 -0.89081373486E+02 -0.41733433320E+03  0.20571064726E+04  0.21009023005E+04  0.25500000920E-02 0.  1.
</event>
<event>
 5   0  0.1875284E-07  0.3074885E+04  0.7818609E-02  0.8222664E-01
       -1   -1    0    0    0  501  0.00000000000E+00  0.00000000000E+00  0.10319698287E+04  0.10319698287E+04  0.50400001928E-02 0. -1.
        1   -1    0    0  501    0  0.00000000000E+00  0.00000000000E+00 -0.22905029949E+04  0.22905029949E+04  0.50400001928E-02 0.  1.
    10030    2    1    2    0    0  0.00000000000E+00  0.00000000000E+00 -0.12585331661E+04  0.33224728236E+04  0.30748853529E+04 0.  0.
        4    1    3    3  502    0 -0.72631144560E+03  0.49277174229E+01  0.83489711824E+03  0.11066198125E+04  0.12699999809E+01 0. -1.
       -4    1    3    3    0  502  0.72631144560E+03 -0.49277174229E+01 -0.20934302844E+04  0.22158530111E+04  0.12699999809E+01 0.  1.
</event>
<event>
 5   0  0.5248309E-07  0.3094027E+04  0.7818609E-02  0.8217379E-01
        2   -1    0    0  501    0  0.00000000000E+00  0.00000000000E+00  0.13840032376E+04  0.13840032376E+04  0.25500000920E-02 0. -1.
       -2   -1    0    0    0  501  0.00000000000E+00  0.00000000000E+00 -0.17292238475E+04  0.17292238475E+04  0.25500000920E-02 0.  1.
    10030    2    1    2    0    0  0.00000000000E+00  0.00000000000E+00 -0.34522060987E+03  0.31132270851E+04  0.30940274101E+04 0.  0.
        4    1    3    3  502    0 -0.50578054960E+02  0.11630118176E+04 -0.11978023488E+04  0.16702953952E+04  0.12699999809E+01 0.  1.
       -4    1    3    3    0  502  0.50578054960E+02 -0.11630118176E+04  0.85258173894E+03  0.14429316900E+04  0.12699999809E+01 0. -1.
</event>
<event>
 5   0  0.1814075E-07  0.3099027E+04  0.7818609E-02  0.8216005E-01
       -1   -1    0    0    0  501  0.00000000000E+00  0.00000000000E+00  0.13634743538E+04  0.13634743538E+04  0.50400001928E-02 0.  1.
        1   -1    0    0  501    0  0.00000000000E+00  0.00000000000E+00 -0.17609369031E+04  0.17609369031E+04  0.50400001928E-02 0. -1.
    10030    2    1    2    0    0  0.00000000000E+00  0.00000000000E+00 -0.39746254929E+03  0.31244112569E+04  0.30990271416E+04 0.  0.
        5    1    3    3  502    0 -0.42811730691E+03  0.14118917757E+04  0.27869522775E+03  0.15014712567E+04  0.46999998093E+01 0.  1.
       -5    1    3    3    0  502  0.42811730691E+03 -0.14118917757E+04 -0.67615777704E+03  0.16229400002E+04  0.46999998093E+01 0. -1.
</event>
<event>
 5   0  0.1814075E-07  0.3129227E+04  0.7818609E-02  0.8207762E-01
        1   -1    0    0  501    0  0.00000000000E+00  0.00000000000E+00  0.13115270368E+04  0.13115270368E+04  0.50400001928E-02 0.  1.
       -1   -1    0    0    0  501  0.00000000000E+00  0.00000000000E+00 -0.18665378571E+04  0.18665378572E+04  0.50400001928E-02 0. -1.
    10030    2    1    2    0    0  0.00000000000E+00  0.00000000000E+00 -0.55501082038E+03  0.31780648939E+04  0.31292266551E+04 0.  0.
        5    1    3    3  502    0  0.57886442286E+03  0.12012196517E+04 -0.11088033280E+04  0.17342086327E+04  0.46999998093E+01 0. -1.
       -5    1    3    3    0  502 -0.57886442286E+03 -0.12012196517E+04  0.55379250760E+03  0.14438562612E+04  0.46999998093E+01 0.  1.
</event>
<event>
 5   0  0.1814075E-07  0.3098793E+04  0.7818609E-02  0.8216069E-01
       -1   -1    0    0    0  501  0.00000000000E+00  0.00000000000E+00  0.16102275314E+04  0.16102275314E+04  0.50400001928E-02 0. -1.
        1   -1    0    0  501    0  0.00000000000E+00  0.00000000000E+00 -0.14908639694E+04  0.14908639695E+04  0.50400001928E-02 0.  1.
    10030    2    1    2    0    0  0.00000000000E+00  0.00000000000E+00  0.11936356194E+03  0.31010915008E+04  0.30987934485E+04 0.  0.
        5    1    3    3  502    0 -0.87430411367E+03  0.12332619161E+04  0.39944126435E+03  0.15636233723E+04  0.46999998093E+01 0.  1.
       -5    1    3    3    0  502  0.87430411367E+03 -0.12332619161E+04 -0.28007770241E+03  0.15374681285E+04  0.46999998093E+01 0. -1.
</event>
<event>
 5   0  0.5376678E-07  0.3109876E+04  0.7818609E-02  0.8213033E-01
        2   -1    0    0  501    0  0.00000000000E+00  0.00000000000E+00  0.17390632444E+04  0.17390632444E+04  0.25500000920E-02 0. -1.
       -2   -1    0    0    0  501  0.00000000000E+00  0.00000000000E+00 -0.13903073401E+04  0.13903073401E+04  0.25500000920E-02 0.  1.
    10030    2    1    2    0    0  0.00000000000E+00  0.00000000000E+00  0.34875590430E+03  0.31293705846E+04  0.31098761350E+04 0.  0.
        5    1    3    3  502    0  0.92810610877E+03  0.32253934149E+02  0.14293481751E+04  0.17045467319E+04  0.46999998093E+01 0. -1.
       -5    1    3    3    0  502 -0.92810610877E+03 -0.32253934149E+02 -0.10805922708E+04  0.14248238527E+04  0.46999998093E+01 0.  1.
</event>
<event>
 5   0  0.5154105E-07  0.3100261E+04  0.7818609E-02  0.8215666E-01
       -2   -1    0    0    0  501  0.00000000000E+00  0.00000000000E+00  0.15591773350E+04  0.15591773350E+04  0.25500000920E-02 0.  1.
        2   -1    0    0  501    0  0.00000000000E+00  0.00000000000E+00 -0.15411366546E+04  0.15411366546E+04  0.25500000920E-02 0. -1.
    10030    2    1    2    0    0  0.00000000000E+00  0.00000000000E+00  0.18040680414E+02  0.31003139897E+04  0.31002615000E+04 0.  0.
        1    1    3    3  502    0 -0.27458454883E+03 -0.13959733764E+02 -0.15165590908E+04  0.15412796711E+04  0.50400001928E-02 0. -1.
       -1    1    3    3    0  502  0.27458454883E+03  0.13959733764E+02  0.15345997712E+04  0.15590343186E+04  0.50400001928E-02 0.  1.
</event>
<event>
 5   0  0.1845123E-07  0.3106501E+04  0.7818609E-02  0.8213956E-01
       -1   -1    0    0    0  501  0.00000000000E+00  0.00000000000E+00  0.19118076969E+04  0.19118076969E+04  0.50400001928E-02 0.  1.
        1   -1    0    0  501    0  0.00000000000E+00  0.00000000000E+00 -0.12619400971E+04  0.12619400971E+04  0.50400001928E-02 0. -1.
    10030    2    1    2    0    0  0.00000000000E+00  0.00000000000E+00  0.64986759977E+03  0.31737477940E+04  0.31065007907E+04 0.  0.
        2    1    3    3  502    0  0.41526481315E+03  0.88640628959E+02 -0.12014921517E+04  0.12743176279E+04  0.25500000920E-02 0. -1.
       -2    1    3    3    0  502 -0.41526481315E+03 -0.88640628959E+02  0.18513597515E+04  0.18994301660E+04  0.25500000920E-02 0.  1.
</event>
<event>
 5   0  0.5376678E-07  0.3139941E+04  0.7818609E-02  0.8204861E-01
       -2   -1    0    0    0  501  0.00000000000E+00  0.00000000000E+00  0.13124378698E+04  0.13124378698E+04  0.25500000920E-02 0. -1.
        2   -1    0    0  501    0  0.00000000000E+00  0.00000000000E+00 -0.18780372853E+04  0.18780372853E+04  0.25500000920E-02 0.  1.
    10030    2    1    2    0    0  0.00000000000E+00  0.00000000000E+00 -0.56559941555E+03  0.31904751551E+04  0.31399409256E+04 0.  0.
        5    1    3    3  502    0  0.12167067502E+04  0.52595450792E+03  0.57203777257E+03  0.14436941379E+04  0.46999998093E+01 0. -1.
       -5    1    3    3    0  502 -0.12167067502E+04 -0.52595450792E+03 -0.11376371881E+04  0.17467810173E+04  0.46999998093E+01 0.  1.
</event>
<event>
 5   0  0.5154105E-07  0.3094789E+04  0.7818609E-02  0.8217170E-01
        2   -1    0    0  501    0  0.00000000000E+00  0.00000000000E+00  0.20375071661E+04  0.20375071661E+04  0.25500000920E-02 0. -1.
       -2   -1    0    0    0  501  0.00000000000E+00  0.00000000000E+00 -0.11751757553E+04  0.11751757553E+04  0.25500000920E-02 0.  1.
    10030    2    1    2    0    0  0.00000000000E+00  0.00000000000E+00  0.86233141083E+03  0.32126829214E+04  0.30947885375E+04 0.  0.
        1    1    3    3  502    0 -0.37331498821E+03 -0.90179303451E+03 -0.81534081936E+03  0.12717607516E+04  0.50400001928E-02 0.  1.
       -1    1    3    3    0  502  0.37331498821E+03  0.90179303451E+03  0.16776722302E+04  0.19409221699E+04  0.50400001928E-02 0. -1.
</event>
<event>
 5   0  0.1727000E-07  0.3100639E+04  0.7818609E-02  0.8215563E-01
       -3   -1    0    0    0  501  0.00000000000E+00  0.00000000000E+00  0.14466277975E+04  0.14466278010E+04  0.10100000352E+00 0. -1.
        3   -1    0    0  501    0  0.00000000000E+00  0.00000000000E+00 -0.16614431040E+04  0.16614431070E+04  0.10100000352E+00 0.  1.
    10030    2    1    2    0    0  0.00000000000E+00  0.00000000000E+00 -0.21481530650E+03  0.31080709080E+04  0.31006385074E+04 0.  0.
        5    1    3    3  502    0  0.85851052860E+03  0.10754232759E+02 -0.14013588783E+04  0.16434673033E+04  0.46999998093E+01 0.  1.
       -5    1    3    3    0  502 -0.85851052860E+03 -0.10754232759E+02  0.11865435718E+04  0.14646036047E+04  0.46999998093E+01 0. -1.
</event>
<event>
 5   0  0.5154105E-07  0.3085384E+04  0.7818609E-02  0.8219761E-01
       -2   -1    0    0    0  501  0.00000000000E+00  0.00000000000E+00  0.80492586796E+03  0.80492586796E+03  0.25500000920E-02 0.  1.
        2   -1    0    0  501    0  0.00000000000E+00  0.00000000000E+00 -0.29566679667E+04  0.29566679667E+04  0.25500000920E-02 0. -1.
    10030    2    1    2    0    0  0.00000000000E+00  0.00000000000E+00 -0.21517420987E+04  0.37615938347E+04  0.30853839498E+04 0.  0.
        1    1    3    3  502    0 -0.64525351836E+03  0.93754209776E+03  0.19379563510E+03  0.11545103015E+04  0.50400001928E-02 0.  1.
       -1    1    3    3    0  502  0.64525351836E+03 -0.93754209776E+03 -0.23455377338E+04  0.26070835332E+04  0.50400001928E-02 0. -1.
</event>
<event>
 5   0  0.5342534E-07  0.3099796E+04  0.7818609E-02  0.8215794E-01
       -2   -1    0    0    0  501  0.00000000000E+00  0.00000000000E+00  0.26566644098E+04  0.26566644098E+04  0.25500000920E-02 0.  1.
        2   -1    0    0  501    0  0.00000000000E+00  0.00000000000E+00 -0.90421029284E+03  0.90421029284E+03  0.25500000920E-02 0. -1.
    10030    2    1    2    0    0  0.00000000000E+00  0.00000000000E+00  0.17524541170E+04  0.35608747027E+04  0.30997956733E+04 0.  0.
        3    1    3    3  502    0 -0.13162074880E+04 -0.65418401895E+03  0.14411298156E+04  0.20584494256E+04  0.10100000352E+00 0.  1.
       -3    1    3    3    0  502  0.13162074880E+04  0.65418401895E+03  0.31132430135E+03  0.15024252770E+04  0.10100000352E+00 0. -1.
</event>
<event>
 5   0  0.1875284E-07  0.3100671E+04  0.7818609E-02  0.8215554E-01
       -1   -1    0    0    0  501  0.00000000000E+00  0.00000000000E+00  0.13500792261E+04  0.13500792261E+04  0.50400001928E-02 0. -1.
        1   -1    0    0  501    0  0.00000000000E+00  0.00000000000E+00 -0.17802955578E+04  0.17802955578E+04  0.50400001928E-02 0.  1.
    10030    2    1    2    0    0  0.00000000000E+00  0.00000000000E+00 -0.43021633162E+03  0.31303747839E+04  0.31006709267E+04 0.  0.
        4    1    3    3  502    0  0.12489123045E+04 -0.58936752190E+03  0.49619968589E+03  0.14674303259E+04  0.12699999809E+01 0. -1.
       -4    1    3    3    0  502 -0.12489123045E+04  0.58936752190E+03 -0.92641601751E+03  0.16629444580E+04  0.12699999809E+01 0.  1.
</event>
<event>
 5   0  0.1875284E-07  0.3103199E+04  0.7818609E-02  0.8214861E-01
       -1   -1    0    0    0  501  0.00000000000E+00  0.00000000000E+00  0.10126694622E+04  0.10126694622E+04  0.50400001928E-02 0. -1.
        1   -1    0    0  501    0  0.00000000000E+00  0.00000000000E+00 -0.23773408857E+04  0.23773408857E+04  0.50400001928E-02 0.  1.
    10030    2    1    2    0    0  0.00000000000E+00  0.00000000000E+00 -0.13646714235E+04  0.33900103479E+04  0.31031986828E+04 0.  0.
        4    1    3    3  502    0 -0.12830740970E+04 -0.67361074317E+03 -0.12880438178E+04  0.19388370383E+04  0.12699999809E+01 0.  1.
       -4    1    3    3    0  502  0.12830740970E+04  0.67361074317E+03 -0.76627605704E+02  0.14511733096E+04  0.12699999809E+01 0. -1.
</event>
<event>
 5   0  0.1840359E-07  0.3107855E+04  0.7818609E-02  0.8213586E-01
        1   -1    0    0  501    0  0.00000000000E+00  0.00000000000E+00  0.14751035284E+04  0.14751035284E+04  0.50400001928E-02 0.  1.
       -1   -1    0    0    0  501  0.00000000000E+00  0.00000000000E+00 -0.16369630108E+04  0.16369630108E+04  0.50400001928E-02 0. -1.
    10030    2    1    2    0    0  0.00000000000E+00  0.00000000000E+00 -0.16185948241E+03  0.31120665392E+04  0.31078545096E+04 0.  0.
        1    1    3    3  502    0  0.63978186011E+03  0.12538770078E+04 -0.73997180707E+03  0.15903102384E+04  0.50400001928E-02 0. -1.
       -1    1    3    3    0  502 -0.63978186011E+03 -0.12538770078E+04  0.57811232466E+03  0.15217563008E+04  0.50400001928E-02 0.  1.
</event>
<event>
 5   0  0.5376678E-07  0.3060456E+04  0.7818609E-02  0.8226675E-01
       -2   -1    0    0    0  501  0.00000000000E+00  0.00000000000E+00  0.13728701342E+04  0.13728701342E+04  0.25500000920E-02 0. -1.
        2   -1    0    0  501    0  0.00000000000E+00  0.00000000000E+00 -0.17056222613E+04  0.17056222613E+04  0.25500000920E-02 0.  1.
    10030    2    1    2    0    0  0.00000000000E+00  0.00000000000E+00 -0.33275212706E+03  0.30784923955E+04  0.30604560855E+04 0.  0.
        5    1    3    3  502    0  0.13390131198E+03  0.15086349627E+04  0.53237800184E+02  0.15155082862E+04  0.46999998093E+01 0.  1.
       -5    1    3    3    0  502 -0.13390131198E+03 -0.15086349627E+04 -0.38598992724E+03  0.15629841093E+04  0.46999998093E+01 0. -1.
</event>
<event>
 5   0  0.1840359E-07  0.3097230E+04  0.7818609E-02  0.8216499E-01
       -1   -1    0    0    0  501  0.00000000000E+00  0.00000000000E+00  0.31195942890E+04  0.31195942890E+04  0.50400001928E-02 0.  1.
        1   -1    0    0  501    0  0.00000000000E+00  0.00000000000E+00 -0.76875648145E+03  0.76875648146E+03  0.50400001928E-02 0. -1.
    10030    2    1    2    0    0  0.00000000000E+00  0.00000000000E+00  0.23508378076E+04  0.38883507705E+04  0.30972299425E+04 0.  0.
        1    1    3    3  502    0 -0.15049420534E+04  0.15120613849E+03  0.15927321946E+04  0.21964766614E+04  0.50400001928E-02 0.  1.
       -1    1    3    3    0  502  0.15049420534E+04 -0.15120613849E+03  0.75810561297E+03  0.16918741091E+04  0.50400001928E-02 0. -1.
</event>
<event>
 5   0  0.5376678E-07  0.3102095E+04  0.7818609E-02  0.8215163E-01
        2   -1    0    0  501    0  0.00000000000E+00  0.00000000000E+00  0.14503217146E+04  0.14503217146E+04  0.25500000920E-02 0.  1.
       -2   -1    0    0    0  501  0.00000000000E+00  0.00000000000E+00 -0.16587692886E+04  0.16587692886E+04  0.25500000920E-02 0. -1.
    10030    2    1    2    0    0  0.00000000000E+00  0.00000000000E+00 -0.20844757405E+03  0.31090910032E+04  0.31020954974E+04 0.  0.
        5    1    3    3  502    0 -0.29848563665E+03 -0.52996575270E+03  0.13257977850E+04  0.14586703641E+04  0.46999998093E+01 0.  1.
       -5    1    3    3    0  502  0.29848563665E+03  0.52996575270E+03 -0.15342453590E+04  0.16504206391E+04  0.46999998093E+01 0. -1.
</event>
<event>
 5   0  0.5154105E-07  0.3066802E+04  0.7818609E-02  0.8224908E-01
        2   -1    0    0  501    0  0.00000000000E+00  0.00000000000E+00  0.12754616992E+04  0.12754616992E+04  0.25500000920E-02 0.  1.
       -2   -1    0    0    0  501  0.00000000000E+00  0.00000000000E+00 -0.18435038114E+04  0.18435038114E+04  0.25500000920E-02 0. -1.
    10030    2    1    2    0    0  0.00000000000E+00  0.00000000000E+00 -0.56804211219E+03  0.31189655106E+04  0.30668019198E+04 0.  0.
        1    1    3    3  502    0  0.58073430539E+03  0.13112392053E+04  0.26809212468E+03  0.14589290505E+04  0.50400001928E-02 0.  1.
       -1    1    3    3    0  502 -0.58073430539E+03 -0.13112392053E+04 -0.83613423688E+03  0.16600364601E+04  0.50400001928E-02 0. -1.
</event>
<event>
 5   0  0.5248309E-07  0.3109010E+04  0.7818609E-02  0.8213270E-01
       -2   -1    0    0    0  501  0.00000000000E+00  0.00000000000E+00  0.11074149979E+04  0.11074149979E+04  0.25500000920E-02 0. -1.
        2   -1    0    0  501    0  0.00000000000E+00  0.00000000000E+00 -0.21820953671E+04  0.21820953671E+04  0.25500000920E-02 0.  1.
    10030    2    1    2    0    0  0.00000000000E+00  0.00000000000E+00 -0.10746803693E+04  0.32895103650E+04  0.31090095763E+04 0.  0.
        4    1    3    3  502    0  0.45953361839E+03  0.87601323705E+03 -0.18060886575E+04  0.20592542799E+04  0.12699999809E+01 0.  1.
       -4    1    3    3    0  502 -0.45953361839E+03 -0.87601323705E+03  0.73140828820E+03  0.12302560851E+04  0.12699999809E+01 0. -1.
</event>
<event>
 5   0  0.5376678E-07  0.3101236E+04  0.7818609E-02  0.8215399E-01
        2   -1    0    0  501    0  0.00000000000E+00  0.00000000000E+00  0.19755368290E+04  0.19755368290E+04  0.25500000920E-02 0.  1.
       -2   -1    0    0    0  501  0.00000000000E+00  0.00000000000E+00 -0.12170950410E+04  0.12170950410E+04  0.25500000920E-02 0. -1.
    10030    2    1    2    0    0  0.00000000000E+00  0.00000000000E+00  0.75844178799E+03  0.31926318700E+04  0.31012359329E+04 0.  0.
        5    1    3    3  502    0 -0.12918975078E+04  0.85630328515E+03  0.33160298648E+03  0.15850038225E+04  0.46999998093E+01 0.  1.
       -5    1    3    3    0  502  0.12918975078E+04 -0.85630328515E+03  0.42683880151E+03  0.16076280475E+04  0.46999998093E+01 0. -1.
</event>
<event>
 5   0  0.1875284E-07  0.3093590E+04  0.7818609E-02  0.8217499E-01
        1   -1    0    0  501    0  0.00000000000E+00  0.00000000000E+00  0.25127228995E+04  0.25127228995E+04  0.50400001928E-02 0.  1.
       -1   -1    0    0    0  501  0.00000000000E+00  0.00000000000E+00 -0.95218379024E+03  0.95218379025E+03  0.50400001928E-02 0. -1.
    10030    2    1    2    0    0  0.00000000000E+00  0.00000000000E+00  0.15605391093E+04  0.34649066898E+04  0.30935895101E+04 0.  0.
        4    1    3    3  502    0 -0.77226453098E+03 -0.73465213887E+03  0.20357335147E+04  0.22978944333E+04  0.12699999809E+01 0.  1.
       -4    1    3    3    0  502  0.77226453098E+03  0.73465213887E+03 -0.47519440538E+03  0.11670122565E+04  0.12699999809E+01 0. -1.
</event>
<event>
 5   0  0.5154105E-07  0.3098644E+04  0.7818609E-02  0.8216110E-01
       -2   -1    0    0    0  501  0.00000000000E+00  0.00000000000E+00  0.13450447783E+04  0.13450447783E+04  0.25500000920E-02 0.  1.
        2   -1    0    0  501    0  0.00000000000E+00  0.00000000000E+00 -0.17846234496E+04  0.17846234496E+04  0.25500000920E-02 0. -1.
    10030    2    1    2    0    0  0.00000000000E+00  0.00000000000E+00 -0.43957867131E+03  0.31296682279E+04  0.30986438661E+04 0.  0.
        1    1    3    3  502    0 -0.34765244725E+03 -0.71393707737E+03 -0.15634587207E+04  0.17535596784E+04  0.50400001928E-02 0. -1.
       -1    1    3    3    0  502  0.34765244725E+03  0.71393707737E+03  0.11238800494E+04  0.13761085495E+04  0.50400001928E-02 0.  1.
</event>
<event>
 5   0  0.1875284E-07  0.3096215E+04  0.7818609E-02  0.8216778E-01
       -1   -1    0    0    0  501  0.00000000000E+00  0.00000000000E+00  0.10752505523E+04  0.10752505523E+04  0.50400001928E-02 0.  1.
        1   -1    0    0  501    0  0.00000000000E+00  0.00000000000E+00 -0.22289097181E+04  0.22289097181E+04  0.50400001928E-02 0. -1.
    10030    2    1    2    0    0  0.00000000000E+00  0.00000000000E+00 -0.11536591658E+04  0.33041602704E+04  0.30962147248E+04 0.  0.
        4    1    3    3  502    0 -0.14741831723E+04  0.11998111310E+03 -0.88933442267E+02  0.14817294837E+04  0.12699999809E+01 0.  1.
       -4    1    3    3    0  502  0.14741831723E+04 -0.11998111310E+03 -0.10647257236E+04  0.18224307867E+04  0.12699999809E+01 0. -1.
</event>
<event>
 5   0  0.1845123E-07  0.3100109E+04  0.7818609E-02  0.8215708E-01
        1   -1    0    0  501    0  0.00000000000E+00  0.00000000000E+00  0.12804418203E+04  0.12804418203E+04  0.50400001928E-02 0. -1.
       -1   -1    0    0    0  501  0.00000000000E+00  0.00000000000E+00 -0.18764374127E+04  0.18764374127E+04  0.50400001928E-02 0.  1.
    10030    2    1    2    0    0  0.00000000000E+00  0.00000000000E+00 -0.59599559240E+03  0.31568792331E+04  0.31001089894E+04 0.  0.
        2    1    3    3  502    0 -0.15255384609E+04 -0.23996513181E+03 -0.43392657428E+03  0.16041019706E+04  0.25500000920E-02 0.  1.
       -2    1    3    3    0  502  0.15255384609E+04  0.23996513181E+03 -0.16206901812E+03  0.15527772625E+04  0.25500000920E-02 0. -1.
</event>
<event>
 5   0  0.1845123E-07  0.3092720E+04  0.7818609E-02  0.8217739E-01
        1   -1    0    0  501    0  0.00000000000E+00  0.00000000000E+00  0.28902438783E+04  0.28902438783E+04  0.50400001928E-02 0. -1.
       -1   -1    0    0    0  501  0.00000000000E+00  0.00000000000E+00 -0.82734538414E+03  0.82734538416E+03  0.50400001928E-02 0.  1.
    10030    2    1    2    0    0  0.00000000000E+00  0.00000000000E+00  0.20628984941E+04  0.37175892625E+04  0.30927204412E+04 0.  0.
        2    1    3    3  502    0  0.13700206234E+04 -0.71402337561E+03  0.11115819589E+04  0.19032604500E+04  0.25500000920E-02 0.  1.
       -2    1    3    3    0  502 -0.13700206234E+04  0.71402337561E+03  0.95131653526E+03  0.18143288124E+04  0.25500000920E-02 0. -1.
</event>
<event>
 5   0  0.1840359E-07  0.3099332E+04  0.7818609E-02  0.8215921E-01
       -1   -1    0    0    0  501  0.00000000000E+00  0.00000000000E+00  0.11119627167E+04  0.11119627167E+04  0.50400001928E-02 0. -1.
        1   -1    0    0  501    0  0.00000000000E+00  0.00000000000E+00 -0.21596629682E+04  0.21596629682E+04  0.50400001928E-02 0.  1.
    10030    2    1    2    0    0  0.00000000000E+00  0.00000000000E+00 -0.10477002515E+04  0.32716256849E+04  0.30993319934E+04 0.  0.
        1    1    3    3  502    0  0.90332836061E+03 -0.10532951117E+04 -0.12521556020E+04  0.18690442400E+04  0.50400001928E-02 0. -1.
       -1    1    3    3    0  502 -0.90332836061E+03  0.10532951117E+04  0.20445535043E+03  0.14025814450E+04  0.50400001928E-02 0.  1.
</event>
<event>
 5   0  0.1875284E-07  0.3124396E+04  0.7818609E-02  0.8209074E-01
       -1   -1    0    0    0  501  0.00000000000E+00  0.00000000000E+00  0.10404894195E+04  0.10404894195E+04  0.50400001928E-02 0. -1.
        1   -1    0    0  501    0  0.00000000000E+00  0.00000000000E+00 -0.23454947817E+04  0.23454947817E+04  0.50400001928E-02 0.  1.
    10030    2    1    2    0    0  0.00000000000E+00  0.00000000000E+00 -0.13050053623E+04  0.33859842012E+04  0.31243959441E+04 0.  0.
        4    1    3    3  502    0  0.46245849197E+03 -0.14874916982E+04 -0.78055416631E+03  0.17423449224E+04  0.12699999809E+01 0. -1.
       -4    1    3    3    0  502 -0.46245849197E+03  0.14874916982E+04 -0.52445119596E+03  0.16436392788E+04  0.12699999809E+01 0.  1.
</event>
<event>
 5   0  0.5248309E-07  0.3101287E+04  0.7818609E-02  0.8215385E-01
       -2   -1    0    0    0  501  0.00000000000E+00  0.00000000000E+00  0.11925460053E+04  0.11925460053E+04  0.25500000920E-02 0.  1.
        2   -1    0    0  501    0  0.00000000000E+00  0.00000000000E+00 -0.20162709303E+04  0.20162709303E+04  0.25500000920E-02 0. -1.
    10030    2    1    2    0    0  0.00000000000E+00  0.00000000000E+00 -0.82372492505E+03  0.32088169356E+04  0.31012873737E+04 0.  0.
        4    1    3    3  502    0 -0.14855572014E+04 -0.23650943528E+03 -0.80131370639E+03  0.17043832258E+04  0.12699999809E+01 0. -1.
       -4    1    3    3    0  502  0.14855572014E+04  0.23650943528E+03 -0.22411218662E+02  0.15044337098E+04  0.12699999809E+01 0.  1.
</event>
<event>
 5   0  0.5055900E-07  0.3099861E+04  0.7818609E-02  0.8215776E-01
       -2   -1    0    0    0  501  0.00000000000E+00  0.00000000000E+00  0.26882036355E+04  0.26882036355E+04  0.25500000920E-02 0. -1.
        2   -1    0    0  501    0  0.00000000000E+00  0.00000000000E+00 -0.89363907300E+03  0.89363907301E+03  0.25500000920E-02 0.  1.
    10030    2    1    2    0    0  0.00000000000E+00  0.00000000000E+00  0.17945645625E+04  0.35818427085E+04  0.30998605161E+04 0.  0.
        2    1    3    3  502    0  0.89237146746E+02 -0.15292072034E+04  0.11703434042E+04  0.19277296550E+04  0.25500000920E-02 0. -1.
       -2    1    3    3    0  502 -0.89237146746E+02  0.15292072034E+04  0.62422115831E+03  0.16541130535E+04  0.25500000920E-02 0.  1.
</event>
<event>
 5   0  0.1814075E-07  0.3110060E+04  0.7818609E-02  0.8212983E-01
        1   -1    0    0  501    0  0.00000000000E+00  0.00000000000E+00  0.21931742176E+04  0.21931742176E+04  0.50400001928E-02 0.  1.
       -1   -1    0    0    0  501  0.00000000000E+00  0.00000000000E+00 -0.11025652128E+04  0.11025652128E+04  0.50400001928E-02 0. -1.
    10030    2    1    2    0    0  0.00000000000E+00  0.00000000000E+00  0.10906090048E+04  0.32957394304E+04  0.31100595480E+04 0.  0.
        5    1    3    3  502    0  0.10575332138E+04 -0.50582320341E+03  0.16279983926E+04  0.20061491639E+04  0.46999998093E+01 0.  1.
       -5    1    3    3    0  502 -0.10575332138E+04  0.50582320341E+03 -0.53738938775E+03  0.12895902665E+04  0.46999998093E+01 0. -1.
</event>
<event>
 5   0  0.5055900E-07  0.3101252E+04  0.7818609E-02  0.8215394E-01
        2   -1    0    0  501    0  0.00000000000E+00  0.00000000000E+00  0.21217733992E+04  0.21217733992E+04  0.25500000920E-02 0.  1.
       -2   -1    0    0    0  501  0.00000000000E+00  0.00000000000E+00 -0.11332225631E+04  0.11332225631E+04  0.25500000920E-02 0. -1.
    10030    2    1    2    0    0  0.00000000000E+00  0.00000000000E+00  0.98855083608E+03  0.32549959623E+04  0.31012523211E+04 0.  0.
        2    1    3    3  502    0 -0.73535991122E+03  0.79717864967E+03  0.16574549397E+04  0.19807586617E+04  0.25500000920E-02 0.  1.
       -2    1    3    3    0  502  0.73535991122E+03 -0.79717864967E+03 -0.66890410365E+03  0.12742373007E+04  0.25500000920E-02 0. -1.
</event>
<event>
 5   0  0.1814075E-07  0.3099503E+04  0.7818609E-02  0.8215874E-01
        1   -1    0    0  501    0  0.00000000000E+00  0.00000000000E+00  0.14799869762E+04  0.14799869762E+04  0.50400001928E-02 0. -1.
       -1   -1    0    0    0  501  0.00000000000E+00  0.00000000000E+00 -0.16228050895E+04  0.16228050895E+04  0.50400001928E-02 0.  1.
    10030    2    1    2    0    0  0.00000000000E+00  0.00000000000E+00 -0.14281811332E+03  0.31027920657E+04  0.30995034424E+04 0.  0.
        5    1    3    3  502    0  0.29914537843E+03  0.10877707559E+04  0.99225072228E+03  0.15024369406E+04  0.46999998093E+01 0. -1.
       -5    1    3    3    0  502 -0.29914537843E+03 -0.10877707559E+04 -0.11350688356E+04  0.16003551251E+04  0.46999998093E+01 0.  1.
</event>
<event>
 5   0  0.5154105E-07  0.3099791E+04  0.7818609E-02  0.8215795E-01
       -2   -1    0    0    0  501  0.00000000000E+00  0.00000000000E+00  0.23373358174E+04  0.23373358174E+04  0.25500000920E-02 0.  1.
        2   -1    0    0  501    0  0.00000000000E+00  0.00000000000E+00 -0.10277409798E+04  0.10277409798E+04  0.25500000920E-02 0. -1.
    10030    2    1    2    0    0  0.00000000000E+00  0.00000000000E+00  0.13095948375E+04  0.33650767972E+04  0.30997908337E+04 0.  0.
        1    1    3    3  502    0  0.77566341594E+03  0.35979506623E+03 -0.74853273432E+03  0.11364011083E+04  0.50400001928E-02 0. -1.
       -1    1    3    3    0  502 -0.77566341594E+03 -0.35979506623E+03  0.20581275718E+04  0.22286756889E+04  0.50400001928E-02 0.  1.
</event>
<event>
 5   0  0.5248309E-07  0.3102920E+04  0.7818609E-02  0.8214937E-01
       -2   -1    0    0    0  501  0.00000000000E+00  0.00000000000E+00  0.14494170046E+04  0.14494170046E+04  0.25500000920E-02 0.  1.
        2   -1    0    0  501    0  0.00000000000E+00  0.00000000000E+00 -0.16606867638E+04  0.16606867638E+04  0.25500000920E-02 0. -1.
    10030    2    1    2    0    0  0.00000000000E+00  0.00000000000E+00 -0.21126975927E+03  0.31101037684E+04  0.31029196798E+04 0.  0.
        4    1    3    3  502    0  0.10031990557E+04  0.42185669475E+03 -0.12139320890E+04  0.16303386598E+04  0.12699999809E+01 0. -1.
       -4    1    3    3    0  502 -0.10031990557E+04 -0.42185669475E+03  0.10026623297E+04  0.14797651086E+04  0.12699999809E+01 0.  1.
</event>
<event>
 5   0  0.1830902E-07  0.3102340E+04  0.7818609E-02  0.8215096E-01
       -1   -1    0    0    0  501  0.00000000000E+00  0.00000000000E+00  0.96771023297E+03  0.96771023298E+03  0.50400001928E-02 0.  1.
        1   -1    0    0  501    0  0.00000000000E+00  0.00000000000E+00 -0.24864136355E+04  0.24864136355E+04  0.50400001928E-02 0. -1.
    10030    2    1    2    0    0  0.00000000000E+00  0.00000000000E+00 -0.15187034026E+04  0.34541238685E+04  0.31023397096E+04 0.  0.
        3    1    3    3  502    0  0.62768032045E+03  0.10362477070E+04 -0.18378705722E+04  0.22012633067E+04  0.10100000352E+00 0. -1.
       -3    1    3    3    0  502 -0.62768032045E+03 -0.10362477070E+04  0.31916716965E+03  0.12528605618E+04  0.10100000352E+00 0.  1.
</event>
<event>
 5   0  0.5248309E-07  0.3056141E+04  0.7818609E-02  0.8227879E-01
       -2   -1    0    0    0  501  0.00000000000E+00  0.00000000000E+00  0.97037988880E+03  0.97037988881E+03  0.25500000920E-02 0.  1.
        2   -1    0    0  501    0  0.00000000000E+00  0.00000000000E+00 -0.24062735898E+04  0.24062735898E+04  0.25500000920E-02 0. -1.
    10030    2    1    2    0    0  0.00000000000E+00  0.00000000000E+00 -0.14358937010E+04  0.33766534786E+04  0.30561410298E+04 0.  0.
        4    1    3    3  502    0 -0.26924056453E+03 -0.13740792745E+04 -0.41881181981E+02  0.14008354581E+04  0.12699999809E+01 0.  1.
       -4    1    3    3    0  502  0.26924056453E+03  0.13740792745E+04 -0.13940125190E+04  0.19758180205E+04  0.12699999809E+01 0. -1.
</event>
<event>
 5   0  0.5376678E-07  0.3101051E+04  0.7818609E-02  0.8215450E-01
        2   -1    0    0  501    0  0.00000000000E+00  0.00000000000E+00  0.17120201067E+04  0.17120201068E+04  0.25500000920E-02 0. -1.
       -2   -1    0    0    0  501  0.00000000000E+00  0.00000000000E+00 -0.14042643330E+04  0.14042643330E+04  0.25500000920E-02 0.  1.
    10030    2    1    2    0    0  0.00000000000E+00  0.00000000000E+00  0.30775577374E+03  0.31162844398E+04  0.31010506435E+04 0.  0.
        5    1    3    3  502    0 -0.10980311174E+04 -0.59134048753E+03  0.10796803346E+04  0.16495719511E+04  0.46999998093E+01 0. -1.
       -5    1    3    3    0  502  0.10980311174E+04  0.59134048753E+03 -0.77192456084E+03  0.14667124887E+04  0.46999998093E+01 0.  1.
</event>
<event>
 5   0  0.5154105E-07  0.3099332E+04  0.7818609E-02  0.8215921E-01
       -2   -1    0    0    0  501  0.00000000000E+00  0.00000000000E+00  0.19281115680E+04  0.19281115680E+04  0.25500000920E-02 0.  1.
        2   -1    0    0  501    0  0.00000000000E+00  0.00000000000E+00 -0.12455006140E+04  0.12455006140E+04  0.25500000920E-02 0. -1.
    10030    2    1    2    0    0  0.00000000000E+00  0.00000000000E+00  0.68261095402E+03  0.31736121821E+04  0.30993316324E+04 0.  0.
        1    1    3    3  502    0 -0.13877842296E+04  0.26958968446E+03 -0.30860323083E+03  0.14470174913E+04  0.50400001928E-02 0. -1.
       -1    1    3    3    0  502  0.13877842296E+04 -0.26958968446E+03  0.99121418485E+03  0.17265946908E+04  0.50400001928E-02 0.  1.
</event>
<event>
 5   0  0.1875284E-07  0.3092911E+04  0.7818609E-02  0.8217686E-01
        1   -1    0    0  501    0  0.00000000000E+00  0.00000000000E+00  0.28616700320E+04  0.28616700320E+04  0.50400001928E-02 0. -1.
       -1   -1    0    0    0  501  0.00000000000E+00  0.00000000000E+00 -0.83570938813E+03  0.83570938815E+03  0.50400001928E-02 0.  1.
    10030    2    1    2    0    0  0.00000000000E+00  0.00000000000E+00  0.20259606438E+04  0.36973794201E+04  0.30929109341E+04 0.  0.
        4    1    3    3  502    0 -0.21650764596E+03 -0.10968391646E+04  0.22902479609E+04  0.25485621533E+04  0.12699999809E+01 0. -1.
       -4    1    3    3    0  502  0.21650764596E+03  0.10968391646E+04 -0.26428731711E+03  0.11488172668E+04  0.12699999809E+01 0.  1.
</event>
<event>
 5   0  0.5154105E-07  0.3096314E+04  0.7818609E-02  0.8216750E-01
       -2   -1    0    0    0  501  0.00000000000E+00  0.00000000000E+00  0.13743990857E+04  0.13743990857E+04  0.25500000920E-02 0. -1.
        2   -1    0    0  501    0  0.00000000000E+00  0.00000000000E+00 -0.17438823477E+04  0.17438823477E+04  0.25500000920E-02 0.  1.
    10030    2    1    2    0    0  0.00000000000E+00  0.00000000000E+00 -0.36948326193E+03  0.31182814334E+04  0.30963141341E+04 0.  0.
        1    1    3    3  502    0 -0.14759484699E+04  0.45591371636E+03 -0.81500419736E+02  0.15469077287E+04  0.50400001928E-02 0. -1.
       -1    1    3    3    0  502  0.14759484699E+04 -0.45591371636E+03 -0.28798284219E+03  0.15713737048E+04  0.50400001928E-02 0.  1.
</event>
<event>
 5   0  0.1845123E-07  0.3101036E+04  0.7818609E-02  0.8215454E-01
       -1   -1    0    0    0  501  0.00000000000E+00  0.00000000000E+00  0.10900005177E+04  0.10900005178E+04  0.50400001928E-02 0.  1.
        1   -1    0    0  501    0  0.00000000000E+00  0.00000000000E+00 -0.22056014964E+04  0.22056014964E+04  0.50400001928E-02 0. -1.
    10030    2    1    2    0    0  0.00000000000E+00  0.00000000000E+00 -0.11156009787E+04  0.32956020142E+04  0.31010364545E+04 0.  0.
        2    1    3    3  502    0  0.14604987522E+04  0.11573769241E+02 -0.11109536373E+04  0.18350500106E+04  0.25500000920E-02 0. -1.
       -2    1    3    3    0  502 -0.14604987522E+04 -0.11573769241E+02 -0.46473413784E+01  0.14605520035E+04  0.25500000920E-02 0.  1.
</event>
<event>
 5   0  0.5342534E-07  0.3099221E+04  0.7818609E-02  0.8215952E-01
       -2   -1    0    0    0  501  0.00000000000E+00  0.00000000000E+00  0.13690600661E+04  0.13690600661E+04  0.25500000920E-02 0.  1.
        2   -1    0    0  501    0  0.00000000000E+00  0.00000000000E+00 -0.17539718043E+04  0.17539718043E+04  0.25500000920E-02 0. -1.
    10030    2    1    2    0    0  0.00000000000E+00  0.00000000000E+00 -0.38491173820E+03  0.31230318705E+04  0.30992210340E+04 0.  0.
        3    1    3    3  502    0  0.40638464668E+03  0.17761244469E+03  0.13037404364E+04  0.13771106699E+04  0.10100000352E+00 0.  1.
       -3    1    3    3    0  502 -0.40638464668E+03 -0.17761244469E+03 -0.16886521746E+04  0.17459212005E+04  0.10100000352E+00 0. -1.
</event>
<event>
 5   0  0.1875284E-07  0.3096224E+04  0.7818609E-02  0.8216775E-01
        1   -1    0    0  501    0  0.00000000000E+00  0.00000000000E+00  0.14468352934E+04  0.14468352934E+04  0.50400001928E-02 0. -1.
       -1   -1    0    0    0  501  0.00000000000E+00  0.00000000000E+00 -0.16564783958E+04  0.16564783958E+04  0.50400001928E-02 0.  1.
    10030    2    1    2    0    0  0.00000000000E+00  0.00000000000E+00 -0.20964310240E+03  0.31033136891E+04  0.30962244141E+04 0.  0.
        4    1    3    3  502    0  0.91010384583E+03 -0.72763874299E+03  0.91677794900E+03  0.14826431031E+04  0.12699999809E+01 0. -1.
       -4    1    3    3    0  502 -0.91010384583E+03  0.72763874299E+03 -0.11264210514E+04  0.16206705860E+04  0.12699999809E+01 0.  1.
</event>
<event>
 5   0  0.1875284E-07  0.3096600E+04  0.7818609E-02  0.8216671E-01
       -1   -1    0    0    0  501  0.00000000000E+00  0.00000000000E+00  0.15852204082E+04  0.15852204082E+04  0.50400001928E-02 0. -1.
        1   -1    0    0  501    0  0.00000000000E+00  0.00000000000E+00 -0.15122399406E+04  0.15122399406E+04  0.50400001928E-02 0.  1.
    10030    2    1    2    0    0  0.00000000000E+00  0.00000000000E+00  0.72980467622E+02  0.30974603488E+04  0.30966004688E+04 0.  0.
        4    1    3    3  502    0  0.58763053586E+03  0.79853662898E+03 -0.11530673127E+04  0.15207025465E+04  0.12699999809E+01 0.  1.
       -4    1    3    3    0  502 -0.58763053586E+03 -0.79853662898E+03  0.12260477803E+04  0.15767578023E+04  0.12699999809E+01 0. -1.
</event>
<event>
 5   0  0.5154105E-07  0.3098804E+04  0.7818609E-02  0.8216066E-01
       -2   -1    0    0    0  501  0.00000000000E+00  0.00000000000E+00  0.15703521443E+04  0.15703521443E+04  0.25500000920E-02 0. -1.
        2   -1    0    0  501    0  0.00000000000E+00  0.00000000000E+00 -0.15287316673E+04  0.15287316673E+04  0.25500000920E-02 0.  1.
    10030    2    1    2    0    0  0.00000000000E+00  0.00000000000E+00  0.41620476978E+02  0.30990838116E+04  0.30988043189E+04 0.  0.
        1    1    3    3  502    0  0.39763372668E+03 -0.86136184565E+03  0.12459065375E+04  0.15659948627E+04  0.50400001928E-02 0. -1.
       -1    1    3    3    0  502 -0.39763372668E+03  0.86136184565E+03 -0.12042860605E+04  0.15330889489E+04  0.50400001928E-02 0.  1.
</event>
<event>
 5   0  0.5248309E-07  0.3098596E+04  0.7818609E-02  0.8216123E-01
       -2   -1    0    0    0  501  0.00000000000E+00  0.00000000000E+00  0.98528232730E+03  0.98528232731E+03  0.25500000920E-02 0.  1.
        2   -1    0    0  501    0  0.00000000000E+00  0.00000000000E+00 -0.24361785916E+04  0.24361785916E+04  0.25500000920E-02 0. -1.
    10030    2    1    2    0    0  0.00000000000E+00  0.00000000000E+00 -0.14508962643E+04  0.34214609189E+04  0.30985956254E+04 0.  0.
        4    1    3    3  502    0  0.24732589329E+03 -0.10921727761E+04 -0.19076668741E+04  0.22120592184E+04  0.12699999809E+01 0. -1.
       -4    1    3    3    0  502 -0.24732589329E+03  0.10921727761E+04  0.45677060973E+03  0.12094017005E+04  0.12699999809E+01 0.  1.
</event>
<event>
 5   0  0.1814075E-07  0.3098999E+04  0.7818609E-02  0.8216013E-01
        1   -1    0    0  501    0  0.00000000000E+00  0.00000000000E+00  0.18751448389E+04  0.18751448389E+04  0.50400001928E-02 0. -1.
       -1   -1    0    0    0  501  0.00000000000E+00  0.00000000000E+00 -0.12804071759E+04  0.12804071759E+04  0.50400001928E-02 0.  1.
    10030    2    1    2    0    0  0.00000000000E+00  0.00000000000E+00  0.59473766299E+03  0.31555520148E+04  0.30989991337E+04 0.  0.
        5    1    3    3  502    0 -0.71549421176E+03 -0.12248578519E+04  0.93221903953E+03  0.16974283938E+04  0.46999998093E+01 0.  1.
       -5    1    3    3    0  502  0.71549421176E+03  0.12248578519E+04 -0.33748137654E+03  0.14581236210E+04  0.46999998093E+01 0. -1.
</event>
<event>
 5   0  0.5154105E-07  0.3103728E+04  0.7818609E-02  0.8214716E-01
        2   -1    0    0  501    0  0.00000000000E+00  0.00000000000E+00  0.25141606558E+04  0.25141606558E+04  0.25500000920E-02 0.  1.
       -2   -1    0    0    0  501  0.00000000000E+00  0.00000000000E+00 -0.95788677194E+03  0.95788677195E+03  0.25500000920E-02 0. -1.
    10030    2    1    2    0    0  0.00000000000E+00  0.00000000000E+00  0.15562738839E+04  0.34720474278E+04  0.31037275878E+04 0.  0.
        1    1    3    3  502    0 -0.15391833463E+04 -0.19488347769E+03  0.73912290965E+03  0.17185364759E+04  0.50400001928E-02 0. -1.
       -1    1    3    3    0  502  0.15391833463E+04  0.19488347769E+03  0.81715097425E+03  0.17535109519E+04  0.50400001928E-02 0.  1.
</event>
<event>
 5   0  0.5342534E-07  0.3106676E+04  0.7818609E-02  0.8213908E-01
       -2   -1    0    0    0  501  0.00000000000E+00  0.00000000000E+00  0.13248459718E+04  0.13248459718E+04  0.25500000920E-02 0.  1.
        2   -1    0    0  501    0  0.00000000000E+00  0.00000000000E+00 -0.18212373369E+04  0.18212373369E+04  0.25500000920E-02 0. -1.
    10030    2    1    2    0    0  0.00000000000E+00  0.00000000000E+00 -0.49639136504E+03  0.31460833087E+04  0.31066760047E+04 0.  0.
        3    1    3    3  502    0  0.64739028281E+03  0.12669168516E+04  0.38314355829E+03  0.14734284793E+04  0.10100000352E+00 0.  1.
       -3    1    3    3    0  502 -0.64739028281E+03 -0.12669168516E+04 -0.87953492333E+03  0.16726548295E+04  0.10100000352E+00 0. -1.
</event>
<event>
 5   0  0.1840359E-07  0.3102063E+04  0.7818609E-02  0.8215172E-01
        1   -1    0    0  501    0  0.00000000000E+00  0.00000000000E+00  0.14184736152E+04  0.14184736152E+04  0.50400001928E-02 0.  1.
       -1   -1    0    0    0  501  0.00000000000E+00  0.00000000000E+00 -0.16959773653E+04  0.16959773653E+04  0.50400001928E-02 0. -1.
    10030    2    1    2    0    0  0.00000000000E+00  0.00000000000E+00 -0.27750375006E+03  0.31144509805E+04  0.31020632777E+04 0.  0.
        1    1    3    3  502    0  0.40255495937E+03  0.43766408022E+03 -0.15769872968E+04  0.16853751145E+04  0.50400001928E-02 0. -1.
       -1    1    3    3    0  502 -0.40255495937E+03 -0.43766408022E+03  0.12994835467E+04  0.14290758660E+04  0.50400001928E-02 0.  1.
</event>
<event>
 5   0  0.1840359E-07  0.3102866E+04  0.7818609E-02  0.8214952E-01
       -1   -1    0    0    0  501  0.00000000000E+00  0.00000000000E+00  0.12600410877E+04  0.12600410877E+04  0.50400001928E-02 0.  1.
        1   -1    0    0  501    0  0.00000000000E+00  0.00000000000E+00 -0.19102105218E+04  0.19102105218E+04  0.50400001928E-02 0. -1.
    10030    2    1    2    0    0  0.00000000000E+00  0.00000000000E+00 -0.65016943404E+03  0.31702516095E+04  0.31028656069E+04 0.  0.
        1    1    3    3  502    0 -0.13960874413E+04 -0.48420821237E+02 -0.10146788527E+04  0.17265508663E+04  0.50400001928E-02 0. -1.
       -1    1    3    3    0  502  0.13960874413E+04  0.48420821237E+02  0.36450941867E+03  0.14437007432E+04  0.50400001928E-02 0.  1.
</event>
<event>
 5   0  0.1830902E-07  0.3101435E+04  0.7818609E-02  0.8215344E-01
       -1   -1    0    0    0  501  0.00000000000E+00  0.00000000000E+00  0.12342571671E+04  0.12342571671E+04  0.50400001928E-02 0. -1.
        1   -1    0    0  501    0  0.00000000000E+00  0.00000000000E+00 -0.19483171587E+04  0.19483171587E+04  0.50400001928E-02 0.  1.
    10030    2    1    2    0    0  0.00000000000E+00  0.00000000000E+00 -0.71405999164E+03  0.31825743258E+04  0.31014347756E+04 0.  0.
        3    1    3    3  502    0 -0.14040876349E+04  0.50296724846E+03 -0.79273969351E+03  0.16890454024E+04  0.10100000352E+00 0.  1.
       -3    1    3    3    0  502  0.14040876349E+04 -0.50296724846E+03  0.78679701868E+02  0.14935289234E+04  0.10100000352E+00 0. -1.
</event>
<event>
 5   0  0.1814075E-07  0.3104499E+04  0.7818609E-02  0.8214504E-01
        1   -1    0    0  501    0  0.00000000000E+00  0.00000000000E+00  0.18069819409E+04  0.18069819409E+04  0.50400001928E-02 0. -1.
       -1   -1    0    0    0  501  0.00000000000E+00  0.00000000000E+00 -0.13334266648E+04  0.13334266648E+04  0.50400001928E-02 0.  1.
    10030    2    1    2    0    0  0.00000000000E+00  0.00000000000E+00  0.47355527605E+03  0.31404086057E+04  0.31044986087E+04 0.  0.
        5    1    3    3  502    0 -0.12187074271E+04 -0.50106985696E+03  0.10667171224E+04  0.16953543298E+04  0.46999998093E+01 0. -1.
       -5    1    3    3    0  502  0.12187074271E+04  0.50106985696E+03 -0.59316184630E+03  0.14450542759E+04  0.46999998093E+01 0.  1.
</event>
<event>
 5   0  0.1830902E-07  0.3102773E+04  0.7818609E-02  0.8214977E-01
       -1   -1    0    0    0  501  0.00000000000E+00  0.00000000000E+00  0.22520629660E+04  0.22520629660E+04  0.50400001928E-02 0.  1.
        1   -1    0    0  501    0  0.00000000000E+00  0.00000000000E+00 -0.10687093383E+04  0.10687093383E+04  0.50400001928E-02 0. -1.
    10030    2    1    2    0    0  0.00000000000E+00  0.00000000000E+00  0.11833536277E+04  0.33207723043E+04  0.31027734189E+04 0.  0.
        3    1    3    3  502    0 -0.19995124386E+02  0.14652958998E+04  0.11366783062E+04  0.18545968459E+04  0.10100000352E+00 0.  1.
       -3    1    3    3    0  502  0.19995124386E+02 -0.14652958998E+04  0.46675321565E+02  0.14661754584E+04  0.10100000352E+00 0. -1.
</event>
<event>
 5   0  0.5248309E-07  0.3096423E+04  0.7818609E-02  0.8216720E-01
       -2   -1    0    0    0  501  0.00000000000E+00  0.00000000000E+00  0.12262606141E+04  0.12262606141E+04  0.25500000920E-02 0. -1.
        2   -1    0    0  501    0  0.00000000000E+00  0.00000000000E+00 -0.19546900466E+04  0.19546900466E+04  0.25500000920E-02 0.  1.
    10030    2    1    2    0    0  0.00000000000E+00  0.00000000000E+00 -0.72842943256E+03  0.31809506607E+04  0.30964233670E+04 0.  0.
        4    1    3    3  502    0  0.32013396966E+03  0.22763725431E+03  0.11742150314E+04  0.12381789172E+04  0.12699999809E+01 0. -1.
       -4    1    3    3    0  502 -0.32013396966E+03 -0.22763725431E+03 -0.19026444640E+04  0.19427717435E+04  0.12699999809E+01 0.  1.
</event>
<event>
 5   0  0.5154105E-07  0.3101787E+04  0.7818609E-02  0.8215248E-01
        2   -1    0    0  501    0  0.00000000000E+00  0.00000000000E+00  0.10056947886E+04  0.10056947886E+04  0.25500000920E-02 0. -1.
       -2   -1    0    0    0  501  0.00000000000E+00  0.00000000000E+00 -0.23916513554E+04  0.23916513554E+04  0.25500000920E-02 0.  1.
    10030    2    1    2    0    0  0.00000000000E+00  0.00000000000E+00 -0.13859565668E+04  0.33973461440E+04  0.31017874230E+04 0.  0.
        1    1    3    3  502    0 -0.10697941961E+04  0.89552289067E+03 -0.14349089816E+04  0.20013457111E+04  0.50400001928E-02 0.  1.
       -1    1    3    3    0  502  0.10697941961E+04 -0.89552289067E+03  0.48952414846E+02  0.13960004329E+04  0.50400001928E-02 0. -1.
</event>
<event>
 5   0  0.1845123E-07  0.3100111E+04  0.7818609E-02  0.8215707E-01
        1   -1    0    0  501    0  0.00000000000E+00  0.00000000000E+00  0.12074158621E+04  0.12074158621E+04  0.50400001928E-02 0.  1.
       -1   -1    0    0    0  501  0.00000000000E+00  0.00000000000E+00 -0.19899297275E+04  0.19899297275E+04  0.50400001928E-02 0. -1.
    10030    2    1    2    0    0  0.00000000000E+00  0.00000000000E+00 -0.78251386536E+03  0.31973455896E+04  0.31001114286E+04 0.  0.
        2    1    3    3  502    0 -0.12388337088E+04  0.32934885183E+03 -0.12900799602E+04  0.18186494791E+04  0.25500000920E-02 0. -1.
       -2    1    3    3    0  502  0.12388337088E+04 -0.32934885183E+03  0.50756609484E+03  0.13786961104E+04  0.25500000920E-02 0.  1.
</event>
<event>
 5   0  0.5376678E-07  0.3100294E+04  0.7818609E-02  0.8215657E-01
        2   -1    0    0  501    0  0.00000000000E+00  0.00000000000E+00  0.15202278941E+04  0.15202278941E+04  0.25500000920E-02 0. -1.
       -2   -1    0    0    0  501  0.00000000000E+00  0.00000000000E+00 -0.15806548684E+04  0.15806548684E+04  0.25500000920E-02 0.  1.
    10030    2    1    2    0    0  0.00000000000E+00  0.00000000000E+00 -0.60426974250E+02  0.31008827625E+04  0.31002939357E+04 0.  0.
        5    1    3    3  502    0 -0.72751972500E+03  0.11592456141E+04 -0.75822409975E+03  0.15646281409E+04  0.46999998093E+01 0.  1.
       -5    1    3    3    0  502  0.72751972500E+03 -0.11592456141E+04  0.69779712550E+03  0.15362546216E+04  0.46999998093E+01 0. -1.
</event>
<event>
 5   0  0.1845123E-07  0.3096216E+04  0.7818609E-02  0.8216777E-01
       -1   -1    0    0    0  501  0.00000000000E+00  0.00000000000E+00  0.11617583038E+04  0.11617583038E+04  0.50400001928E-02 0.  1.
        1   -1    0    0  501    0  0.00000000000E+00  0.00000000000E+00 -0.20629408947E+04  0.20629408947E+04  0.50400001928E-02 0. -1.
    10030    2    1    2    0    0  0.00000000000E+00  0.00000000000E+00 -0.90118259092E+03  0.32246991985E+04  0.30962162164E+04 0.  0.
        2    1    3    3  502    0  0.32629099402E+03  0.13243323215E+04  0.31213484518E+03  0.13991962236E+04  0.25500000920E-02 0.  1.
       -2    1    3    3    0  502 -0.32629099402E+03 -0.13243323215E+04 -0.12133174361E+04  0.18255029749E+04  0.25500000920E-02 0. -1.
</event>
<event>
 5   0  0.5055900E-07  0.3097619E+04  0.7818609E-02  0.8216392E-01
        2   -1    0    0  501    0  0.00000000000E+00  0.00000000000E+00  0.17622476081E+04  0.17622476081E+04  0.25500000920E-02 0.  1.
       -2   -1    0    0    0  501  0.00000000000E+00  0.00000000000E+00 -0.13612221825E+04  0.13612221825E+04  0.25500000920E-02 0. -1.
    10030    2    1    2    0    0  0.00000000000E+00  0.00000000000E+00  0.40102542563E+03  0.31234697906E+04  0.30976187856E+04 0.  0.
        2    1    3    3  502    0  0.12585402845E+04 -0.89149440466E+03  0.34355785679E+03  0.15801006051E+04  0.25500000920E-02 0. -1.
       -2    1    3    3    0  502 -0.12585402845E+04  0.89149440466E+03  0.57467568839E+02  0.15433691855E+04  0.25500000920E-02 0.  1.
</event>
<event>
 5   0  0.5342534E-07  0.3098809E+04  0.7818609E-02  0.8216065E-01
       -2   -1    0    0    0  501  0.00000000000E+00  0.00000000000E+00  0.96657969188E+03  0.96657969188E+03  0.25500000920E-02 0. -1.
        2   -1    0    0  501    0  0.00000000000E+00  0.00000000000E+00 -0.24836595275E+04  0.24836595276E+04  0.25500000920E-02 0.  1.
    10030    2    1    2    0    0  0.00000000000E+00  0.00000000000E+00 -0.15170798357E+04  0.34502392194E+04  0.30988093590E+04 0.  0.
        3    1    3    3  502    0  0.86013590266E+03 -0.72383556034E+03  0.42862831151E+03  0.12031184186E+04  0.10100000352E+00 0. -1.
       -3    1    3    3    0  502 -0.86013590266E+03  0.72383556034E+03 -0.19457081472E+04  0.22471208009E+04  0.10100000352E+00 0.  1.
</event>
<event>
 5   0  0.1727000E-07  0.3100468E+04  0.7818609E-02  0.8215610E-01
        3   -1    0    0  501    0  0.00000000000E+00  0.00000000000E+00  0.98014758838E+03  0.98014759358E+03  0.10100000352E+00 0.  1.
       -3   -1    0    0    0  501  0.00000000000E+00  0.00000000000E+00 -0.24519009353E+04  0.24519009374E+04  0.10100000352E+00 0. -1.
    10030    2    1    2    0    0  0.00000000000E+00  0.00000000000E+00 -0.14717533469E+04  0.34320485310E+04  0.31004675784E+04 0.  0.
        5    1    3    3  502    0 -0.50791247725E+03  0.59378798170E+03  0.74620858140E+03  0.10804668383E+04  0.46999998093E+01 0.  1.
       -5    1    3    3    0  502  0.50791247725E+03 -0.59378798170E+03 -0.22179619283E+04  0.23515816927E+04  0.46999998093E+01 0. -1.
</event>
<event>
 5   0  0.5154105E-07  0.3100942E+04  0.7818609E-02  0.8215479E-01
       -2   -1    0    0    0  501  0.00000000000E+00  0.00000000000E+00  0.15608055504E+04  0.15608055504E+04  0.25500000920E-02 0.  1.
        2   -1    0    0  501    0  0.00000000000E+00  0.00000000000E+00 -0.15402046918E+04  0.15402046918E+04  0.25500000920E-02 0. -1.
    10030    2    1    2    0    0  0.00000000000E+00  0.00000000000E+00  0.20600858554E+02  0.31010102422E+04  0.31009418129E+04 0.  0.
        1    1    3    3  502    0  0.84096817768E+03  0.81691558985E+00 -0.12923149298E+04  0.15418514913E+04  0.50400001928E-02 0. -1.
       -1    1    3    3    0  502 -0.84096817768E+03 -0.81691558985E+00  0.13129157884E+04  0.15591587509E+04  0.50400001928E-02 0.  1.
</event>
<event>
 5   0  0.5248309E-07  0.3102662E+04  0.7818609E-02  0.8215008E-01
        2   -1    0    0  501    0  0.00000000000E+00  0.00000000000E+00  0.20109509572E+04  0.20109509572E+04  0.25500000920E-02 0.  1.
       -2   -1    0    0    0  501  0.00000000000E+00  0.00000000000E+00 -0.11967612891E+04  0.11967612891E+04  0.25500000920E-02 0. -1.
    10030    2    1    2    0    0  0.00000000000E+00  0.00000000000E+00  0.81418966817E+03  0.32077122463E+04  0.31026622503E+04 0.  0.
        4    1    3    3  502    0  0.26416943382E+03  0.29134647397E+03  0.19585566139E+04  0.19976520920E+04  0.12699999809E+01 0.  1.
       -4    1    3    3    0  502 -0.26416943382E+03 -0.29134647397E+03 -0.11443669458E+04  0.12100601543E+04  0.12699999809E+01 0. -1.
</event>
<event>
 5   0  0.1814075E-07  0.3077341E+04  0.7818609E-02  0.8221984E-01
       -1   -1    0    0    0  501  0.00000000000E+00  0.00000000000E+00  0.99741846803E+03  0.99741846805E+03  0.50400001928E-02 0. -1.
        1   -1    0    0  501    0  0.00000000000E+00  0.00000000000E+00 -0.23736351591E+04  0.23736351591E+04  0.50400001928E-02 0.  1.
    10030    2    1    2    0    0  0.00000000000E+00  0.00000000000E+00 -0.13762166910E+04  0.33710536271E+04  0.30773414137E+04 0.  0.
        5    1    3    3  502    0  0.24907144429E+03 -0.89153334401E+03  0.65827021605E+03  0.11358741370E+04  0.46999998093E+01 0. -1.
       -5    1    3    3    0  502 -0.24907144429E+03  0.89153334401E+03 -0.20344869071E+04  0.22351794901E+04  0.46999998093E+01 0.  1.
</event>
<event>
 5   0  0.1875284E-07  0.3098375E+04  0.7818609E-02  0.8216184E-01
        1   -1    0    0  501    0  0.00000000000E+00  0.00000000000E+00  0.25625228441E+04  0.25625228441E+04  0.50400001928E-02 0. -1.
       -1   -1    0    0    0  501  0.00000000000E+00  0.00000000000E+00 -0.93656992704E+03  0.93656992705E+03  0.50400001928E-02 0.  1.
    10030    2    1    2    0    0  0.00000000000E+00  0.00000000000E+00  0.16259529171E+04  0.34990927712E+04  0.30983749503E+04 0.  0.
        4    1    3    3  502    0  0.47316110273E+03 -0.10447340684E+04  0.19891250530E+04  0.22960772617E+04  0.12699999809E+01 0. -1.
       -4    1    3    3    0  502 -0.47316110273E+03  0.10447340684E+04 -0.36317213588E+03  0.12030155094E+04  0.12699999809E+01 0.  1.
</event>
<event>
 5   0  0.1814075E-07  0.3104046E+04  0.7818609E-02  0.8214629E-01
        1   -1    0    0  501    0  0.00000000000E+00  0.00000000000E+00  0.15498635573E+04  0.15498635573E+04  0.50400001928E-02 0. -1.
       -1   -1    0    0    0  501  0.00000000000E+00  0.00000000000E+00 -0.15541850791E+04  0.15541850791E+04  0.50400001928E-02 0.  1.
    10030    2    1    2    0    0  0.00000000000E+00  0.00000000000E+00 -0.43215218669E+01  0.31040486364E+04  0.31040456282E+04 0.  0.
        5    1    3    3  502    0 -0.10803672753E+04 -0.10311668047E+04  0.42004137356E+03  0.15514365195E+04  0.46999998093E+01 0. -1.
       -5    1    3    3    0  502  0.10803672753E+04  0.10311668047E+04 -0.42436289543E+03  0.15526121169E+04  0.46999998093E+01 0.  1.
</event>
<event>
 5   0  0.5342534E-07  0.3123147E+04  0.7818609E-02  0.8209414E-01
       -2   -1    0    0    0  501  0.00000000000E+00  0.00000000000E+00  0.15490500673E+04  0.15490500673E+04  0.25500000920E-02 0. -1.
        2   -1    0    0  501    0  0.00000000000E+00  0.00000000000E+00 -0.15741982678E+04  0.15741982678E+04  0.25500000920E-02 0.  1.
    10030    2    1    2    0    0  0.00000000000E+00  0.00000000000E+00 -0.25148200519E+02  0.31232483351E+04  0.31231470876E+04 0.  0.
        3    1    3    3  502    0 -0.95201531815E+03  0.89862994159E+03  0.83871314206E+03  0.15547696559E+04  0.10100000352E+00 0. -1.
       -3    1    3    3    0  502  0.95201531815E+03 -0.89862994159E+03 -0.86386134258E+03  0.15684786793E+04  0.10100000352E+00 0.  1.
</event>
<event>
 5   0  0.5055900E-07  0.3097754E+04  0.7818609E-02  0.8216355E-01
       -2   -1    0    0    0  501  0.00000000000E+00  0.00000000000E+00  0.18261428925E+04  0.18261428925E+04  0.25500000920E-02 0. -1.
        2   -1    0    0  501    0  0.00000000000E+00  0.00000000000E+00 -0.13137084564E+04  0.13137084564E+04  0.25500000920E-02 0.  1.
    10030    2    1    2    0    0  0.00000000000E+00  0.00000000000E+00  0.51243443612E+03  0.31398513490E+04  0.30977536123E+04 0.  0.
        2    1    3    3  502    0 -0.10788187083E+04 -0.11113812023E+04  0.25502729219E+03  0.15697314745E+04  0.25500000920E-02 0. -1.
       -2    1    3    3    0  502  0.10788187083E+04  0.11113812023E+04  0.25740714393E+03  0.15701198744E+04  0.25500000920E-02 0.  1.
</event>
<event>
 5   0  0.5376678E-07  0.3106457E+04  0.7818609E-02  0.8213968E-01
       -2   -1    0    0    0  501  0.00000000000E+00  0.00000000000E+00  0.93407308689E+03  0.93407308690E+03  0.25500000920E-02 0. -1.
        2   -1    0    0  501    0  0.00000000000E+00  0.00000000000E+00 -0.25827944856E+04  0.25827944856E+04  0.25500000920E-02 0.  1.
    10030    2    1    2    0    0  0.00000000000E+00  0.00000000000E+00 -0.16487213987E+04  0.35168675725E+04  0.31064570288E+04 0.  0.
        5    1    3    3  502    0 -0.89729329537E+03  0.11642220327E+04 -0.25610136529E+03  0.14920315676E+04  0.46999998093E+01 0. -1.
       -5    1    3    3    0  502  0.89729329537E+03 -0.11642220327E+04 -0.13926200334E+04  0.20248360049E+04  0.46999998093E+01 0.  1.
</event>
<event>
 5   0  0.1875284E-07  0.3101368E+04  0.7818609E-02  0.8215363E-01
        1   -1    0    0  501    0  0.00000000000E+00  0.00000000000E+00  0.15314816891E+04  0.15314816891E+04  0.50400001928E-02 0. -1.
       -1   -1    0    0    0  501  0.00000000000E+00  0.00000000000E+00 -0.15701271820E+04  0.15701271820E+04  0.50400001928E-02 0.  1.
    10030    2    1    2    0    0  0.00000000000E+00  0.00000000000E+00 -0.38645492914E+02  0.31016088711E+04  0.31013681038E+04 0.  0.
        4    1    3    3  502    0 -0.31119800016E+03  0.66412358602E+03  0.13470611419E+04  0.15337795362E+04  0.12699999809E+01 0. -1.
       -4    1    3    3    0  502  0.31119800016E+03 -0.66412358602E+03 -0.13857066348E+04  0.15678293349E+04  0.12699999809E+01 0.  1.
</event>
<event>
 5   0  0.1840359E-07  0.3101185E+04  0.7818609E-02  0.8215413E-01
        1   -1    0    0  501    0  0.00000000000E+00  0.00000000000E+00  0.20844287943E+04  0.20844287943E+04  0.50400001928E-02 0.  1.
       -1   -1    0    0    0  501  0.00000000000E+00  0.00000000000E+00 -0.11534753520E+04  0.11534753520E+04  0.50400001928E-02 0. -1.
    10030    2    1    2    0    0  0.00000000000E+00  0.00000000000E+00  0.93095344229E+03  0.32379041464E+04  0.31011850879E+04 0.  0.
        1    1    3    3  502    0  0.35747005253E+03  0.15087807004E+04  0.45342681492E+03  0.16154875167E+04  0.50400001928E-02 0. -1.
       -1    1    3    3    0  502 -0.35747005253E+03 -0.15087807004E+04  0.47752662737E+03  0.16224166296E+04  0.50400001928E-02 0.  1.
</event>
<event>
 5   0  0.5055900E-07  0.3102453E+04  0.7818609E-02  0.8215065E-01
        2   -1    0    0  501    0  0.00000000000E+00  0.00000000000E+00  0.23519259848E+04  0.23519259848E+04  0.25500000920E-02 0.  1.
       -2   -1    0    0    0  501  0.00000000000E+00  0.00000000000E+00 -0.10231204596E+04  0.10231204596E+04  0.25500000920E-02 0. -1.
    10030    2    1    2    0    0  0.00000000000E+00  0.00000000000E+00  0.13288055252E+04  0.33750464444E+04  0.31024529614E+04 0.  0.
        2    1    3    3  502    0 -0.11078861465E+03  0.43344544360E+03 -0.95141549916E+03  0.10513517593E+04  0.25500000920E-02 0. -1.
       -2    1    3    3    0  502  0.11078861465E+03 -0.43344544360E+03  0.22802210243E+04  0.23236946851E+04  0.25500000920E-02 0.  1.
</event>
<event>
 5   0  0.1727000E-07  0.3097472E+04  0.7818609E-02  0.8216432E-01
       -3   -1    0    0    0  501  0.00000000000E+00  0.00000000000E+00  0.13009220056E+04  0.13009220095E+04  0.10100000352E+00 0. -1.
        3   -1    0    0  501    0  0.00000000000E+00  0.00000000000E+00 -0.18437562175E+04  0.18437562202E+04  0.10100000352E+00 0.  1.
    10030    2    1    2    0    0  0.00000000000E+00  0.00000000000E+00 -0.54283421187E+03  0.31446782298E+04  0.30974719026E+04 0.  0.
        1    1    3    3  502    0  0.66119821009E+03 -0.11046883740E+04 -0.11453871974E+04  0.17232037920E+04  0.50400001928E-02 0.  1.
       -1    1    3    3    0  502 -0.66119821009E+03  0.11046883740E+04  0.60255298557E+03  0.14214744377E+04  0.50400001928E-02 0. -1.
</event>
<event>
 5   0  0.1875284E-07  0.3103865E+04  0.7818609E-02  0.8214678E-01
        1   -1    0    0  501    0  0.00000000000E+00  0.00000000000E+00  0.16128699466E+04  0.16128699466E+04  0.50400001928E-02 0. -1.
       -1   -1    0    0    0  501  0.00000000000E+00  0.00000000000E+00 -0.14932971189E+04  0.14932971190E+04  0.50400001928E-02 0.  1.
    10030    2    1    2    0    0  0.00000000000E+00  0.00000000000E+00  0.11957282769E+03  0.31061670656E+04  0.31038647165E+04 0.  0.
        4    1    3    3  502    0 -0.36930950045E+03 -0.30708506635E+03  0.15366187450E+04  0.16099346339E+04  0.12699999809E+01 0. -1.
       -4    1    3    3    0  502  0.36930950045E+03  0.30708506635E+03 -0.14170459173E+04  0.14962324317E+04  0.12699999809E+01 0.  1.
</event>
<event>
 5   0  0.5248309E-07  0.3132984E+04  0.7818609E-02  0.8206744E-01
       -2   -1    0    0    0  501  0.00000000000E+00  0.00000000000E+00  0.10503591955E+04  0.10503591955E+04  0.25500000920E-02 0. -1.
        2   -1    0    0  501    0  0.00000000000E+00  0.00000000000E+00 -0.23362457137E+04  0.23362457137E+04  0.25500000920E-02 0.  1.
    10030    2    1    2    0    0  0.00000000000E+00  0.00000000000E+00 -0.12858865182E+04  0.33866049092E+04  0.31329839887E+04 0.  0.
        4    1    3    3  502    0 -0.43003459171E+03  0.12021035572E+04 -0.16241194352E+04  0.20658529146E+04  0.12699999809E+01 0.  1.
       -4    1    3    3    0  502  0.43003459171E+03 -0.12021035572E+04  0.33823291700E+03  0.13207519946E+04  0.12699999809E+01 0. -1.
</event>
<event>
 5   0  0.1814075E-07  0.3102450E+04  0.7818609E-02  0.8215066E-01
        1   -1    0    0  501    0  0.00000000000E+00  0.00000000000E+00  0.19465102194E+04  0.19465102194E+04  0.50400001928E-02 0.  1.
       -1   -1    0    0    0  501  0.00000000000E+00  0.00000000000E+00 -0.12362115358E+04  0.12362115359E+04  0.50400001928E-02 0. -1.
    10030    2    1    2    0    0  0.00000000000E+00  0.00000000000E+00  0.71029868351E+03  0.31827217552E+04  0.31024496050E+04 0.  0.
        5    1    3    3  502    0  0.13244728789E+04  0.47779998453E+03  0.10229569899E+04  0.17403977491E+04  0.46999998093E+01 0.  1.
       -5    1    3    3    0  502 -0.13244728789E+04 -0.47779998453E+03 -0.31265830635E+03  0.14423240061E+04  0.46999998093E+01 0. -1.
</event>
<event>
 5   0  0.5342534E-07  0.3102729E+04  0.7818609E-02  0.8214989E-01
        2   -1    0    0  501    0  0.00000000000E+00  0.00000000000E+00  0.23034855767E+04  0.23034855767E+04  0.25500000920E-02 0.  1.
       -2   -1    0    0    0  501  0.00000000000E+00  0.00000000000E+00 -0.10448215176E+04  0.10448215176E+04  0.25500000920E-02 0. -1.
    10030    2    1    2    0    0  0.00000000000E+00  0.00000000000E+00  0.12586640591E+04  0.33483070943E+04  0.31027286675E+04 0.  0.
        3    1    3    3  502    0  0.12087943123E+04 -0.88922989184E+03  0.10539436981E+04  0.18337695654E+04  0.10100000352E+00 0.  1.
       -3    1    3    3    0  502 -0.12087943123E+04  0.88922989184E+03  0.20472036099E+03  0.15145375289E+04  0.10100000352E+00 0. -1.
</event>
<event>
 5   0  0.5154105E-07  0.3103162E+04  0.7818609E-02  0.8214871E-01
       -2   -1    0    0    0  501  0.00000000000E+00  0.00000000000E+00  0.12331242476E+04  0.12331242476E+04  0.25500000920E-02 0. -1.
        2   -1    0    0  501    0  0.00000000000E+00  0.00000000000E+00 -0.19522802750E+04  0.19522802750E+04  0.25500000920E-02 0.  1.
    10030    2    1    2    0    0  0.00000000000E+00  0.00000000000E+00 -0.71915602742E+03  0.31854045226E+04  0.31031623516E+04 0.  0.
        1    1    3    3  502    0  0.26922823415E+02  0.49839657089E+02 -0.19512184643E+04  0.19520405543E+04  0.50400001928E-02 0.  1.
       -1    1    3    3    0  502 -0.26922823415E+02 -0.49839657089E+02  0.12320624369E+04  0.12333639683E+04  0.50400001928E-02 0. -1.
</event>
<event>
 5   0  0.1830902E-07  0.3095571E+04  0.7818609E-02  0.8216955E-01
       -1   -1    0    0    0  501  0.00000000000E+00  0.00000000000E+00  0.17426217241E+04  0.17426217241E+04  0.50400001928E-02 0. -1.
        1   -1    0    0  501    0  0.00000000000E+00  0.00000000000E+00 -0.13747330111E+04  0.13747330111E+04  0.50400001928E-02 0.  1.
    10030    2    1    2    0    0  0.00000000000E+00  0.00000000000E+00  0.36788871299E+03  0.31173547352E+04  0.30955707777E+04 0.  0.
        3    1    3    3  502    0  0.58104028607E+03  0.96490603934E+03 -0.88512321473E+03  0.14325133836E+04  0.10100000352E+00 0.  1.
       -3    1    3    3    0  502 -0.58104028607E+03 -0.96490603934E+03  0.12530119277E+04  0.16848413516E+04  0.10100000352E+00 0. -1.
</event>
<event>
 5   0  0.1875284E-07  0.3095834E+04  0.7818609E-02  0.8216882E-01
       -1   -1    0    0    0  501  0.00000000000E+00  0.00000000000E+00  0.22371637437E+04  0.22371637437E+04  0.50400001928E-02 0.  1.
        1   -1    0    0  501    0  0.00000000000E+00  0.00000000000E+00 -0.10710200323E+04  0.10710200323E+04  0.50400001928E-02 0. -1.
    10030    2    1    2    0    0  0.00000000000E+00  0.00000000000E+00  0.11661437114E+04  0.33081837761E+04  0.30958340945E+04 0.  0.
        4    1    3    3  502    0 -0.44471909806E+03 -0.14264918410E+04  0.10150151238E+04  0.18063530560E+04  0.12699999809E+01 0. -1.
       -4    1    3    3    0  502  0.44471909806E+03  0.14264918410E+04  0.15112858765E+03  0.15018307200E+04  0.12699999809E+01 0.  1.
</event>
<event>
 5   0  0.1875284E-07  0.3100216E+04  0.7818609E-02  0.8215679E-01
        1   -1    0    0  501    0  0.00000000000E+00  0.00000000000E+00  0.20177826525E+04  0.20177826525E+04  0.50400001928E-02 0.  1.
       -1   -1    0    0    0  501  0.00000000000E+00  0.00000000000E+00 -0.11908290112E+04  0.11908290112E+04  0.50400001928E-02 0. -1.
    10030    2    1    2    0    0  0.00000000000E+00  0.00000000000E+00  0.82695364123E+03  0.32086116637E+04  0.31002155544E+04 0.  0.
        4    1    3    3  502    0  0.54554639993E+03  0.94920479780E+03 -0.72226214188E+03  0.13115924813E+04  0.12699999809E+01 0. -1.
       -4    1    3    3    0  502 -0.54554639993E+03 -0.94920479780E+03  0.15492157831E+04  0.18970191823E+04  0.12699999809E+01 0.  1.
</event>
<event>
 5   0  0.1875284E-07  0.3104710E+04  0.7818609E-02  0.8214447E-01
        1   -1    0    0  501    0  0.00000000000E+00  0.00000000000E+00  0.27471487631E+04  0.27471487631E+04  0.50400001928E-02 0. -1.
       -1   -1    0    0    0  501  0.00000000000E+00  0.00000000000E+00 -0.87720242231E+03  0.87720242233E+03  0.50400001928E-02 0.  1.
    10030    2    1    2    0    0  0.00000000000E+00  0.00000000000E+00  0.18699463408E+04  0.36243511854E+04  0.31047096801E+04 0.  0.
        4    1    3    3  502    0 -0.52934870073E+03  0.42698763950E+03  0.25639802453E+04  0.26526448693E+04  0.12699999809E+01 0. -1.
       -4    1    3    3    0  502  0.52934870073E+03 -0.42698763950E+03 -0.69403390455E+03  0.97170631613E+03  0.12699999809E+01 0.  1.
</event>
<event>
 5   0  0.1840359E-07  0.3066263E+04  0.7818609E-02  0.8225058E-01
        1   -1    0    0  501    0  0.00000000000E+00  0.00000000000E+00  0.14219989074E+04  0.14219989074E+04  0.50400001928E-02 0. -1.
       -1   -1    0    0    0  501  0.00000000000E+00  0.00000000000E+00 -0.16529495480E+04  0.16529495481E+04  0.50400001928E-02 0.  1.
    10030    2    1    2    0    0  0.00000000000E+00  0.00000000000E+00 -0.23095064066E+03  0.30749484554E+04  0.30662631663E+04 0.  0.
        1    1    3    3  502    0 -0.26151701360E+02 -0.14011166230E+04 -0.73907328571E+03  0.15843108989E+04  0.50400001928E-02 0.  1.
       -1    1    3    3    0  502  0.26151701360E+02  0.14011166230E+04  0.50812264505E+03  0.14906375566E+04  0.50400001928E-02 0. -1.
</event>
<event>
 5   0  0.5376678E-07  0.3101607E+04  0.7818609E-02  0.8215297E-01
        2   -1    0    0  501    0  0.00000000000E+00  0.00000000000E+00  0.80374897711E+03  0.80374897712E+03  0.25500000920E-02 0. -1.
       -2   -1    0    0    0  501  0.00000000000E+00  0.00000000000E+00 -0.29922168667E+04  0.29922168668E+04  0.25500000920E-02 0.  1.
    10030    2    1    2    0    0  0.00000000000E+00  0.00000000000E+00 -0.21884678896E+04  0.37959658439E+04  0.31016068390E+04 0.  0.
        5    1    3    3  502    0  0.50948373318E+03  0.11386513306E+04  0.33367937960E+02  0.12478926381E+04  0.46999998093E+01 0. -1.
       -5    1    3    3    0  502 -0.50948373318E+03 -0.11386513306E+04 -0.22218358276E+04  0.25480732057E+04  0.46999998093E+01 0.  1.
</event>
<event>
 5   0  0.5055900E-07  0.3086937E+04  0.7818609E-02  0.8219332E-01
       -2   -1    0    0    0  501  0.00000000000E+00  0.00000000000E+00  0.11082774369E+04  0.11082774369E+04  0.25500000920E-02 0.  1.
        2   -1    0    0  501    0  0.00000000000E+00  0.00000000000E+00 -0.21495477316E+04  0.21495477316E+04  0.25500000920E-02 0. -1.
    10030    2    1    2    0    0  0.00000000000E+00  0.00000000000E+00 -0.10412702948E+04  0.32578251685E+04  0.30869371555E+04 0.  0.
        2    1    3    3  502    0 -0.21819633931E+03  0.72241611950E+02 -0.21313855355E+04  0.21437427070E+04  0.25500000920E-02 0. -1.
       -2    1    3    3    0  502  0.21819633931E+03 -0.72241611950E+02  0.10901152407E+04  0.11140824615E+04  0.25500000920E-02 0.  1.
</event>
<event>
 5   0  0.1845123E-07  0.3101492E+04  0.7818609E-02  0.8215329E-01
        1   -1    0    0  501    0  0.00000000000E+00  0.00000000000E+00  0.15077765343E+04  0.15077765343E+04  0.50400001928E-02 0.  1.
       -1   -1    0    0    0  501  0.00000000000E+00  0.00000000000E+00 -0.15949400772E+04  0.15949400772E+04  0.50400001928E-02 0. -1.
    10030    2    1    2    0    0  0.00000000000E+00  0.00000000000E+00 -0.87163542970E+02  0.31027166115E+04  0.31014920423E+04 0.  0.
        2    1    3    3  502    0 -0.97043958671E+03 -0.67024970646E+03  0.96370483212E+03  0.15230609521E+04  0.25500000920E-02 0.  1.
       -2    1    3    3    0  502  0.97043958671E+03  0.67024970646E+03 -0.10508683751E+04  0.15796556594E+04  0.25500000920E-02 0. -1.
</event>
<event>
 5   0  0.1840359E-07  0.3093467E+04  0.7818609E-02  0.8217533E-01
       -1   -1    0    0    0  501  0.00000000000E+00  0.00000000000E+00  0.22549484811E+04  0.22549484811E+04  0.50400001928E-02 0.  1.
        1   -1    0    0  501    0  0.00000000000E+00  0.00000000000E+00 -0.10609486761E+04  0.10609486761E+04  0.50400001928E-02 0. -1.
    10030    2    1    2    0    0  0.00000000000E+00  0.00000000000E+00  0.11939998050E+04  0.33158971573E+04  0.30934670555E+04 0.  0.
        1    1    3    3  502    0  0.35729192776E+03 -0.23399713571E+03 -0.99648878439E+03  0.10841596186E+04  0.50400001928E-02 0. -1.
       -1    1    3    3    0  502 -0.35729192776E+03  0.23399713571E+03  0.21904885894E+04  0.22317375387E+04  0.50400001928E-02 0.  1.
</event>
<event>
 5   0  0.1830902E-07  0.3063196E+04  0.7818609E-02  0.8225912E-01
       -1   -1    0    0    0  501  0.00000000000E+00  0.00000000000E+00  0.12530903527E+04  0.12530903527E+04  0.50400001928E-02 0.  1.
        1   -1    0    0  501    0  0.00000000000E+00  0.00000000000E+00 -0.18720063076E+04  0.18720063076E+04  0.50400001928E-02 0. -1.
    10030    2    1    2    0    0  0.00000000000E+00  0.00000000000E+00 -0.61891595491E+03  0.31250966603E+04  0.30631963986E+04 0.  0.
        3    1    3    3  502    0  0.73607870799E+03 -0.99748372556E+03 -0.12270821713E+04  0.17442810302E+04  0.10100000352E+00 0. -1.
       -3    1    3    3    0  502 -0.73607870799E+03  0.99748372556E+03  0.60816621640E+03  0.13808156300E+04  0.10100000352E+00 0.  1.
</event>
<event>
 5   0  0.1840359E-07  0.3090604E+04  0.7818609E-02  0.8218321E-01
       -1   -1    0    0    0  501  0.00000000000E+00  0.00000000000E+00  0.13406371671E+04  0.13406371671E+04  0.50400001928E-02 0. -1.
        1   -1    0    0  501    0  0.00000000000E+00  0.00000000000E+00 -0.17812118189E+04  0.17812118189E+04  0.50400001928E-02 0.  1.
    10030    2    1    2    0    0  0.00000000000E+00  0.00000000000E+00 -0.44057465184E+03  0.31218489860E+04  0.30906043207E+04 0.  0.
        1    1    3    3  502    0 -0.11958506534E+04  0.47918539939E+03 -0.10823087772E+04  0.16825782957E+04  0.50400001928E-02 0.  1.
       -1    1    3    3    0  502  0.11958506534E+04 -0.47918539939E+03  0.64173412531E+03  0.14392706902E+04  0.50400001928E-02 0. -1.
</event>
<event>
 5   0  0.1875284E-07  0.3083377E+04  0.7818609E-02  0.8220315E-01
       -1   -1    0    0    0  501  0.00000000000E+00  0.00000000000E+00  0.16304954529E+04  0.16304954529E+04  0.50400001928E-02 0. -1.
        1   -1    0    0  501    0  0.00000000000E+00  0.00000000000E+00 -0.14577184800E+04  0.14577184800E+04  0.50400001928E-02 0.  1.
    10030    2    1    2    0    0  0.00000000000E+00  0.00000000000E+00  0.17277697284E+03  0.30882139329E+04  0.30833769496E+04 0.  0.
        4    1    3    3  502    0 -0.77477304579E+03  0.53975575804E+03 -0.11342079142E+04  0.14758179956E+04  0.12699999809E+01 0.  1.
       -4    1    3    3    0  502  0.77477304579E+03 -0.53975575804E+03  0.13069848870E+04  0.16123959373E+04  0.12699999809E+01 0. -1.
</event>
<event>
 5   0  0.1875284E-07  0.3100611E+04  0.7818609E-02  0.8215570E-01
       -1   -1    0    0    0  501  0.00000000000E+00  0.00000000000E+00  0.20105214901E+04  0.20105214901E+04  0.50400001928E-02 0. -1.
        1   -1    0    0  501    0  0.00000000000E+00  0.00000000000E+00 -0.11954349236E+04  0.11954349236E+04  0.50400001928E-02 0.  1.
    10030    2    1    2    0    0  0.00000000000E+00  0.00000000000E+00  0.81508656644E+03  0.32059564137E+04  0.31006112971E+04 0.  0.
        4    1    3    3  502    0  0.56440222475E+03 -0.10174677371E+04  0.14668791734E+04  0.18723051539E+04  0.12699999809E+01 0. -1.
       -4    1    3    3    0  502 -0.56440222475E+03  0.10174677371E+04 -0.65179260694E+03  0.13336512597E+04  0.12699999809E+01 0.  1.
</event>
<event>
 5   0  0.1830902E-07  0.3058556E+04  0.7818609E-02  0.8227205E-01
       -1   -1    0    0    0  501  0.00000000000E+00  0.00000000000E+00  0.11907073596E+04  0.11907073597E+04  0.50400001928E-02 0.  1.
        1   -1    0    0  501    0  0.00000000000E+00  0.00000000000E+00 -0.19641197828E+04  0.19641197828E+04  0.50400001928E-02 0. -1.
    10030    2    1    2    0    0  0.00000000000E+00  0.00000000000E+00 -0.77341242319E+03  0.31548271425E+04  0.30585564442E+04 0.  0.
        3    1    3    3  502    0 -0.14491590060E+04  0.48680858073E+03 -0.34483983322E+03  0.15671499417E+04  0.10100000352E+00 0.  1.
       -3    1    3    3    0  502  0.14491590060E+04 -0.48680858073E+03 -0.42857258996E+03  0.15876772008E+04  0.10100000352E+00 0. -1.
</event>
<event>
 5   0  0.5055900E-07  0.3098368E+04  0.7818609E-02  0.8216186E-01
       -2   -1    0    0    0  501  0.00000000000E+00  0.00000000000E+00  0.10846666613E+04  0.10846666613E+04  0.25500000920E-02 0.  1.
        2   -1    0    0  501    0  0.00000000000E+00  0.00000000000E+00 -0.22126349479E+04  0.22126349479E+04  0.25500000920E-02 0. -1.
    10030    2    1    2    0    0  0.00000000000E+00  0.00000000000E+00 -0.11279682866E+04  0.32973016092E+04  0.30983681909E+04 0.  0.
        2    1    3    3  502    0 -0.19338978645E+03 -0.58557671852E+03  0.94841364924E+03  0.11312772219E+04  0.25500000920E-02 0.  1.
       -2    1    3    3    0  502  0.19338978645E+03  0.58557671852E+03 -0.20763819358E+04  0.21660243872E+04  0.25500000920E-02 0. -1.
</event>
<event>
 5   0  0.1814075E-07  0.3098817E+04  0.7818609E-02  0.8216063E-01
        1   -1    0    0  501    0  0.00000000000E+00  0.00000000000E+00  0.13458167955E+04  0.13458167955E+04  0.50400001928E-02 0. -1.
       -1   -1    0    0    0  501  0.00000000000E+00  0.00000000000E+00 -0.17837989924E+04  0.17837989924E+04  0.50400001928E-02 0.  1.
    10030    2    1    2    0    0  0.00000000000E+00  0.00000000000E+00 -0.43798219697E+03  0.31296157879E+04  0.30988169638E+04 0.  0.
        5    1    3    3  502    0 -0.33243516220E+03 -0.99982606804E+03 -0.13662742405E+04  0.17253674083E+04  0.46999998093E+01 0.  1.
       -5    1    3    3    0  502  0.33243516220E+03  0.99982606804E+03  0.92829204357E+03  0.14042483796E+04  0.46999998093E+01 0. -1.
</event>
<event>
 5   0  0.5154105E-07  0.3099184E+04  0.7818609E-02  0.8215962E-01
       -2   -1    0    0    0  501  0.00000000000E+00  0.00000000000E+00  0.94076129084E+03  0.94076129085E+03  0.25500000920E-02 0.  1.
        2   -1    0    0  501    0  0.00000000000E+00  0.00000000000E+00 -0.25524391158E+04  0.25524391158E+04  0.25500000920E-02 0. -1.
    10030    2    1    2    0    0  0.00000000000E+00  0.00000000000E+00 -0.16116778249E+04  0.34932004066E+04  0.30991843555E+04 0.  0.
        1    1    3    3  502    0  0.14750003306E+04 -0.38791489938E+03 -0.49688870736E+03  0.16040580824E+04  0.50400001928E-02 0.  1.
       -1    1    3    3    0  502 -0.14750003306E+04  0.38791489938E+03 -0.11147891176E+04  0.18891423242E+04  0.50400001928E-02 0. -1.
</event>
<event>
 5   0  0.1830902E-07  0.3097754E+04  0.7818609E-02  0.8216355E-01
       -1   -1    0    0    0  501  0.00000000000E+00  0.00000000000E+00  0.16517832931E+04  0.16517832931E+04  0.50400001928E-02 0. -1.
        1   -1    0    0  501    0  0.00000000000E+00  0.00000000000E+00 -0.14523818113E+04  0.14523818113E+04  0.50400001928E-02 0.  1.
    10030    2    1    2    0    0  0.00000000000E+00  0.00000000000E+00  0.19940148178E+03  0.31041651045E+04  0.30977540323E+04 0.  0.
        3    1    3    3  502    0  0.13714995775E+04 -0.35117132576E+03 -0.52984114123E+03  0.15116428269E+04  0.10100000352E+00 0.  1.
       -3    1    3    3    0  502 -0.13714995775E+04  0.35117132576E+03  0.72924262302E+03  0.15925222775E+04  0.10100000352E+00 0. -1.
</event>
<event>
 5   0  0.5154105E-07  0.3102534E+04  0.7818609E-02  0.8215043E-01
        2   -1    0    0  501    0  0.00000000000E+00  0.00000000000E+00  0.16361665660E+04  0.16361665660E+04  0.25500000920E-02 0. -1.
       -2   -1    0    0    0  501  0.00000000000E+00  0.00000000000E+00 -0.14707725352E+04  0.14707725352E+04  0.25500000920E-02 0.  1.
    10030    2    1    2    0    0  0.00000000000E+00  0.00000000000E+00  0.16539403081E+03  0.31069391013E+04  0.31025337055E+04 0.  0.
        1    1    3    3  502    0  0.11472690469E+04  0.27395767176E+03 -0.92628004893E+03  0.14997579141E+04  0.50400001928E-02 0.  1.
       -1    1    3    3    0  502 -0.11472690469E+04 -0.27395767176E+03  0.10916740797E+04  0.16071811872E+04  0.50400001928E-02 0. -1.
</event>
<event>
 5   0  0.1840359E-07  0.3100480E+04  0.7818609E-02  0.8215606E-01
        1   -1    0    0  501    0  0.00000000000E+00  0.00000000000E+00  0.17190069707E+04  0.17190069707E+04  0.50400001928E-02 0. -1.
       -1   -1    0    0    0  501  0.00000000000E+00  0.00000000000E+00 -0.13980416261E+04  0.13980416261E+04  0.50400001928E-02 0.  1.
    10030    2    1    2    0    0  0.00000000000E+00  0.00000000000E+00  0.32096534458E+03  0.31170485968E+04  0.31004795117E+04 0.  0.
        1    1    3    3  502    0 -0.13071797268E+04  0.26482005639E+03 -0.63392667632E+03  0.14767232413E+04  0.50400001928E-02 0.  1.
       -1    1    3    3    0  502  0.13071797268E+04 -0.26482005639E+03  0.95489202089E+03  0.16403253555E+04  0.50400001928E-02 0. -1.
</event>
<event>
 5   0  0.5376678E-07  0.3098518E+04  0.7818609E-02  0.8216145E-01
       -2   -1    0    0    0  501  0.00000000000E+00  0.00000000000E+00  0.82930091493E+03  0.82930091493E+03  0.25500000920E-02 0. -1.
        2   -1    0    0  501    0  0.00000000000E+00  0.00000000000E+00 -0.28942493978E+04  0.28942493978E+04  0.25500000920E-02 0.  1.
    10030    2    1    2    0    0  0.00000000000E+00  0.00000000000E+00 -0.20649484828E+04  0.37235503127E+04  0.30985181449E+04 0.  0.
        5    1    3    3  502    0  0.98075882555E+03  0.10730260162E+04 -0.38878659183E+03  0.15048088946E+04  0.46999998093E+01 0. -1.
       -5    1    3    3    0  502 -0.98075882555E+03 -0.10730260162E+04 -0.16761618910E+04  0.22187414181E+04  0.46999998093E+01 0.  1.
</event>
<event>
 5   0  0.1845123E-07  0.3133957E+04  0.7818609E-02  0.8206480E-01
        1   -1    0    0  501    0  0.00000000000E+00  0.00000000000E+00  0.15684209064E+04  0.15684209064E+04  0.50400001928E-02 0. -1.
       -1   -1    0    0    0  501  0.00000000000E+00  0.00000000000E+00 -0.15655373928E+04  0.15655373928E+04  0.50400001928E-02 0.  1.
    10030    2    1    2    0    0  0.00000000000E+00  0.00000000000E+00  0.28835136574E+01  0.31339582992E+04  0.31339569727E+04 0.  0.
        2    1    3    3  502    0  0.31831237678E+03 -0.34549401616E+03 -0.14934611109E+04  0.15656037092E+04  0.25500000920E-02 0.  1.
       -2    1    3    3    0  502 -0.31831237678E+03  0.34549401616E+03  0.14963446246E+04  0.15683545900E+04  0.25500000920E-02 0. -1.
</event>
<event>
 5   0  0.5342534E-07  0.3037142E+04  0.7818609E-02  0.8233204E-01
       -2   -1    0    0    0  501  0.00000000000E+00  0.00000000000E+00  0.17060373490E+04  0.17060373490E+04  0.25500000920E-02 0.  1.
        2   -1    0    0  501    0  0.00000000000E+00  0.00000000000E+00 -0.13517037912E+04  0.13517037912E+04  0.25500000920E-02 0. -1.
    10030    2    1    2    0    0  0.00000000000E+00  0.00000000000E+00  0.35433355782E+03  0.30577411402E+04  0.30371415196E+04 0.  0.
        3    1    3    3  502    0 -0.33460013772E+03 -0.17259568124E+03 -0.13039710799E+04  0.13572350970E+04  0.10100000352E+00 0. -1.
       -3    1    3    3    0  502  0.33460013772E+03  0.17259568124E+03  0.16583046377E+04  0.17005060432E+04  0.10100000352E+00 0.  1.
</event>
<event>
 5   0  0.5055900E-07  0.3097291E+04  0.7818609E-02  0.8216482E-01
       -2   -1    0    0    0  501  0.00000000000E+00  0.00000000000E+00  0.83431913203E+03  0.83431913204E+03  0.25500000920E-02 0.  1.
        2   -1    0    0  501    0  0.00000000000E+00  0.00000000000E+00 -0.28745630513E+04  0.28745630513E+04  0.25500000920E-02 0. -1.
    10030    2    1    2    0    0  0.00000000000E+00  0.00000000000E+00 -0.20402439193E+04  0.37088821833E+04  0.30972910422E+04 0.  0.
        2    1    3    3  502    0 -0.13603270165E+04 -0.61317431779E+03 -0.15164985509E+04  0.21274962258E+04  0.25500000920E-02 0. -1.
       -2    1    3    3    0  502  0.13603270165E+04  0.61317431779E+03 -0.52374536833E+03  0.15813859575E+04  0.25500000920E-02 0.  1.
</event>
<event>
 5   0  0.1845123E-07  0.3103702E+04  0.7818609E-02  0.8214723E-01
        1   -1    0    0  501    0  0.00000000000E+00  0.00000000000E+00  0.20610596570E+04  0.20610596570E+04  0.50400001928E-02 0.  1.
       -1   -1    0    0    0  501  0.00000000000E+00  0.00000000000E+00 -0.11684480280E+04  0.11684480280E+04  0.50400001928E-02 0. -1.
    10030    2    1    2    0    0  0.00000000000E+00  0.00000000000E+00  0.89261162894E+03  0.32295076850E+04  0.31037017201E+04 0.  0.
        2    1    3    3  502    0  0.33489635713E+03  0.40598192532E+03 -0.10727544030E+04  0.11948970261E+04  0.25500000920E-02 0. -1.
       -2    1    3    3    0  502 -0.33489635713E+03 -0.40598192532E+03  0.19653660320E+04  0.20346106589E+04  0.25500000920E-02 0.  1.
</event>
<event>
 5   0  0.5376678E-07  0.3089139E+04  0.7818609E-02  0.8218725E-01
        2   -1    0    0  501    0  0.00000000000E+00  0.00000000000E+00  0.26891382108E+04  0.26891382108E+04  0.25500000920E-02 0.  1.
       -2   -1    0    0    0  501  0.00000000000E+00  0.00000000000E+00 -0.88715990153E+03  0.88715990153E+03  0.25500000920E-02 0. -1.
    10030    2    1    2    0    0  0.00000000000E+00  0.00000000000E+00  0.18019783093E+04  0.35762981123E+04  0.30891394208E+04 0.  0.
        5    1    3    3  502    0 -0.24482908439E+03 -0.78713158601E+03 -0.61119813622E+03  0.10262079058E+04  0.46999998093E+01 0. -1.
       -5    1    3    3    0  502  0.24482908439E+03  0.78713158601E+03  0.24131764455E+04  0.25500902065E+04  0.46999998093E+01 0.  1.
</event>
<event>
 5   0  0.5376678E-07  0.3077114E+04  0.7818609E-02  0.8222047E-01
       -2   -1    0    0    0  501  0.00000000000E+00  0.00000000000E+00  0.12988795874E+04  0.12988795874E+04  0.25500000920E-02 0. -1.
        2   -1    0    0  501    0  0.00000000000E+00  0.00000000000E+00 -0.18224609311E+04  0.18224609311E+04  0.25500000920E-02 0.  1.
    10030    2    1    2    0    0  0.00000000000E+00  0.00000000000E+00 -0.52358134374E+03  0.31213405185E+04  0.30771137790E+04 0.  0.
        5    1    3    3  502    0  0.65659854322E+03  0.54051297954E+03 -0.15623492397E+04  0.17788291556E+04  0.46999998093E+01 0.  1.
       -5    1    3    3    0  502 -0.65659854322E+03 -0.54051297954E+03  0.10387678959E+04  0.13425113630E+04  0.46999998093E+01 0. -1.
</event>
<event>
 5   0  0.5342534E-07  0.3099798E+04  0.7818609E-02  0.8215793E-01
        2   -1    0    0  501    0  0.00000000000E+00  0.00000000000E+00  0.15129572161E+04  0.15129572161E+04  0.25500000920E-02 0. -1.
       -2   -1    0    0    0  501  0.00000000000E+00  0.00000000000E+00 -0.15877431190E+04  0.15877431190E+04  0.25500000920E-02 0.  1.
    10030    2    1    2    0    0  0.00000000000E+00  0.00000000000E+00 -0.74785902945E+02  0.31007003351E+04  0.30997983219E+04 0.  0.
        3    1    3    3  502    0 -0.71942626882E+02 -0.11574457840E+04 -0.10659581421E+04  0.15751581684E+04  0.10100000352E+00 0.  1.
       -3    1    3    3    0  502  0.71942626882E+02  0.11574457840E+04  0.99117223919E+03  0.15255421667E+04  0.10100000352E+00 0. -1.
</event>
<event>
 5   0  0.5154105E-07  0.3087854E+04  0.7818609E-02  0.8219079E-01
       -2   -1    0    0    0  501  0.00000000000E+00  0.00000000000E+00  0.18438200785E+04  0.18438200785E+04  0.25500000920E-02 0. -1.
        2   -1    0    0  501    0  0.00000000000E+00  0.00000000000E+00 -0.12928110150E+04  0.12928110150E+04  0.25500000920E-02 0.  1.
    10030    2    1    2    0    0  0.00000000000E+00  0.00000000000E+00  0.55100906347E+03  0.31366310935E+04  0.30878542110E+04 0.  0.
        1    1    3    3  502    0  0.72749696032E+03  0.10862467141E+04  0.11097740483E+04  0.17148708959E+04  0.50400001928E-02 0. -1.
       -1    1    3    3    0  502 -0.72749696032E+03 -0.10862467141E+04 -0.55876498487E+03  0.14217601976E+04  0.50400001928E-02 0.  1.
</event>
<event>
 5   0  0.1814075E-07  0.3097432E+04  0.7818609E-02  0.8216443E-01
        1   -1    0    0  501    0  0.00000000000E+00  0.00000000000E+00  0.24826585798E+04  0.24826585798E+04  0.50400001928E-02 0. -1.
       -1   -1    0    0    0  501  0.00000000000E+00  0.00000000000E+00 -0.96611010876E+03  0.96611010877E+03  0.50400001928E-02 0.  1.
    10030    2    1    2    0    0  0.00000000000E+00  0.00000000000E+00  0.15165484710E+04  0.34487686885E+04  0.30974321949E+04 0.  0.
        5    1    3    3  502    0  0.93455138966E+03  0.76629196355E+03  0.18365821496E+04  0.21985553792E+04  0.46999998093E+01 0. -1.
       -5    1    3    3    0  502 -0.93455138966E+03 -0.76629196355E+03 -0.32003367861E+03  0.12502133093E+04  0.46999998093E+01 0.  1.
</event>
<event>
 5   0  0.1840359E-07  0.3105876E+04  0.7818609E-02  0.8214127E-01
       -1   -1    0    0    0  501  0.00000000000E+00  0.00000000000E+00  0.10868549913E+04  0.10868549913E+04  0.50400001928E-02 0.  1.
        1   -1    0    0  501    0  0.00000000000E+00  0.00000000000E+00 -0.22188950837E+04  0.22188950837E+04  0.50400001928E-02 0. -1.
    10030    2    1    2    0    0  0.00000000000E+00  0.00000000000E+00 -0.11320400924E+04  0.33057500750E+04  0.31058764926E+04 0.  0.
        1    1    3    3  502    0 -0.13218213079E+04  0.49017428160E+03 -0.12591869025E+04  0.18902470875E+04  0.50400001928E-02 0. -1.
       -1    1    3    3    0  502  0.13218213079E+04 -0.49017428160E+03  0.12714681006E+03  0.14155029875E+04  0.50400001928E-02 0.  1.
</event>
<event>
 5   0  0.5055900E-07  0.3094576E+04  0.7818609E-02  0.8217228E-01
       -2   -1    0    0    0  501  0.00000000000E+00  0.00000000000E+00  0.14622531986E+04  0.14622531986E+04  0.25500000920E-02 0. -1.
        2   -1    0    0  501    0  0.00000000000E+00  0.00000000000E+00 -0.16372676713E+04  0.16372676713E+04  0.25500000920E-02 0.  1.
    10030    2    1    2    0    0  0.00000000000E+00  0.00000000000E+00 -0.17501447272E+03  0.30995208700E+04  0.30945758284E+04 0.  0.
        2    1    3    3  502    0  0.41468011759E+03 -0.10399246077E+04  0.98223367326E+03  0.14893575053E+04  0.25500000920E-02 0. -1.
       -2    1    3    3    0  502 -0.41468011759E+03  0.10399246077E+04 -0.11572481460E+04  0.16101633647E+04  0.25500000920E-02 0.  1.
</event>
<event>
 5   0  0.1845123E-07  0.3104062E+04  0.7818609E-02  0.8214624E-01
        1   -1    0    0  501    0  0.00000000000E+00  0.00000000000E+00  0.24356149630E+04  0.24356149630E+04  0.50400001928E-02 0. -1.
       -1   -1    0    0    0  501  0.00000000000E+00  0.00000000000E+00 -0.98899056925E+03  0.98899056926E+03  0.50400001928E-02 0.  1.
    10030    2    1    2    0    0  0.00000000000E+00  0.00000000000E+00  0.14466243938E+04  0.34246055323E+04  0.31040620025E+04 0.  0.
        2    1    3    3  502    0 -0.71676559454E+03  0.13477137045E+03  0.22347799330E+04  0.23507780816E+04  0.25500000920E-02 0. -1.
       -2    1    3    3    0  502  0.71676559454E+03 -0.13477137045E+03 -0.78815553926E+03  0.10738274507E+04  0.25500000920E-02 0.  1.
</event>
<event>
 5   0  0.5154105E-07  0.3096812E+04  0.7818609E-02  0.8216613E-01
       -2   -1    0    0    0  501  0.00000000000E+00  0.00000000000E+00  0.15638272915E+04  0.15638272916E+04  0.25500000920E-02 0.  1.
        2   -1    0    0  501    0  0.00000000000E+00  0.00000000000E+00 -0.15331371884E+04  0.15331371885E+04  0.25500000920E-02 0. -1.
    10030    2    1    2    0    0  0.00000000000E+00  0.00000000000E+00  0.30690103100E+02  0.30969644800E+04  0.30968124108E+04 0.  0.
        1    1    3    3  502    0 -0.10934833477E+04 -0.89333167468E+03  0.65084023166E+03  0.15547798300E+04  0.50400001928E-02 0.  1.
       -1    1    3    3    0  502  0.10934833477E+04  0.89333167468E+03 -0.62015012856E+03  0.15421846500E+04  0.50400001928E-02 0. -1.
</event>
<event>
 5   0  0.5376678E-07  0.3101537E+04  0.7818609E-02  0.8215316E-01
        2   -1    0    0  501    0  0.00000000000E+00  0.00000000000E+00  0.14355758638E+04  0.14355758639E+04  0.25500000920E-02 0.  1.
       -2   -1    0    0    0  501  0.00000000000E+00  0.00000000000E+00 -0.16752039956E+04  0.16752039956E+04  0.25500000920E-02 0. -1.
    10030    2    1    2    0    0  0.00000000000E+00  0.00000000000E+00 -0.23962813177E+03  0.31107798595E+04  0.31015366663E+04 0.  0.
        5    1    3    3  502    0 -0.14754155588E+03  0.13522420957E+04  0.62707501508E+03  0.14978559212E+04  0.46999998093E+01 0.  1.
       -5    1    3    3    0  502  0.14754155588E+03 -0.13522420957E+04 -0.86670314685E+03  0.16129239383E+04  0.46999998093E+01 0. -1.
</event>
<event>
 5   0  0.1830902E-07  0.3101019E+04  0.7818609E-02  0.8215458E-01
        1   -1    0    0  501    0  0.00000000000E+00  0.00000000000E+00  0.19957387975E+04  0.19957387975E+04  0.50400001928E-02 0.  1.
       -1   -1    0    0    0  501  0.00000000000E+00  0.00000000000E+00 -0.12046061388E+04  0.12046061388E+04  0.50400001928E-02 0. -1.
    10030    2    1    2    0    0  0.00000000000E+00  0.00000000000E+00  0.79113265874E+03  0.32003449363E+04  0.31010186758E+04 0.  0.
        3    1    3    3  502    0  0.80873417346E+03  0.12692883317E+04  0.78024562312E+03  0.16952660779E+04  0.10100000352E+00 0.  1.
       -3    1    3    3    0  502 -0.80873417346E+03 -0.12692883317E+04  0.10887035624E+02  0.15050788584E+04  0.10100000352E+00 0. -1.
</event>
<event>
 5   0  0.1814075E-07  0.3099207E+04  0.7818609E-02  0.8215955E-01
        1   -1    0    0  501    0  0.00000000000E+00  0.00000000000E+00  0.19922362359E+04  0.19922362359E+04  0.50400001928E-02 0. -1.
       -1   -1    0    0    0  501  0.00000000000E+00  0.00000000000E+00 -0.12053147196E+04  0.12053147196E+04  0.50400001928E-02 0.  1.
    10030    2    1    2    0    0  0.00000000000E+00  0.00000000000E+00  0.78692151625E+03  0.31975509555E+04  0.30992074213E+04 0.  0.
        5    1    3    3  502    0 -0.43163370331E+03  0.73691012385E+03 -0.94059099859E+03  0.12704635772E+04  0.46999998093E+01 0.  1.
       -5    1    3    3    0  502  0.43163370331E+03 -0.73691012385E+03  0.17275125148E+04  0.19270873782E+04  0.46999998093E+01 0. -1.
</event>
<event>
 5   0  0.5154105E-07  0.3098516E+04  0.7818609E-02  0.8216145E-01
        2   -1    0    0  501    0  0.00000000000E+00  0.00000000000E+00  0.23782655447E+04  0.23782655447E+04  0.25500000920E-02 0. -1.
       -2   -1    0    0    0  501  0.00000000000E+00  0.00000000000E+00 -0.10092231429E+04  0.10092231429E+04  0.25500000920E-02 0.  1.
    10030    2    1    2    0    0  0.00000000000E+00  0.00000000000E+00  0.13690424019E+04  0.33874886876E+04  0.30985161789E+04 0.  0.
        1    1    3    3  502    0 -0.65925877859E+03 -0.56834168895E+03  0.20856740956E+04  0.22600156738E+04  0.50400001928E-02 0. -1.
       -1    1    3    3    0  502  0.65925877859E+03  0.56834168895E+03 -0.71663169372E+03  0.11274730139E+04  0.50400001928E-02 0.  1.
</event>
<event>
 5   0  0.5248309E-07  0.3101201E+04  0.7818609E-02  0.8215408E-01
        2   -1    0    0  501    0  0.00000000000E+00  0.00000000000E+00  0.16293995474E+04  0.16293995474E+04  0.25500000920E-02 0. -1.
       -2   -1    0    0    0  501  0.00000000000E+00  0.00000000000E+00 -0.14756127060E+04  0.14756127060E+04  0.25500000920E-02 0.  1.
    10030    2    1    2    0    0  0.00000000000E+00  0.00000000000E+00  0.15378684141E+03  0.31050122534E+04  0.31012014932E+04 0.  0.
        4    1    3    3  502    0  0.15118788577E+04  0.30855962260E+03  0.22996798284E+03  0.15600876921E+04  0.12699999809E+01 0.  1.
       -4    1    3    3    0  502 -0.15118788577E+04 -0.30855962260E+03 -0.76181141436E+02  0.15449245613E+04  0.12699999809E+01 0. -1.
</event>
<event>
 5   0  0.1845123E-07  0.3107079E+04  0.7818609E-02  0.8213798E-01
       -1   -1    0    0    0  501  0.00000000000E+00  0.00000000000E+00  0.17177438189E+04  0.17177438189E+04  0.50400001928E-02 0. -1.
        1   -1    0    0  501    0  0.00000000000E+00  0.00000000000E+00 -0.14050315667E+04  0.14050315667E+04  0.50400001928E-02 0.  1.
    10030    2    1    2    0    0  0.00000000000E+00  0.00000000000E+00  0.31271225216E+03  0.31227753856E+04  0.31070785565E+04 0.  0.
        2    1    3    3  502    0 -0.14457224731E+04 -0.11147673347E+03 -0.40408427496E+03  0.15052656352E+04  0.25500000920E-02 0.  1.
       -2    1    3    3    0  502  0.14457224731E+04  0.11147673347E+03  0.71679652713E+03  0.16175097504E+04  0.25500000920E-02 0. -1.
</event>
<event>
 5   0  0.1875284E-07  0.3098986E+04  0.7818609E-02  0.8216016E-01
       -1   -1    0    0    0  501  0.00000000000E+00  0.00000000000E+00  0.14562399591E+04  0.14562399591E+04  0.50400001928E-02 0.  1.
        1   -1    0    0  501    0  0.00000000000E+00  0.00000000000E+00 -0.16487178525E+04  0.16487178525E+04  0.50400001928E-02 0. -1.
    10030    2    1    2    0    0  0.00000000000E+00  0.00000000000E+00 -0.19247789338E+03  0.31049578117E+04  0.30989861685E+04 0.  0.
        4    1    3    3  502    0 -0.99775519758E+03 -0.44945564976E+03 -0.11953493539E+04  0.16206133117E+04  0.12699999809E+01 0. -1.
       -4    1    3    3    0  502  0.99775519758E+03  0.44945564976E+03  0.10028714605E+04  0.14843445000E+04  0.12699999809E+01 0.  1.
</event>
<event>
 5   0  0.5342534E-07  0.3096449E+04  0.7818609E-02  0.8216713E-01
       -2   -1    0    0    0  501  0.00000000000E+00  0.00000000000E+00  0.14760898982E+04  0.14760898982E+04  0.25500000920E-02 0. -1.
        2   -1    0    0  501    0  0.00000000000E+00  0.00000000000E+00 -0.16238846173E+04  0.16238846173E+04  0.25500000920E-02 0.  1.
    10030    2    1    2    0    0  0.00000000000E+00  0.00000000000E+00 -0.14779471915E+03  0.30999745155E+04  0.30964493727E+04 0.  0.
        3    1    3    3  502    0 -0.14791466170E+04  0.32190187751E+03  0.25128642592E+03  0.15344837605E+04  0.10100000352E+00 0. -1.
       -3    1    3    3    0  502  0.14791466170E+04 -0.32190187751E+03 -0.39908114508E+03  0.15654907550E+04  0.10100000352E+00 0.  1.
</event>
<event>
 5   0  0.1840359E-07  0.3085610E+04  0.7818609E-02  0.8219698E-01
        1   -1    0    0  501    0  0.00000000000E+00  0.00000000000E+00  0.20399541578E+04  0.20399541578E+04  0.50400001928E-02 0.  1.
       -1   -1    0    0    0  501  0.00000000000E+00  0.00000000000E+00 -0.11668138583E+04  0.11668138583E+04  0.50400001928E-02 0. -1.
    10030    2    1    2    0    0  0.00000000000E+00  0.00000000000E+00  0.87314029952E+03  0.32067680162E+04  0.30856096848E+04 0.  0.
        1    1    3    3  502    0  0.32074431254E+03 -0.10343771595E+04 -0.70540909724E+03  0.12924453631E+04  0.50400001928E-02 0. -1.
       -1    1    3    3    0  502 -0.32074431254E+03  0.10343771595E+04  0.15785493968E+04  0.19143226531E+04  0.50400001928E-02 0.  1.
</event>
<event>
 5   0  0.5342534E-07  0.3105097E+04  0.7818609E-02  0.8214340E-01
       -2   -1    0    0    0  501  0.00000000000E+00  0.00000000000E+00  0.29969554300E+04  0.29969554300E+04  0.25500000920E-02 0.  1.
        2   -1    0    0  501    0  0.00000000000E+00  0.00000000000E+00 -0.80428523407E+03  0.80428523407E+03  0.25500000920E-02 0. -1.
    10030    2    1    2    0    0  0.00000000000E+00  0.00000000000E+00  0.21926701959E+04  0.38012406640E+04  0.31050970996E+04 0.  0.
        3    1    3    3  502    0  0.11026907570E+04 -0.47182576137E+02 -0.24036676914E+03  0.11295704028E+04  0.10100000352E+00 0. -1.
       -3    1    3    3    0  502 -0.11026907570E+04  0.47182576137E+02  0.24330369650E+04  0.26716702612E+04  0.10100000352E+00 0.  1.
</event>
<event>
 5   0  0.1845123E-07  0.3114787E+04  0.7818609E-02  0.8211691E-01
       -1   -1    0    0    0  501  0.00000000000E+00  0.00000000000E+00  0.11760471531E+04  0.11760471531E+04  0.50400001928E-02 0. -1.
        1   -1    0    0  501    0  0.00000000000E+00  0.00000000000E+00 -0.20623955435E+04  0.20623955435E+04  0.50400001928E-02 0.  1.
    10030    2    1    2    0    0  0.00000000000E+00  0.00000000000E+00 -0.88634839034E+03  0.32384426966E+04  0.31147869317E+04 0.  0.
        2    1    3    3  502    0 -0.10839946657E+04 -0.12589336837E+03  0.71205362158E+03  0.13030402663E+04  0.25500000920E-02 0. -1.
       -2    1    3    3    0  502  0.10839946657E+04  0.12589336837E+03 -0.15984020119E+04  0.19354024303E+04  0.25500000920E-02 0.  1.
</event>
<event>
 5   0  0.5154105E-07  0.3097610E+04  0.7818609E-02  0.8216394E-01
       -2   -1    0    0    0  501  0.00000000000E+00  0.00000000000E+00  0.98987314174E+03  0.98987314175E+03  0.25500000920E-02 0.  1.
        2   -1    0    0  501    0  0.00000000000E+00  0.00000000000E+00 -0.24233371521E+04  0.24233371521E+04  0.25500000920E-02 0. -1.
    10030    2    1    2    0    0  0.00000000000E+00  0.00000000000E+00 -0.14334640104E+04  0.34132102939E+04  0.30976096334E+04 0.  0.
        1    1    3    3  502    0  0.14679382357E+04  0.34640501604E+03 -0.11046789595E+04  0.18695332847E+04  0.50400001928E-02 0.  1.
       -1    1    3    3    0  502 -0.14679382357E+04 -0.34640501604E+03 -0.32878505089E+03  0.15436770092E+04  0.50400001928E-02 0. -1.
</event>
<event>
 5   0  0.5055900E-07  0.3087288E+04  0.7818609E-02  0.8219235E-01
        2   -1    0    0  501    0  0.00000000000E+00  0.00000000000E+00  0.16118514270E+04  0.16118514270E+04  0.25500000920E-02 0. -1.
       -2   -1    0    0    0  501  0.00000000000E+00  0.00000000000E+00 -0.14783229041E+04  0.14783229041E+04  0.25500000920E-02 0.  1.
    10030    2    1    2    0    0  0.00000000000E+00  0.00000000000E+00  0.13352852298E+03  0.30901743311E+04  0.30872880543E+04 0.  0.
        2    1    3    3  502    0  0.82262552908E+03  0.11738249507E+04 -0.50671038165E+03  0.15203069383E+04  0.25500000920E-02 0.  1.
       -2    1    3    3    0  502 -0.82262552908E+03 -0.11738249507E+04  0.64023890463E+03  0.15698673928E+04  0.25500000920E-02 0. -1.
</event>
<event>
 5   0  0.1727000E-07  0.3102596E+04  0.7818609E-02  0.8215026E-01
        3   -1    0    0  501    0  0.00000000000E+00  0.00000000000E+00  0.14961481250E+04  0.14961481285E+04  0.10100000352E+00 0. -1.
       -3   -1    0    0    0  501  0.00000000000E+00  0.00000000000E+00 -0.16084803892E+04  0.16084803923E+04  0.10100000352E+00 0.  1.
    10030    2    1    2    0    0  0.00000000000E+00  0.00000000000E+00 -0.11233226412E+03  0.31046285208E+04  0.31025956415E+04 0.  0.
        2    1    3    3  502    0 -0.78203885887E+02  0.10346818155E+04 -0.12101097479E+04  0.15940664695E+04  0.25500000920E-02 0.  1.
       -2    1    3    3    0  502  0.78203885887E+02 -0.10346818155E+04  0.10977774838E+04  0.15105620513E+04  0.25500000920E-02 0. -1.
</event>
<event>
 5   0  0.1875284E-07  0.3094971E+04  0.7818609E-02  0.8217120E-01
        1   -1    0    0  501    0  0.00000000000E+00  0.00000000000E+00  0.19240496953E+04  0.19240496953E+04  0.50400001928E-02 0.  1.
       -1   -1    0    0    0  501  0.00000000000E+00  0.00000000000E+00 -0.12446199887E+04  0.12446199887E+04  0.50400001928E-02 0. -1.
    10030    2    1    2    0    0  0.00000000000E+00  0.00000000000E+00  0.67942970657E+03  0.31686696841E+04  0.30949705718E+04 0.  0.
        4    1    3    3  502    0 -0.71004675888E+03 -0.28933276708E+03 -0.10364770577E+04  0.12892502294E+04  0.12699999809E+01 0. -1.
       -4    1    3    3    0  502  0.71004675888E+03  0.28933276708E+03  0.17159067643E+04  0.18794194547E+04  0.12699999809E+01 0.  1.
</event>
<event>
 5   0  0.5248309E-07  0.3105099E+04  0.7818609E-02  0.8214340E-01
       -2   -1    0    0    0  501  0.00000000000E+00  0.00000000000E+00  0.10833041026E+04  0.10833041026E+04  0.25500000920E-02 0.  1.
        2   -1    0    0  501    0  0.00000000000E+00  0.00000000000E+00 -0.22250540894E+04  0.22250540894E+04  0.25500000920E-02 0. -1.
    10030    2    1    2    0    0  0.00000000000E+00  0.00000000000E+00 -0.11417499868E+04  0.33083581920E+04  0.31050991762E+04 0.  0.
        4    1    3    3  502    0 -0.73361899704E+03  0.63297976239E+03  0.72160646968E+03  0.12081298450E+04  0.12699999809E+01 0.  1.
       -4    1    3    3    0  502  0.73361899704E+03 -0.63297976239E+03 -0.18633564565E+04  0.21002283470E+04  0.12699999809E+01 0. -1.
</event>
<event>
 5   0  0.5376678E-07  0.3083618E+04  0.7818609E-02  0.8220248E-01
        2   -1    0    0  501    0  0.00000000000E+00  0.00000000000E+00  0.19679377515E+04  0.19679377515E+04  0.25500000920E-02 0. -1.
       -2   -1    0    0    0  501  0.00000000000E+00  0.00000000000E+00 -0.12079521298E+04  0.12079521298E+04  0.25500000920E-02 0.  1.
    10030    2    1    2    0    0  0.00000000000E+00  0.00000000000E+00  0.75998562168E+03  0.31758898814E+04  0.30836177444E+04 0.  0.
        5    1    3    3  502    0 -0.10251270549E+04 -0.30762221156E+03  0.15229922494E+04  0.18614629691E+04  0.46999998093E+01 0. -1.
       -5    1    3    3    0  502  0.10251270549E+04  0.30762221156E+03 -0.76300662774E+03  0.13144269122E+04  0.46999998093E+01 0.  1.
</event>
<event>
 5   0  0.1840359E-07  0.3110422E+04  0.7818609E-02  0.8212884E-01
        1   -1    0    0  501    0  0.00000000000E+00  0.00000000000E+00  0.29115258680E+04  0.29115258680E+04  0.50400001928E-02 0. -1.
       -1   -1    0    0    0  501  0.00000000000E+00  0.00000000000E+00 -0.83072608943E+03  0.83072608945E+03  0.50400001928E-02 0.  1.
    10030    2    1    2    0    0  0.00000000000E+00  0.00000000000E+00  0.20807997786E+04  0.37422519575E+04  0.31104215140E+04 0.  0.
        1    1    3    3  502    0 -0.10785847610E+04 -0.93394689738E+03  0.17850593742E+04  0.22851780813E+04  0.50400001928E-02 0. -1.
       -1    1    3    3    0  502  0.10785847610E+04  0.93394689738E+03  0.29574040434E+03  0.14570738761E+04  0.50400001928E-02 0.  1.
</event>
<event>
 5   0  0.5248309E-07  0.3101420E+04  0.7818609E-02  0.8215348E-01
        2   -1    0    0  501    0  0.00000000000E+00  0.00000000000E+00  0.24434048030E+04  0.24434048030E+04  0.25500000920E-02 0.  1.
       -2   -1    0    0    0  501  0.00000000000E+00  0.00000000000E+00 -0.98415992450E+03  0.98415992450E+03  0.25500000920E-02 0. -1.
    10030    2    1    2    0    0  0.00000000000E+00  0.00000000000E+00  0.14592448785E+04  0.34275647275E+04  0.31014197307E+04 0.  0.
        4    1    3    3  502    0 -0.70141743740E+03  0.17742113916E+03 -0.78619402690E+03  0.10684415487E+04  0.12699999809E+01 0. -1.
       -4    1    3    3    0  502  0.70141743740E+03 -0.17742113916E+03  0.22454389054E+04  0.23591231788E+04  0.12699999809E+01 0.  1.
</event>
<event>
 5   0  0.1727000E-07  0.3099751E+04  0.7818609E-02  0.8215806E-01
        3   -1    0    0  501    0  0.00000000000E+00  0.00000000000E+00  0.29759480023E+04  0.29759480040E+04  0.10100000352E+00 0.  1.
       -3   -1    0    0    0  501  0.00000000000E+00  0.00000000000E+00 -0.80717590884E+03  0.80717591516E+03  0.10100000352E+00 0. -1.
    10030    2    1    2    0    0  0.00000000000E+00  0.00000000000E+00  0.21687720934E+04  0.37831239191E+04  0.30997506665E+04 0.  0.
        5    1    3    3  502    0  0.15084689646E+04 -0.34527100701E+03  0.11893795321E+04  0.19517521479E+04  0.46999998093E+01 0. -1.
       -5    1    3    3    0  502 -0.15084689646E+04  0.34527100701E+03  0.97939256135E+03  0.18313717713E+04  0.46999998093E+01 0.  1.
</event>
<event>
 5   0  0.1830902E-07  0.3105835E+04  0.7818609E-02  0.8214138E-01
       -1   -1    0    0    0  501  0.00000000000E+00  0.00000000000E+00  0.23921282131E+04  0.23921282131E+04  0.50400001928E-02 0. -1.
        1   -1    0    0  501    0  0.00000000000E+00  0.00000000000E+00 -0.10081202806E+04  0.10081202806E+04  0.50400001928E-02 0.  1.
    10030    2    1    2    0    0  0.00000000000E+00  0.00000000000E+00  0.13840079325E+04  0.34002484938E+04  0.31058351312E+04 0.  0.
        3    1    3    3  502    0 -0.31507343557E+02 -0.15495923817E+04  0.79771644343E+03  0.17431525453E+04  0.10100000352E+00 0.  1.
       -3    1    3    3    0  502  0.31507343557E+02  0.15495923817E+04  0.58629148905E+03  0.16570959484E+04  0.10100000352E+00 0. -1.
</event>
<event>
 5   0  0.1845123E-07  0.3103879E+04  0.7818609E-02  0.8214674E-01
        1   -1    0    0  501    0  0.00000000000E+00  0.00000000000E+00  0.23331624558E+04  0.23331624558E+04  0.50400001928E-02 0. -1.
       -1   -1    0    0    0  501  0.00000000000E+00  0.00000000000E+00 -0.10322965688E+04  0.10322965688E+04  0.50400001928E-02 0.  1.
    10030    2    1    2    0    0  0.00000000000E+00  0.00000000000E+00  0.13008658870E+04  0.33654590246E+04  0.31038786044E+04 0.  0.
        2    1    3    3  502    0  0.64119389262E+03 -0.11535438396E+04 -0.23491130091E+03  0.13405134528E+04  0.25500000920E-02 0.  1.
       -2    1    3    3    0  502 -0.64119389262E+03  0.11535438396E+04  0.15357771879E+04  0.20249455718E+04  0.25500000920E-02 0. -1.
</event>
<event>
 5   0  0.1845123E-07  0.3123157E+04  0.7818609E-02  0.8209411E-01
       -1   -1    0    0    0  501  0.00000000000E+00  0.00000000000E+00  0.87909098450E+03  0.87909098451E+03  0.50400001928E-02 0. -1.
        1   -1    0    0  501    0  0.00000000000E+00  0.00000000000E+00 -0.27739196877E+04  0.27739196877E+04  0.50400001928E-02 0.  1.
    10030    2    1    2    0    0  0.00000000000E+00  0.00000000000E+00 -0.18948287032E+04  0.36530106722E+04  0.31231572418E+04 0.  0.
        2    1    3    3  502    0 -0.30348527061E+03  0.10363440497E+04 -0.22667994192E+04  0.25108747292E+04  0.25500000920E-02 0.  1.
       -2    1    3    3    0  502  0.30348527061E+03 -0.10363440497E+04  0.37197071594E+03  0.11421359431E+04  0.25500000920E-02 0. -1.
</event>
<event>
 5   0  0.1840359E-07  0.3103858E+04  0.7818609E-02  0.8214680E-01
        1   -1    0    0  501    0  0.00000000000E+00  0.00000000000E+00  0.16061135873E+04  0.16061135873E+04  0.50400001928E-02 0.  1.
       -1   -1    0    0    0  501  0.00000000000E+00  0.00000000000E+00 -0.14995727755E+04  0.14995727755E+04  0.50400001928E-02 0. -1.
    10030    2    1    2    0    0  0.00000000000E+00  0.00000000000E+00  0.10654081179E+03  0.31056863629E+04  0.31038583795E+04 0.  0.
        1    1    3    3  502    0 -0.47891166349E+03 -0.28723719425E+03  0.15020950729E+04  0.16025452241E+04  0.50400001928E-02 0.  1.
       -1    1    3    3    0  502  0.47891166349E+03  0.28723719425E+03 -0.13955542611E+04  0.15031411388E+04  0.50400001928E-02 0. -1.
</event>
<event>
 5   0  0.1814075E-07  0.3102881E+04  0.7818609E-02  0.8214948E-01
       -1   -1    0    0    0  501  0.00000000000E+00  0.00000000000E+00  0.16770883167E+04  0.16770883167E+04  0.50400001928E-02 0.  1.
        1   -1    0    0  501    0  0.00000000000E+00  0.00000000000E+00 -0.14352058221E+04  0.14352058221E+04  0.50400001928E-02 0. -1.
    10030    2    1    2    0    0  0.00000000000E+00  0.00000000000E+00  0.24188249461E+03  0.31122941388E+04  0.31028805432E+04 0.  0.
        5    1    3    3  502    0  0.30184612167E+03 -0.37975390799E+03  0.15990540087E+04  0.16710236158E+04  0.46999998093E+01 0.  1.
       -5    1    3    3    0  502 -0.30184612167E+03  0.37975390799E+03 -0.13571715141E+04  0.14412705230E+04  0.46999998093E+01 0. -1.
</event>
<event>
 5   0  0.1845123E-07  0.3098818E+04  0.7818609E-02  0.8216062E-01
       -1   -1    0    0    0  501  0.00000000000E+00  0.00000000000E+00  0.13328528626E+04  0.13328528626E+04  0.50400001928E-02 0. -1.
        1   -1    0    0  501    0  0.00000000000E+00  0.00000000000E+00 -0.18011505719E+04  0.18011505719E+04  0.50400001928E-02 0.  1.
    10030    2    1    2    0    0  0.00000000000E+00  0.00000000000E+00 -0.46829770927E+03  0.31340034345E+04  0.30988182881E+04 0.  0.
        2    1    3    3  502    0 -0.67279320679E+03  0.75690092787E+03 -0.14201182890E+04  0.17442149147E+04  0.25500000920E-02 0.  1.
       -2    1    3    3    0  502  0.67279320679E+03 -0.75690092787E+03  0.95182057975E+03  0.13897885198E+04  0.25500000920E-02 0. -1.
</event>
<event>
 5   0  0.5248309E-07  0.3124149E+04  0.7818609E-02  0.8209141E-01
       -2   -1    0    0    0  501  0.00000000000E+00  0.00000000000E+00  0.22966098538E+04  0.22966098538E+04  0.25500000920E-02 0. -1.
        2   -1    0    0  501    0  0.00000000000E+00  0.00000000000E+00 -0.10624691779E+04  0.10624691779E+04  0.25500000920E-02 0.  1.
    10030    2    1    2    0    0  0.00000000000E+00  0.00000000000E+00  0.12341406759E+04  0.33590790318E+04  0.31241492816E+04 0.  0.
        4    1    3    3  502    0 -0.10782970920E+04 -0.91121716271E+03 -0.10181369201E+03  0.14154183046E+04  0.12699999809E+01 0.  1.
       -4    1    3    3    0  502  0.10782970920E+04  0.91121716271E+03  0.13359543679E+04  0.19436607272E+04  0.12699999809E+01 0. -1.
</event>
<event>
 5   0  0.5248309E-07  0.3101911E+04  0.7818609E-02  0.8215214E-01
       -2   -1    0    0    0  501  0.00000000000E+00  0.00000000000E+00  0.11618706020E+04  0.11618706020E+04  0.25500000920E-02 0. -1.
        2   -1    0    0  501    0  0.00000000000E+00  0.00000000000E+00 -0.20703365919E+04  0.20703365919E+04  0.25500000920E-02 0.  1.
    10030    2    1    2    0    0  0.00000000000E+00  0.00000000000E+00 -0.90846598993E+03  0.32322071939E+04  0.31019111673E+04 0.  0.
        4    1    3    3  502    0  0.36288487723E+03 -0.44501589706E+03  0.10470273130E+04  0.11941492327E+04  0.12699999809E+01 0. -1.
       -4    1    3    3    0  502 -0.36288487723E+03  0.44501589706E+03 -0.19554933029E+04  0.20380579613E+04  0.12699999809E+01 0.  1.
</event>
<event>
 5   0  0.5248309E-07  0.3096886E+04  0.7818609E-02  0.8216593E-01
        2   -1    0    0  501    0  0.00000000000E+00  0.00000000000E+00  0.17115753685E+04  0.17115753685E+04  0.25500000920E-02 0. -1.
       -2   -1    0    0    0  501  0.00000000000E+00  0.00000000000E+00 -0.14008587102E+04  0.14008587102E+04  0.25500000920E-02 0.  1.
    10030    2    1    2    0    0  0.00000000000E+00  0.00000000000E+00  0.31071665831E+03  0.31124340787E+04  0.30968857022E+04 0.  0.
        4    1    3    3  502    0 -0.12176427132E+04  0.16883682693E+02  0.11165778655E+04  0.16521763158E+04  0.12699999809E+01 0. -1.
       -4    1    3    3    0  502  0.12176427132E+04 -0.16883682693E+02 -0.80586120724E+03  0.14602577629E+04  0.12699999809E+01 0.  1.
</event>
<event>
 5   0  0.1875284E-07  0.3099086E+04  0.7818609E-02  0.8215989E-01
       -1   -1    0    0    0  501  0.00000000000E+00  0.00000000000E+00  0.99966977681E+03  0.99966977682E+03  0.50400001928E-02 0.  1.
        1   -1    0    0  501    0  0.00000000000E+00  0.00000000000E+00 -0.24018765395E+04  0.24018765395E+04  0.50400001928E-02 0. -1.
    10030    2    1    2    0    0  0.00000000000E+00  0.00000000000E+00 -0.14022067627E+04  0.34015463163E+04  0.30990859195E+04 0.  0.
        4    1    3    3  502    0  0.15386775091E+04 -0.18314211530E+03 -0.69726024671E+03  0.16991889171E+04  0.12699999809E+01 0. -1.
       -4    1    3    3    0  502 -0.15386775091E+04  0.18314211530E+03 -0.70494651597E+03  0.17023573992E+04  0.12699999809E+01 0.  1.
</event>
<event>
 5   0  0.1875284E-07  0.3101900E+04  0.7818609E-02  0.8215217E-01
       -1   -1    0    0    0  501  0.00000000000E+00  0.00000000000E+00  0.14668440424E+04  0.14668440424E+04  0.50400001928E-02 0. -1.
        1   -1    0    0  501    0  0.00000000000E+00  0.00000000000E+00 -0.16398780176E+04  0.16398780176E+04  0.50400001928E-02 0.  1.
    10030    2    1    2    0    0  0.00000000000E+00  0.00000000000E+00 -0.17303397523E+03  0.31067220600E+04  0.31018996117E+04 0.  0.
        4    1    3    3  502    0  0.38046330556E+02 -0.72672937499E+03 -0.14582669006E+04  0.16297628889E+04  0.12699999809E+01 0.  1.
       -4    1    3    3    0  502 -0.38046330556E+02  0.72672937499E+03  0.12852329253E+04  0.14769591711E+04  0.12699999809E+01 0. -1.
</event>
<event>
 5   0  0.5376678E-07  0.3099963E+04  0.7818609E-02  0.8215748E-01
       -2   -1    0    0    0  501  0.00000000000E+00  0.00000000000E+00  0.14850201073E+04  0.14850201073E+04  0.25500000920E-02 0. -1.
        2   -1    0    0  501    0  0.00000000000E+00  0.00000000000E+00 -0.16177849144E+04  0.16177849144E+04  0.25500000920E-02 0.  1.
    10030    2    1    2    0    0  0.00000000000E+00  0.00000000000E+00 -0.13276480705E+03  0.31028050217E+04  0.30999633076E+04 0.  0.
        5    1    3    3  502    0  0.85603346033E+03 -0.12864820050E+04 -0.18728967097E+03  0.15565759684E+04  0.46999998093E+01 0.  1.
       -5    1    3    3    0  502 -0.85603346033E+03  0.12864820050E+04  0.54524863921E+02  0.15462290533E+04  0.46999998093E+01 0. -1.
</event>
<event>
 5   0  0.1814075E-07  0.3101292E+04  0.7818609E-02  0.8215383E-01
       -1   -1    0    0    0  501  0.00000000000E+00  0.00000000000E+00  0.94704394225E+03  0.94704394227E+03  0.50400001928E-02 0. -1.
        1   -1    0    0  501    0  0.00000000000E+00  0.00000000000E+00 -0.25389563904E+04  0.25389563904E+04  0.50400001928E-02 0.  1.
    10030    2    1    2    0    0  0.00000000000E+00  0.00000000000E+00 -0.15919124481E+04  0.34860003326E+04  0.31012921624E+04 0.  0.
        5    1    3    3  502    0  0.87841341717E+03 -0.15070231513E+03 -0.22222836745E+04  0.23943450334E+04  0.46999998093E+01 0.  1.
       -5    1    3    3    0  502 -0.87841341717E+03  0.15070231513E+03  0.63037122637E+03  0.10916552992E+04  0.46999998093E+01 0. -1.
</event>
<event>
 5   0  0.1814075E-07  0.3069266E+04  0.7818609E-02  0.8224224E-01
        1   -1    0    0  501    0  0.00000000000E+00  0.00000000000E+00  0.16778527414E+04  0.16778527414E+04  0.50400001928E-02 0. -1.
       -1   -1    0    0    0  501  0.00000000000E+00  0.00000000000E+00 -0.14036384072E+04  0.14036384072E+04  0.50400001928E-02 0.  1.
    10030    2    1    2    0    0  0.00000000000E+00  0.00000000000E+00  0.27421433416E+03  0.30814911486E+04  0.30692660683E+04 0.  0.
        5    1    3    3  502    0 -0.10340433140E+04 -0.74729431382E+03  0.99337117424E+03  0.16169424067E+04  0.46999998093E+01 0.  1.
       -5    1    3    3    0  502  0.10340433140E+04  0.74729431382E+03 -0.71915684009E+03  0.14645487419E+04  0.46999998093E+01 0. -1.
</event>
<event>
 5   0  0.5055900E-07  0.3100723E+04  0.7818609E-02  0.8215540E-01
       -2   -1    0    0    0  501  0.00000000000E+00  0.00000000000E+00  0.10907272689E+04  0.10907272689E+04  0.25500000920E-02 0.  1.
        2   -1    0    0  501    0  0.00000000000E+00  0.00000000000E+00 -0.22036857734E+04  0.22036857734E+04  0.25500000920E-02 0. -1.
    10030    2    1    2    0    0  0.00000000000E+00  0.00000000000E+00 -0.11129585045E+04  0.32944130422E+04  0.31007226029E+04 0.  0.
        2    1    3    3  502    0  0.13632510243E+04  0.13488925653E+02 -0.13408246484E+04  0.19121835801E+04  0.25500000920E-02 0. -1.
       -2    1    3    3    0  502 -0.13632510243E+04 -0.13488925653E+02  0.22786614391E+03  0.13822294621E+04  0.25500000920E-02 0.  1.
</event>
<event>
 5   0  0.1830902E-07  0.3103622E+04  0.7818609E-02  0.8214745E-01
       -1   -1    0    0    0  501  0.00000000000E+00  0.00000000000E+00  0.10877355345E+04  0.10877355346E+04  0.50400001928E-02 0.  1.
        1   -1    0    0  501    0  0.00000000000E+00  0.00000000000E+00 -0.22138809575E+04  0.22138809575E+04  0.50400001928E-02 0. -1.
    10030    2    1    2    0    0  0.00000000000E+00  0.00000000000E+00 -0.11261454229E+04  0.33016164920E+04  0.31036217468E+04 0.  0.
        3    1    3    3  502    0 -0.13594759402E+04  0.46145056369E+03 -0.11897241368E+04  0.18645522215E+04  0.10100000352E+00 0. -1.
       -3    1    3    3    0  502  0.13594759402E+04 -0.46145056369E+03  0.63578713841E+02  0.14370642706E+04  0.10100000352E+00 0.  1.
</event>
<event>
 5   0  0.5342534E-07  0.3101264E+04  0.7818609E-02  0.8215391E-01
       -2   -1    0    0    0  501  0.00000000000E+00  0.00000000000E+00  0.12529884645E+04  0.12529884645E+04  0.25500000920E-02 0. -1.
        2   -1    0    0  501    0  0.00000000000E+00  0.00000000000E+00 -0.19189795267E+04  0.19189795267E+04  0.25500000920E-02 0.  1.
    10030    2    1    2    0    0  0.00000000000E+00  0.00000000000E+00 -0.66599106219E+03  0.31719679911E+04  0.31012637492E+04 0.  0.
        3    1    3    3  502    0  0.73988390671E+02  0.59475037643E+03 -0.17957250557E+04  0.18931008368E+04  0.10100000352E+00 0.  1.
       -3    1    3    3    0  502 -0.73988390671E+02 -0.59475037643E+03  0.11297339935E+04  0.12788671544E+04  0.10100000352E+00 0. -1.
</event>
<event>
 5   0  0.5248309E-07  0.3105593E+04  0.7818609E-02  0.8214205E-01
        2   -1    0    0  501    0  0.00000000000E+00  0.00000000000E+00  0.12305567645E+04  0.12305567645E+04  0.25500000920E-02 0. -1.
       -2   -1    0    0    0  501  0.00000000000E+00  0.00000000000E+00 -0.19594190583E+04  0.19594190583E+04  0.25500000920E-02 0.  1.
    10030    2    1    2    0    0  0.00000000000E+00  0.00000000000E+00 -0.72886229381E+03  0.31899758228E+04  0.31055926176E+04 0.  0.
        4    1    3    3  502    0 -0.63571870710E+03  0.16973541501E+02 -0.18195195090E+04  0.19274540805E+04  0.12699999809E+01 0.  1.
       -4    1    3    3    0  502  0.63571870710E+03 -0.16973541501E+02  0.10906572152E+04  0.12625217423E+04  0.12699999809E+01 0. -1.
</event>
<event>
 5   0  0.5248309E-07  0.3085924E+04  0.7818609E-02  0.8219611E-01
        2   -1    0    0  501    0  0.00000000000E+00  0.00000000000E+00  0.12912196860E+04  0.12912196860E+04  0.25500000920E-02 0.  1.
       -2   -1    0    0    0  501  0.00000000000E+00  0.00000000000E+00 -0.18437856679E+04  0.18437856679E+04  0.25500000920E-02 0. -1.
    10030    2    1    2    0    0  0.00000000000E+00  0.00000000000E+00 -0.55256598187E+03  0.31350053539E+04  0.30859244003E+04 0.  0.
        4    1    3    3  502    0  0.11672420742E+04 -0.36323077634E+03 -0.12327130107E+04  0.17360799626E+04  0.12699999809E+01 0. -1.
       -4    1    3    3    0  502 -0.11672420742E+04  0.36323077634E+03  0.68014702885E+03  0.13989253913E+04  0.12699999809E+01 0.  1.
</event>
<event>
 5   0  0.1845123E-07  0.3098103E+04  0.7818609E-02  0.8216259E-01
        1   -1    0    0  501    0  0.00000000000E+00  0.00000000000E+00  0.11036948659E+04  0.11036948659E+04  0.50400001928E-02 0. -1.
       -1   -1    0    0    0  501  0.00000000000E+00  0.00000000000E+00 -0.21741157722E+04  0.21741157722E+04  0.50400001928E-02 0.  1.
    10030    2    1    2    0    0  0.00000000000E+00  0.00000000000E+00 -0.10704209063E+04  0.32778106381E+04  0.30981029135E+04 0.  0.
        2    1    3    3  502    0 -0.81603369895E+03  0.11743973284E+04  0.94672112867E+02  0.14332072048E+04  0.25500000920E-02 0. -1.
       -2    1    3    3    0  502  0.81603369895E+03 -0.11743973284E+04 -0.11650930192E+04  0.18446034333E+04  0.25500000920E-02 0.  1.
</event>
<event>
 5   0  0.5154105E-07  0.3099311E+04  0.7818609E-02  0.8215927E-01
       -2   -1    0    0    0  501  0.00000000000E+00  0.00000000000E+00  0.11737558285E+04  0.11737558285E+04  0.25500000920E-02 0. -1.
        2   -1    0    0  501    0  0.00000000000E+00  0.00000000000E+00 -0.20459383747E+04  0.20459383747E+04  0.25500000920E-02 0.  1.
    10030    2    1    2    0    0  0.00000000000E+00  0.00000000000E+00 -0.87218254622E+03  0.32196942031E+04  0.30993109505E+04 0.  0.
        1    1    3    3  502    0  0.69940932999E+03  0.13614059655E+04 -0.18411592957E+03  0.15415895334E+04  0.50400001928E-02 0. -1.
       -1    1    3    3    0  502 -0.69940932999E+03 -0.13614059655E+04 -0.68806661665E+03  0.16781046698E+04  0.50400001928E-02 0.  1.
</event>
<event>
 5   0  0.1840359E-07  0.3102776E+04  0.7818609E-02  0.8214977E-01
        1   -1    0    0  501    0  0.00000000000E+00  0.00000000000E+00  0.25322159249E+04  0.25322159249E+04  0.50400001928E-02 0.  1.
       -1   -1    0    0    0  501  0.00000000000E+00  0.00000000000E+00 -0.95047355466E+03  0.95047355468E+03  0.50400001928E-02 0. -1.
    10030    2    1    2    0    0  0.00000000000E+00  0.00000000000E+00  0.15817423703E+04  0.34826894796E+04  0.31027757066E+04 0.  0.
        1    1    3    3  502    0 -0.30869381767E+03 -0.10413504167E+04  0.20342534025E+04  0.23060549579E+04  0.50400001928E-02 0.  1.
       -1    1    3    3    0  502  0.30869381767E+03  0.10413504167E+04 -0.45251103224E+03  0.11766345217E+04  0.50400001928E-02 0. -1.
</event>
<event>
 5   0  0.1814075E-07  0.3098661E+04  0.7818609E-02  0.8216105E-01
       -1   -1    0    0    0  501  0.00000000000E+00  0.00000000000E+00  0.22080761524E+04  0.22080761524E+04  0.50400001928E-02 0.  1.
        1   -1    0    0  501    0  0.00000000000E+00  0.00000000000E+00 -0.10871116688E+04  0.10871116688E+04  0.50400001928E-02 0. -1.
    10030    2    1    2    0    0  0.00000000000E+00  0.00000000000E+00  0.11209644836E+04  0.32951878212E+04  0.30986612276E+04 0.  0.
        5    1    3    3  502    0  0.29947317627E+03  0.14959467302E+04  0.84753252852E+03  0.17452433296E+04  0.46999998093E+01 0.  1.
       -5    1    3    3    0  502 -0.29947317627E+03 -0.14959467302E+04  0.27343195504E+03  0.15499444915E+04  0.46999998093E+01 0. -1.
</event>
<event>
 5   0  0.5154105E-07  0.3105571E+04  0.7818609E-02  0.8214211E-01
        2   -1    0    0  501    0  0.00000000000E+00  0.00000000000E+00  0.16196249911E+04  0.16196249911E+04  0.25500000920E-02 0.  1.
       -2   -1    0    0    0  501  0.00000000000E+00  0.00000000000E+00 -0.14887042137E+04  0.14887042137E+04  0.25500000920E-02 0. -1.
    10030    2    1    2    0    0  0.00000000000E+00  0.00000000000E+00  0.13092077741E+03  0.31083292048E+04  0.31055708325E+04 0.  0.
        1    1    3    3  502    0 -0.10016329611E+04  0.99139062974E+03 -0.58705315053E+03  0.15266811622E+04  0.50400001928E-02 0. -1.
       -1    1    3    3    0  502  0.10016329611E+04 -0.99139062974E+03  0.71797392794E+03  0.15816480426E+04  0.50400001928E-02 0.  1.
</event>
<event>
 5   0  0.1814075E-07  0.3102829E+04  0.7818609E-02  0.8214962E-01
        1   -1    0    0  501    0  0.00000000000E+00  0.00000000000E+00  0.19371211335E+04  0.19371211336E+04  0.50400001928E-02 0. -1.
       -1   -1    0    0    0  501  0.00000000000E+00  0.00000000000E+00 -0.12425074827E+04  0.12425074827E+04  0.50400001928E-02 0.  1.
    10030    2    1    2    0    0  0.00000000000E+00  0.00000000000E+00  0.69461365085E+03  0.31796286163E+04  0.31028293562E+04 0.  0.
        5    1    3    3  502    0 -0.11536376582E+04 -0.92730976695E+03  0.82365879437E+03  0.16938769583E+04  0.46999998093E+01 0.  1.
       -5    1    3    3    0  502  0.11536376582E+04  0.92730976695E+03 -0.12904514353E+03  0.14857516580E+04  0.46999998093E+01 0. -1.
</event>
<event>
 5   0  0.1830902E-07  0.3095588E+04  0.7818609E-02  0.8216950E-01
       -1   -1    0    0    0  501  0.00000000000E+00  0.00000000000E+00  0.80710105912E+03  0.80710105914E+03  0.50400001928E-02 0. -1.
        1   -1    0    0  501    0  0.00000000000E+00  0.00000000000E+00 -0.29682349535E+04  0.29682349535E+04  0.50400001928E-02 0.  1.
    10030    2    1    2    0    0  0.00000000000E+00  0.00000000000E+00 -0.21611338944E+04  0.37753360127E+04  0.30955875531E+04 0.  0.
        3    1    3    3  502    0 -0.43899648293E+03 -0.12809565123E+04 -0.16620411422E+03  0.13642548575E+04  0.10100000352E+00 0.  1.
       -3    1    3    3    0  502  0.43899648293E+03  0.12809565123E+04 -0.19949297802E+04  0.24110811551E+04  0.10100000352E+00 0. -1.
</event>
<event>
 5   0  0.1875284E-07  0.3100525E+04  0.7818609E-02  0.8215594E-01
       -1   -1    0    0    0  501  0.00000000000E+00  0.00000000000E+00  0.14819978032E+04  0.14819978032E+04  0.50400001928E-02 0.  1.
        1   -1    0    0  501    0  0.00000000000E+00  0.00000000000E+00 -0.16216719384E+04  0.16216719384E+04  0.50400001928E-02 0. -1.
    10030    2    1    2    0    0  0.00000000000E+00  0.00000000000E+00 -0.13967413521E+03  0.31036697415E+04  0.31005252782E+04 0.  0.
        4    1    3    3  502    0 -0.70003832127E+03 -0.63029899393E+03 -0.13023380430E+04  0.16073009874E+04  0.12699999809E+01 0. -1.
       -4    1    3    3    0  502  0.70003832127E+03  0.63029899393E+03  0.11626639078E+04  0.14963687541E+04  0.12699999809E+01 0.  1.
</event>
<event>
 5   0  0.5376678E-07  0.3102694E+04  0.7818609E-02  0.8214999E-01
        2   -1    0    0  501    0  0.00000000000E+00  0.00000000000E+00  0.22766341059E+04  0.22766341059E+04  0.25500000920E-02 0.  1.
       -2   -1    0    0    0  501  0.00000000000E+00  0.00000000000E+00 -0.10571210543E+04  0.10571210544E+04  0.25500000920E-02 0. -1.
    10030    2    1    2    0    0  0.00000000000E+00  0.00000000000E+00  0.12195130516E+04  0.33337551603E+04  0.31026942140E+04 0.  0.
        5    1    3    3  502    0 -0.10715935670E+04  0.53143584845E+02  0.18137006329E+04  0.21072895125E+04  0.46999998093E+01 0.  1.
       -5    1    3    3    0  502  0.10715935670E+04 -0.53143584845E+02 -0.59418758136E+03  0.12264656478E+04  0.46999998093E+01 0. -1.
</event>
<event>
 5   0  0.5154105E-07  0.3092973E+04  0.7818609E-02  0.8217669E-01
        2   -1    0    0  501    0  0.00000000000E+00  0.00000000000E+00  0.20038686428E+04  0.20038686428E+04  0.25500000920E-02 0.  1.
       -2   -1    0    0    0  501  0.00000000000E+00  0.00000000000E+00 -0.11935015504E+04  0.11935015504E+04  0.25500000920E-02 0. -1.
    10030    2    1    2    0    0  0.00000000000E+00  0.00000000000E+00  0.81036709243E+03  0.31973701932E+04  0.30929728948E+04 0.  0.
        1    1    3    3  502    0 -0.27078097882E+03 -0.12777442230E+04 -0.45081623131E+03  0.13817336619E+04  0.50400001928E-02 0. -1.
       -1    1    3    3    0  502  0.27078097882E+03  0.12777442230E+04  0.12611833237E+04  0.18156365313E+04  0.50400001928E-02 0.  1.
</event>
<event>
 5   0  0.1845123E-07  0.3093272E+04  0.7818609E-02  0.8217587E-01
       -1   -1    0    0    0  501  0.00000000000E+00  0.00000000000E+00  0.11231596516E+04  0.11231596516E+04  0.50400001928E-02 0.  1.
        1   -1    0    0  501    0  0.00000000000E+00  0.00000000000E+00 -0.21297801390E+04  0.21297801390E+04  0.50400001928E-02 0. -1.
    10030    2    1    2    0    0  0.00000000000E+00  0.00000000000E+00 -0.10066204873E+04  0.32529397906E+04  0.30932721309E+04 0.  0.
        2    1    3    3  502    0  0.23577576219E+03 -0.11476773303E+04 -0.15650430226E+04  0.19550225388E+04  0.25500000920E-02 0. -1.
       -2    1    3    3    0  502 -0.23577576219E+03  0.11476773303E+04  0.55842253531E+03  0.12979172518E+04  0.25500000920E-02 0.  1.
</event>
<event>
 5   0  0.1814075E-07  0.3096849E+04  0.7818609E-02  0.8216603E-01
       -1   -1    0    0    0  501  0.00000000000E+00  0.00000000000E+00  0.10579711594E+04  0.10579711594E+04  0.50400001928E-02 0.  1.
        1   -1    0    0  501    0  0.00000000000E+00  0.00000000000E+00 -0.22662410832E+04  0.22662410832E+04  0.50400001928E-02 0. -1.
    10030    2    1    2    0    0  0.00000000000E+00  0.00000000000E+00 -0.12082699238E+04  0.33242122426E+04  0.30968485312E+04 0.  0.
        5    1    3    3  502    0  0.69276116052E+03 -0.83481735588E+03 -0.17901316982E+04  0.20931869554E+04  0.46999998093E+01 0. -1.
       -5    1    3    3    0  502 -0.69276116052E+03  0.83481735588E+03  0.58186177445E+03  0.12310252872E+04  0.46999998093E+01 0.  1.
</event>
<event>
 5   0  0.5342534E-07  0.3099744E+04  0.7818609E-02  0.8215808E-01
       -2   -1    0    0    0  501  0.00000000000E+00  0.00000000000E+00  0.12830520624E+04  0.12830520624E+04  0.25500000920E-02 0.  1.
        2   -1    0    0  501    0  0.00000000000E+00  0.00000000000E+00 -0.18721791742E+04  0.18721791743E+04  0.25500000920E-02 0. -1.
    10030    2    1    2    0    0  0.00000000000E+00  0.00000000000E+00 -0.58912711185E+03  0.31552312367E+04  0.30997440867E+04 0.  0.
        3    1    3    3  502    0  0.10941911663E+04  0.37022070337E+03  0.75727090473E+03  0.13812229766E+04  0.10100000352E+00 0.  1.
       -3    1    3    3    0  502 -0.10941911663E+04 -0.37022070337E+03 -0.13463980166E+04  0.17740082601E+04  0.10100000352E+00 0. -1.
</event>
<event>
 5   0  0.5154105E-07  0.3100531E+04  0.7818609E-02  0.8215592E-01
        2   -1    0    0  501    0  0.00000000000E+00  0.00000000000E+00  0.17936273496E+04  0.17936273496E+04  0.25500000920E-02 0. -1.
       -2   -1    0    0    0  501  0.00000000000E+00  0.00000000000E+00 -0.13399229210E+04  0.13399229210E+04  0.25500000920E-02 0.  1.
    10030    2    1    2    0    0  0.00000000000E+00  0.00000000000E+00  0.45370442866E+03  0.31335502706E+04  0.31005305336E+04 0.  0.
        1    1    3    3  502    0 -0.14188480305E+04 -0.58775351182E+03  0.44061949501E+03  0.15977263419E+04  0.50400001928E-02 0. -1.
       -1    1    3    3    0  502  0.14188480305E+04  0.58775351182E+03  0.13084933650E+02  0.15358239286E+04  0.50400001928E-02 0.  1.
</event>
<event>
 5   0  0.1814075E-07  0.3079725E+04  0.7818609E-02  0.8221324E-01
        1   -1    0    0  501    0  0.00000000000E+00  0.00000000000E+00  0.28731634036E+04  0.28731634036E+04  0.50400001928E-02 0.  1.
       -1   -1    0    0    0  501  0.00000000000E+00  0.00000000000E+00 -0.82528434939E+03  0.82528434941E+03  0.50400001928E-02 0. -1.
    10030    2    1    2    0    0  0.00000000000E+00  0.00000000000E+00  0.20478790542E+04  0.36984477530E+04  0.30797251762E+04 0.  0.
        5    1    3    3  502    0 -0.10724772201E+04  0.95298105180E+03  0.16955587896E+04  0.22211082756E+04  0.46999998093E+01 0.  1.
       -5    1    3    3    0  502  0.10724772201E+04 -0.95298105180E+03  0.35232026457E+03  0.14773394774E+04  0.46999998093E+01 0. -1.
</event>
<event>
 5   0  0.1845123E-07  0.3096970E+04  0.7818609E-02  0.8216570E-01
        1   -1    0    0  501    0  0.00000000000E+00  0.00000000000E+00  0.15080192109E+04  0.15080192109E+04  0.50400001928E-02 0.  1.
       -1   -1    0    0    0  501  0.00000000000E+00  0.00000000000E+00 -0.15900366400E+04  0.15900366400E+04  0.50400001928E-02 0. -1.
    10030    2    1    2    0    0  0.00000000000E+00  0.00000000000E+00 -0.82017429152E+02  0.30980558509E+04  0.30969700025E+04 0.  0.
        2    1    3    3  502    0  0.72850333964E+03  0.10304485402E+04  0.85667122060E+03  0.15252628921E+04  0.25500000920E-02 0.  1.
       -2    1    3    3    0  502 -0.72850333964E+03 -0.10304485402E+04 -0.93868864975E+03  0.15727929588E+04  0.25500000920E-02 0. -1.
</event>
<event>
 5   0  0.1814075E-07  0.3101739E+04  0.7818609E-02  0.8215261E-01
        1   -1    0    0  501    0  0.00000000000E+00  0.00000000000E+00  0.11767730628E+04  0.11767730628E+04  0.50400001928E-02 0. -1.
       -1   -1    0    0    0  501  0.00000000000E+00  0.00000000000E+00 -0.20438911691E+04  0.20438911691E+04  0.50400001928E-02 0.  1.
    10030    2    1    2    0    0  0.00000000000E+00  0.00000000000E+00 -0.86711810630E+03  0.32206642318E+04  0.31017389129E+04 0.  0.
        5    1    3    3  502    0  0.11312441596E+04 -0.66829131221E+03  0.42195328345E+03  0.13799975688E+04  0.46999998093E+01 0. -1.
       -5    1    3    3    0  502 -0.11312441596E+04  0.66829131221E+03 -0.12890713898E+04  0.18406666630E+04  0.46999998093E+01 0.  1.
</event>
<event>
 5   0  0.1845123E-07  0.3094830E+04  0.7818609E-02  0.8217158E-01
        1   -1    0    0  501    0  0.00000000000E+00  0.00000000000E+00  0.20361993652E+04  0.20361993652E+04  0.50400001928E-02 0.  1.
       -1   -1    0    0    0  501  0.00000000000E+00  0.00000000000E+00 -0.11759622000E+04  0.11759622000E+04  0.50400001928E-02 0. -1.
    10030    2    1    2    0    0  0.00000000000E+00  0.00000000000E+00  0.86023716525E+03  0.32121615652E+04  0.30948301958E+04 0.  0.
        2    1    3    3  502    0 -0.12875860833E+04  0.63711679544E+03 -0.16674650608E+03  0.14462365402E+04  0.25500000920E-02 0. -1.
       -2    1    3    3    0  502  0.12875860833E+04 -0.63711679544E+03  0.10269836713E+04  0.17659250250E+04  0.25500000920E-02 0.  1.
</event>
<event>
 5   0  0.1814075E-07  0.3097667E+04  0.7818609E-02  0.8216378E-01
       -1   -1    0    0    0  501  0.00000000000E+00  0.00000000000E+00  0.30369394006E+04  0.30369394006E+04  0.50400001928E-02 0.  1.
        1   -1    0    0  501    0  0.00000000000E+00  0.00000000000E+00 -0.78990218950E+03  0.78990218952E+03  0.50400001928E-02 0. -1.
    10030    2    1    2    0    0  0.00000000000E+00  0.00000000000E+00  0.22470372111E+04  0.38268415901E+04  0.30976669169E+04 0.  0.
        5    1    3    3  502    0  0.87210846878E+02  0.63293636223E+03 -0.61950429579E+03  0.88995608484E+03  0.46999998093E+01 0. -1.
       -5    1    3    3    0  502 -0.87210846878E+02 -0.63293636223E+03  0.28665415069E+04  0.29368855053E+04  0.46999998093E+01 0.  1.
</event>
<event>
 5   0  0.1845123E-07  0.3101341E+04  0.7818609E-02  0.8215370E-01
        1   -1    0    0  501    0  0.00000000000E+00  0.00000000000E+00  0.10384276874E+04  0.10384276874E+04  0.50400001928E-02 0.  1.
       -1   -1    0    0    0  501  0.00000000000E+00  0.00000000000E+00 -0.23155953459E+04  0.23155953459E+04  0.50400001928E-02 0. -1.
    10030    2    1    2    0    0  0.00000000000E+00  0.00000000000E+00 -0.12771676585E+04  0.33540230334E+04  0.31013405618E+04 0.  0.
        2    1    3    3  502    0 -0.52045918346E+03  0.88365181992E+03 -0.18964748377E+04  0.21559997937E+04  0.25500000920E-02 0. -1.
       -2    1    3    3    0  502  0.52045918346E+03 -0.88365181992E+03  0.61930717922E+03  0.11980232396E+04  0.25500000920E-02 0.  1.
</event>
<event>
 5   0  0.5342534E-07  0.3104278E+04  0.7818609E-02  0.8214565E-01
        2   -1    0    0  501    0  0.00000000000E+00  0.00000000000E+00  0.21009962634E+04  0.21009962634E+04  0.25500000920E-02 0.  1.
       -2   -1    0    0    0  501  0.00000000000E+00  0.00000000000E+00 -0.11466635483E+04  0.11466635483E+04  0.25500000920E-02 0. -1.
    10030    2    1    2    0    0  0.00000000000E+00  0.00000000000E+00  0.95433271510E+03  0.32476598116E+04  0.31042782287E+04 0.  0.
        3    1    3    3  502    0  0.80234974601E+02 -0.13571170806E+04 -0.30638012869E+03  0.13935828698E+04  0.10100000352E+00 0. -1.
       -3    1    3    3    0  502 -0.80234974601E+02  0.13571170806E+04  0.12607128438E+04  0.18540769418E+04  0.10100000352E+00 0.  1.
</event>
<event>
 5   0  0.5055900E-07  0.3101346E+04  0.7818609E-02  0.8215369E-01
       -2   -1    0    0    0  501  0.00000000000E+00  0.00000000000E+00  0.15083110790E+04  0.15083110790E+04  0.25500000920E-02 0.  1.
        2   -1    0    0  501    0  0.00000000000E+00  0.00000000000E+00 -0.15942242401E+04  0.15942242401E+04  0.25500000920E-02 0. -1.
    10030    2    1    2    0    0  0.00000000000E+00  0.00000000000E+00 -0.85913161095E+02  0.31025353191E+04  0.31013455685E+04 0.  0.
        2    1    3    3  502    0 -0.56402441307E+03 -0.99410446585E+03 -0.10913179801E+04  0.15802981242E+04  0.25500000920E-02 0. -1.
       -2    1    3    3    0  502  0.56402441307E+03  0.99410446585E+03  0.10054048190E+04  0.15222371950E+04  0.25500000920E-02 0.  1.
</event>
<event>
 5   0  0.5154105E-07  0.3097090E+04  0.7818609E-02  0.8216537E-01
        2   -1    0    0  501    0  0.00000000000E+00  0.00000000000E+00  0.18488922335E+04  0.18488922335E+04  0.25500000920E-02 0.  1.
       -2   -1    0    0    0  501  0.00000000000E+00  0.00000000000E+00 -0.12969882867E+04  0.12969882867E+04  0.25500000920E-02 0. -1.
    10030    2    1    2    0    0  0.00000000000E+00  0.00000000000E+00  0.55190394684E+03  0.31458805202E+04  0.30970899697E+04 0.  0.
        1    1    3    3  502    0  0.88353345071E+03  0.12365064232E+04  0.57797788172E+03  0.16259267895E+04  0.50400001928E-02 0. -1.
       -1    1    3    3    0  502 -0.88353345071E+03 -0.12365064232E+04 -0.26073934872E+02  0.15199537306E+04  0.50400001928E-02 0.  1.
</event>
<event>
 5   0  0.1845123E-07  0.3105079E+04  0.7818609E-02  0.8214345E-01
       -1   -1    0    0    0  501  0.00000000000E+00  0.00000000000E+00  0.14123280452E+04  0.14123280452E+04  0.50400001928E-02 0.  1.
        1   -1    0    0  501    0  0.00000000000E+00  0.00000000000E+00 -0.17066709700E+04  0.17066709700E+04  0.50400001928E-02 0. -1.
    10030    2    1    2    0    0  0.00000000000E+00  0.00000000000E+00 -0.29434292476E+03  0.31189990152E+04  0.31050792421E+04 0.  0.
        2    1    3    3  502    0 -0.62007989220E+03  0.10714787132E+04  0.79394570281E+03  0.14706853792E+04  0.25500000920E-02 0.  1.
       -2    1    3    3    0  502  0.62007989220E+03 -0.10714787132E+04 -0.10882886276E+04  0.16483136360E+04  0.25500000920E-02 0. -1.
</event>
<event>
 5   0  0.5248309E-07  0.3097060E+04  0.7818609E-02  0.8216545E-01
       -2   -1    0    0    0  501  0.00000000000E+00  0.00000000000E+00  0.10814427964E+04  0.10814427964E+04  0.25500000920E-02 0. -1.
        2   -1    0    0  501    0  0.00000000000E+00  0.00000000000E+00 -0.22173572942E+04  0.22173572942E+04  0.25500000920E-02 0.  1.
    10030    2    1    2    0    0  0.00000000000E+00  0.00000000000E+00 -0.11359144978E+04  0.32988000906E+04  0.30970599431E+04 0.  0.
        4    1    3    3  502    0  0.73315482770E+02 -0.13594877499E+04 -0.13538260199E+04  0.19200074497E+04  0.12699999809E+01 0.  1.
       -4    1    3    3    0  502 -0.73315482770E+02  0.13594877499E+04  0.21791152215E+03  0.13787926408E+04  0.12699999809E+01 0. -1.
</event>
<event>
 5   0  0.1840359E-07  0.3103338E+04  0.7818609E-02  0.8214822E-01
        1   -1    0    0  501    0  0.00000000000E+00  0.00000000000E+00  0.98604511142E+03  0.98604511143E+03  0.50400001928E-02 0.  1.
       -1   -1    0    0    0  501  0.00000000000E+00  0.00000000000E+00 -0.24417512951E+04  0.24417512951E+04  0.50400001928E-02 0. -1.
    10030    2    1    2    0    0  0.00000000000E+00  0.00000000000E+00 -0.14557061836E+04  0.34277964065E+04  0.31033381561E+04 0.  0.
        1    1    3    3  502    0  0.58572608767E+03 -0.10468551382E+04  0.35927248994E+03  0.12522210077E+04  0.50400001928E-02 0.  1.
       -1    1    3    3    0  502 -0.58572608767E+03  0.10468551382E+04 -0.18149786736E+04  0.21755753988E+04  0.50400001928E-02 0. -1.
</event>
<event>
 5   0  0.1875284E-07  0.3097571E+04  0.7818609E-02  0.8216405E-01
        1   -1    0    0  501    0  0.00000000000E+00  0.00000000000E+00  0.24161742806E+04  0.24161742806E+04  0.50400001928E-02 0. -1.
       -1   -1    0    0    0  501  0.00000000000E+00  0.00000000000E+00 -0.99278272340E+03  0.99278272342E+03  0.50400001928E-02 0.  1.
    10030    2    1    2    0    0  0.00000000000E+00  0.00000000000E+00  0.14233915572E+04  0.34089570040E+04  0.30975707143E+04 0.  0.
        4    1    3    3  502    0  0.80329761927E+03  0.19610007624E+03 -0.72952781820E+03  0.11027033851E+04  0.12699999809E+01 0.  1.
       -4    1    3    3    0  502 -0.80329761927E+03 -0.19610007624E+03  0.21529193754E+04  0.23062536189E+04  0.12699999809E+01 0. -1.
</event>
<event>
 5   0  0.5342534E-07  0.3101331E+04  0.7818609E-02  0.8215373E-01
        2   -1    0    0  501    0  0.00000000000E+00  0.00000000000E+00  0.26319104830E+04  0.26319104830E+04  0.25500000920E-02 0.  1.
       -2   -1    0    0    0  501  0.00000000000E+00  0.00000000000E+00 -0.91361921373E+03  0.91361921374E+03  0.25500000920E-02 0. -1.
    10030    2    1    2    0    0  0.00000000000E+00  0.00000000000E+00  0.17182912692E+04  0.35455296967E+04  0.31013313181E+04 0.  0.
        3    1    3    3  502    0  0.15403676018E+04 -0.17837448114E+03  0.85484189634E+03  0.17706791019E+04  0.10100000352E+00 0. -1.
       -3    1    3    3    0  502 -0.15403676018E+04  0.17837448114E+03  0.86344937291E+03  0.17748505948E+04  0.10100000352E+00 0.  1.
</event>
<event>
 5   0  0.1814075E-07  0.3094565E+04  0.7818609E-02  0.8217231E-01
        1   -1    0    0  501    0  0.00000000000E+00  0.00000000000E+00  0.15372031259E+04  0.15372031259E+04  0.50400001928E-02 0.  1.
       -1   -1    0    0    0  501  0.00000000000E+00  0.00000000000E+00 -0.15574283415E+04  0.15574283415E+04  0.50400001928E-02 0. -1.
    10030    2    1    2    0    0  0.00000000000E+00  0.00000000000E+00 -0.20225215591E+02  0.30946314674E+04  0.30945653750E+04 0.  0.
        5    1    3    3  502    0 -0.13062497376E+04 -0.82861344072E+03  0.24137414077E+02  0.15470918899E+04  0.46999998093E+01 0. -1.
       -5    1    3    3    0  502  0.13062497376E+04  0.82861344072E+03 -0.44362629667E+02  0.15475395775E+04  0.46999998093E+01 0.  1.
</event>
<event>
 5   0  0.5342534E-07  0.3072901E+04  0.7818609E-02  0.8223215E-01
        2   -1    0    0  501    0  0.00000000000E+00  0.00000000000E+00  0.10997863757E+04  0.10997863757E+04  0.25500000920E-02 0. -1.
       -2   -1    0    0    0  501  0.00000000000E+00  0.00000000000E+00 -0.21464894878E+04  0.21464894878E+04  0.25500000920E-02 0.  1.
    10030    2    1    2    0    0  0.00000000000E+00  0.00000000000E+00 -0.10467031121E+04  0.32462758635E+04  0.30729008408E+04 0.  0.
        3    1    3    3  502    0 -0.46784129036E+03 -0.77264463968E+03  0.78968396448E+03  0.11997733062E+04  0.10100000352E+00 0. -1.
       -3    1    3    3    0  502  0.46784129036E+03  0.77264463968E+03 -0.18363870765E+04  0.20465025574E+04  0.10100000352E+00 0.  1.
</event>
<event>
 5   0  0.1875284E-07  0.3100468E+04  0.7818609E-02  0.8215610E-01
       -1   -1    0    0    0  501  0.00000000000E+00  0.00000000000E+00  0.81465130836E+03  0.81465130837E+03  0.50400001928E-02 0. -1.
        1   -1    0    0  501    0  0.00000000000E+00  0.00000000000E+00 -0.29500047058E+04  0.29500047058E+04  0.50400001928E-02 0.  1.
    10030    2    1    2    0    0  0.00000000000E+00  0.00000000000E+00 -0.21353533974E+04  0.37646560142E+04  0.31004678313E+04 0.  0.
        4    1    3    3  502    0 -0.10474616204E+04  0.11384610429E+04 -0.94653295611E+03  0.18136139728E+04  0.12699999809E+01 0.  1.
       -4    1    3    3    0  502  0.10474616204E+04 -0.11384610429E+04 -0.11888204413E+04  0.19510420414E+04  0.12699999809E+01 0. -1.
</event>
<event>
 5   0  0.1814075E-07  0.3099579E+04  0.7818609E-02  0.8215853E-01
       -1   -1    0    0    0  501  0.00000000000E+00  0.00000000000E+00  0.97589630202E+03  0.97589630203E+03  0.50400001928E-02 0. -1.
        1   -1    0    0  501    0  0.00000000000E+00  0.00000000000E+00 -0.24611713300E+04  0.24611713300E+04  0.50400001928E-02 0.  1.
    10030    2    1    2    0    0  0.00000000000E+00  0.00000000000E+00 -0.14852750280E+04  0.34370676320E+04  0.30995793260E+04 0.  0.
        5    1    3    3  502    0 -0.11684366377E+04  0.85880346496E+03 -0.13490229479E+04  0.19805737985E+04  0.46999998093E+01 0.  1.
       -5    1    3    3    0  502  0.11684366377E+04 -0.85880346496E+03 -0.13625208011E+03  0.14564938335E+04  0.46999998093E+01 0. -1.
</event>
<event>
 5   0  0.5342534E-07  0.3102514E+04  0.7818609E-02  0.8215048E-01
       -2   -1    0    0    0  501  0.00000000000E+00  0.00000000000E+00  0.11191485296E+04  0.11191485296E+04  0.25500000920E-02 0.  1.
        2   -1    0    0  501    0  0.00000000000E+00  0.00000000000E+00 -0.21502043431E+04  0.21502043431E+04  0.25500000920E-02 0. -1.
    10030    2    1    2    0    0  0.00000000000E+00  0.00000000000E+00 -0.10310558135E+04  0.32693528727E+04  0.31025138381E+04 0.  0.
        3    1    3    3  502    0 -0.67872741624E+03  0.88313471462E+03 -0.16533127169E+04  0.19934996312E+04  0.10100000352E+00 0. -1.
       -3    1    3    3    0  502  0.67872741624E+03 -0.88313471462E+03  0.62225690332E+03  0.12758532414E+04  0.10100000352E+00 0.  1.
</event>
<event>
 5   0  0.1840359E-07  0.3118086E+04  0.7818609E-02  0.8210792E-01
        1   -1    0    0  501    0  0.00000000000E+00  0.00000000000E+00  0.16010544702E+04  0.16010544702E+04  0.50400001928E-02 0.  1.
       -1   -1    0    0    0  501  0.00000000000E+00  0.00000000000E+00 -0.15181337004E+04  0.15181337004E+04  0.50400001928E-02 0. -1.
    10030    2    1    2    0    0  0.00000000000E+00  0.00000000000E+00  0.82920769773E+02  0.31191881706E+04  0.31180857893E+04 0.  0.
        1    1    3    3  502    0  0.12959000833E+04  0.54221434036E+03 -0.63498969602E+03  0.15416112775E+04  0.50400001928E-02 0. -1.
       -1    1    3    3    0  502 -0.12959000833E+04 -0.54221434036E+03  0.71791046579E+03  0.15775768931E+04  0.50400001928E-02 0.  1.
</event>
<event>
 5   0  0.5376678E-07  0.3107555E+04  0.7818609E-02  0.8213668E-01
        2   -1    0    0  501    0  0.00000000000E+00  0.00000000000E+00  0.16814551115E+04  0.16814551115E+04  0.25500000920E-02 0.  1.
       -2   -1    0    0    0  501  0.00000000000E+00  0.00000000000E+00 -0.14357947555E+04  0.14357947555E+04  0.25500000920E-02 0. -1.
    10030    2    1    2    0    0  0.00000000000E+00  0.00000000000E+00  0.24566035601E+03  0.31172498670E+04  0.31075549429E+04 0.  0.
        5    1    3    3  502    0  0.74196314397E+03 -0.96682561628E+03  0.10896530726E+04  0.16348171114E+04  0.46999998093E+01 0.  1.
       -5    1    3    3    0  502 -0.74196314397E+03  0.96682561628E+03 -0.84399271654E+03  0.14824327556E+04  0.46999998093E+01 0. -1.
</event>
<event>
 5   0  0.1845123E-07  0.3111725E+04  0.7818609E-02  0.8212527E-01
        1   -1    0    0  501    0  0.00000000000E+00  0.00000000000E+00  0.13117726072E+04  0.13117726073E+04  0.50400001928E-02 0. -1.
       -1   -1    0    0    0  501  0.00000000000E+00  0.00000000000E+00 -0.18453721036E+04  0.18453721037E+04  0.50400001928E-02 0.  1.
    10030    2    1    2    0    0  0.00000000000E+00  0.00000000000E+00 -0.53359949640E+03  0.31571447109E+04  0.31117252936E+04 0.  0.
        2    1    3    3  502    0 -0.14681482206E+04 -0.38615983016E+03  0.78952795501E+02  0.15201355716E+04  0.25500000920E-02 0. -1.
       -2    1    3    3    0  502  0.14681482206E+04  0.38615983016E+03 -0.61255229190E+03  0.16370091393E+04  0.25500000920E-02 0.  1.
</event>
<event>
 5   0  0.1830902E-07  0.3102259E+04  0.7818609E-02  0.8215118E-01
        1   -1    0    0  501    0  0.00000000000E+00  0.00000000000E+00  0.12442070574E+04  0.12442070574E+04  0.50400001928E-02 0. -1.
       -1   -1    0    0    0  501  0.00000000000E+00  0.00000000000E+00 -0.19337638329E+04  0.19337638329E+04  0.50400001928E-02 0.  1.
    10030    2    1    2    0    0  0.00000000000E+00  0.00000000000E+00 -0.68955677552E+03  0.31779708903E+04  0.31022589242E+04 0.  0.
        3    1    3    3  502    0  0.10928977244E+04  0.91124188703E+03 -0.97727336660E+03  0.17262243354E+04  0.10100000352E+00 0.  1.
       -3    1    3    3    0  502 -0.10928977244E+04 -0.91124188703E+03  0.28771659107E+03  0.14517465549E+04  0.10100000352E+00 0. -1.
</event>
<event>
 5   0  0.1814075E-07  0.3098167E+04  0.7818609E-02  0.8216241E-01
        1   -1    0    0  501    0  0.00000000000E+00  0.00000000000E+00  0.96259429960E+03  0.96259429961E+03  0.50400001928E-02 0. -1.
       -1   -1    0    0    0  501  0.00000000000E+00  0.00000000000E+00 -0.24929094386E+04  0.24929094386E+04  0.50400001928E-02 0.  1.
    10030    2    1    2    0    0  0.00000000000E+00  0.00000000000E+00 -0.15303151390E+04  0.34555037382E+04  0.30981674680E+04 0.  0.
        5    1    3    3  502    0 -0.76056803926E+03  0.18088789909E+03 -0.22567335572E+04  0.23883158528E+04  0.46999998093E+01 0.  1.
       -5    1    3    3    0  502  0.76056803926E+03 -0.18088789909E+03  0.72641841825E+03  0.10671878854E+04  0.46999998093E+01 0. -1.
</event>
<event>
 5   0  0.5055900E-07  0.3095136E+04  0.7818609E-02  0.8217074E-01
        2   -1    0    0  501    0  0.00000000000E+00  0.00000000000E+00  0.13080895674E+04  0.13080895674E+04  0.25500000920E-02 0. -1.
       -2   -1    0    0    0  501  0.00000000000E+00  0.00000000000E+00 -0.18308885228E+04  0.18308885228E+04  0.25500000920E-02 0.  1.
    10030    2    1    2    0    0  0.00000000000E+00  0.00000000000E+00 -0.52279895546E+03  0.31389780902E+04  0.30951356518E+04 0.  0.
        2    1    3    3  502    0 -0.48073839598E+03  0.14691972128E+04 -0.18745356708E+03  0.15571733029E+04  0.25500000920E-02 0.  1.
       -2    1    3    3    0  502  0.48073839598E+03 -0.14691972128E+04 -0.33534538838E+03  0.15818047873E+04  0.25500000920E-02 0. -1.
</event>
<event>
 5   0  0.5154105E-07  0.3094265E+04  0.7818609E-02  0.8217314E-01
        2   -1    0    0  501    0  0.00000000000E+00  0.00000000000E+00  0.21471921783E+04  0.21471921783E+04  0.25500000920E-02 0. -1.
       -2   -1    0    0    0  501  0.00000000000E+00  0.00000000000E+00 -0.11147669924E+04  0.11147669924E+04  0.25500000920E-02 0.  1.
    10030    2    1    2    0    0  0.00000000000E+00  0.00000000000E+00  0.10324251859E+04  0.32619591707E+04  0.30942649962E+04 0.  0.
        1    1    3    3  502    0 -0.47600833294E+03  0.13718049584E+04 -0.46757419252E+02  0.14527969690E+04  0.50400001928E-02 0.  1.
       -1    1    3    3    0  502  0.47600833294E+03 -0.13718049584E+04  0.10791826051E+04  0.18091622017E+04  0.50400001928E-02 0. -1.
</event>
<event>
 5   0  0.1840359E-07  0.3091133E+04  0.7818609E-02  0.8218176E-01
       -1   -1    0    0    0  501  0.00000000000E+00  0.00000000000E+00  0.12140617061E+04  0.12140617061E+04  0.50400001928E-02 0. -1.
        1   -1    0    0  501    0  0.00000000000E+00  0.00000000000E+00 -0.19675896913E+04  0.19675896913E+04  0.50400001928E-02 0.  1.
    10030    2    1    2    0    0  0.00000000000E+00  0.00000000000E+00 -0.75352798517E+03  0.31816513974E+04  0.30911326711E+04 0.  0.
        1    1    3    3  502    0 -0.12924919937E+04  0.82664085267E+03 -0.18446519997E+03  0.15452825189E+04  0.50400001928E-02 0. -1.
       -1    1    3    3    0  502  0.12924919937E+04 -0.82664085267E+03 -0.56906278521E+03  0.16363688785E+04  0.50400001928E-02 0.  1.
</event>
<event>
 5   0  0.1830902E-07  0.3096884E+04  0.7818609E-02  0.8216594E-01
       -1   -1    0    0    0  501  0.00000000000E+00  0.00000000000E+00  0.13354833387E+04  0.13354833388E+04  0.50400001928E-02 0.  1.
        1   -1    0    0  501    0  0.00000000000E+00  0.00000000000E+00 -0.17953594129E+04  0.17953594130E+04  0.50400001928E-02 0. -1.
    10030    2    1    2    0    0  0.00000000000E+00  0.00000000000E+00 -0.45987607421E+03  0.31308427517E+04  0.30968839714E+04 0.  0.
        3    1    3    3  502    0 -0.83835446123E+02 -0.11493160451E+04 -0.12755504574E+04  0.17190069032E+04  0.10100000352E+00 0. -1.
       -3    1    3    3    0  502  0.83835446123E+02  0.11493160451E+04  0.81567438322E+03  0.14118358485E+04  0.10100000352E+00 0.  1.
</event>
<event>
 5   0  0.1830902E-07  0.3101063E+04  0.7818609E-02  0.8215446E-01
       -1   -1    0    0    0  501  0.00000000000E+00  0.00000000000E+00  0.20795488978E+04  0.20795488978E+04  0.50400001928E-02 0. -1.
        1   -1    0    0  501    0  0.00000000000E+00  0.00000000000E+00 -0.11560907561E+04  0.11560907561E+04  0.50400001928E-02 0.  1.
    10030    2    1    2    0    0  0.00000000000E+00  0.00000000000E+00  0.92345814169E+03  0.32356396540E+04  0.31010625648E+04 0.  0.
        3    1    3    3  502    0  0.76226600838E+03 -0.34580486482E+02  0.18700840177E+04  0.20197671948E+04  0.10100000352E+00 0. -1.
       -3    1    3    3    0  502 -0.76226600838E+03  0.34580486482E+02 -0.94662587604E+03  0.12158724592E+04  0.10100000352E+00 0.  1.
</event>
<event>
 5   0  0.1845123E-07  0.3091221E+04  0.7818609E-02  0.8218151E-01
        1   -1    0    0  501    0  0.00000000000E+00  0.00000000000E+00  0.19386810010E+04  0.19386810010E+04  0.50400001928E-02 0. -1.
       -1   -1    0    0    0  501  0.00000000000E+00  0.00000000000E+00 -0.12322354933E+04  0.12322354933E+04  0.50400001928E-02 0.  1.
    10030    2    1    2    0    0  0.00000000000E+00  0.00000000000E+00  0.70644550774E+03  0.31709164943E+04  0.30912208201E+04 0.  0.
        2    1    3    3  502    0  0.12969546249E+04  0.47708037715E+03 -0.35687767522E+03  0.14272556395E+04  0.25500000920E-02 0.  1.
       -2    1    3    3    0  502 -0.12969546249E+04 -0.47708037715E+03  0.10633231830E+04  0.17436608548E+04  0.25500000920E-02 0. -1.
</event>
<event>
 5   0  0.5154105E-07  0.3095962E+04  0.7818609E-02  0.8216847E-01
       -2   -1    0    0    0  501  0.00000000000E+00  0.00000000000E+00  0.82959339980E+03  0.82959339980E+03  0.25500000920E-02 0.  1.
        2   -1    0    0  501    0  0.00000000000E+00  0.00000000000E+00 -0.28884582651E+04  0.28884582651E+04  0.25500000920E-02 0. -1.
    10030    2    1    2    0    0  0.00000000000E+00  0.00000000000E+00 -0.20588648653E+04  0.37180516649E+04  0.30959624754E+04 0.  0.
        1    1    3    3  502    0  0.13618733846E+04 -0.72842212654E+03 -0.11550895717E+04  0.19286082622E+04  0.50400001928E-02 0.  1.
       -1    1    3    3    0  502 -0.13618733846E+04  0.72842212654E+03 -0.90377529360E+03  0.17894434027E+04  0.50400001928E-02 0. -1.
</event>
<event>
 5   0  0.5342534E-07  0.3114673E+04  0.7818609E-02  0.8211723E-01
       -2   -1    0    0    0  501  0.00000000000E+00  0.00000000000E+00  0.19030042110E+04  0.19030042110E+04  0.25500000920E-02 0. -1.
        2   -1    0    0  501    0  0.00000000000E+00  0.00000000000E+00 -0.12744565836E+04  0.12744565836E+04  0.25500000920E-02 0.  1.
    10030    2    1    2    0    0  0.00000000000E+00  0.00000000000E+00  0.62854762738E+03  0.31774607945E+04  0.31146725319E+04 0.  0.
        3    1    3    3  502    0  0.43935791716E+03  0.94126975891E+03  0.14979535968E+04  0.18228793506E+04  0.10100000352E+00 0. -1.
       -3    1    3    3    0  502 -0.43935791716E+03 -0.94126975891E+03 -0.86940596944E+03  0.13545814440E+04  0.10100000352E+00 0.  1.
</event>
<event>
 5   0  0.1830902E-07  0.3091976E+04  0.7818609E-02  0.8217943E-01
       -1   -1    0    0    0  501  0.00000000000E+00  0.00000000000E+00  0.18829175960E+04  0.18829175960E+04  0.50400001928E-02 0.  1.
        1   -1    0    0  501    0  0.00000000000E+00  0.00000000000E+00 -0.12693485732E+04  0.12693485732E+04  0.50400001928E-02 0. -1.
    10030    2    1    2    0    0  0.00000000000E+00  0.00000000000E+00  0.61356902277E+03  0.31522661692E+04  0.30919759145E+04 0.  0.
        3    1    3    3  502    0 -0.32230123564E+03 -0.17162562708E+03  0.18383234861E+04  0.18742376296E+04  0.10100000352E+00 0.  1.
       -3    1    3    3    0  502  0.32230123564E+03  0.17162562708E+03 -0.12247544634E+04  0.12780285396E+04  0.10100000352E+00 0. -1.
</event>
<event>
 5   0  0.5248309E-07  0.3099444E+04  0.7818609E-02  0.8215891E-01
        2   -1    0    0  501    0  0.00000000000E+00  0.00000000000E+00  0.22292126050E+04  0.22292126050E+04  0.25500000920E-02 0.  1.
       -2   -1    0    0    0  501  0.00000000000E+00  0.00000000000E+00 -0.10773479138E+04  0.10773479138E+04  0.25500000920E-02 0. -1.
    10030    2    1    2    0    0  0.00000000000E+00  0.00000000000E+00  0.11518646913E+04  0.33065605188E+04  0.30994435303E+04 0.  0.
        4    1    3    3  502    0 -0.12790086278E+04 -0.80655276445E+03  0.93809590055E+03  0.17794425991E+04  0.12699999809E+01 0.  1.
       -4    1    3    3    0  502  0.12790086278E+04  0.80655276445E+03  0.21376879074E+03  0.15271179197E+04  0.12699999809E+01 0. -1.
</event>
<event>
 5   0  0.1830902E-07  0.3130739E+04  0.7818609E-02  0.8207352E-01
       -1   -1    0    0    0  501  0.00000000000E+00  0.00000000000E+00  0.12903713437E+04  0.12903713437E+04  0.50400001928E-02 0.  1.
        1   -1    0    0  501    0  0.00000000000E+00  0.00000000000E+00 -0.18989743224E+04  0.18989743224E+04  0.50400001928E-02 0. -1.
    10030    2    1    2    0    0  0.00000000000E+00  0.00000000000E+00 -0.60860297869E+03  0.31893456662E+04  0.31307392406E+04 0.  0.
        3    1    3    3  502    0 -0.13473494028E+04 -0.70047178135E+03  0.82772990509E+02  0.15208098198E+04  0.10100000352E+00 0.  1.
       -3    1    3    3    0  502  0.13473494028E+04  0.70047178135E+03 -0.69137596920E+03  0.16685358464E+04  0.10100000352E+00 0. -1.
</event>
<event>
 5   0  0.1830902E-07  0.3099887E+04  0.7818609E-02  0.8215769E-01
        1   -1    0    0  501    0  0.00000000000E+00  0.00000000000E+00  0.19816592755E+04  0.19816592755E+04  0.50400001928E-02 0. -1.
       -1   -1    0    0    0  501  0.00000000000E+00  0.00000000000E+00 -0.12122794642E+04  0.12122794642E+04  0.50400001928E-02 0.  1.
    10030    2    1    2    0    0  0.00000000000E+00  0.00000000000E+00  0.76937981129E+03  0.31939387397E+04  0.30998869946E+04 0.  0.
        3    1    3    3  502    0  0.49422372729E+03 -0.45250985571E+03  0.18246998161E+04  0.19438497090E+04  0.10100000352E+00 0. -1.
       -3    1    3    3    0  502 -0.49422372729E+03  0.45250985571E+03 -0.10553200048E+04  0.12500890308E+04  0.10100000352E+00 0.  1.
</event>
<event>
 5   0  0.5342534E-07  0.3099628E+04  0.7818609E-02  0.8215840E-01
       -2   -1    0    0    0  501  0.00000000000E+00  0.00000000000E+00  0.10360087597E+04  0.10360087597E+04  0.25500000920E-02 0.  1.
        2   -1    0    0  501    0  0.00000000000E+00  0.00000000000E+00 -0.23184387919E+04  0.23184387919E+04  0.25500000920E-02 0. -1.
    10030    2    1    2    0    0  0.00000000000E+00  0.00000000000E+00 -0.12824300322E+04  0.33544475515E+04  0.30996276532E+04 0.  0.
        3    1    3    3  502    0 -0.56636942657E+03  0.81723935109E+02  0.91749394814E+03  0.10813178460E+04  0.10100000352E+00 0.  1.
       -3    1    3    3    0  502  0.56636942657E+03 -0.81723935109E+02 -0.21999239803E+04  0.22731297056E+04  0.10100000352E+00 0. -1.
</event>
<event>
 5   0  0.1875284E-07  0.3100608E+04  0.7818609E-02  0.8215571E-01
        1   -1    0    0  501    0  0.00000000000E+00  0.00000000000E+00  0.28433995384E+04  0.28433995384E+04  0.50400001928E-02 0.  1.
       -1   -1    0    0    0  501  0.00000000000E+00  0.00000000000E+00 -0.84527078400E+03  0.84527078401E+03  0.50400001928E-02 0. -1.
    10030    2    1    2    0    0  0.00000000000E+00  0.00000000000E+00  0.19981287544E+04  0.36886703225E+04  0.31006080417E+04 0.  0.
        4    1    3    3  502    0  0.11182642151E+04 -0.55511284051E+03  0.20925012392E+04  0.24366428071E+04  0.12699999809E+01 0.  1.
       -4    1    3    3    0  502 -0.11182642151E+04  0.55511284051E+03 -0.94372484730E+02  0.12520275154E+04  0.12699999809E+01 0. -1.
</event>
<event>
 5   0  0.1830902E-07  0.3096650E+04  0.7818609E-02  0.8216658E-01
       -1   -1    0    0    0  501  0.00000000000E+00  0.00000000000E+00  0.14931589056E+04  0.14931589056E+04  0.50400001928E-02 0.  1.
        1   -1    0    0  501    0  0.00000000000E+00  0.00000000000E+00 -0.16055289897E+04  0.16055289897E+04  0.50400001928E-02 0. -1.
    10030    2    1    2    0    0  0.00000000000E+00  0.00000000000E+00 -0.11237008410E+03  0.30986878953E+04  0.30966497440E+04 0.  0.
        3    1    3    3  502    0 -0.10499816333E+04  0.87441475006E+03  0.67247505641E+03  0.15229199904E+04  0.10100000352E+00 0.  1.
       -3    1    3    3    0  502  0.10499816333E+04 -0.87441475006E+03 -0.78484514052E+03  0.15757679049E+04  0.10100000352E+00 0. -1.
</event>
<event>
 5   0  0.5055900E-07  0.3106969E+04  0.7818609E-02  0.8213828E-01
        2   -1    0    0  501    0  0.00000000000E+00  0.00000000000E+00  0.14760255393E+04  0.14760255393E+04  0.25500000920E-02 0.  1.
       -2   -1    0    0    0  501  0.00000000000E+00  0.00000000000E+00 -0.16350079376E+04  0.16350079376E+04  0.25500000920E-02 0. -1.
    10030    2    1    2    0    0  0.00000000000E+00  0.00000000000E+00 -0.15898239834E+03  0.31110334769E+04  0.31069686016E+04 0.  0.
        2    1    3    3  502    0  0.11131270162E+04 -0.39586588672E+03  0.93056632639E+03  0.15039000108E+04  0.25500000920E-02 0.  1.
       -2    1    3    3    0  502 -0.11131270162E+04  0.39586588672E+03 -0.10895487247E+04  0.16071334662E+04  0.25500000920E-02 0. -1.
</event>
<event>
 5   0  0.1875284E-07  0.3100099E+04  0.7818609E-02  0.8215711E-01
       -1   -1    0    0    0  501  0.00000000000E+00  0.00000000000E+00  0.11039131056E+04  0.11039131056E+04  0.50400001928E-02 0. -1.
        1   -1    0    0  501    0  0.00000000000E+00  0.00000000000E+00 -0.21764875052E+04  0.21764875052E+04  0.50400001928E-02 0.  1.
    10030    2    1    2    0    0  0.00000000000E+00  0.00000000000E+00 -0.10725743996E+04  0.32804006108E+04  0.31000987605E+04 0.  0.
        4    1    3    3  502    0 -0.29332873387E+03 -0.12513937927E+04  0.38048698282E+03  0.13404477339E+04  0.12699999809E+01 0. -1.
       -4    1    3    3    0  502  0.29332873387E+03  0.12513937927E+04 -0.14530613824E+04  0.19399528769E+04  0.12699999809E+01 0.  1.
</event>
<event>
 5   0  0.5154105E-07  0.3098740E+04  0.7818609E-02  0.8216084E-01
       -2   -1    0    0    0  501  0.00000000000E+00  0.00000000000E+00  0.15764365767E+04  0.15764365767E+04  0.25500000920E-02 0.  1.
        2   -1    0    0  501    0  0.00000000000E+00  0.00000000000E+00 -0.15227685566E+04  0.15227685566E+04  0.25500000920E-02 0. -1.
    10030    2    1    2    0    0  0.00000000000E+00  0.00000000000E+00  0.53668020107E+02  0.30992051334E+04  0.30987404219E+04 0.  0.
        1    1    3    3  502    0  0.29125407515E+02 -0.11820320578E+04  0.10282333727E+04  0.15669435037E+04  0.50400001928E-02 0.  1.
       -1    1    3    3    0  502 -0.29125407515E+02  0.11820320578E+04 -0.97456535263E+03  0.15322616296E+04  0.50400001928E-02 0. -1.
</event>
<event>
 5   0  0.1845123E-07  0.3038752E+04  0.7818609E-02  0.8232751E-01
        1   -1    0    0  501    0  0.00000000000E+00  0.00000000000E+00  0.15696055602E+04  0.15696055602E+04  0.50400001928E-02 0.  1.
       -1   -1    0    0    0  501  0.00000000000E+00  0.00000000000E+00 -0.14707538312E+04  0.14707538312E+04  0.50400001928E-02 0. -1.
    10030    2    1    2    0    0  0.00000000000E+00  0.00000000000E+00  0.98851728941E+02  0.30403593914E+04  0.30387519749E+04 0.  0.
        2    1    3    3  502    0 -0.48529252112E+03  0.19019344761E+03  0.14773531832E+04  0.15666061428E+04  0.25500000920E-02 0.  1.
       -2    1    3    3    0  502  0.48529252112E+03 -0.19019344761E+03 -0.13785014543E+04  0.14737532487E+04  0.25500000920E-02 0. -1.
</event>
<event>
 5   0  0.1875284E-07  0.3103193E+04  0.7818609E-02  0.8214862E-01
       -1   -1    0    0    0  501  0.00000000000E+00  0.00000000000E+00  0.10566847114E+04  0.10566847114E+04  0.50400001928E-02 0.  1.
        1   -1    0    0  501    0  0.00000000000E+00  0.00000000000E+00 -0.22783062596E+04  0.22783062596E+04  0.50400001928E-02 0. -1.
    10030    2    1    2    0    0  0.00000000000E+00  0.00000000000E+00 -0.12216215483E+04  0.33349909711E+04  0.31031928026E+04 0.  0.
        4    1    3    3  502    0  0.52247578905E+03  0.14582523177E+04 -0.70674819033E+03  0.17026377740E+04  0.12699999809E+01 0.  1.
       -4    1    3    3    0  502 -0.52247578905E+03 -0.14582523177E+04 -0.51487335792E+03  0.16323531970E+04  0.12699999809E+01 0. -1.
</event>
<event>
 5   0  0.5342534E-07  0.3118362E+04  0.7818609E-02  0.8210717E-01
       -2   -1    0    0    0  501  0.00000000000E+00  0.00000000000E+00  0.94226120289E+03  0.94226120289E+03  0.25500000920E-02 0. -1.
        2   -1    0    0  501    0  0.00000000000E+00  0.00000000000E+00 -0.25800113819E+04  0.25800113819E+04  0.25500000920E-02 0.  1.
    10030    2    1    2    0    0  0.00000000000E+00  0.00000000000E+00 -0.16377501790E+04  0.35222725848E+04  0.31183615109E+04 0.  0.
        3    1    3    3  502    0 -0.11816641131E+04 -0.32349381600E+03 -0.19081900134E+04  0.22676347728E+04  0.10100000352E+00 0.  1.
       -3    1    3    3    0  502  0.11816641131E+04  0.32349381600E+03  0.27043983435E+03  0.12546378121E+04  0.10100000352E+00 0. -1.
</event>
<event>
 5   0  0.1830902E-07  0.3109932E+04  0.7818609E-02  0.8213017E-01
        1   -1    0    0  501    0  0.00000000000E+00  0.00000000000E+00  0.21460118739E+04  0.21460118739E+04  0.50400001928E-02 0. -1.
       -1   -1    0    0    0  501  0.00000000000E+00  0.00000000000E+00 -0.11267036117E+04  0.11267036117E+04  0.50400001928E-02 0.  1.
    10030    2    1    2    0    0  0.00000000000E+00  0.00000000000E+00  0.10193082622E+04  0.32727154856E+04  0.31099320437E+04 0.  0.
        3    1    3    3  502    0 -0.14816369600E+03  0.21369711402E+03  0.21229686335E+04  0.21388349087E+04  0.10100000352E+00 0. -1.
       -3    1    3    3    0  502  0.14816369600E+03 -0.21369711402E+03 -0.11036603713E+04  0.11338805770E+04  0.10100000352E+00 0.  1.
</event>
<event>
 5   0  0.5055900E-07  0.3101323E+04  0.7818609E-02  0.8215375E-01
        2   -1    0    0  501    0  0.00000000000E+00  0.00000000000E+00  0.11144528185E+04  0.11144528185E+04  0.25500000920E-02 0.  1.
       -2   -1    0    0    0  501  0.00000000000E+00  0.00000000000E+00 -0.21576065906E+04  0.21576065906E+04  0.25500000920E-02 0. -1.
    10030    2    1    2    0    0  0.00000000000E+00  0.00000000000E+00 -0.10431537721E+04  0.32720594091E+04  0.31013227798E+04 0.  0.
        2    1    3    3  502    0  0.64162271201E+03  0.29964993712E+03 -0.19770454943E+04  0.21000425414E+04  0.25500000920E-02 0. -1.
       -2    1    3    3    0  502 -0.64162271201E+03 -0.29964993712E+03  0.93389172216E+03  0.11720168677E+04  0.25500000920E-02 0.  1.
</event>
<event>
 5   0  0.5342534E-07  0.3116972E+04  0.7818609E-02  0.8211095E-01
        2   -1    0    0  501    0  0.00000000000E+00  0.00000000000E+00  0.15753803051E+04  0.15753803052E+04  0.25500000920E-02 0.  1.
       -2   -1    0    0    0  501  0.00000000000E+00  0.00000000000E+00 -0.15417729289E+04  0.15417729289E+04  0.25500000920E-02 0. -1.
    10030    2    1    2    0    0  0.00000000000E+00  0.00000000000E+00  0.33607376272E+02  0.31171532340E+04  0.31169720609E+04 0.  0.
        3    1    3    3  502    0  0.25052377818E+03  0.58872408741E+03 -0.14043772494E+04  0.15432542511E+04  0.10100000352E+00 0. -1.
       -3    1    3    3    0  502 -0.25052377818E+03 -0.58872408741E+03  0.14379846257E+04  0.15738989829E+04  0.10100000352E+00 0.  1.
</event>
<event>
 5   0  0.5055900E-07  0.3104948E+04  0.7818609E-02  0.8214381E-01
       -2   -1    0    0    0  501  0.00000000000E+00  0.00000000000E+00  0.13889845589E+04  0.13889845589E+04  0.25500000920E-02 0. -1.
        2   -1    0    0  501    0  0.00000000000E+00  0.00000000000E+00 -0.17352070457E+04  0.17352070457E+04  0.25500000920E-02 0.  1.
    10030    2    1    2    0    0  0.00000000000E+00  0.00000000000E+00 -0.34622248683E+03  0.31241916047E+04  0.31049481755E+04 0.  0.
        2    1    3    3  502    0  0.15906310261E+03 -0.69906495204E+03 -0.15586651266E+04  0.17156426944E+04  0.25500000920E-02 0.  1.
       -2    1    3    3    0  502 -0.15906310261E+03  0.69906495204E+03  0.12124426398E+04  0.14085489103E+04  0.25500000920E-02 0. -1.
</event>
<event>
 5   0  0.5055900E-07  0.3101956E+04  0.7818609E-02  0.8215201E-01
       -2   -1    0    0    0  501  0.00000000000E+00  0.00000000000E+00  0.10072246962E+04  0.10072246962E+04  0.25500000920E-02 0.  1.
        2   -1    0    0  501    0  0.00000000000E+00  0.00000000000E+00 -0.23882774643E+04  0.23882774643E+04  0.25500000920E-02 0. -1.
    10030    2    1    2    0    0  0.00000000000E+00  0.00000000000E+00 -0.13810527682E+04  0.33955021605E+04  0.31019555402E+04 0.  0.
        2    1    3    3  502    0 -0.15073013039E+03  0.15027841876E+04 -0.30436427695E+03  0.15406873466E+04  0.25500000920E-02 0.  1.
       -2    1    3    3    0  502  0.15073013039E+03 -0.15027841876E+04 -0.10766884912E+04  0.18548148139E+04  0.25500000920E-02 0. -1.
</event>
<event>
 5   0  0.1814075E-07  0.3097684E+04  0.7818609E-02  0.8216374E-01
        1   -1    0    0  501    0  0.00000000000E+00  0.00000000000E+00  0.14396492624E+04  0.14396492625E+04  0.50400001928E-02 0.  1.
       -1   -1    0    0    0  501  0.00000000000E+00  0.00000000000E+00 -0.16663169279E+04  0.16663169279E+04  0.50400001928E-02 0. -1.
    10030    2    1    2    0    0  0.00000000000E+00  0.00000000000E+00 -0.22666766541E+03  0.31059661903E+04  0.30976842552E+04 0.  0.
        5    1    3    3  502    0 -0.15124523451E+04  0.28044514452E+03  0.68059411028E+02  0.15397453519E+04  0.46999998093E+01 0.  1.
       -5    1    3    3    0  502  0.15124523451E+04 -0.28044514452E+03 -0.29472707644E+03  0.15662208384E+04  0.46999998093E+01 0. -1.
</event>
<event>
 5   0  0.1875284E-07  0.3101808E+04  0.7818609E-02  0.8215242E-01
        1   -1    0    0  501    0  0.00000000000E+00  0.00000000000E+00  0.12079717267E+04  0.12079717267E+04  0.50400001928E-02 0.  1.
       -1   -1    0    0    0  501  0.00000000000E+00  0.00000000000E+00 -0.19911921538E+04  0.19911921538E+04  0.50400001928E-02 0. -1.
    10030    2    1    2    0    0  0.00000000000E+00  0.00000000000E+00 -0.78322042711E+03  0.31991638805E+04  0.31018083914E+04 0.  0.
        4    1    3    3  502    0 -0.31997872087E+03 -0.80412916758E+03  0.93575364343E+03  0.12746162536E+04  0.12699999809E+01 0.  1.
       -4    1    3    3    0  502  0.31997872087E+03  0.80412916758E+03 -0.17189740705E+04  0.19245476269E+04  0.12699999809E+01 0. -1.
</event>
<event>
 5   0  0.5055900E-07  0.3109901E+04  0.7818609E-02  0.8213026E-01
        2   -1    0    0  501    0  0.00000000000E+00  0.00000000000E+00  0.17267220033E+04  0.17267220033E+04  0.25500000920E-02 0. -1.
       -2   -1    0    0    0  501  0.00000000000E+00  0.00000000000E+00 -0.14002669323E+04  0.14002669324E+04  0.25500000920E-02 0.  1.
    10030    2    1    2    0    0  0.00000000000E+00  0.00000000000E+00  0.32645507094E+03  0.31269889356E+04  0.31099014277E+04 0.  0.
        2    1    3    3  502    0  0.83008093972E+03  0.88732377454E+03  0.11388650033E+04  0.16653502164E+04  0.25500000920E-02 0. -1.
       -2    1    3    3    0  502 -0.83008093972E+03 -0.88732377454E+03 -0.81240993241E+03  0.14616387193E+04  0.25500000920E-02 0.  1.
</event>
<event>
 5   0  0.5055900E-07  0.3088292E+04  0.7818609E-02  0.8218958E-01
       -2   -1    0    0    0  501  0.00000000000E+00  0.00000000000E+00  0.17154665769E+04  0.17154665769E+04  0.25500000920E-02 0. -1.
        2   -1    0    0  501    0  0.00000000000E+00  0.00000000000E+00 -0.13899349924E+04  0.13899349924E+04  0.25500000920E-02 0.  1.
    10030    2    1    2    0    0  0.00000000000E+00  0.00000000000E+00  0.32553158454E+03  0.31054015693E+04  0.30882920999E+04 0.  0.
        2    1    3    3  502    0  0.98143567327E+03 -0.32255206381E+03 -0.99125575503E+03  0.14317275532E+04  0.25500000920E-02 0.  1.
       -2    1    3    3    0  502 -0.98143567327E+03  0.32255206381E+03  0.13167873396E+04  0.16736740161E+04  0.25500000920E-02 0. -1.
</event>
<event>
 5   0  0.1727000E-07  0.3097115E+04  0.7818609E-02  0.8216530E-01
        3   -1    0    0  501    0  0.00000000000E+00  0.00000000000E+00  0.28745853588E+04  0.28745853606E+04  0.10100000352E+00 0. -1.
       -3   -1    0    0    0  501  0.00000000000E+00  0.00000000000E+00 -0.83421759772E+03  0.83421760383E+03  0.10100000352E+00 0.  1.
    10030    2    1    2    0    0  0.00000000000E+00  0.00000000000E+00  0.20403677611E+04  0.37088029644E+04  0.30971145972E+04 0.  0.
        3    1    3    3  502    0 -0.10850525085E+04 -0.89751034392E+03  0.24859254652E+03  0.14299167906E+04  0.10100000352E+00 0.  1.
       -3    1    3    3    0  502  0.10850525085E+04  0.89751034392E+03  0.17917752146E+04  0.22788861739E+04  0.10100000352E+00 0. -1.
</event>
<event>
 5   0  0.5342534E-07  0.3083701E+04  0.7818609E-02  0.8220225E-01
        2   -1    0    0  501    0  0.00000000000E+00  0.00000000000E+00  0.27241724968E+04  0.27241724968E+04  0.25500000920E-02 0. -1.
       -2   -1    0    0    0  501  0.00000000000E+00  0.00000000000E+00 -0.87266995706E+03  0.87266995707E+03  0.25500000920E-02 0.  1.
    10030    2    1    2    0    0  0.00000000000E+00  0.00000000000E+00  0.18515025398E+04  0.35968424539E+04  0.30837013447E+04 0.  0.
        3    1    3    3  502    0 -0.20915209189E+03  0.35046332315E+03 -0.80852141853E+03  0.90569091463E+03  0.10100000352E+00 0.  1.
       -3    1    3    3    0  502  0.20915209189E+03 -0.35046332315E+03  0.26600239583E+04  0.26911515393E+04  0.10100000352E+00 0. -1.
</event>
<event>
 5   0  0.1845123E-07  0.3106920E+04  0.7818609E-02  0.8213841E-01
       -1   -1    0    0    0  501  0.00000000000E+00  0.00000000000E+00  0.87660297366E+03  0.87660297368E+03  0.50400001928E-02 0. -1.
        1   -1    0    0  501    0  0.00000000000E+00  0.00000000000E+00 -0.27529425848E+04  0.27529425848E+04  0.50400001928E-02 0.  1.
    10030    2    1    2    0    0  0.00000000000E+00  0.00000000000E+00 -0.18763396111E+04  0.36295455585E+04  0.31069197970E+04 0.  0.
        2    1    3    3  502    0  0.16746101651E+03 -0.86326514603E+03  0.55785868305E+03  0.10413818774E+04  0.25500000920E-02 0. -1.
       -2    1    3    3    0  502 -0.16746101651E+03  0.86326514603E+03 -0.24341982942E+04  0.25881636810E+04  0.25500000920E-02 0.  1.
</event>
<event>
 5   0  0.1840359E-07  0.3096377E+04  0.7818609E-02  0.8216733E-01
        1   -1    0    0  501    0  0.00000000000E+00  0.00000000000E+00  0.17507960049E+04  0.17507960050E+04  0.50400001928E-02 0. -1.
       -1   -1    0    0    0  501  0.00000000000E+00  0.00000000000E+00 -0.13690274892E+04  0.13690274892E+04  0.50400001928E-02 0.  1.
    10030    2    1    2    0    0  0.00000000000E+00  0.00000000000E+00  0.38176851570E+03  0.31198234942E+04  0.30963771468E+04 0.  0.
        1    1    3    3  502    0  0.14997154712E+04 -0.11705116813E+03  0.55977181769E+03  0.16050520111E+04  0.50400001928E-02 0. -1.
       -1    1    3    3    0  502 -0.14997154712E+04  0.11705116813E+03 -0.17800330199E+03  0.15147714831E+04  0.50400001928E-02 0.  1.
</event>
<event>
 5   0  0.5055900E-07  0.3099910E+04  0.7818609E-02  0.8215763E-01
        2   -1    0    0  501    0  0.00000000000E+00  0.00000000000E+00  0.22881591673E+04  0.22881591673E+04  0.25500000920E-02 0. -1.
       -2   -1    0    0    0  501  0.00000000000E+00  0.00000000000E+00 -0.10499098136E+04  0.10499098136E+04  0.25500000920E-02 0.  1.
    10030    2    1    2    0    0  0.00000000000E+00  0.00000000000E+00  0.12382493537E+04  0.33380689809E+04  0.30999101696E+04 0.  0.
        2    1    3    3  502    0  0.24941874922E+03 -0.20793391306E+03  0.22511188985E+04  0.22744191610E+04  0.25500000920E-02 0. -1.
       -2    1    3    3    0  502 -0.24941874922E+03  0.20793391306E+03 -0.10128695448E+04  0.10636498200E+04  0.25500000920E-02 0.  1.
</event>
<event>
 5   0  0.5376678E-07  0.3096659E+04  0.7818609E-02  0.8216655E-01
       -2   -1    0    0    0  501  0.00000000000E+00  0.00000000000E+00  0.91111702995E+03  0.91111702995E+03  0.25500000920E-02 0.  1.
        2   -1    0    0  501    0  0.00000000000E+00  0.00000000000E+00 -0.26311922301E+04  0.26311922301E+04  0.25500000920E-02 0. -1.
    10030    2    1    2    0    0  0.00000000000E+00  0.00000000000E+00 -0.17200752002E+04  0.35423092601E+04  0.30966588769E+04 0.  0.
        5    1    3    3  502    0 -0.14394147006E+04 -0.10048322612E+02 -0.15124557002E+04  0.20879559344E+04  0.46999998093E+01 0. -1.
       -5    1    3    3    0  502  0.14394147006E+04  0.10048322612E+02 -0.20761949998E+03  0.14543533257E+04  0.46999998093E+01 0.  1.
</event>
<event>
 5   0  0.1727000E-07  0.3088749E+04  0.7818609E-02  0.8218832E-01
        4   -1    0    0  501    0  0.00000000000E+00  0.00000000000E+00  0.12454812323E+04  0.12454818798E+04  0.12699999809E+01 0. -1.
       -4   -1    0    0    0  501  0.00000000000E+00  0.00000000000E+00 -0.19149953152E+04  0.19149957363E+04  0.12699999809E+01 0.  1.
    10030    2    1    2    0    0  0.00000000000E+00  0.00000000000E+00 -0.66951408285E+03  0.31604776161E+04  0.30887488818E+04 0.  0.
        5    1    3    3  502    0 -0.50922958883E+01  0.33363123861E+03 -0.18776649384E+04  0.19070876869E+04  0.46999998093E+01 0.  1.
       -5    1    3    3    0  502  0.50922958883E+01 -0.33363123861E+03  0.12081508555E+04  0.12533899292E+04  0.46999998093E+01 0. -1.
</event>
<event>
 5   0  0.1814075E-07  0.3071261E+04  0.7818609E-02  0.8223670E-01
       -1   -1    0    0    0  501  0.00000000000E+00  0.00000000000E+00  0.16073959050E+04  0.16073959050E+04  0.50400001928E-02 0.  1.
        1   -1    0    0  501    0  0.00000000000E+00  0.00000000000E+00 -0.14670695213E+04  0.14670695214E+04  0.50400001928E-02 0. -1.
    10030    2    1    2    0    0  0.00000000000E+00  0.00000000000E+00  0.14032638367E+03  0.30744654264E+04  0.30712613311E+04 0.  0.
        5    1    3    3  502    0  0.12613726035E+04 -0.81292144109E+03 -0.25611754137E+03  0.15223404347E+04  0.46999998093E+01 0. -1.
       -5    1    3    3    0  502 -0.12613726035E+04  0.81292144109E+03  0.39644392505E+03  0.15521249917E+04  0.46999998093E+01 0.  1.
</event>
<event>
 5   0  0.5248309E-07  0.3099735E+04  0.7818609E-02  0.8215811E-01
        2   -1    0    0  501    0  0.00000000000E+00  0.00000000000E+00  0.14519435806E+04  0.14519435806E+04  0.25500000920E-02 0.  1.
       -2   -1    0    0    0  501  0.00000000000E+00  0.00000000000E+00 -0.16543959176E+04  0.16543959176E+04  0.25500000920E-02 0. -1.
    10030    2    1    2    0    0  0.00000000000E+00  0.00000000000E+00 -0.20245233698E+03  0.31063394983E+04  0.30997351709E+04 0.  0.
        4    1    3    3  502    0  0.40783776300E+03 -0.10226534266E+04  0.99193998083E+03  0.14819238207E+04  0.12699999809E+01 0.  1.
       -4    1    3    3    0  502 -0.40783776300E+03  0.10226534266E+04 -0.11943923178E+04  0.16244156776E+04  0.12699999809E+01 0. -1.
</event>
<event>
 5   0  0.1830902E-07  0.3098800E+04  0.7818609E-02  0.8216067E-01
        1   -1    0    0  501    0  0.00000000000E+00  0.00000000000E+00  0.23944008199E+04  0.23944008199E+04  0.50400001928E-02 0. -1.
       -1   -1    0    0    0  501  0.00000000000E+00  0.00000000000E+00 -0.10026056069E+04  0.10026056069E+04  0.50400001928E-02 0.  1.
    10030    2    1    2    0    0  0.00000000000E+00  0.00000000000E+00  0.13917952130E+04  0.33970064268E+04  0.30987995658E+04 0.  0.
        3    1    3    3  502    0  0.52949288245E+03 -0.11677908788E+03  0.22869995449E+04  0.23503971998E+04  0.10100000352E+00 0. -1.
       -3    1    3    3    0  502 -0.52949288245E+03  0.11677908788E+03 -0.89520433197E+03  0.10466092270E+04  0.10100000352E+00 0.  1.
</event>
<event>
 5   0  0.1845123E-07  0.3095162E+04  0.7818609E-02  0.8217067E-01
        1   -1    0    0  501    0  0.00000000000E+00  0.00000000000E+00  0.18092682599E+04  0.18092682599E+04  0.50400001928E-02 0. -1.
       -1   -1    0    0    0  501  0.00000000000E+00  0.00000000000E+00 -0.13237430338E+04  0.13237430339E+04  0.50400001928E-02 0.  1.
    10030    2    1    2    0    0  0.00000000000E+00  0.00000000000E+00  0.48552522603E+03  0.31330112937E+04  0.30951615502E+04 0.  0.
        2    1    3    3  502    0  0.33372746315E+03 -0.20314561181E+03 -0.12730017920E+04  0.13316064440E+04  0.25500000920E-02 0.  1.
       -2    1    3    3    0  502 -0.33372746315E+03  0.20314561181E+03  0.17585270181E+04  0.18014048497E+04  0.25500000920E-02 0. -1.
</event>
<event>
 5   0  0.5055900E-07  0.3088320E+04  0.7818609E-02  0.8218951E-01
       -2   -1    0    0    0  501  0.00000000000E+00  0.00000000000E+00  0.12053529553E+04  0.12053529553E+04  0.25500000920E-02 0.  1.
        2   -1    0    0  501    0  0.00000000000E+00  0.00000000000E+00 -0.19782006632E+04  0.19782006632E+04  0.25500000920E-02 0. -1.
    10030    2    1    2    0    0  0.00000000000E+00  0.00000000000E+00 -0.77284770785E+03  0.31835536185E+04  0.30883199417E+04 0.  0.
        2    1    3    3  502    0  0.51509961003E+03 -0.14519741961E+04 -0.27893303118E+03  0.15656820592E+04  0.25500000920E-02 0. -1.
       -2    1    3    3    0  502 -0.51509961003E+03  0.14519741961E+04 -0.49391467668E+03  0.16178715593E+04  0.25500000920E-02 0.  1.
</event>
<event>
 5   0  0.5342534E-07  0.3099211E+04  0.7818609E-02  0.8215954E-01
       -2   -1    0    0    0  501  0.00000000000E+00  0.00000000000E+00  0.14834822110E+04  0.14834822110E+04  0.25500000920E-02 0. -1.
        2   -1    0    0  501    0  0.00000000000E+00  0.00000000000E+00 -0.16186765882E+04  0.16186765882E+04  0.25500000920E-02 0.  1.
    10030    2    1    2    0    0  0.00000000000E+00  0.00000000000E+00 -0.13519437719E+03  0.31021587991E+04  0.30992114635E+04 0.  0.
        3    1    3    3  502    0 -0.12819832021E+04  0.17347490379E+03 -0.92146379658E+03  0.15882915385E+04  0.10100000352E+00 0.  1.
       -3    1    3    3    0  502  0.12819832021E+04 -0.17347490379E+03  0.78626941938E+03  0.15138672606E+04  0.10100000352E+00 0. -1.
</event>
<event>
 5   0  0.1875284E-07  0.3101164E+04  0.7818609E-02  0.8215418E-01
        1   -1    0    0  501    0  0.00000000000E+00  0.00000000000E+00  0.10593885375E+04  0.10593885376E+04  0.50400001928E-02 0. -1.
       -1   -1    0    0    0  501  0.00000000000E+00  0.00000000000E+00 -0.22695215839E+04  0.22695215839E+04  0.50400001928E-02 0.  1.
    10030    2    1    2    0    0  0.00000000000E+00  0.00000000000E+00 -0.12101330463E+04  0.33289101215E+04  0.31011643953E+04 0.  0.
        4    1    3    3  502    0  0.82943865986E+03 -0.11883424059E+04 -0.11970924606E+04  0.18796696880E+04  0.12699999809E+01 0.  1.
       -4    1    3    3    0  502 -0.82943865986E+03  0.11883424059E+04 -0.13040585771E+02  0.14492404334E+04  0.12699999809E+01 0. -1.
</event>
<event>
 5   0  0.5342534E-07  0.3104634E+04  0.7818609E-02  0.8214467E-01
       -2   -1    0    0    0  501  0.00000000000E+00  0.00000000000E+00  0.85106937951E+03  0.85106937952E+03  0.25500000920E-02 0.  1.
        2   -1    0    0  501    0  0.00000000000E+00  0.00000000000E+00 -0.28313649890E+04  0.28313649890E+04  0.25500000920E-02 0. -1.
    10030    2    1    2    0    0  0.00000000000E+00  0.00000000000E+00 -0.19802956095E+04  0.36824343685E+04  0.31046339844E+04 0.  0.
        3    1    3    3  502    0 -0.24961528366E+03 -0.44914733542E+03 -0.27275634837E+04  0.27755438542E+04  0.10100000352E+00 0. -1.
       -3    1    3    3    0  502  0.24961528366E+03  0.44914733542E+03  0.74726787427E+03  0.90689051427E+03  0.10100000352E+00 0.  1.
</event>
<event>
 5   0  0.1830902E-07  0.3103701E+04  0.7818609E-02  0.8214723E-01
       -1   -1    0    0    0  501  0.00000000000E+00  0.00000000000E+00  0.15967304781E+04  0.15967304782E+04  0.50400001928E-02 0.  1.
        1   -1    0    0  501    0  0.00000000000E+00  0.00000000000E+00 -0.15082323200E+04  0.15082323200E+04  0.50400001928E-02 0. -1.
    10030    2    1    2    0    0  0.00000000000E+00  0.00000000000E+00  0.88498158137E+02  0.31049627982E+04  0.31037013474E+04 0.  0.
        3    1    3    3  502    0  0.69095787922E+03 -0.11599514376E+04 -0.72113074061E+03  0.15306664181E+04  0.10100000352E+00 0. -1.
       -3    1    3    3    0  502 -0.69095787922E+03  0.11599514376E+04  0.80962889875E+03  0.15742963800E+04  0.10100000352E+00 0.  1.
</event>
<event>
 5   0  0.5055900E-07  0.3101021E+04  0.7818609E-02  0.8215458E-01
        2   -1    0    0  501    0  0.00000000000E+00  0.00000000000E+00  0.14620237830E+04  0.14620237830E+04  0.25500000920E-02 0.  1.
       -2   -1    0    0    0  501  0.00000000000E+00  0.00000000000E+00 -0.16443530105E+04  0.16443530105E+04  0.25500000920E-02 0. -1.
    10030    2    1    2    0    0  0.00000000000E+00  0.00000000000E+00 -0.18232922749E+03  0.31063767934E+04  0.31010212569E+04 0.  0.
        2    1    3    3  502    0 -0.13594114050E+04 -0.72156350290E+03 -0.27971814562E+03  0.15642555731E+04  0.25500000920E-02 0.  1.
       -2    1    3    3    0  502  0.13594114050E+04  0.72156350290E+03  0.97388918129E+02  0.15421212204E+04  0.25500000920E-02 0. -1.
</event>
<event>
 5   0  0.5342534E-07  0.3103340E+04  0.7818609E-02  0.8214822E-01
        2   -1    0    0  501    0  0.00000000000E+00  0.00000000000E+00  0.14850522604E+04  0.14850522604E+04  0.25500000920E-02 0.  1.
       -2   -1    0    0    0  501  0.00000000000E+00  0.00000000000E+00 -0.16212758312E+04  0.16212758312E+04  0.25500000920E-02 0. -1.
    10030    2    1    2    0    0  0.00000000000E+00  0.00000000000E+00 -0.13622357078E+03  0.31063280916E+04  0.31033397093E+04 0.  0.
        3    1    3    3  502    0 -0.14306311220E+04  0.19558417809E+03 -0.63674398744E+03  0.15781005968E+04  0.10100000352E+00 0. -1.
       -3    1    3    3    0  502  0.14306311220E+04 -0.19558417809E+03  0.50052041666E+03  0.15282274947E+04  0.10100000352E+00 0.  1.
</event>
<event>
 5   0  0.5154105E-07  0.3096788E+04  0.7818609E-02  0.8216620E-01
        2   -1    0    0  501    0  0.00000000000E+00  0.00000000000E+00  0.21031828568E+04  0.21031828568E+04  0.25500000920E-02 0. -1.
       -2   -1    0    0    0  501  0.00000000000E+00  0.00000000000E+00 -0.11399502475E+04  0.11399502475E+04  0.25500000920E-02 0.  1.
    10030    2    1    2    0    0  0.00000000000E+00  0.00000000000E+00  0.96323260933E+03  0.32431331042E+04  0.30967878959E+04 0.  0.
        1    1    3    3  502    0 -0.19905604647E+03  0.11550276844E+03 -0.11219390370E+04  0.11452996996E+04  0.50400001928E-02 0.  1.
       -1    1    3    3    0  502  0.19905604647E+03 -0.11550276844E+03  0.20851716463E+04  0.20978334047E+04  0.50400001928E-02 0. -1.
</event>
<event>
 5   0  0.1840359E-07  0.3100701E+04  0.7818609E-02  0.8215545E-01
       -1   -1    0    0    0  501  0.00000000000E+00  0.00000000000E+00  0.13545675231E+04  0.13545675231E+04  0.50400001928E-02 0. -1.
        1   -1    0    0  501    0  0.00000000000E+00  0.00000000000E+00 -0.17744313730E+04  0.17744313730E+04  0.50400001928E-02 0.  1.
    10030    2    1    2    0    0  0.00000000000E+00  0.00000000000E+00 -0.41986384988E+03  0.31289988961E+04  0.31007012818E+04 0.  0.
        1    1    3    3  502    0  0.52592996553E+03  0.49855662819E+03  0.11731328949E+04  0.13789132784E+04  0.50400001928E-02 0. -1.
       -1    1    3    3    0  502 -0.52592996553E+03 -0.49855662819E+03 -0.15929967448E+04  0.17500856177E+04  0.50400001928E-02 0.  1.
</event>
<event>
 5   0  0.5342534E-07  0.3102594E+04  0.7818609E-02  0.8215026E-01
        2   -1    0    0  501    0  0.00000000000E+00  0.00000000000E+00  0.14604173973E+04  0.14604173973E+04  0.25500000920E-02 0.  1.
       -2   -1    0    0    0  501  0.00000000000E+00  0.00000000000E+00 -0.16478317555E+04  0.16478317555E+04  0.25500000920E-02 0. -1.
    10030    2    1    2    0    0  0.00000000000E+00  0.00000000000E+00 -0.18741435821E+03  0.31082491528E+04  0.31025938590E+04 0.  0.
        3    1    3    3  502    0  0.10469633931E+03 -0.15663670548E+03 -0.16363274457E+04  0.16471380940E+04  0.10100000352E+00 0. -1.
       -3    1    3    3    0  502 -0.10469633931E+03  0.15663670548E+03  0.14489130875E+04  0.14611110588E+04  0.10100000352E+00 0.  1.
</event>
<event>
 5   0  0.1875284E-07  0.3101468E+04  0.7818609E-02  0.8215335E-01
       -1   -1    0    0    0  501  0.00000000000E+00  0.00000000000E+00  0.11934041833E+04  0.11934041833E+04  0.50400001928E-02 0. -1.
        1   -1    0    0  501    0  0.00000000000E+00  0.00000000000E+00 -0.20150556747E+04  0.20150556747E+04  0.50400001928E-02 0.  1.
    10030    2    1    2    0    0  0.00000000000E+00  0.00000000000E+00 -0.82165149139E+03  0.32084598581E+04  0.31014679569E+04 0.  0.
        4    1    3    3  502    0 -0.26376667391E+03 -0.14546102658E+04 -0.89528683422E+03  0.17282951172E+04  0.12699999809E+01 0.  1.
       -4    1    3    3    0  502  0.26376667391E+03  0.14546102658E+04  0.73635342834E+02  0.14801647409E+04  0.12699999809E+01 0. -1.
</event>
<event>
 5   0  0.5376678E-07  0.3099649E+04  0.7818609E-02  0.8215834E-01
        2   -1    0    0  501    0  0.00000000000E+00  0.00000000000E+00  0.14188640579E+04  0.14188640579E+04  0.25500000920E-02 0.  1.
       -2   -1    0    0    0  501  0.00000000000E+00  0.00000000000E+00 -0.16928722735E+04  0.16928722735E+04  0.25500000920E-02 0. -1.
    10030    2    1    2    0    0  0.00000000000E+00  0.00000000000E+00 -0.27400821562E+03  0.31117363315E+04  0.30996487695E+04 0.  0.
        5    1    3    3  502    0 -0.13766592858E+04 -0.60979667559E+03  0.23170291028E+03  0.15234011630E+04  0.46999998093E+01 0.  1.
       -5    1    3    3    0  502  0.13766592858E+04  0.60979667559E+03 -0.50571112590E+03  0.15883351685E+04  0.46999998093E+01 0. -1.
</event>
<event>
 5   0  0.1875284E-07  0.3100993E+04  0.7818609E-02  0.8215465E-01
        1   -1    0    0  501    0  0.00000000000E+00  0.00000000000E+00  0.17326544693E+04  0.17326544693E+04  0.50400001928E-02 0. -1.
       -1   -1    0    0    0  501  0.00000000000E+00  0.00000000000E+00 -0.13874895204E+04  0.13874895204E+04  0.50400001928E-02 0.  1.
    10030    2    1    2    0    0  0.00000000000E+00  0.00000000000E+00  0.34516494889E+03  0.31201439896E+04  0.31009933367E+04 0.  0.
        4    1    3    3  502    0  0.28642619949E+03  0.14659027541E+04  0.59123794827E+03  0.16063856251E+04  0.12699999809E+01 0.  1.
       -4    1    3    3    0  502 -0.28642619949E+03 -0.14659027541E+04 -0.24607299938E+03  0.15137583645E+04  0.12699999809E+01 0. -1.
</event>
<event>
 5   0  0.1830902E-07  0.3098043E+04  0.7818609E-02  0.8216275E-01
        1   -1    0    0  501    0  0.00000000000E+00  0.00000000000E+00  0.18785451915E+04  0.18785451915E+04  0.50400001928E-02 0.  1.
       -1   -1    0    0    0  501  0.00000000000E+00  0.00000000000E+00 -0.12773005967E+04  0.12773005967E+04  0.50400001928E-02 0. -1.
    10030    2    1    2    0    0  0.00000000000E+00  0.00000000000E+00  0.60124459484E+03  0.31558457882E+04  0.30980425394E+04 0.  0.
        3    1    3    3  502    0  0.42743374934E+03  0.13293883835E+04  0.98357440394E+03  0.17080373832E+04  0.10100000352E+00 0.  1.
       -3    1    3    3    0  502 -0.42743374934E+03 -0.13293883835E+04 -0.38232980910E+03  0.14478084049E+04  0.10100000352E+00 0. -1.
</event>
<event>
 5   0  0.5154105E-07  0.3100798E+04  0.7818609E-02  0.8215519E-01
       -2   -1    0    0    0  501  0.00000000000E+00  0.00000000000E+00  0.13685578455E+04  0.13685578455E+04  0.25500000920E-02 0. -1.
        2   -1    0    0  501    0  0.00000000000E+00  0.00000000000E+00 -0.17564013812E+04  0.17564013812E+04  0.25500000920E-02 0.  1.
    10030    2    1    2    0    0  0.00000000000E+00  0.00000000000E+00 -0.38784353572E+03  0.31249592267E+04  0.31007978909E+04 0.  0.
        1    1    3    3  502    0 -0.15278788129E+04  0.26208262594E+03 -0.21933572293E+03  0.15656337787E+04  0.50400001928E-02 0. -1.
       -1    1    3    3    0  502  0.15278788129E+04 -0.26208262594E+03 -0.16850781278E+03  0.15593254480E+04  0.50400001928E-02 0.  1.
</event>
<event>
 5   0  0.5248309E-07  0.3105475E+04  0.7818609E-02  0.8214237E-01
        2   -1    0    0  501    0  0.00000000000E+00  0.00000000000E+00  0.16213819053E+04  0.16213819053E+04  0.25500000920E-02 0. -1.
       -2   -1    0    0    0  501  0.00000000000E+00  0.00000000000E+00 -0.14869996845E+04  0.14869996845E+04  0.25500000920E-02 0.  1.
    10030    2    1    2    0    0  0.00000000000E+00  0.00000000000E+00  0.13438222071E+03  0.31083815898E+04  0.31054754107E+04 0.  0.
        4    1    3    3  502    0 -0.39220315275E+03  0.93995547244E+03 -0.11059352103E+04  0.15034739458E+04  0.12699999809E+01 0.  1.
       -4    1    3    3    0  502  0.39220315275E+03 -0.93995547244E+03  0.12403174311E+04  0.16049076440E+04  0.12699999809E+01 0. -1.
</event>
<event>
 5   0  0.5342534E-07  0.3102773E+04  0.7818609E-02  0.8214977E-01
       -2   -1    0    0    0  501  0.00000000000E+00  0.00000000000E+00  0.10397676817E+04  0.10397676817E+04  0.25500000920E-02 0.  1.
        2   -1    0    0  501    0  0.00000000000E+00  0.00000000000E+00 -0.23147472766E+04  0.23147472766E+04  0.25500000920E-02 0. -1.
    10030    2    1    2    0    0  0.00000000000E+00  0.00000000000E+00 -0.12749795949E+04  0.33545149582E+04  0.31027725726E+04 0.  0.
        3    1    3    3  502    0  0.10377331882E+04  0.10949454113E+04 -0.24617912299E+03  0.15285286371E+04  0.10100000352E+00 0. -1.
       -3    1    3    3    0  502 -0.10377331882E+04 -0.10949454113E+04 -0.10288004719E+04  0.18259863211E+04  0.10100000352E+00 0.  1.
</event>
<event>
 5   0  0.1845123E-07  0.3098650E+04  0.7818609E-02  0.8216108E-01
       -1   -1    0    0    0  501  0.00000000000E+00  0.00000000000E+00  0.10827965538E+04  0.10827965538E+04  0.50400001928E-02 0.  1.
        1   -1    0    0  501    0  0.00000000000E+00  0.00000000000E+00 -0.22168597191E+04  0.22168597191E+04  0.50400001928E-02 0. -1.
    10030    2    1    2    0    0  0.00000000000E+00  0.00000000000E+00 -0.11340631654E+04  0.32996562729E+04  0.30986500700E+04 0.  0.
        2    1    3    3  502    0  0.53293495317E+03  0.79821425606E+03  0.72810580549E+03  0.12047006794E+04  0.25500000920E-02 0.  1.
       -2    1    3    3    0  502 -0.53293495317E+03 -0.79821425606E+03 -0.18621689709E+04  0.20949555935E+04  0.25500000920E-02 0. -1.
</event>
<event>
 5   0  0.1845123E-07  0.3090972E+04  0.7818609E-02  0.8218220E-01
       -1   -1    0    0    0  501  0.00000000000E+00  0.00000000000E+00  0.17523534167E+04  0.17523534168E+04  0.50400001928E-02 0.  1.
        1   -1    0    0  501    0  0.00000000000E+00  0.00000000000E+00 -0.13630396094E+04  0.13630396094E+04  0.50400001928E-02 0. -1.
    10030    2    1    2    0    0  0.00000000000E+00  0.00000000000E+00  0.38931380732E+03  0.31153930262E+04  0.30909720910E+04 0.  0.
        2    1    3    3  502    0 -0.17377525588E+03 -0.14334925298E+03  0.17357171027E+04  0.17502744666E+04  0.25500000920E-02 0.  1.
       -2    1    3    3    0  502  0.17377525588E+03  0.14334925298E+03 -0.13464032954E+04  0.13651185596E+04  0.25500000920E-02 0. -1.
</event>
<event>
 5   0  0.5376678E-07  0.3102680E+04  0.7818609E-02  0.8215003E-01
       -2   -1    0    0    0  501  0.00000000000E+00  0.00000000000E+00  0.15307726356E+04  0.15307726356E+04  0.25500000920E-02 0. -1.
        2   -1    0    0  501    0  0.00000000000E+00  0.00000000000E+00 -0.15721835382E+04  0.15721835382E+04  0.25500000920E-02 0.  1.
    10030    2    1    2    0    0  0.00000000000E+00  0.00000000000E+00 -0.41410902584E+02  0.31029561738E+04  0.31026798342E+04 0.  0.
        5    1    3    3  502    0  0.36394653749E+03  0.22121669755E+03  0.14711510893E+04  0.15315683226E+04  0.46999998093E+01 0. -1.
       -5    1    3    3    0  502 -0.36394653749E+03 -0.22121669755E+03 -0.15125619919E+04  0.15713878511E+04  0.46999998093E+01 0.  1.
</event>
<event>
 5   0  0.1840359E-07  0.3107634E+04  0.7818609E-02  0.8213646E-01
        1   -1    0    0  501    0  0.00000000000E+00  0.00000000000E+00  0.14266204585E+04  0.14266204585E+04  0.50400001928E-02 0. -1.
       -1   -1    0    0    0  501  0.00000000000E+00  0.00000000000E+00 -0.16923537738E+04  0.16923537738E+04  0.50400001928E-02 0.  1.
    10030    2    1    2    0    0  0.00000000000E+00  0.00000000000E+00 -0.26573331531E+03  0.31189742323E+04  0.31076335156E+04 0.  0.
        1    1    3    3  502    0 -0.41904994861E+03 -0.10329842670E+04  0.95352851156E+03  0.14669273935E+04  0.50400001928E-02 0. -1.
       -1    1    3    3    0  502  0.41904994861E+03  0.10329842670E+04 -0.12192618269E+04  0.16520468389E+04  0.50400001928E-02 0.  1.
</event>
<event>
 5   0  0.5154105E-07  0.3105222E+04  0.7818609E-02  0.8214306E-01
       -2   -1    0    0    0  501  0.00000000000E+00  0.00000000000E+00  0.19847645979E+04  0.19847645979E+04  0.25500000920E-02 0. -1.
        2   -1    0    0  501    0  0.00000000000E+00  0.00000000000E+00 -0.12145523827E+04  0.12145523827E+04  0.25500000920E-02 0.  1.
    10030    2    1    2    0    0  0.00000000000E+00  0.00000000000E+00  0.77021221518E+03  0.31993169807E+04  0.31052217773E+04 0.  0.
        1    1    3    3  502    0  0.93382090956E+02 -0.12180019406E+04  0.13724516010E+04  0.18373547125E+04  0.50400001928E-02 0. -1.
       -1    1    3    3    0  502 -0.93382090956E+02  0.12180019406E+04 -0.60223938585E+03  0.13619622682E+04  0.50400001928E-02 0.  1.
</event>
<event>
 5   0  0.1845123E-07  0.3102848E+04  0.7818609E-02  0.8214957E-01
        1   -1    0    0  501    0  0.00000000000E+00  0.00000000000E+00  0.22383631499E+04  0.22383631499E+04  0.50400001928E-02 0. -1.
       -1   -1    0    0    0  501  0.00000000000E+00  0.00000000000E+00 -0.10753019642E+04  0.10753019642E+04  0.50400001928E-02 0.  1.
    10030    2    1    2    0    0  0.00000000000E+00  0.00000000000E+00  0.11630611857E+04  0.33136651141E+04  0.31028479122E+04 0.  0.
        2    1    3    3  502    0 -0.10510745491E+04  0.68219105693E+03  0.15584352979E+04  0.19997157107E+04  0.25500000920E-02 0. -1.
       -2    1    3    3    0  502  0.10510745491E+04 -0.68219105693E+03 -0.39537411222E+03  0.13139494033E+04  0.25500000920E-02 0.  1.
</event>
<event>
 5   0  0.1875284E-07  0.3101001E+04  0.7818609E-02  0.8215463E-01
        1   -1    0    0  501    0  0.00000000000E+00  0.00000000000E+00  0.13950906445E+04  0.13950906445E+04  0.50400001928E-02 0.  1.
       -1   -1    0    0    0  501  0.00000000000E+00  0.00000000000E+00 -0.17232230554E+04  0.17232230554E+04  0.50400001928E-02 0. -1.
    10030    2    1    2    0    0  0.00000000000E+00  0.00000000000E+00 -0.32813241088E+03  0.31183137000E+04  0.31010013628E+04 0.  0.
        4    1    3    3  502    0 -0.11536155852E+04  0.24880873349E+03  0.84719022125E+03  0.14527448462E+04  0.12699999809E+01 0.  1.
       -4    1    3    3    0  502  0.11536155852E+04 -0.24880873349E+03 -0.11753226321E+04  0.16655688538E+04  0.12699999809E+01 0. -1.
</event>
<event>
 5   0  0.1814075E-07  0.3052525E+04  0.7818609E-02  0.8228889E-01
        1   -1    0    0  501    0  0.00000000000E+00  0.00000000000E+00  0.11997793584E+04  0.11997793584E+04  0.50400001928E-02 0.  1.
       -1   -1    0    0    0  501  0.00000000000E+00  0.00000000000E+00 -0.19415884219E+04  0.19415884219E+04  0.50400001928E-02 0. -1.
    10030    2    1    2    0    0  0.00000000000E+00  0.00000000000E+00 -0.74180906350E+03  0.31413677803E+04  0.30525253225E+04 0.  0.
        5    1    3    3  502    0  0.62837673850E+03  0.13495727443E+04 -0.24581096250E+02  0.14889023601E+04  0.46999998093E+01 0. -1.
       -5    1    3    3    0  502 -0.62837673850E+03 -0.13495727443E+04 -0.71722796725E+03  0.16524654201E+04  0.46999998093E+01 0.  1.
</event>
<event>
 5   0  0.5248309E-07  0.3097247E+04  0.7818609E-02  0.8216494E-01
        2   -1    0    0  501    0  0.00000000000E+00  0.00000000000E+00  0.18744683309E+04  0.18744683309E+04  0.25500000920E-02 0. -1.
       -2   -1    0    0    0  501  0.00000000000E+00  0.00000000000E+00 -0.12794212023E+04  0.12794212024E+04  0.25500000920E-02 0.  1.
    10030    2    1    2    0    0  0.00000000000E+00  0.00000000000E+00  0.59504712857E+03  0.31538895333E+04  0.30972468586E+04 0.  0.
        4    1    3    3  502    0  0.97588300604E+03  0.68616421481E+03  0.13030354415E+04  0.17666555821E+04  0.12699999809E+01 0. -1.
       -4    1    3    3    0  502 -0.97588300604E+03 -0.68616421481E+03 -0.70798831291E+03  0.13872339512E+04  0.12699999809E+01 0.  1.
</event>
<event>
 5   0  0.1814075E-07  0.3105052E+04  0.7818609E-02  0.8214353E-01
        1   -1    0    0  501    0  0.00000000000E+00  0.00000000000E+00  0.98207960134E+03  0.98207960135E+03  0.50400001928E-02 0.  1.
       -1   -1    0    0    0  501  0.00000000000E+00  0.00000000000E+00 -0.24543200656E+04  0.24543200656E+04  0.50400001928E-02 0. -1.
    10030    2    1    2    0    0  0.00000000000E+00  0.00000000000E+00 -0.14722404643E+04  0.34363996670E+04  0.31050524451E+04 0.  0.
        5    1    3    3  502    0 -0.25755126125E+03 -0.37145747178E+03 -0.23798775772E+04  0.24224270222E+04  0.46999998093E+01 0. -1.
       -5    1    3    3    0  502  0.25755126125E+03  0.37145747178E+03  0.90763711293E+03  0.10139726447E+04  0.46999998093E+01 0.  1.
</event>
<event>
 5   0  0.5055900E-07  0.3093909E+04  0.7818609E-02  0.8217412E-01
       -2   -1    0    0    0  501  0.00000000000E+00  0.00000000000E+00  0.10433843926E+04  0.10433843926E+04  0.25500000920E-02 0.  1.
        2   -1    0    0  501    0  0.00000000000E+00  0.00000000000E+00 -0.22935631711E+04  0.22935631711E+04  0.25500000920E-02 0. -1.
    10030    2    1    2    0    0  0.00000000000E+00  0.00000000000E+00 -0.12501787785E+04  0.33369475637E+04  0.30939088650E+04 0.  0.
        2    1    3    3  502    0  0.45328423498E+03 -0.14310517665E+04 -0.22197524448E+03  0.15174481096E+04  0.25500000920E-02 0. -1.
       -2    1    3    3    0  502 -0.45328423498E+03  0.14310517665E+04 -0.10282035340E+04  0.18194994541E+04  0.25500000920E-02 0.  1.
</event>
<event>
 5   0  0.1845123E-07  0.3099171E+04  0.7818609E-02  0.8215966E-01
        1   -1    0    0  501    0  0.00000000000E+00  0.00000000000E+00  0.14486871844E+04  0.14486871844E+04  0.50400001928E-02 0.  1.
       -1   -1    0    0    0  501  0.00000000000E+00  0.00000000000E+00 -0.16575109979E+04  0.16575109979E+04  0.50400001928E-02 0. -1.
    10030    2    1    2    0    0  0.00000000000E+00  0.00000000000E+00 -0.20882381345E+03  0.31061981823E+04  0.30991708186E+04 0.  0.
        2    1    3    3  502    0 -0.10333499786E+04 -0.11198815505E+04  0.17777236477E+03  0.15341283777E+04  0.25500000920E-02 0.  1.
       -2    1    3    3    0  502  0.10333499786E+04  0.11198815505E+04 -0.38659617822E+03  0.15720698046E+04  0.25500000920E-02 0. -1.
</event>
<event>
 5   0  0.1840359E-07  0.3099486E+04  0.7818609E-02  0.8215879E-01
       -1   -1    0    0    0  501  0.00000000000E+00  0.00000000000E+00  0.86825003867E+03  0.86825003869E+03  0.50400001928E-02 0.  1.
        1   -1    0    0  501    0  0.00000000000E+00  0.00000000000E+00 -0.27661432408E+04  0.27661432408E+04  0.50400001928E-02 0. -1.
    10030    2    1    2    0    0  0.00000000000E+00  0.00000000000E+00 -0.18978932022E+04  0.36343932795E+04  0.30994863935E+04 0.  0.
        1    1    3    3  502    0 -0.22853240219E+03 -0.14111935061E+04 -0.16505467092E+04  0.21835747319E+04  0.50400001928E-02 0. -1.
       -1    1    3    3    0  502  0.22853240219E+03  0.14111935061E+04 -0.24734649294E+03  0.14508185476E+04  0.50400001928E-02 0.  1.
</event>
<event>
 5   0  0.5055900E-07  0.3092130E+04  0.7818609E-02  0.8217901E-01
       -2   -1    0    0    0  501  0.00000000000E+00  0.00000000000E+00  0.14174241181E+04  0.14174241181E+04  0.25500000920E-02 0. -1.
        2   -1    0    0  501    0  0.00000000000E+00  0.00000000000E+00 -0.16863814338E+04  0.16863814338E+04  0.25500000920E-02 0.  1.
    10030    2    1    2    0    0  0.00000000000E+00  0.00000000000E+00 -0.26895731578E+03  0.31038055519E+04  0.30921304737E+04 0.  0.
        2    1    3    3  502    0  0.92004735724E+03 -0.60423902897E+03  0.95531200972E+03  0.14574680029E+04  0.25500000920E-02 0. -1.
       -2    1    3    3    0  502 -0.92004735724E+03  0.60423902897E+03 -0.12242693255E+04  0.16463375489E+04  0.25500000920E-02 0.  1.
</event>
<event>
 5   0  0.5248309E-07  0.3095351E+04  0.7818609E-02  0.8217015E-01
        2   -1    0    0  501    0  0.00000000000E+00  0.00000000000E+00  0.77334897835E+03  0.77334897835E+03  0.25500000920E-02 0.  1.
       -2   -1    0    0    0  501  0.00000000000E+00  0.00000000000E+00 -0.30973071697E+04  0.30973071697E+04  0.25500000920E-02 0. -1.
    10030    2    1    2    0    0  0.00000000000E+00  0.00000000000E+00 -0.23239581914E+04  0.38706561481E+04  0.30953509238E+04 0.  0.
        4    1    3    3  502    0  0.58277734599E+03  0.88797227294E+03 -0.25696228112E+04  0.27804832669E+04  0.12699999809E+01 0. -1.
       -4    1    3    3    0  502 -0.58277734599E+03 -0.88797227294E+03  0.24566461986E+03  0.10901728812E+04  0.12699999809E+01 0.  1.
</event>
<event>
 5   0  0.1845123E-07  0.3097993E+04  0.7818609E-02  0.8216289E-01
        1   -1    0    0  501    0  0.00000000000E+00  0.00000000000E+00  0.20275523308E+04  0.20275523309E+04  0.50400001928E-02 0. -1.
       -1   -1    0    0    0  501  0.00000000000E+00  0.00000000000E+00 -0.11833927652E+04  0.11833927652E+04  0.50400001928E-02 0.  1.
    10030    2    1    2    0    0  0.00000000000E+00  0.00000000000E+00  0.84415956565E+03  0.32109450961E+04  0.30979933889E+04 0.  0.
        2    1    3    3  502    0 -0.11521635147E+04  0.91216777725E+03 -0.85531485386E+02  0.14720212137E+04  0.25500000920E-02 0.  1.
       -2    1    3    3    0  502  0.11521635147E+04 -0.91216777725E+03  0.92969105104E+03  0.17389238824E+04  0.25500000920E-02 0. -1.
</event>
<event>
 5   0  0.1840359E-07  0.3102553E+04  0.7818609E-02  0.8215038E-01
        1   -1    0    0  501    0  0.00000000000E+00  0.00000000000E+00  0.19835873735E+04  0.19835873735E+04  0.50400001928E-02 0.  1.
       -1   -1    0    0    0  501  0.00000000000E+00  0.00000000000E+00 -0.12131851883E+04  0.12131851883E+04  0.50400001928E-02 0. -1.
    10030    2    1    2    0    0  0.00000000000E+00  0.00000000000E+00  0.77040218518E+03  0.31967725619E+04  0.31025530270E+04 0.  0.
        1    1    3    3  502    0 -0.15582927219E+03  0.12078455059E+04 -0.60485655994E+03  0.13597885815E+04  0.50400001928E-02 0. -1.
       -1    1    3    3    0  502  0.15582927219E+03 -0.12078455059E+04  0.13752587451E+04  0.18369839804E+04  0.50400001928E-02 0.  1.
</event>
<event>
 5   0  0.1875284E-07  0.3101835E+04  0.7818609E-02  0.8215234E-01
        1   -1    0    0  501    0  0.00000000000E+00  0.00000000000E+00  0.25826407451E+04  0.25826407451E+04  0.50400001928E-02 0. -1.
       -1   -1    0    0    0  501  0.00000000000E+00  0.00000000000E+00 -0.93135126223E+03  0.93135126224E+03  0.50400001928E-02 0.  1.
    10030    2    1    2    0    0  0.00000000000E+00  0.00000000000E+00  0.16512894829E+04  0.35139920074E+04  0.31018354037E+04 0.  0.
        4    1    3    3  502    0 -0.58939933028E+03 -0.14335944298E+04  0.76613325633E+03  0.17290304621E+04  0.12699999809E+01 0. -1.
       -4    1    3    3    0  502  0.58939933028E+03  0.14335944298E+04  0.88515622657E+03  0.17849615452E+04  0.12699999809E+01 0.  1.
</event>
<event>
 5   0  0.5248309E-07  0.3099389E+04  0.7818609E-02  0.8215906E-01
       -2   -1    0    0    0  501  0.00000000000E+00  0.00000000000E+00  0.11428195070E+04  0.11428195071E+04  0.25500000920E-02 0.  1.
        2   -1    0    0  501    0  0.00000000000E+00  0.00000000000E+00 -0.21014280752E+04  0.21014280752E+04  0.25500000920E-02 0. -1.
    10030    2    1    2    0    0  0.00000000000E+00  0.00000000000E+00 -0.95860856816E+03  0.32442475823E+04  0.30993889701E+04 0.  0.
        4    1    3    3  502    0  0.25842174608E+03  0.21303356940E+03  0.11044851624E+04  0.11541465190E+04  0.12699999809E+01 0.  1.
       -4    1    3    3    0  502 -0.25842174608E+03 -0.21303356940E+03 -0.20630937306E+04  0.20901010632E+04  0.12699999809E+01 0. -1.
</event>
<event>
 5   0  0.1830902E-07  0.3098911E+04  0.7818609E-02  0.8216037E-01
        1   -1    0    0  501    0  0.00000000000E+00  0.00000000000E+00  0.14687319830E+04  0.14687319830E+04  0.50400001928E-02 0.  1.
       -1   -1    0    0    0  501  0.00000000000E+00  0.00000000000E+00 -0.16346162142E+04  0.16346162142E+04  0.50400001928E-02 0. -1.
    10030    2    1    2    0    0  0.00000000000E+00  0.00000000000E+00 -0.16588423121E+03  0.31033481973E+04  0.30989114953E+04 0.  0.
        3    1    3    3  502    0 -0.13006879485E+04 -0.33790569768E+03 -0.85530744031E+03  0.15929595813E+04  0.10100000352E+00 0.  1.
       -3    1    3    3    0  502  0.13006879485E+04  0.33790569768E+03  0.68942320910E+03  0.15103886160E+04  0.10100000352E+00 0. -1.
</event>
<event>
 5   0  0.1840359E-07  0.3094164E+04  0.7818609E-02  0.8217341E-01
       -1   -1    0    0    0  501  0.00000000000E+00  0.00000000000E+00  0.17351774419E+04  0.17351774419E+04  0.50400001928E-02 0. -1.
        1   -1    0    0  501    0  0.00000000000E+00  0.00000000000E+00 -0.13793764286E+04  0.13793764286E+04  0.50400001928E-02 0.  1.
    10030    2    1    2    0    0  0.00000000000E+00  0.00000000000E+00  0.35580101330E+03  0.31145538705E+04  0.30941640957E+04 0.  0.
        1    1    3    3  502    0  0.16612070769E+03  0.14081193262E+04 -0.44510190167E+03  0.14861062645E+04  0.50400001928E-02 0.  1.
       -1    1    3    3    0  502 -0.16612070769E+03 -0.14081193262E+04  0.80090291497E+03  0.16284476060E+04  0.50400001928E-02 0. -1.
</event>
<event>
 5   0  0.1840359E-07  0.3092889E+04  0.7818609E-02  0.8217692E-01
       -1   -1    0    0    0  501  0.00000000000E+00  0.00000000000E+00  0.10632261805E+04  0.10632261805E+04  0.50400001928E-02 0. -1.
        1   -1    0    0  501    0  0.00000000000E+00  0.00000000000E+00 -0.22492772353E+04  0.22492772353E+04  0.50400001928E-02 0.  1.
    10030    2    1    2    0    0  0.00000000000E+00  0.00000000000E+00 -0.11860510548E+04  0.33125034158E+04  0.30928889044E+04 0.  0.
        1    1    3    3  502    0 -0.10429543399E+04 -0.11332757442E+04 -0.74228698057E+03  0.17096951861E+04  0.50400001928E-02 0.  1.
       -1    1    3    3    0  502  0.10429543399E+04  0.11332757442E+04 -0.44376407426E+03  0.16028082297E+04  0.50400001928E-02 0. -1.
</event>
<event>
 5   0  0.5248309E-07  0.3095299E+04  0.7818609E-02  0.8217029E-01
        2   -1    0    0  501    0  0.00000000000E+00  0.00000000000E+00  0.18322504332E+04  0.18322504332E+04  0.25500000920E-02 0. -1.
       -2   -1    0    0    0  501  0.00000000000E+00  0.00000000000E+00 -0.13072552393E+04  0.13072552393E+04  0.25500000920E-02 0.  1.
    10030    2    1    2    0    0  0.00000000000E+00  0.00000000000E+00  0.52499519393E+03  0.31395056725E+04  0.30952990024E+04 0.  0.
        4    1    3    3  502    0 -0.52579434598E+03  0.13347657210E+04  0.85144361521E+03  0.16682377129E+04  0.12699999809E+01 0.  1.
       -4    1    3    3    0  502  0.52579434598E+03 -0.13347657210E+04 -0.32644842128E+03  0.14712679595E+04  0.12699999809E+01 0. -1.
</event>
<event>
 5   0  0.5342534E-07  0.3104804E+04  0.7818609E-02  0.8214421E-01
       -2   -1    0    0    0  501  0.00000000000E+00  0.00000000000E+00  0.13084076426E+04  0.13084076426E+04  0.25500000920E-02 0.  1.
        2   -1    0    0  501    0  0.00000000000E+00  0.00000000000E+00 -0.18418967200E+04  0.18418967200E+04  0.25500000920E-02 0. -1.
    10030    2    1    2    0    0  0.00000000000E+00  0.00000000000E+00 -0.53348907737E+03  0.31503043627E+04  0.31048038556E+04 0.  0.
        3    1    3    3  502    0 -0.10957836683E+04  0.13214480108E+03  0.84092572195E+03  0.13875734850E+04  0.10100000352E+00 0.  1.
       -3    1    3    3    0  502  0.10957836683E+04 -0.13214480108E+03 -0.13744147993E+04  0.17627308777E+04  0.10100000352E+00 0. -1.
</event>
<event>
 5   0  0.5376678E-07  0.3097407E+04  0.7818609E-02  0.8216450E-01
       -2   -1    0    0    0  501  0.00000000000E+00  0.00000000000E+00  0.11895746436E+04  0.11895746436E+04  0.25500000920E-02 0.  1.
        2   -1    0    0  501    0  0.00000000000E+00  0.00000000000E+00 -0.20162521098E+04  0.20162521098E+04  0.25500000920E-02 0. -1.
    10030    2    1    2    0    0  0.00000000000E+00  0.00000000000E+00 -0.82667746626E+03  0.32058267534E+04  0.30974069057E+04 0.  0.
        5    1    3    3  502    0 -0.75937865273E+03  0.95729701904E+03  0.57148580166E+03  0.13489594628E+04  0.46999998093E+01 0.  1.
       -5    1    3    3    0  502  0.75937865273E+03 -0.95729701904E+03 -0.13981632679E+04  0.18568672905E+04  0.46999998093E+01 0. -1.
</event>
<event>
 5   0  0.5342534E-07  0.3125632E+04  0.7818609E-02  0.8208738E-01
       -2   -1    0    0    0  501  0.00000000000E+00  0.00000000000E+00  0.12174770421E+04  0.12174770421E+04  0.25500000920E-02 0. -1.
        2   -1    0    0  501    0  0.00000000000E+00  0.00000000000E+00 -0.20061110661E+04  0.20061110661E+04  0.25500000920E-02 0.  1.
    10030    2    1    2    0    0  0.00000000000E+00  0.00000000000E+00 -0.78863402402E+03  0.32235881083E+04  0.31256322029E+04 0.  0.
        3    1    3    3  502    0  0.54176048863E+03  0.12926219186E+04  0.31873947669E+03  0.14373485018E+04  0.10100000352E+00 0. -1.
       -3    1    3    3    0  502 -0.54176048863E+03 -0.12926219186E+04 -0.11073735007E+04  0.17862396065E+04  0.10100000352E+00 0.  1.
</event>
<event>
 5   0  0.1814075E-07  0.3112612E+04  0.7818609E-02  0.8212285E-01
        1   -1    0    0  501    0  0.00000000000E+00  0.00000000000E+00  0.29713484029E+04  0.29713484029E+04  0.50400001928E-02 0. -1.
       -1   -1    0    0    0  501  0.00000000000E+00  0.00000000000E+00 -0.81514785385E+03  0.81514785387E+03  0.50400001928E-02 0.  1.
    10030    2    1    2    0    0  0.00000000000E+00  0.00000000000E+00  0.21562005490E+04  0.37864962568E+04  0.31126119409E+04 0.  0.
        5    1    3    3  502    0 -0.47007439625E+02 -0.86100988907E+03 -0.49797012649E+03  0.99576305682E+03  0.46999998093E+01 0.  1.
       -5    1    3    3    0  502  0.47007439625E+02  0.86100988907E+03  0.26541706755E+04  0.27907332000E+04  0.46999998093E+01 0. -1.
</event>
<event>
 5   0  0.5376678E-07  0.3129730E+04  0.7818609E-02  0.8207626E-01
        2   -1    0    0  501    0  0.00000000000E+00  0.00000000000E+00  0.18987781688E+04  0.18987781688E+04  0.25500000920E-02 0.  1.
       -2   -1    0    0    0  501  0.00000000000E+00  0.00000000000E+00 -0.12896731284E+04  0.12896731284E+04  0.25500000920E-02 0. -1.
    10030    2    1    2    0    0  0.00000000000E+00  0.00000000000E+00  0.60910504035E+03  0.31884512972E+04  0.31297304556E+04 0.  0.
        5    1    3    3  502    0  0.69412456699E+02 -0.73987440707E+03 -0.10984384307E+04  0.13262056037E+04  0.46999998093E+01 0. -1.
       -5    1    3    3    0  502 -0.69412456699E+02  0.73987440707E+03  0.17075434710E+04  0.18622456935E+04  0.46999998093E+01 0.  1.
</event>
<event>
 5   0  0.5055900E-07  0.3097258E+04  0.7818609E-02  0.8216491E-01
        2   -1    0    0  501    0  0.00000000000E+00  0.00000000000E+00  0.15853465796E+04  0.15853465796E+04  0.25500000920E-02 0. -1.
       -2   -1    0    0    0  501  0.00000000000E+00  0.00000000000E+00 -0.15127615801E+04  0.15127615801E+04  0.25500000920E-02 0.  1.
    10030    2    1    2    0    0  0.00000000000E+00  0.00000000000E+00  0.72584999512E+02  0.30981081597E+04  0.30972577527E+04 0.  0.
        2    1    3    3  502    0  0.96199755935E+03 -0.11095268065E+04  0.52812086063E+03  0.15605770350E+04  0.25500000920E-02 0.  1.
       -2    1    3    3    0  502 -0.96199755935E+03  0.11095268065E+04 -0.45553586112E+03  0.15375311247E+04  0.25500000920E-02 0. -1.
</event>
<event>
 5   0  0.5376678E-07  0.3098437E+04  0.7818609E-02  0.8216167E-01
        2   -1    0    0  501    0  0.00000000000E+00  0.00000000000E+00  0.26286832554E+04  0.26286832554E+04  0.25500000920E-02 0. -1.
       -2   -1    0    0    0  501  0.00000000000E+00  0.00000000000E+00 -0.91303444745E+03  0.91303444746E+03  0.25500000920E-02 0.  1.
    10030    2    1    2    0    0  0.00000000000E+00  0.00000000000E+00  0.17156488079E+04  0.35417177029E+04  0.30984372601E+04 0.  0.
        5    1    3    3  502    0 -0.13145589883E+04 -0.62177059513E+03  0.24717443940E+03  0.14750529822E+04  0.46999998093E+01 0.  1.
       -5    1    3    3    0  502  0.13145589883E+04  0.62177059513E+03  0.14684743685E+04  0.20666647207E+04  0.46999998093E+01 0. -1.
</event>
<event>
 5   0  0.1840359E-07  0.3111253E+04  0.7818609E-02  0.8212656E-01
       -1   -1    0    0    0  501  0.00000000000E+00  0.00000000000E+00  0.10408339124E+04  0.10408339124E+04  0.50400001928E-02 0. -1.
        1   -1    0    0  501    0  0.00000000000E+00  0.00000000000E+00 -0.23250332081E+04  0.23250332081E+04  0.50400001928E-02 0.  1.
    10030    2    1    2    0    0  0.00000000000E+00  0.00000000000E+00 -0.12841992957E+04  0.33658671205E+04  0.31112527447E+04 0.  0.
        1    1    3    3  502    0 -0.12259462161E+03 -0.13763097858E+04  0.13102786103E+03  0.13879576248E+04  0.50400001928E-02 0. -1.
       -1    1    3    3    0  502  0.12259462161E+03  0.13763097858E+04 -0.14152271568E+04  0.19779094957E+04  0.50400001928E-02 0.  1.
</event>
<event>
 5   0  0.5055900E-07  0.3102300E+04  0.7818609E-02  0.8215107E-01
       -2   -1    0    0    0  501  0.00000000000E+00  0.00000000000E+00  0.91261709902E+03  0.91261709902E+03  0.25500000920E-02 0. -1.
        2   -1    0    0  501    0  0.00000000000E+00  0.00000000000E+00 -0.26364471315E+04  0.26364471315E+04  0.25500000920E-02 0.  1.
    10030    2    1    2    0    0  0.00000000000E+00  0.00000000000E+00 -0.17238300325E+04  0.35490642305E+04  0.31023002645E+04 0.  0.
        2    1    3    3  502    0  0.64868951980E+03  0.31473195406E+02 -0.24734186773E+04  0.25572619359E+04  0.25500000920E-02 0.  1.
       -2    1    3    3    0  502 -0.64868951980E+03 -0.31473195406E+02  0.74958864488E+03  0.99180229465E+03  0.25500000920E-02 0. -1.
</event>
<event>
 5   0  0.1814075E-07  0.3113145E+04  0.7818609E-02  0.8212140E-01
        1   -1    0    0  501    0  0.00000000000E+00  0.00000000000E+00  0.24474567377E+04  0.24474567377E+04  0.50400001928E-02 0. -1.
       -1   -1    0    0    0  501  0.00000000000E+00  0.00000000000E+00 -0.98997401683E+03  0.98997401684E+03  0.50400001928E-02 0.  1.
    10030    2    1    2    0    0  0.00000000000E+00  0.00000000000E+00  0.14574827208E+04  0.34374307545E+04  0.31131454047E+04 0.  0.
        5    1    3    3  502    0 -0.11532966670E+04 -0.58496118399E+03  0.16853750882E+04  0.21243314399E+04  0.46999998093E+01 0. -1.
       -5    1    3    3    0  502  0.11532966670E+04  0.58496118399E+03 -0.22789236731E+03  0.13130993146E+04  0.46999998093E+01 0.  1.
</event>
<event>
 5   0  0.1830902E-07  0.3101774E+04  0.7818609E-02  0.8215251E-01
        1   -1    0    0  501    0  0.00000000000E+00  0.00000000000E+00  0.24153094754E+04  0.24153094754E+04  0.50400001928E-02 0.  1.
       -1   -1    0    0    0  501  0.00000000000E+00  0.00000000000E+00 -0.99583527270E+03  0.99583527271E+03  0.50400001928E-02 0. -1.
    10030    2    1    2    0    0  0.00000000000E+00  0.00000000000E+00  0.14194742027E+04  0.34111447482E+04  0.31017739248E+04 0.  0.
        3    1    3    3  502    0 -0.69561825072E+03  0.82004874848E+03  0.19387355855E+04  0.22169935456E+04  0.10100000352E+00 0.  1.
       -3    1    3    3    0  502  0.69561825072E+03 -0.82004874848E+03 -0.51926138279E+03  0.11941512025E+04  0.10100000352E+00 0. -1.
</event>
<event>
 5   0  0.5248309E-07  0.3077691E+04  0.7818609E-02  0.8221887E-01
       -2   -1    0    0    0  501  0.00000000000E+00  0.00000000000E+00  0.15532867961E+04  0.15532867961E+04  0.25500000920E-02 0.  1.
        2   -1    0    0  501    0  0.00000000000E+00  0.00000000000E+00 -0.15245382169E+04  0.15245382169E+04  0.25500000920E-02 0. -1.
    10030    2    1    2    0    0  0.00000000000E+00  0.00000000000E+00  0.28748579186E+02  0.30778250130E+04  0.30776907463E+04 0.  0.
        4    1    3    3  502    0  0.50277395139E+03 -0.40114788472E+03  0.14124131736E+04  0.15519709589E+04  0.12699999809E+01 0.  1.
       -4    1    3    3    0  502 -0.50277395139E+03  0.40114788472E+03 -0.13836645944E+04  0.15258540541E+04  0.12699999809E+01 0. -1.
</event>
<event>
 5   0  0.1830902E-07  0.3110282E+04  0.7818609E-02  0.8212922E-01
       -1   -1    0    0    0  501  0.00000000000E+00  0.00000000000E+00  0.16048547203E+04  0.16048547203E+04  0.50400001928E-02 0.  1.
        1   -1    0    0  501    0  0.00000000000E+00  0.00000000000E+00 -0.15069674912E+04  0.15069674912E+04  0.50400001928E-02 0. -1.
    10030    2    1    2    0    0  0.00000000000E+00  0.00000000000E+00  0.97887229040E+02  0.31118222115E+04  0.31102822326E+04 0.  0.
        3    1    3    3  502    0 -0.22289015406E+03  0.47866088443E+03  0.15124281376E+04  0.16019472977E+04  0.10100000352E+00 0.  1.
       -3    1    3    3    0  502  0.22289015406E+03 -0.47866088443E+03 -0.14145409086E+04  0.15098749138E+04  0.10100000352E+00 0. -1.
</event>
<event>
 5   0  0.1875284E-07  0.3100882E+04  0.7818609E-02  0.8215496E-01
       -1   -1    0    0    0  501  0.00000000000E+00  0.00000000000E+00  0.11689905282E+04  0.11689905282E+04  0.50400001928E-02 0.  1.
        1   -1    0    0  501    0  0.00000000000E+00  0.00000000000E+00 -0.20563617491E+04  0.20563617491E+04  0.50400001928E-02 0. -1.
    10030    2    1    2    0    0  0.00000000000E+00  0.00000000000E+00 -0.88737122086E+03  0.32253522773E+04  0.31008820727E+04 0.  0.
        4    1    3    3  502    0 -0.37207299085E+02  0.15058375409E+03 -0.20482704258E+04  0.20541356334E+04  0.12699999809E+01 0. -1.
       -4    1    3    3    0  502  0.37207299085E+02 -0.15058375409E+03  0.11608992049E+04  0.11712166439E+04  0.12699999809E+01 0.  1.
</event>
<event>
 5   0  0.1830902E-07  0.3094953E+04  0.7818609E-02  0.8217124E-01
       -1   -1    0    0    0  501  0.00000000000E+00  0.00000000000E+00  0.17504972869E+04  0.17504972870E+04  0.50400001928E-02 0.  1.
        1   -1    0    0  501    0  0.00000000000E+00  0.00000000000E+00 -0.13680014850E+04  0.13680014850E+04  0.50400001928E-02 0. -1.
    10030    2    1    2    0    0  0.00000000000E+00  0.00000000000E+00  0.38249580198E+03  0.31184987719E+04  0.30949525929E+04 0.  0.
        3    1    3    3  502    0  0.13447057440E+04 -0.75416985912E+03  0.32521491149E+03  0.15756809522E+04  0.10100000352E+00 0.  1.
       -3    1    3    3    0  502 -0.13447057440E+04  0.75416985912E+03  0.57280890489E+02  0.15428178197E+04  0.10100000352E+00 0. -1.
</event>
<event>
 5   0  0.5342534E-07  0.3098842E+04  0.7818609E-02  0.8216056E-01
        2   -1    0    0  501    0  0.00000000000E+00  0.00000000000E+00  0.27414067554E+04  0.27414067554E+04  0.25500000920E-02 0. -1.
       -2   -1    0    0    0  501  0.00000000000E+00  0.00000000000E+00 -0.87572007715E+03  0.87572007716E+03  0.25500000920E-02 0.  1.
    10030    2    1    2    0    0  0.00000000000E+00  0.00000000000E+00  0.18656866782E+04  0.36171268326E+04  0.30988416774E+04 0.  0.
        3    1    3    3  502    0  0.10160006587E+04 -0.11538649532E+04  0.70818687048E+03  0.16926873079E+04  0.10100000352E+00 0.  1.
       -3    1    3    3    0  502 -0.10160006587E+04  0.11538649532E+04  0.11574998078E+04  0.19244395246E+04  0.10100000352E+00 0. -1.
</event>
<event>
 5   0  0.1875284E-07  0.3108442E+04  0.7818609E-02  0.8213425E-01
       -1   -1    0    0    0  501  0.00000000000E+00  0.00000000000E+00  0.18769823065E+04  0.18769823065E+04  0.50400001928E-02 0. -1.
        1   -1    0    0  501    0  0.00000000000E+00  0.00000000000E+00 -0.12869610240E+04  0.12869610240E+04  0.50400001928E-02 0.  1.
    10030    2    1    2    0    0  0.00000000000E+00  0.00000000000E+00  0.59002128250E+03  0.31639433305E+04  0.31084420993E+04 0.  0.
        4    1    3    3  502    0  0.63192165865E+02  0.14781263171E+04 -0.18967519312E+03  0.14915860522E+04  0.12699999809E+01 0.  1.
       -4    1    3    3    0  502 -0.63192165865E+02 -0.14781263171E+04  0.77969647562E+03  0.16723572783E+04  0.12699999809E+01 0. -1.
</event>
<event>
 5   0  0.1814075E-07  0.3102438E+04  0.7818609E-02  0.8215069E-01
        1   -1    0    0  501    0  0.00000000000E+00  0.00000000000E+00  0.15679502545E+04  0.15679502545E+04  0.50400001928E-02 0. -1.
       -1   -1    0    0    0  501  0.00000000000E+00  0.00000000000E+00 -0.15346664892E+04  0.15346664892E+04  0.50400001928E-02 0.  1.
    10030    2    1    2    0    0  0.00000000000E+00  0.00000000000E+00  0.33283765355E+02  0.31026167437E+04  0.31024382104E+04 0.  0.
        5    1    3    3  502    0  0.12700460378E+04  0.34428266152E+03  0.83809717012E+03  0.15601206511E+04  0.46999998093E+01 0. -1.
       -5    1    3    3    0  502 -0.12700460378E+04 -0.34428266152E+03 -0.80481340477E+03  0.15424960926E+04  0.46999998093E+01 0.  1.
</event>
<event>
 5   0  0.5376678E-07  0.3091964E+04  0.7818609E-02  0.8217947E-01
       -2   -1    0    0    0  501  0.00000000000E+00  0.00000000000E+00  0.11001289788E+04  0.11001289788E+04  0.25500000920E-02 0. -1.
        2   -1    0    0  501    0  0.00000000000E+00  0.00000000000E+00 -0.21725273874E+04  0.21725273874E+04  0.25500000920E-02 0.  1.
    10030    2    1    2    0    0  0.00000000000E+00  0.00000000000E+00 -0.10723984087E+04  0.32726563662E+04  0.30919639946E+04 0.  0.
        5    1    3    3  502    0  0.24865079476E+03 -0.15114744308E+04 -0.31504850664E+03  0.15638605514E+04  0.46999998093E+01 0. -1.
       -5    1    3    3    0  502 -0.24865079476E+03  0.15114744308E+04 -0.75734990202E+03  0.17087958148E+04  0.46999998093E+01 0.  1.
</event>
<event>
 5   0  0.1814075E-07  0.3099572E+04  0.7818609E-02  0.8215855E-01
        1   -1    0    0  501    0  0.00000000000E+00  0.00000000000E+00  0.96776165613E+03  0.96776165615E+03  0.50400001928E-02 0. -1.
       -1   -1    0    0    0  501  0.00000000000E+00  0.00000000000E+00 -0.24818470352E+04  0.24818470352E+04  0.50400001928E-02 0.  1.
    10030    2    1    2    0    0  0.00000000000E+00  0.00000000000E+00 -0.15140853790E+04  0.34496086913E+04  0.30995718395E+04 0.  0.
        5    1    3    3  502    0 -0.60359640093E+03  0.13713261393E+04 -0.11979519472E+04  0.19183260811E+04  0.46999998093E+01 0.  1.
       -5    1    3    3    0  502  0.60359640093E+03 -0.13713261393E+04 -0.31613343183E+03  0.15312826102E+04  0.46999998093E+01 0. -1.
</event>
<event>
 5   0  0.5248309E-07  0.3099643E+04  0.7818609E-02  0.8215836E-01
       -2   -1    0    0    0  501  0.00000000000E+00  0.00000000000E+00  0.15585104493E+04  0.15585104493E+04  0.25500000920E-02 0. -1.
        2   -1    0    0  501    0  0.00000000000E+00  0.00000000000E+00 -0.15411812609E+04  0.15411812609E+04  0.25500000920E-02 0.  1.
    10030    2    1    2    0    0  0.00000000000E+00  0.00000000000E+00  0.17329188388E+02  0.30996917102E+04  0.30996432694E+04 0.  0.
        4    1    3    3  502    0 -0.53926440516E+03  0.49281589862E+02  0.14608273339E+04  0.15579643404E+04  0.12699999809E+01 0. -1.
       -4    1    3    3    0  502  0.53926440516E+03 -0.49281589862E+02 -0.14434981455E+04  0.15417273697E+04  0.12699999809E+01 0.  1.
</event>
<event>
 5   0  0.1875284E-07  0.3092359E+04  0.7818609E-02  0.8217838E-01
        1   -1    0    0  501    0  0.00000000000E+00  0.00000000000E+00  0.22291509628E+04  0.22291509628E+04  0.50400001928E-02 0. -1.
       -1   -1    0    0    0  501  0.00000000000E+00  0.00000000000E+00 -0.10724584006E+04  0.10724584006E+04  0.50400001928E-02 0.  1.
    10030    2    1    2    0    0  0.00000000000E+00  0.00000000000E+00  0.11566925622E+04  0.33016093634E+04  0.30923594075E+04 0.  0.
        4    1    3    3  502    0 -0.12475732492E+04 -0.70729487025E+03 -0.38655208624E+02  0.14346431206E+04  0.12699999809E+01 0.  1.
       -4    1    3    3    0  502  0.12475732492E+04  0.70729487025E+03  0.11953477709E+04  0.18669662428E+04  0.12699999809E+01 0. -1.
</event>
<event>
 5   0  0.1845123E-07  0.3109591E+04  0.7818609E-02  0.8213111E-01
        1   -1    0    0  501    0  0.00000000000E+00  0.00000000000E+00  0.19925240287E+04  0.19925240287E+04  0.50400001928E-02 0.  1.
       -1   -1    0    0    0  501  0.00000000000E+00  0.00000000000E+00 -0.12132298719E+04  0.12132298719E+04  0.50400001928E-02 0. -1.
    10030    2    1    2    0    0  0.00000000000E+00  0.00000000000E+00  0.77929415686E+03  0.32057539006E+04  0.31095914021E+04 0.  0.
        2    1    3    3  502    0 -0.11497140652E+04  0.77816448175E+03 -0.33200541839E+03  0.14274487698E+04  0.25500000920E-02 0. -1.
       -2    1    3    3    0  502  0.11497140652E+04 -0.77816448175E+03  0.11112995753E+04  0.17783051308E+04  0.25500000920E-02 0.  1.
</event>
<event>
 5   0  0.1830902E-07  0.3106016E+04  0.7818609E-02  0.8214089E-01
        1   -1    0    0  501    0  0.00000000000E+00  0.00000000000E+00  0.19801530667E+04  0.19801530667E+04  0.50400001928E-02 0.  1.
       -1   -1    0    0    0  501  0.00000000000E+00  0.00000000000E+00 -0.12180040355E+04  0.12180040355E+04  0.50400001928E-02 0. -1.
    10030    2    1    2    0    0  0.00000000000E+00  0.00000000000E+00  0.76214903116E+03  0.31981571023E+04  0.31060163723E+04 0.  0.
        3    1    3    3  502    0 -0.14561413255E+03 -0.15004542407E+04 -0.31824431676E+01  0.15075067304E+04  0.10100000352E+00 0.  1.
       -3    1    3    3    0  502  0.14561413255E+03  0.15004542407E+04  0.76533147433E+03  0.16906503719E+04  0.10100000352E+00 0. -1.
</event>
<event>
 5   0  0.5154105E-07  0.3151281E+04  0.7818609E-02  0.8201804E-01
       -2   -1    0    0    0  501  0.00000000000E+00  0.00000000000E+00  0.13087058463E+04  0.13087058464E+04  0.25500000920E-02 0.  1.
        2   -1    0    0  501    0  0.00000000000E+00  0.00000000000E+00 -0.18970208669E+04  0.18970208669E+04  0.25500000920E-02 0. -1.
    10030    2    1    2    0    0  0.00000000000E+00  0.00000000000E+00 -0.58831502056E+03  0.32057267133E+04  0.31512805646E+04 0.  0.
        1    1    3    3  502    0 -0.10279578873E+04 -0.88014848602E+02  0.91729920172E+03  0.13805368004E+04  0.50400001928E-02 0.  1.
       -1    1    3    3    0  502  0.10279578873E+04  0.88014848602E+02 -0.15056142223E+04  0.18251899129E+04  0.50400001928E-02 0. -1.
</event>
<event>
 5   0  0.1845123E-07  0.3102735E+04  0.7818609E-02  0.8214988E-01
       -1   -1    0    0    0  501  0.00000000000E+00  0.00000000000E+00  0.22759131004E+04  0.22759131004E+04  0.50400001928E-02 0.  1.
        1   -1    0    0  501    0  0.00000000000E+00  0.00000000000E+00 -0.10574834771E+04  0.10574834771E+04  0.50400001928E-02 0. -1.
    10030    2    1    2    0    0  0.00000000000E+00  0.00000000000E+00  0.12184296233E+04  0.33333965776E+04  0.31027345997E+04 0.  0.
        2    1    3    3  502    0 -0.13216414927E+04 -0.70626557896E+03  0.10405508144E+04  0.18243610664E+04  0.25500000920E-02 0. -1.
       -2    1    3    3    0  502  0.13216414927E+04  0.70626557896E+03  0.17787880887E+03  0.15090355111E+04  0.25500000920E-02 0.  1.
</event>
<event>
 5   0  0.1845123E-07  0.3094048E+04  0.7818609E-02  0.8217373E-01
        1   -1    0    0  501    0  0.00000000000E+00  0.00000000000E+00  0.19256715515E+04  0.19256715515E+04  0.50400001928E-02 0. -1.
       -1   -1    0    0    0  501  0.00000000000E+00  0.00000000000E+00 -0.12428305129E+04  0.12428305129E+04  0.50400001928E-02 0.  1.
    10030    2    1    2    0    0  0.00000000000E+00  0.00000000000E+00  0.68284103865E+03  0.31685020644E+04  0.30940480681E+04 0.  0.
        2    1    3    3  502    0 -0.60372901505E+03  0.11688097831E+04 -0.49221905327E+03  0.14045941154E+04  0.25500000920E-02 0.  1.
       -2    1    3    3    0  502  0.60372901505E+03 -0.11688097831E+04  0.11750600919E+04  0.17639079489E+04  0.25500000920E-02 0. -1.
</event>
<event>
 5   0  0.5376678E-07  0.3105593E+04  0.7818609E-02  0.8214205E-01
       -2   -1    0    0    0  501  0.00000000000E+00  0.00000000000E+00  0.87479964724E+03  0.87479964724E+03  0.25500000920E-02 0.  1.
        2   -1    0    0  501    0  0.00000000000E+00  0.00000000000E+00 -0.27562620816E+04  0.27562620816E+04  0.25500000920E-02 0. -1.
    10030    2    1    2    0    0  0.00000000000E+00  0.00000000000E+00 -0.18814624343E+04  0.36310617288E+04  0.31055930813E+04 0.  0.
        5    1    3    3  502    0  0.78154179473E+03 -0.25203111043E+03  0.60014395015E+03  0.10171145995E+04  0.46999998093E+01 0.  1.
       -5    1    3    3    0  502 -0.78154179473E+03  0.25203111043E+03 -0.24816063845E+04  0.26139471293E+04  0.46999998093E+01 0. -1.
</event>
<event>
 5   0  0.5248309E-07  0.3097017E+04  0.7818609E-02  0.8216557E-01
       -2   -1    0    0    0  501  0.00000000000E+00  0.00000000000E+00  0.94130109105E+03  0.94130109105E+03  0.25500000920E-02 0.  1.
        2   -1    0    0  501    0  0.00000000000E+00  0.00000000000E+00 -0.25474091575E+04  0.25474091575E+04  0.25500000920E-02 0. -1.
    10030    2    1    2    0    0  0.00000000000E+00  0.00000000000E+00 -0.16061080664E+04  0.34887102485E+04  0.30970172872E+04 0.  0.
        4    1    3    3  502    0  0.54410558226E+03 -0.11709076936E+04  0.15993434174E+03  0.13010212597E+04  0.12699999809E+01 0.  1.
       -4    1    3    3    0  502 -0.54410558226E+03  0.11709076936E+04 -0.17660424082E+04  0.21876889888E+04  0.12699999809E+01 0. -1.
</event>
<event>
 5   0  0.1845123E-07  0.3078060E+04  0.7818609E-02  0.8221785E-01
        1   -1    0    0  501    0  0.00000000000E+00  0.00000000000E+00  0.14411017647E+04  0.14411017647E+04  0.50400001928E-02 0. -1.
       -1   -1    0    0    0  501  0.00000000000E+00  0.00000000000E+00 -0.16436128210E+04  0.16436128210E+04  0.50400001928E-02 0.  1.
    10030    2    1    2    0    0  0.00000000000E+00  0.00000000000E+00 -0.20251105626E+03  0.30847145857E+04  0.30780599974E+04 0.  0.
        2    1    3    3  502    0  0.11598347734E+03  0.13848353008E+04 -0.76404179695E+03  0.15858691134E+04  0.25500000920E-02 0.  1.
       -2    1    3    3    0  502 -0.11598347734E+03 -0.13848353008E+04  0.56153074069E+03  0.14988454724E+04  0.25500000920E-02 0. -1.
</event>
<event>
 5   0  0.1840359E-07  0.3114230E+04  0.7818609E-02  0.8211844E-01
        1   -1    0    0  501    0  0.00000000000E+00  0.00000000000E+00  0.18608191879E+04  0.18608191879E+04  0.50400001928E-02 0.  1.
       -1   -1    0    0    0  501  0.00000000000E+00  0.00000000000E+00 -0.13029779614E+04  0.13029779614E+04  0.50400001928E-02 0. -1.
    10030    2    1    2    0    0  0.00000000000E+00  0.00000000000E+00  0.55784122650E+03  0.31637971493E+04  0.31142295304E+04 0.  0.
        1    1    3    3  502    0  0.17846058622E+03  0.11769904375E+04 -0.74077401967E+03  0.14021058516E+04  0.50400001928E-02 0. -1.
       -1    1    3    3    0  502 -0.17846058622E+03 -0.11769904375E+04  0.12986152462E+04  0.17616912977E+04  0.50400001928E-02 0.  1.
</event>
<event>
 5   0  0.1830902E-07  0.3090725E+04  0.7818609E-02  0.8218288E-01
       -1   -1    0    0    0  501  0.00000000000E+00  0.00000000000E+00  0.17940422037E+04  0.17940422037E+04  0.50400001928E-02 0.  1.
        1   -1    0    0  501    0  0.00000000000E+00  0.00000000000E+00 -0.13311532962E+04  0.13311532962E+04  0.50400001928E-02 0. -1.
    10030    2    1    2    0    0  0.00000000000E+00  0.00000000000E+00  0.46288890749E+03  0.31251954999E+04  0.30907249590E+04 0.  0.
        3    1    3    3  502    0  0.10976643610E+04 -0.96188893788E+03  0.74509400775E+03  0.16386770483E+04  0.10100000352E+00 0.  1.
       -3    1    3    3    0  502 -0.10976643610E+04  0.96188893788E+03 -0.28220510027E+03  0.14865184516E+04  0.10100000352E+00 0. -1.
</event>
<event>
 5   0  0.5055900E-07  0.3094400E+04  0.7818609E-02  0.8217276E-01
       -2   -1    0    0    0  501  0.00000000000E+00  0.00000000000E+00  0.12024144916E+04  0.12024144916E+04  0.25500000920E-02 0. -1.
        2   -1    0    0  501    0  0.00000000000E+00  0.00000000000E+00 -0.19908510428E+04  0.19908510428E+04  0.25500000920E-02 0.  1.
    10030    2    1    2    0    0  0.00000000000E+00  0.00000000000E+00 -0.78843655121E+03  0.31932655343E+04  0.30944001967E+04 0.  0.
        2    1    3    3  502    0  0.55827760967E+03 -0.11029550903E+04  0.56590787002E+03  0.13595718216E+04  0.25500000920E-02 0. -1.
       -2    1    3    3    0  502 -0.55827760967E+03  0.11029550903E+04 -0.13543444212E+04  0.18336937127E+04  0.25500000920E-02 0.  1.
</event>
<event>
 5   0  0.1840359E-07  0.3139243E+04  0.7818609E-02  0.8205050E-01
        1   -1    0    0  501    0  0.00000000000E+00  0.00000000000E+00  0.16243451151E+04  0.16243451151E+04  0.50400001928E-02 0. -1.
       -1   -1    0    0    0  501  0.00000000000E+00  0.00000000000E+00 -0.15167416400E+04  0.15167416400E+04  0.50400001928E-02 0.  1.
    10030    2    1    2    0    0  0.00000000000E+00  0.00000000000E+00  0.10760347508E+03  0.31410867552E+04  0.31392431406E+04 0.  0.
        1    1    3    3  502    0  0.16209190930E+03  0.15516240176E+04 -0.11921885516E+03  0.15646162516E+04  0.50400001928E-02 0.  1.
       -1    1    3    3    0  502 -0.16209190930E+03 -0.15516240176E+04  0.22682233024E+03  0.15764705036E+04  0.50400001928E-02 0. -1.
</event>
<event>
 5   0  0.5376678E-07  0.3098542E+04  0.7818609E-02  0.8216138E-01
       -2   -1    0    0    0  501  0.00000000000E+00  0.00000000000E+00  0.11923246027E+04  0.11923246027E+04  0.25500000920E-02 0.  1.
        2   -1    0    0  501    0  0.00000000000E+00  0.00000000000E+00 -0.20130771413E+04  0.20130771413E+04  0.25500000920E-02 0. -1.
    10030    2    1    2    0    0  0.00000000000E+00  0.00000000000E+00 -0.82075253862E+03  0.32054017440E+04  0.30985424978E+04 0.  0.
        5    1    3    3  502    0  0.78745885575E+03 -0.96167771150E+02  0.96626102931E+03  0.12502088451E+04  0.46999998093E+01 0.  1.
       -5    1    3    3    0  502 -0.78745885575E+03  0.96167771150E+02 -0.17870135679E+04  0.19551928988E+04  0.46999998093E+01 0. -1.
</event>
<event>
 5   0  0.1830902E-07  0.3083144E+04  0.7818609E-02  0.8220379E-01
       -1   -1    0    0    0  501  0.00000000000E+00  0.00000000000E+00  0.31995805849E+04  0.31995805849E+04  0.50400001928E-02 0. -1.
        1   -1    0    0  501    0  0.00000000000E+00  0.00000000000E+00 -0.74273620237E+03  0.74273620239E+03  0.50400001928E-02 0.  1.
    10030    2    1    2    0    0  0.00000000000E+00  0.00000000000E+00  0.24568443825E+04  0.39423167873E+04  0.30831440660E+04 0.  0.
        3    1    3    3  502    0  0.29623165916E+03  0.13611706490E+04  0.38420552691E+03  0.14450441615E+04  0.10100000352E+00 0.  1.
       -3    1    3    3    0  502 -0.29623165916E+03 -0.13611706490E+04  0.20726388556E+04  0.24972726258E+04  0.10100000352E+00 0. -1.
</event>
<event>
 5   0  0.5055900E-07  0.3095997E+04  0.7818609E-02  0.8216837E-01
       -2   -1    0    0    0  501  0.00000000000E+00  0.00000000000E+00  0.10996974792E+04  0.10996974792E+04  0.25500000920E-02 0. -1.
        2   -1    0    0  501    0  0.00000000000E+00  0.00000000000E+00 -0.21790526768E+04  0.21790526768E+04  0.25500000920E-02 0.  1.
    10030    2    1    2    0    0  0.00000000000E+00  0.00000000000E+00 -0.10793551975E+04  0.32787501560E+04  0.30959965993E+04 0.  0.
        2    1    3    3  502    0 -0.97986114549E+03  0.58410723204E+03 -0.16478640828E+04  0.20041869071E+04  0.25500000920E-02 0.  1.
       -2    1    3    3    0  502  0.97986114549E+03 -0.58410723204E+03  0.56850888527E+03  0.12745632490E+04  0.25500000920E-02 0. -1.
</event>
<event>
 5   0  0.1727000E-07  0.3100153E+04  0.7818609E-02  0.8215696E-01
        3   -1    0    0  501    0  0.00000000000E+00  0.00000000000E+00  0.89323864096E+03  0.89323864667E+03  0.10100000352E+00 0.  1.
       -3   -1    0    0    0  501  0.00000000000E+00  0.00000000000E+00 -0.26899158307E+04  0.26899158326E+04  0.10100000352E+00 0. -1.
    10030    2    1    2    0    0  0.00000000000E+00  0.00000000000E+00 -0.17966771898E+04  0.35831544793E+04  0.31001527540E+04 0.  0.
        1    1    3    3  502    0 -0.84716734499E+03  0.66704361880E+03  0.38875544815E+03  0.11461982805E+04  0.50400001928E-02 0.  1.
       -1    1    3    3    0  502  0.84716734499E+03 -0.66704361880E+03 -0.21854326379E+04  0.24369561988E+04  0.50400001928E-02 0. -1.
</event>
<event>
 5   0  0.5376678E-07  0.3113966E+04  0.7818609E-02  0.8211915E-01
       -2   -1    0    0    0  501  0.00000000000E+00  0.00000000000E+00  0.18627846613E+04  0.18627846613E+04  0.25500000920E-02 0.  1.
        2   -1    0    0  501    0  0.00000000000E+00  0.00000000000E+00 -0.13013829235E+04  0.13013829235E+04  0.25500000920E-02 0. -1.
    10030    2    1    2    0    0  0.00000000000E+00  0.00000000000E+00  0.56140173783E+03  0.31641675847E+04  0.31139660552E+04 0.  0.
        5    1    3    3  502    0  0.38848666957E+03 -0.14942998721E+04  0.48473657588E+03  0.16182847828E+04  0.46999998093E+01 0.  1.
       -5    1    3    3    0  502 -0.38848666957E+03  0.14942998721E+04  0.76665161957E+02  0.15458828019E+04  0.46999998093E+01 0. -1.
</event>
<event>
 5   0  0.1840359E-07  0.3105938E+04  0.7818609E-02  0.8214110E-01
        1   -1    0    0  501    0  0.00000000000E+00  0.00000000000E+00  0.17378225561E+04  0.17378225561E+04  0.50400001928E-02 0. -1.
       -1   -1    0    0    0  501  0.00000000000E+00  0.00000000000E+00 -0.13877785227E+04  0.13877785227E+04  0.50400001928E-02 0.  1.
    10030    2    1    2    0    0  0.00000000000E+00  0.00000000000E+00  0.35004403341E+03  0.31256010788E+04  0.31059380674E+04 0.  0.
        1    1    3    3  502    0  0.13289193981E+04 -0.77241866964E+03 -0.47864807726E+02  0.15378388757E+04  0.50400001928E-02 0. -1.
       -1    1    3    3    0  502 -0.13289193981E+04  0.77241866964E+03  0.39790884114E+03  0.15877622031E+04  0.50400001928E-02 0.  1.
</event>
<event>
 5   0  0.1875284E-07  0.3097773E+04  0.7818609E-02  0.8216349E-01
        1   -1    0    0  501    0  0.00000000000E+00  0.00000000000E+00  0.16526122269E+04  0.16526122270E+04  0.50400001928E-02 0. -1.
       -1   -1    0    0    0  501  0.00000000000E+00  0.00000000000E+00 -0.14516709879E+04  0.14516709879E+04  0.50400001928E-02 0.  1.
    10030    2    1    2    0    0  0.00000000000E+00  0.00000000000E+00  0.20094123909E+03  0.31042832148E+04  0.30977728929E+04 0.  0.
        4    1    3    3  502    0 -0.77355138526E+02 -0.43092844420E+03  0.15893132149E+04  0.16485148618E+04  0.12699999809E+01 0. -1.
       -4    1    3    3    0  502  0.77355138526E+02  0.43092844420E+03 -0.13883719758E+04  0.14557683530E+04  0.12699999809E+01 0.  1.
</event>
<event>
 5   0  0.5342534E-07  0.3113952E+04  0.7818609E-02  0.8211919E-01
       -2   -1    0    0    0  501  0.00000000000E+00  0.00000000000E+00  0.12657703162E+04  0.12657703162E+04  0.25500000920E-02 0.  1.
        2   -1    0    0  501    0  0.00000000000E+00  0.00000000000E+00 -0.19151765131E+04  0.19151765131E+04  0.25500000920E-02 0. -1.
    10030    2    1    2    0    0  0.00000000000E+00  0.00000000000E+00 -0.64940619685E+03  0.31809468293E+04  0.31139515606E+04 0.  0.
        3    1    3    3  502    0  0.14612806924E+04 -0.24995738051E+03 -0.81070534388E+03  0.16896932026E+04  0.10100000352E+00 0. -1.
       -3    1    3    3    0  502 -0.14612806924E+04  0.24995738051E+03  0.16129914703E+03  0.14912536267E+04  0.10100000352E+00 0.  1.
</event>
<event>
 5   0  0.1814075E-07  0.3100616E+04  0.7818609E-02  0.8215569E-01
       -1   -1    0    0    0  501  0.00000000000E+00  0.00000000000E+00  0.14660833014E+04  0.14660833014E+04  0.50400001928E-02 0. -1.
        1   -1    0    0  501    0  0.00000000000E+00  0.00000000000E+00 -0.16393713299E+04  0.16393713299E+04  0.50400001928E-02 0.  1.
    10030    2    1    2    0    0  0.00000000000E+00  0.00000000000E+00 -0.17328802844E+03  0.31054546313E+04  0.31006160237E+04 0.  0.
        5    1    3    3  502    0  0.10930297691E+04 -0.54109403189E+03 -0.10451829742E+04  0.16062149193E+04  0.46999998093E+01 0.  1.
       -5    1    3    3    0  502 -0.10930297691E+04  0.54109403189E+03  0.87189494577E+03  0.14992397120E+04  0.46999998093E+01 0. -1.
</event>
<event>
 5   0  0.5154105E-07  0.3104963E+04  0.7818609E-02  0.8214377E-01
        2   -1    0    0  501    0  0.00000000000E+00  0.00000000000E+00  0.78389761547E+03  0.78389761547E+03  0.25500000920E-02 0.  1.
       -2   -1    0    0    0  501  0.00000000000E+00  0.00000000000E+00 -0.30746346442E+04  0.30746346442E+04  0.25500000920E-02 0. -1.
    10030    2    1    2    0    0  0.00000000000E+00  0.00000000000E+00 -0.22907370287E+04  0.38585322596E+04  0.31049629730E+04 0.  0.
        1    1    3    3  502    0  0.41033100806E+03  0.10692187015E+04  0.15715397408E+03  0.11559833647E+04  0.50400001928E-02 0.  1.
       -1    1    3    3    0  502 -0.41033100806E+03 -0.10692187015E+04 -0.24478910028E+04  0.27025488949E+04  0.50400001928E-02 0. -1.
</event>
<event>
 5   0  0.1840359E-07  0.3077641E+04  0.7818609E-02  0.8221901E-01
        1   -1    0    0  501    0  0.00000000000E+00  0.00000000000E+00  0.13683565786E+04  0.13683565786E+04  0.50400001928E-02 0.  1.
       -1   -1    0    0    0  501  0.00000000000E+00  0.00000000000E+00 -0.17305198591E+04  0.17305198591E+04  0.50400001928E-02 0. -1.
    10030    2    1    2    0    0  0.00000000000E+00  0.00000000000E+00 -0.36216328050E+03  0.30988764378E+04  0.30776408067E+04 0.  0.
        1    1    3    3  502    0 -0.86888762109E+01  0.74210582591E+03  0.11762447971E+04  0.13908085332E+04  0.50400001928E-02 0.  1.
       -1    1    3    3    0  502  0.86888762109E+01 -0.74210582591E+03 -0.15384080776E+04  0.17080679045E+04  0.50400001928E-02 0. -1.
</event>
<event>
 5   0  0.5055900E-07  0.3109679E+04  0.7818609E-02  0.8213087E-01
       -2   -1    0    0    0  501  0.00000000000E+00  0.00000000000E+00  0.12307445309E+04  0.12307445309E+04  0.25500000920E-02 0.  1.
        2   -1    0    0  501    0  0.00000000000E+00  0.00000000000E+00 -0.19642788169E+04  0.19642788169E+04  0.25500000920E-02 0. -1.
    10030    2    1    2    0    0  0.00000000000E+00  0.00000000000E+00 -0.73353428597E+03  0.31950233478E+04  0.31096787044E+04 0.  0.
        2    1    3    3  502    0  0.43171788903E+03  0.13538050441E+04 -0.10152443728E+04  0.17463933032E+04  0.25500000920E-02 0.  1.
       -2    1    3    3    0  502 -0.43171788903E+03 -0.13538050441E+04  0.28171008679E+03  0.14486300446E+04  0.25500000920E-02 0. -1.
</event>
<event>
 5   0  0.1830902E-07  0.3087356E+04  0.7818609E-02  0.8219216E-01
        1   -1    0    0  501    0  0.00000000000E+00  0.00000000000E+00  0.12686458998E+04  0.12686458998E+04  0.50400001928E-02 0. -1.
       -1   -1    0    0    0  501  0.00000000000E+00  0.00000000000E+00 -0.18783352643E+04  0.18783352643E+04  0.50400001928E-02 0.  1.
    10030    2    1    2    0    0  0.00000000000E+00  0.00000000000E+00 -0.60968936452E+03  0.31469811641E+04  0.30873563652E+04 0.  0.
        3    1    3    3  502    0  0.31306998815E+03 -0.84896495201E+03  0.96998409528E+03  0.13265079956E+04  0.10100000352E+00 0. -1.
       -3    1    3    3    0  502 -0.31306998815E+03  0.84896495201E+03 -0.15796734598E+04  0.18204731684E+04  0.10100000352E+00 0.  1.
</event>
<event>
 5   0  0.5248309E-07  0.3103796E+04  0.7818609E-02  0.8214697E-01
       -2   -1    0    0    0  501  0.00000000000E+00  0.00000000000E+00  0.10122961191E+04  0.10122961191E+04  0.25500000920E-02 0.  1.
        2   -1    0    0  501    0  0.00000000000E+00  0.00000000000E+00 -0.23791333613E+04  0.23791333613E+04  0.25500000920E-02 0. -1.
    10030    2    1    2    0    0  0.00000000000E+00  0.00000000000E+00 -0.13668372422E+04  0.33914294803E+04  0.31037960425E+04 0.  0.
        4    1    3    3  502    0  0.62456538349E+03  0.13755702287E+04 -0.29538870414E+03  0.15393282534E+04  0.12699999809E+01 0.  1.
       -4    1    3    3    0  502 -0.62456538349E+03 -0.13755702287E+04 -0.10714485380E+04  0.18521012269E+04  0.12699999809E+01 0. -1.
</event>
<event>
 5   0  0.5154105E-07  0.3097395E+04  0.7818609E-02  0.8216453E-01
        2   -1    0    0  501    0  0.00000000000E+00  0.00000000000E+00  0.13895774141E+04  0.13895774141E+04  0.25500000920E-02 0. -1.
       -2   -1    0    0    0  501  0.00000000000E+00  0.00000000000E+00 -0.17260384553E+04  0.17260384553E+04  0.25500000920E-02 0.  1.
    10030    2    1    2    0    0  0.00000000000E+00  0.00000000000E+00 -0.33646104117E+03  0.31156158694E+04  0.30973950690E+04 0.  0.
        1    1    3    3  502    0 -0.59763542294E+03 -0.99073061988E+03  0.86726630059E+03  0.14459827440E+04  0.50400001928E-02 0. -1.
       -1    1    3    3    0  502  0.59763542294E+03  0.99073061988E+03 -0.12037273418E+04  0.16696331253E+04  0.50400001928E-02 0.  1.
</event>
<event>
 5   0  0.1830902E-07  0.3097933E+04  0.7818609E-02  0.8216305E-01
        1   -1    0    0  501    0  0.00000000000E+00  0.00000000000E+00  0.11285077338E+04  0.11285077339E+04  0.50400001928E-02 0.  1.
       -1   -1    0    0    0  501  0.00000000000E+00  0.00000000000E+00 -0.21260801071E+04  0.21260801071E+04  0.50400001928E-02 0. -1.
    10030    2    1    2    0    0  0.00000000000E+00  0.00000000000E+00 -0.99757237322E+03  0.32545878409E+04  0.30979334038E+04 0.  0.
        3    1    3    3  502    0 -0.11712677806E+04  0.93354147385E+03 -0.83938501965E+02  0.15001378535E+04  0.10100000352E+00 0.  1.
       -3    1    3    3    0  502  0.11712677806E+04 -0.93354147385E+03 -0.91363387126E+03  0.17544499874E+04  0.10100000352E+00 0. -1.
</event>
<event>
 5   0  0.1814075E-07  0.3101640E+04  0.7818609E-02  0.8215288E-01
       -1   -1    0    0    0  501  0.00000000000E+00  0.00000000000E+00  0.10221615638E+04  0.10221615638E+04  0.50400001928E-02 0. -1.
        1   -1    0    0  501    0  0.00000000000E+00  0.00000000000E+00 -0.23528980793E+04  0.23528980793E+04  0.50400001928E-02 0.  1.
    10030    2    1    2    0    0  0.00000000000E+00  0.00000000000E+00 -0.13307365155E+04  0.33750596431E+04  0.31016395537E+04 0.  0.
        5    1    3    3  502    0  0.13690789811E+04 -0.42830877886E+03 -0.13065429486E+04  0.19403355981E+04  0.46999998093E+01 0.  1.
       -5    1    3    3    0  502 -0.13690789811E+04  0.42830877886E+03 -0.24193566858E+02  0.14347240450E+04  0.46999998093E+01 0. -1.
</event>
<event>
 5   0  0.1830902E-07  0.3089235E+04  0.7818609E-02  0.8218698E-01
        1   -1    0    0  501    0  0.00000000000E+00  0.00000000000E+00  0.14830831846E+04  0.14830831846E+04  0.50400001928E-02 0.  1.
       -1   -1    0    0    0  501  0.00000000000E+00  0.00000000000E+00 -0.16087052120E+04  0.16087052120E+04  0.50400001928E-02 0. -1.
    10030    2    1    2    0    0  0.00000000000E+00  0.00000000000E+00 -0.12562202745E+03  0.30917883966E+04  0.30892352768E+04 0.  0.
        3    1    3    3  502    0 -0.12902513371E+04  0.83997049448E+03 -0.18759241851E+03  0.15509641743E+04  0.10100000352E+00 0. -1.
       -3    1    3    3    0  502  0.12902513371E+04 -0.83997049448E+03  0.61970391066E+02  0.15408242223E+04  0.10100000352E+00 0.  1.
</event>
<event>
 5   0  0.1814075E-07  0.3075914E+04  0.7818609E-02  0.8222379E-01
        1   -1    0    0  501    0  0.00000000000E+00  0.00000000000E+00  0.18326562890E+04  0.18326562890E+04  0.50400001928E-02 0.  1.
       -1   -1    0    0    0  501  0.00000000000E+00  0.00000000000E+00 -0.12906464550E+04  0.12906464550E+04  0.50400001928E-02 0. -1.
    10030    2    1    2    0    0  0.00000000000E+00  0.00000000000E+00  0.54200983393E+03  0.31233027440E+04  0.30759137457E+04 0.  0.
        5    1    3    3  502    0  0.15885251513E+03 -0.11072654764E+04 -0.80072682012E+03  0.13756658341E+04  0.46999998093E+01 0. -1.
       -5    1    3    3    0  502 -0.15885251513E+03  0.11072654764E+04  0.13427366540E+04  0.17476369099E+04  0.46999998093E+01 0.  1.
</event>
<event>
 5   0  0.5055900E-07  0.3099840E+04  0.7818609E-02  0.8215782E-01
       -2   -1    0    0    0  501  0.00000000000E+00  0.00000000000E+00  0.13704615489E+04  0.13704615490E+04  0.25500000920E-02 0. -1.
        2   -1    0    0  501    0  0.00000000000E+00  0.00000000000E+00 -0.17528781325E+04  0.17528781325E+04  0.25500000920E-02 0.  1.
    10030    2    1    2    0    0  0.00000000000E+00  0.00000000000E+00 -0.38241658360E+03  0.31233396815E+04  0.30998400479E+04 0.  0.
        2    1    3    3  502    0  0.74600785872E+03 -0.11605857742E+04  0.52037857835E+03  0.14745443125E+04  0.25500000920E-02 0. -1.
       -2    1    3    3    0  502 -0.74600785872E+03  0.11605857742E+04 -0.90279516194E+03  0.16487953691E+04  0.25500000920E-02 0.  1.
</event>
<event>
 5   0  0.1830902E-07  0.3101483E+04  0.7818609E-02  0.8215331E-01
       -1   -1    0    0    0  501  0.00000000000E+00  0.00000000000E+00  0.10032528710E+04  0.10032528710E+04  0.50400001928E-02 0. -1.
        1   -1    0    0  501    0  0.00000000000E+00  0.00000000000E+00 -0.23970024682E+04  0.23970024682E+04  0.50400001928E-02 0.  1.
    10030    2    1    2    0    0  0.00000000000E+00  0.00000000000E+00 -0.13937495972E+04  0.34002553392E+04  0.31014832633E+04 0.  0.
        3    1    3    3  502    0 -0.55158037326E+03  0.14444725892E+04 -0.56688833677E+03  0.16468467949E+04  0.10100000352E+00 0. -1.
       -3    1    3    3    0  502  0.55158037326E+03 -0.14444725892E+04 -0.82686126042E+03  0.17534085444E+04  0.10100000352E+00 0.  1.
</event>
<event>
 5   0  0.5154105E-07  0.3097456E+04  0.7818609E-02  0.8216436E-01
       -2   -1    0    0    0  501  0.00000000000E+00  0.00000000000E+00  0.11104978095E+04  0.11104978095E+04  0.25500000920E-02 0.  1.
        2   -1    0    0  501    0  0.00000000000E+00  0.00000000000E+00 -0.21598951746E+04  0.21598951746E+04  0.25500000920E-02 0. -1.
    10030    2    1    2    0    0  0.00000000000E+00  0.00000000000E+00 -0.10493973651E+04  0.32703929840E+04  0.30974562854E+04 0.  0.
        1    1    3    3  502    0 -0.43407391309E+03  0.19422572034E+03  0.10315040004E+04  0.11358451899E+04  0.50400001928E-02 0.  1.
       -1    1    3    3    0  502  0.43407391309E+03 -0.19422572034E+03 -0.20809013655E+04  0.21345477941E+04  0.50400001928E-02 0. -1.
</event>
<event>
 5   0  0.5248309E-07  0.3100177E+04  0.7818609E-02  0.8215689E-01
       -2   -1    0    0    0  501  0.00000000000E+00  0.00000000000E+00  0.13505745374E+04  0.13505745374E+04  0.25500000920E-02 0. -1.
        2   -1    0    0  501    0  0.00000000000E+00  0.00000000000E+00 -0.17790760725E+04  0.17790760726E+04  0.25500000920E-02 0.  1.
    10030    2    1    2    0    0  0.00000000000E+00  0.00000000000E+00 -0.42850153516E+03  0.31296506099E+04  0.31001773134E+04 0.  0.
        4    1    3    3  502    0 -0.11518345329E+04 -0.57537029152E+03 -0.10855900695E+04  0.16841262350E+04  0.12699999809E+01 0.  1.
       -4    1    3    3    0  502  0.11518345329E+04  0.57537029152E+03  0.65708853437E+03  0.14455243749E+04  0.12699999809E+01 0. -1.
</event>
<event>
 5   0  0.1830902E-07  0.3105298E+04  0.7818609E-02  0.8214285E-01
       -1   -1    0    0    0  501  0.00000000000E+00  0.00000000000E+00  0.11428141695E+04  0.11428141695E+04  0.50400001928E-02 0. -1.
        1   -1    0    0  501    0  0.00000000000E+00  0.00000000000E+00 -0.21094589738E+04  0.21094589738E+04  0.50400001928E-02 0.  1.
    10030    2    1    2    0    0  0.00000000000E+00  0.00000000000E+00 -0.96664480427E+03  0.32522731433E+04  0.31052984431E+04 0.  0.
        3    1    3    3  502    0 -0.11830588825E+04 -0.60405143046E+03 -0.13252438267E+04  0.18763735397E+04  0.10100000352E+00 0.  1.
       -3    1    3    3    0  502  0.11830588825E+04  0.60405143046E+03  0.35859902243E+03  0.13758996036E+04  0.10100000352E+00 0. -1.
</event>
<event>
 5   0  0.5342534E-07  0.3110395E+04  0.7818609E-02  0.8212891E-01
       -2   -1    0    0    0  501  0.00000000000E+00  0.00000000000E+00  0.12428421578E+04  0.12428421578E+04  0.25500000920E-02 0. -1.
        2   -1    0    0  501    0  0.00000000000E+00  0.00000000000E+00 -0.19460547488E+04  0.19460547488E+04  0.25500000920E-02 0.  1.
    10030    2    1    2    0    0  0.00000000000E+00  0.00000000000E+00 -0.70321259101E+03  0.31888969066E+04  0.31103947551E+04 0.  0.
        3    1    3    3  502    0 -0.12374692772E+03  0.19962833710E+03  0.12245540315E+04  0.12468750384E+04  0.10100000352E+00 0. -1.
       -3    1    3    3    0  502  0.12374692772E+03 -0.19962833710E+03 -0.19277666226E+04  0.19420218681E+04  0.10100000352E+00 0.  1.
</event>
<event>
 5   0  0.5154105E-07  0.3097273E+04  0.7818609E-02  0.8216487E-01
       -2   -1    0    0    0  501  0.00000000000E+00  0.00000000000E+00  0.13283893764E+04  0.13283893764E+04  0.25500000920E-02 0. -1.
        2   -1    0    0  501    0  0.00000000000E+00  0.00000000000E+00 -0.18054001634E+04  0.18054001634E+04  0.25500000920E-02 0.  1.
    10030    2    1    2    0    0  0.00000000000E+00  0.00000000000E+00 -0.47701078703E+03  0.31337895398E+04  0.30972726049E+04 0.  0.
        1    1    3    3  502    0  0.14664560445E+04 -0.32387261992E+03  0.14395604584E+03  0.15086782784E+04  0.50400001928E-02 0. -1.
       -1    1    3    3    0  502 -0.14664560445E+04  0.32387261992E+03 -0.62096683286E+03  0.16251112614E+04  0.50400001928E-02 0.  1.
</event>
<event>
 5   0  0.1845123E-07  0.3101727E+04  0.7818609E-02  0.8215264E-01
        1   -1    0    0  501    0  0.00000000000E+00  0.00000000000E+00  0.23999335193E+04  0.23999335193E+04  0.50400001928E-02 0. -1.
       -1   -1    0    0    0  501  0.00000000000E+00  0.00000000000E+00 -0.10021848729E+04  0.10021848730E+04  0.50400001928E-02 0.  1.
    10030    2    1    2    0    0  0.00000000000E+00  0.00000000000E+00  0.13977486464E+04  0.34021183923E+04  0.31017266605E+04 0.  0.
        2    1    3    3  502    0 -0.10852069868E+04 -0.81925093000E+03 -0.11923707541E+03  0.13649409404E+04  0.25500000920E-02 0.  1.
       -2    1    3    3    0  502  0.10852069868E+04  0.81925093000E+03  0.15169857218E+04  0.20371774519E+04  0.25500000920E-02 0. -1.
</event>
<event>
 5   0  0.1814075E-07  0.3094065E+04  0.7818609E-02  0.8217369E-01
       -1   -1    0    0    0  501  0.00000000000E+00  0.00000000000E+00  0.10924369707E+04  0.10924369708E+04  0.50400001928E-02 0. -1.
        1   -1    0    0  501    0  0.00000000000E+00  0.00000000000E+00 -0.21907982938E+04  0.21907982938E+04  0.50400001928E-02 0.  1.
    10030    2    1    2    0    0  0.00000000000E+00  0.00000000000E+00 -0.10983613230E+04  0.32832352645E+04  0.30940646739E+04 0.  0.
        5    1    3    3  502    0 -0.13605750636E+04 -0.49822130066E+03  0.26088279660E+02  0.14491692987E+04  0.46999998093E+01 0. -1.
       -5    1    3    3    0  502  0.13605750636E+04  0.49822130066E+03 -0.11244496027E+04  0.18340659658E+04  0.46999998093E+01 0.  1.
</event>
<event>
 5   0  0.1840359E-07  0.3084920E+04  0.7818609E-02  0.8219889E-01
       -1   -1    0    0    0  501  0.00000000000E+00  0.00000000000E+00  0.32305261096E+04  0.32305261096E+04  0.50400001928E-02 0. -1.
        1   -1    0    0  501    0  0.00000000000E+00  0.00000000000E+00 -0.73646904900E+03  0.73646904902E+03  0.50400001928E-02 0.  1.
    10030    2    1    2    0    0  0.00000000000E+00  0.00000000000E+00  0.24940570606E+04  0.39669951586E+04  0.30849197667E+04 0.  0.
        1    1    3    3  502    0 -0.28393834608E+03 -0.74874234088E+02 -0.70019404857E+03  0.75927520767E+03  0.50400001928E-02 0.  1.
       -1    1    3    3    0  502  0.28393834608E+03  0.74874234088E+02  0.31942511091E+04  0.32077199509E+04  0.50400001928E-02 0. -1.
</event>
<event>
 5   0  0.5376678E-07  0.3110452E+04  0.7818609E-02  0.8212875E-01
        2   -1    0    0  501    0  0.00000000000E+00  0.00000000000E+00  0.22401406685E+04  0.22401406685E+04  0.25500000920E-02 0. -1.
       -2   -1    0    0    0  501  0.00000000000E+00  0.00000000000E+00 -0.10797213479E+04  0.10797213479E+04  0.25500000920E-02 0.  1.
    10030    2    1    2    0    0  0.00000000000E+00  0.00000000000E+00  0.11604193206E+04  0.33198620165E+04  0.31104518657E+04 0.  0.
        5    1    3    3  502    0  0.71105683017E+03 -0.78243523143E+03 -0.63714836336E+03  0.12344176093E+04  0.46999998093E+01 0.  1.
       -5    1    3    3    0  502 -0.71105683017E+03  0.78243523143E+03  0.17975676840E+04  0.20854444072E+04  0.46999998093E+01 0. -1.
</event>
<event>
 5   0  0.5342534E-07  0.3104300E+04  0.7818609E-02  0.8214559E-01
       -2   -1    0    0    0  501  0.00000000000E+00  0.00000000000E+00  0.10941989854E+04  0.10941989854E+04  0.25500000920E-02 0.  1.
        2   -1    0    0  501    0  0.00000000000E+00  0.00000000000E+00 -0.22017652557E+04  0.22017652557E+04  0.25500000920E-02 0. -1.
    10030    2    1    2    0    0  0.00000000000E+00  0.00000000000E+00 -0.11075662703E+04  0.32959642411E+04  0.31042997979E+04 0.  0.
        3    1    3    3  502    0 -0.18231503501E+03  0.12432167233E+04  0.41370917544E+03  0.13228688087E+04  0.10100000352E+00 0.  1.
       -3    1    3    3    0  502  0.18231503501E+03 -0.12432167233E+04 -0.15212754457E+04  0.19730954323E+04  0.10100000352E+00 0. -1.
</event>
<event>
 5   0  0.5248309E-07  0.3101510E+04  0.7818609E-02  0.8215324E-01
        2   -1    0    0  501    0  0.00000000000E+00  0.00000000000E+00  0.21633575191E+04  0.21633575191E+04  0.25500000920E-02 0.  1.
       -2   -1    0    0    0  501  0.00000000000E+00  0.00000000000E+00 -0.11116242560E+04  0.11116242560E+04  0.25500000920E-02 0. -1.
    10030    2    1    2    0    0  0.00000000000E+00  0.00000000000E+00  0.10517332631E+04  0.32749817752E+04  0.31015097567E+04 0.  0.
        4    1    3    3  502    0 -0.59564767468E+03  0.13555113393E+04  0.38955186299E+02  0.14811233111E+04  0.12699999809E+01 0. -1.
       -4    1    3    3    0  502  0.59564767468E+03 -0.13555113393E+04  0.10127780768E+04  0.17938584641E+04  0.12699999809E+01 0.  1.
</event>
<event>
 5   0  0.5342534E-07  0.3096515E+04  0.7818609E-02  0.8216695E-01
       -2   -1    0    0    0  501  0.00000000000E+00  0.00000000000E+00  0.19554514790E+04  0.19554514790E+04  0.25500000920E-02 0.  1.
        2   -1    0    0  501    0  0.00000000000E+00  0.00000000000E+00 -0.12258556433E+04  0.12258556434E+04  0.25500000920E-02 0. -1.
    10030    2    1    2    0    0  0.00000000000E+00  0.00000000000E+00  0.72959583564E+03  0.31813071223E+04  0.30965149642E+04 0.  0.
        3    1    3    3  502    0  0.97791301288E+03  0.10210586090E+04  0.10131301145E+04  0.17393410197E+04  0.10100000352E+00 0. -1.
       -3    1    3    3    0  502 -0.97791301288E+03 -0.10210586090E+04 -0.28353427887E+03  0.14419661026E+04  0.10100000352E+00 0.  1.
</event>
<event>
 5   0  0.1814075E-07  0.3103686E+04  0.7818609E-02  0.8214727E-01
        1   -1    0    0  501    0  0.00000000000E+00  0.00000000000E+00  0.16478108776E+04  0.16478108777E+04  0.50400001928E-02 0.  1.
       -1   -1    0    0    0  501  0.00000000000E+00  0.00000000000E+00 -0.14614641427E+04  0.14614641427E+04  0.50400001928E-02 0. -1.
    10030    2    1    2    0    0  0.00000000000E+00  0.00000000000E+00  0.18634673495E+03  0.31092750204E+04  0.31036858808E+04 0.  0.
        5    1    3    3  502    0  0.90054077536E+03  0.38331462478E+03 -0.11132754389E+04  0.14823319745E+04  0.46999998093E+01 0. -1.
       -5    1    3    3    0  502 -0.90054077536E+03 -0.38331462478E+03  0.12996221739E+04  0.16269430459E+04  0.46999998093E+01 0.  1.
</event>
<event>
 5   0  0.1875284E-07  0.3100289E+04  0.7818609E-02  0.8215659E-01
        1   -1    0    0  501    0  0.00000000000E+00  0.00000000000E+00  0.18600551220E+04  0.18600551220E+04  0.50400001928E-02 0.  1.
       -1   -1    0    0    0  501  0.00000000000E+00  0.00000000000E+00 -0.12918694212E+04  0.12918694212E+04  0.50400001928E-02 0. -1.
    10030    2    1    2    0    0  0.00000000000E+00  0.00000000000E+00  0.56818570082E+03  0.31519245432E+04  0.31002892341E+04 0.  0.
        4    1    3    3  502    0  0.29436810329E+03 -0.41283756451E+03 -0.12051798194E+04  0.13074966329E+04  0.12699999809E+01 0. -1.
       -4    1    3    3    0  502 -0.29436810329E+03  0.41283756451E+03  0.17733655203E+04  0.18444279103E+04  0.12699999809E+01 0.  1.
</event>
<event>
 5   0  0.1814075E-07  0.3093295E+04  0.7818609E-02  0.8217581E-01
        1   -1    0    0  501    0  0.00000000000E+00  0.00000000000E+00  0.24055831812E+04  0.24055831812E+04  0.50400001928E-02 0.  1.
       -1   -1    0    0    0  501  0.00000000000E+00  0.00000000000E+00 -0.99440247652E+03  0.99440247654E+03  0.50400001928E-02 0. -1.
    10030    2    1    2    0    0  0.00000000000E+00  0.00000000000E+00  0.14111807047E+04  0.33999856577E+04  0.30932946015E+04 0.  0.
        5    1    3    3  502    0  0.65351516643E+03 -0.13118631933E+04  0.12485608462E+04  0.19253553925E+04  0.46999998093E+01 0.  1.
       -5    1    3    3    0  502 -0.65351516643E+03  0.13118631933E+04  0.16261985849E+03  0.14746302652E+04  0.46999998093E+01 0. -1.
</event>
<event>
 5   0  0.1875284E-07  0.3095316E+04  0.7818609E-02  0.8217024E-01
        1   -1    0    0  501    0  0.00000000000E+00  0.00000000000E+00  0.13964019846E+04  0.13964019846E+04  0.50400001928E-02 0. -1.
       -1   -1    0    0    0  501  0.00000000000E+00  0.00000000000E+00 -0.17152983010E+04  0.17152983011E+04  0.50400001928E-02 0.  1.
    10030    2    1    2    0    0  0.00000000000E+00  0.00000000000E+00 -0.31889631644E+03  0.31117002857E+04  0.30953164309E+04 0.  0.
        4    1    3    3  502    0 -0.22615788751E+03 -0.13401492635E+04  0.58480618827E+03  0.14795767399E+04  0.12699999809E+01 0. -1.
       -4    1    3    3    0  502  0.22615788751E+03  0.13401492635E+04 -0.90370250471E+03  0.16321235457E+04  0.12699999809E+01 0.  1.
</event>
<event>
 5   0  0.5342534E-07  0.3091270E+04  0.7818609E-02  0.8218138E-01
       -2   -1    0    0    0  501  0.00000000000E+00  0.00000000000E+00  0.13149469857E+04  0.13149469857E+04  0.25500000920E-02 0.  1.
        2   -1    0    0  501    0  0.00000000000E+00  0.00000000000E+00 -0.18167936914E+04  0.18167936914E+04  0.25500000920E-02 0. -1.
    10030    2    1    2    0    0  0.00000000000E+00  0.00000000000E+00 -0.50184670562E+03  0.31317406771E+04  0.30912698932E+04 0.  0.
        3    1    3    3  502    0 -0.84904351331E+03 -0.12695775414E+04 -0.10571994458E+02  0.15273551645E+04  0.10100000352E+00 0.  1.
       -3    1    3    3    0  502  0.84904351331E+03  0.12695775414E+04 -0.49127471116E+03  0.16043855126E+04  0.10100000352E+00 0. -1.
</event>
<event>
 5   0  0.1830902E-07  0.3097317E+04  0.7818609E-02  0.8216475E-01
        1   -1    0    0  501    0  0.00000000000E+00  0.00000000000E+00  0.12425515355E+04  0.12425515355E+04  0.50400001928E-02 0. -1.
       -1   -1    0    0    0  501  0.00000000000E+00  0.00000000000E+00 -0.19301754583E+04  0.19301754583E+04  0.50400001928E-02 0.  1.
    10030    2    1    2    0    0  0.00000000000E+00  0.00000000000E+00 -0.68762392274E+03  0.31727269938E+04  0.30973165673E+04 0.  0.
        3    1    3    3  502    0  0.47284319589E+03 -0.66173334831E+03  0.10061789967E+04  0.12937804666E+04  0.10100000352E+00 0. -1.
       -3    1    3    3    0  502 -0.47284319589E+03  0.66173334831E+03 -0.16938029194E+04  0.18789465272E+04  0.10100000352E+00 0.  1.
</event>
<event>
 5   0  0.5376678E-07  0.3124134E+04  0.7818609E-02  0.8209146E-01
        2   -1    0    0  501    0  0.00000000000E+00  0.00000000000E+00  0.29858893794E+04  0.29858893794E+04  0.25500000920E-02 0. -1.
       -2   -1    0    0    0  501  0.00000000000E+00  0.00000000000E+00 -0.81719492450E+03  0.81719492450E+03  0.25500000920E-02 0.  1.
    10030    2    1    2    0    0  0.00000000000E+00  0.00000000000E+00  0.21686944549E+04  0.38030843039E+04  0.31241342135E+04 0.  0.
        5    1    3    3  502    0 -0.47286186253E+03 -0.42576654602E+03 -0.65227409366E+03  0.91124040516E+03  0.46999998093E+01 0.  1.
       -5    1    3    3    0  502  0.47286186253E+03  0.42576654602E+03  0.28209685486E+04  0.28918438988E+04  0.46999998093E+01 0. -1.
</event>
<event>
 5   0  0.5342534E-07  0.3100895E+04  0.7818609E-02  0.8215492E-01
       -2   -1    0    0    0  501  0.00000000000E+00  0.00000000000E+00  0.13409395455E+04  0.13409395455E+04  0.25500000920E-02 0. -1.
        2   -1    0    0  501    0  0.00000000000E+00  0.00000000000E+00 -0.17926888330E+04  0.17926888330E+04  0.25500000920E-02 0.  1.
    10030    2    1    2    0    0  0.00000000000E+00  0.00000000000E+00 -0.45174928748E+03  0.31336283786E+04  0.31008949347E+04 0.  0.
        3    1    3    3  502    0 -0.80044294487E+03 -0.12413112238E+03  0.11101133869E+04  0.13742158438E+04  0.10100000352E+00 0. -1.
       -3    1    3    3    0  502  0.80044294487E+03  0.12413112238E+03 -0.15618626744E+04  0.17594125347E+04  0.10100000352E+00 0.  1.
</event>
<event>
 5   0  0.1830902E-07  0.3096425E+04  0.7818609E-02  0.8216720E-01
        1   -1    0    0  501    0  0.00000000000E+00  0.00000000000E+00  0.10996368173E+04  0.10996368173E+04  0.50400001928E-02 0.  1.
       -1   -1    0    0    0  501  0.00000000000E+00  0.00000000000E+00 -0.21797752982E+04  0.21797752982E+04  0.50400001928E-02 0. -1.
    10030    2    1    2    0    0  0.00000000000E+00  0.00000000000E+00 -0.10801384810E+04  0.32794121155E+04  0.30964245002E+04 0.  0.
        3    1    3    3  502    0  0.32892158221E+03 -0.67244631094E+03 -0.19753647923E+04  0.21124487026E+04  0.10100000352E+00 0. -1.
       -3    1    3    3    0  502 -0.32892158221E+03  0.67244631094E+03  0.89522631134E+03  0.11669634129E+04  0.10100000352E+00 0.  1.
</event>
<event>
 5   0  0.5248309E-07  0.3099222E+04  0.7818609E-02  0.8215951E-01
       -2   -1    0    0    0  501  0.00000000000E+00  0.00000000000E+00  0.13415203538E+04  0.13415203538E+04  0.25500000920E-02 0.  1.
        2   -1    0    0  501    0  0.00000000000E+00  0.00000000000E+00 -0.17899801949E+04  0.17899801949E+04  0.25500000920E-02 0. -1.
    10030    2    1    2    0    0  0.00000000000E+00  0.00000000000E+00 -0.44845984114E+03  0.31315005487E+04  0.30992223956E+04 0.  0.
        4    1    3    3  502    0 -0.49113206347E+03  0.44849343417E+03  0.11899670251E+04  0.13632241921E+04  0.12699999809E+01 0.  1.
       -4    1    3    3    0  502  0.49113206347E+03 -0.44849343417E+03 -0.16384268662E+04  0.17682763566E+04  0.12699999809E+01 0. -1.
</event>
<event>
 5   0  0.5376678E-07  0.3111805E+04  0.7818609E-02  0.8212505E-01
       -2   -1    0    0    0  501  0.00000000000E+00  0.00000000000E+00  0.11188932579E+04  0.11188932579E+04  0.25500000920E-02 0. -1.
        2   -1    0    0  501    0  0.00000000000E+00  0.00000000000E+00 -0.21635962524E+04  0.21635962524E+04  0.25500000920E-02 0.  1.
    10030    2    1    2    0    0  0.00000000000E+00  0.00000000000E+00 -0.10447029945E+04  0.32824895103E+04  0.31118054307E+04 0.  0.
        5    1    3    3  502    0  0.13516167540E+04  0.28662927826E+03  0.23228104201E+03  0.14010712920E+04  0.46999998093E+01 0. -1.
       -5    1    3    3    0  502 -0.13516167540E+04 -0.28662927826E+03 -0.12769840365E+04  0.18814182183E+04  0.46999998093E+01 0.  1.
</event>
<event>
 5   0  0.1845123E-07  0.3098266E+04  0.7818609E-02  0.8216214E-01
       -1   -1    0    0    0  501  0.00000000000E+00  0.00000000000E+00  0.15447633620E+04  0.15447633620E+04  0.50400001928E-02 0.  1.
        1   -1    0    0  501    0  0.00000000000E+00  0.00000000000E+00 -0.15535147417E+04  0.15535147417E+04  0.50400001928E-02 0. -1.
    10030    2    1    2    0    0  0.00000000000E+00  0.00000000000E+00 -0.87513796967E+01  0.30982781037E+04  0.30982657442E+04 0.  0.
        2    1    3    3  502    0  0.69643109923E+03 -0.17043829627E+02  0.13792865384E+04  0.15452307670E+04  0.25500000920E-02 0.  1.
       -2    1    3    3    0  502 -0.69643109923E+03  0.17043829627E+02 -0.13880379181E+04  0.15530473368E+04  0.25500000920E-02 0. -1.
</event>
<event>
 5   0  0.1875284E-07  0.3153166E+04  0.7818609E-02  0.8201297E-01
        1   -1    0    0  501    0  0.00000000000E+00  0.00000000000E+00  0.21386159716E+04  0.21386159716E+04  0.50400001928E-02 0. -1.
       -1   -1    0    0    0  501  0.00000000000E+00  0.00000000000E+00 -0.11622536439E+04  0.11622536440E+04  0.50400001928E-02 0.  1.
    10030    2    1    2    0    0  0.00000000000E+00  0.00000000000E+00  0.97636232768E+03  0.33008696156E+04  0.31531661587E+04 0.  0.
        4    1    3    3  502    0  0.31016084614E+03 -0.61642213075E+03  0.19721291106E+04  0.20893709186E+04  0.12699999809E+01 0. -1.
       -4    1    3    3    0  502 -0.31016084614E+03  0.61642213075E+03 -0.99576678295E+03  0.12114986969E+04  0.12699999809E+01 0.  1.
</event>
<event>
 5   0  0.1830902E-07  0.3083685E+04  0.7818609E-02  0.8220230E-01
        1   -1    0    0  501    0  0.00000000000E+00  0.00000000000E+00  0.11233212145E+04  0.11233212145E+04  0.50400001928E-02 0.  1.
       -1   -1    0    0    0  501  0.00000000000E+00  0.00000000000E+00 -0.21162947934E+04  0.21162947934E+04  0.50400001928E-02 0. -1.
    10030    2    1    2    0    0  0.00000000000E+00  0.00000000000E+00 -0.99297357884E+03  0.32396160079E+04  0.30836853521E+04 0.  0.
        3    1    3    3  502    0  0.45487068333E+03  0.97487441145E+03  0.66389754721E+03  0.12641390035E+04  0.10100000352E+00 0.  1.
       -3    1    3    3    0  502 -0.45487068333E+03 -0.97487441145E+03 -0.16568711261E+04  0.19754770045E+04  0.10100000352E+00 0. -1.
</event>
<event>
 5   0  0.1814075E-07  0.3102707E+04  0.7818609E-02  0.8214995E-01
        1   -1    0    0  501    0  0.00000000000E+00  0.00000000000E+00  0.11609226820E+04  0.11609226821E+04  0.50400001928E-02 0. -1.
       -1   -1    0    0    0  501  0.00000000000E+00  0.00000000000E+00 -0.20730904474E+04  0.20730904474E+04  0.50400001928E-02 0.  1.
    10030    2    1    2    0    0  0.00000000000E+00  0.00000000000E+00 -0.91216776532E+03  0.32340131294E+04  0.31027070260E+04 0.  0.
        5    1    3    3  502    0 -0.12372563789E+04  0.89387522736E+03 -0.16711611682E+03  0.15355019231E+04  0.46999998093E+01 0. -1.
       -5    1    3    3    0  502  0.12372563789E+04 -0.89387522736E+03 -0.74505164850E+03  0.16985112064E+04  0.46999998093E+01 0.  1.
</event>
<event>
 5   0  0.5154105E-07  0.3097499E+04  0.7818609E-02  0.8216425E-01
        2   -1    0    0  501    0  0.00000000000E+00  0.00000000000E+00  0.26608031044E+04  0.26608031044E+04  0.25500000920E-02 0. -1.
       -2   -1    0    0    0  501  0.00000000000E+00  0.00000000000E+00 -0.90146678781E+03  0.90146678782E+03  0.25500000920E-02 0.  1.
    10030    2    1    2    0    0  0.00000000000E+00  0.00000000000E+00  0.17593363166E+04  0.35622698922E+04  0.30974993963E+04 0.  0.
        1    1    3    3  502    0 -0.30243784939E+03 -0.95708676262E+03  0.22361104007E+04  0.24510555783E+04  0.50400001928E-02 0. -1.
       -1    1    3    3    0  502  0.30243784939E+03  0.95708676262E+03 -0.47677408416E+03  0.11112143138E+04  0.50400001928E-02 0.  1.
</event>
<event>
 5   0  0.1840359E-07  0.3099657E+04  0.7818609E-02  0.8215832E-01
        1   -1    0    0  501    0  0.00000000000E+00  0.00000000000E+00  0.20729274553E+04  0.20729274553E+04  0.50400001928E-02 0. -1.
       -1   -1    0    0    0  501  0.00000000000E+00  0.00000000000E+00 -0.11587325329E+04  0.11587325329E+04  0.50400001928E-02 0.  1.
    10030    2    1    2    0    0  0.00000000000E+00  0.00000000000E+00  0.91419492239E+03  0.32316599881E+04  0.30996570654E+04 0.  0.
        1    1    3    3  502    0  0.57047942156E+03  0.66385363225E+03  0.17905568051E+04  0.19930484409E+04  0.50400001928E-02 0. -1.
       -1    1    3    3    0  502 -0.57047942156E+03 -0.66385363225E+03 -0.87636188270E+03  0.12386115472E+04  0.50400001928E-02 0.  1.
</event>
<event>
 5   0  0.5154105E-07  0.3104082E+04  0.7818609E-02  0.8214618E-01
       -2   -1    0    0    0  501  0.00000000000E+00  0.00000000000E+00  0.14903940792E+04  0.14903940792E+04  0.25500000920E-02 0. -1.
        2   -1    0    0  501    0  0.00000000000E+00  0.00000000000E+00 -0.16162383083E+04  0.16162383083E+04  0.25500000920E-02 0.  1.
    10030    2    1    2    0    0  0.00000000000E+00  0.00000000000E+00 -0.12584422906E+03  0.31066323875E+04  0.31040824765E+04 0.  0.
        1    1    3    3  502    0  0.38096223986E+03  0.14262705460E+04 -0.54232720178E+03  0.15727360530E+04  0.50400001928E-02 0.  1.
       -1    1    3    3    0  502 -0.38096223986E+03 -0.14262705460E+04  0.41648297272E+03  0.15338963345E+04  0.50400001928E-02 0. -1.
</event>
<event>
 5   0  0.1830902E-07  0.3107323E+04  0.7818609E-02  0.8213731E-01
        1   -1    0    0  501    0  0.00000000000E+00  0.00000000000E+00  0.98893655790E+03  0.98893655791E+03  0.50400001928E-02 0. -1.
       -1   -1    0    0    0  501  0.00000000000E+00  0.00000000000E+00 -0.24408687010E+04  0.24408687010E+04  0.50400001928E-02 0.  1.
    10030    2    1    2    0    0  0.00000000000E+00  0.00000000000E+00 -0.14519321431E+04  0.34298052589E+04  0.31073231512E+04 0.  0.
        3    1    3    3  502    0 -0.98881775744E+03  0.63997321600E+03  0.39236542845E+03  0.12414817414E+04  0.10100000352E+00 0. -1.
       -3    1    3    3    0  502  0.98881775744E+03 -0.63997321600E+03 -0.18442975715E+04  0.21883235175E+04  0.10100000352E+00 0.  1.
</event>
<event>
 5   0  0.1845123E-07  0.3136698E+04  0.7818609E-02  0.8205738E-01
        1   -1    0    0  501    0  0.00000000000E+00  0.00000000000E+00  0.23161611751E+04  0.23161611751E+04  0.50400001928E-02 0.  1.
       -1   -1    0    0    0  501  0.00000000000E+00  0.00000000000E+00 -0.10619806078E+04  0.10619806078E+04  0.50400001928E-02 0. -1.
    10030    2    1    2    0    0  0.00000000000E+00  0.00000000000E+00  0.12541805673E+04  0.33781417829E+04  0.31366977875E+04 0.  0.
        2    1    3    3  502    0  0.11816166222E+03 -0.14685355057E+04  0.12062174799E+04  0.19040796514E+04  0.25500000920E-02 0.  1.
       -2    1    3    3    0  502 -0.11816166222E+03  0.14685355057E+04  0.47963087431E+02  0.14740621316E+04  0.25500000920E-02 0. -1.
</event>
<event>
 5   0  0.1814075E-07  0.3019805E+04  0.7818609E-02  0.8238098E-01
       -1   -1    0    0    0  501  0.00000000000E+00  0.00000000000E+00  0.11592220796E+04  0.11592220796E+04  0.50400001928E-02 0.  1.
        1   -1    0    0  501    0  0.00000000000E+00  0.00000000000E+00 -0.19666682439E+04  0.19666682439E+04  0.50400001928E-02 0. -1.
    10030    2    1    2    0    0  0.00000000000E+00  0.00000000000E+00 -0.80744616434E+03  0.31258903235E+04  0.30198047960E+04 0.  0.
        5    1    3    3  502    0  0.58974693998E+03 -0.11948062177E+04 -0.11388984253E+04  0.17528477013E+04  0.46999998093E+01 0. -1.
       -5    1    3    3    0  502 -0.58974693998E+03  0.11948062177E+04  0.33145226091E+03  0.13730426222E+04  0.46999998093E+01 0.  1.
</event>
<event>
 5   0  0.5376678E-07  0.3103242E+04  0.7818609E-02  0.8214849E-01
       -2   -1    0    0    0  501  0.00000000000E+00  0.00000000000E+00  0.11133292019E+04  0.11133292019E+04  0.25500000920E-02 0.  1.
        2   -1    0    0  501    0  0.00000000000E+00  0.00000000000E+00 -0.21624582927E+04  0.21624582927E+04  0.25500000920E-02 0. -1.
    10030    2    1    2    0    0  0.00000000000E+00  0.00000000000E+00 -0.10491290908E+04  0.32757874945E+04  0.31032421530E+04 0.  0.
        5    1    3    3  502    0 -0.37018995908E+03 -0.86088702948E+03 -0.18299894897E+04  0.20559792572E+04  0.46999998093E+01 0. -1.
       -5    1    3    3    0  502  0.37018995908E+03  0.86088702948E+03  0.78086039896E+03  0.12198082374E+04  0.46999998093E+01 0.  1.
</event>
<event>
 5   0  0.5376678E-07  0.3106093E+04  0.7818609E-02  0.8214068E-01
        2   -1    0    0  501    0  0.00000000000E+00  0.00000000000E+00  0.15099622235E+04  0.15099622235E+04  0.25500000920E-02 0. -1.
       -2   -1    0    0    0  501  0.00000000000E+00  0.00000000000E+00 -0.15973602513E+04  0.15973602513E+04  0.25500000920E-02 0.  1.
    10030    2    1    2    0    0  0.00000000000E+00  0.00000000000E+00 -0.87398027775E+02  0.31073224749E+04  0.31060931325E+04 0.  0.
        5    1    3    3  502    0  0.14080903402E+04 -0.22621905578E+03  0.57139234649E+03  0.15363608857E+04  0.46999998093E+01 0. -1.
       -5    1    3    3    0  502 -0.14080903402E+04  0.22621905578E+03 -0.65879037426E+03  0.15709615892E+04  0.46999998093E+01 0.  1.
</event>
<event>
 5   0  0.5376678E-07  0.3109148E+04  0.7818609E-02  0.8213232E-01
       -2   -1    0    0    0  501  0.00000000000E+00  0.00000000000E+00  0.22694719697E+04  0.22694719697E+04  0.25500000920E-02 0. -1.
        2   -1    0    0  501    0  0.00000000000E+00  0.00000000000E+00 -0.10648733112E+04  0.10648733112E+04  0.25500000920E-02 0.  1.
    10030    2    1    2    0    0  0.00000000000E+00  0.00000000000E+00  0.12045986585E+04  0.33343452810E+04  0.31091478776E+04 0.  0.
        5    1    3    3  502    0  0.16559408043E+03 -0.73921256240E+03  0.20581298459E+04  0.21931204172E+04  0.46999998093E+01 0. -1.
       -5    1    3    3    0  502 -0.16559408043E+03  0.73921256240E+03 -0.85353118735E+03  0.11412248638E+04  0.46999998093E+01 0.  1.
</event>
<event>
 5   0  0.1875284E-07  0.3101928E+04  0.7818609E-02  0.8215209E-01
        1   -1    0    0  501    0  0.00000000000E+00  0.00000000000E+00  0.10726225312E+04  0.10726225312E+04  0.50400001928E-02 0.  1.
       -1   -1    0    0    0  501  0.00000000000E+00  0.00000000000E+00 -0.22426243700E+04  0.22426243700E+04  0.50400001928E-02 0. -1.
    10030    2    1    2    0    0  0.00000000000E+00  0.00000000000E+00 -0.11700018389E+04  0.33152469012E+04  0.31019280638E+04 0.  0.
        4    1    3    3  502    0  0.63359861412E+03 -0.24693640363E+03 -0.20747996487E+04  0.21833964337E+04  0.12699999809E+01 0. -1.
       -4    1    3    3    0  502 -0.63359861412E+03  0.24693640363E+03  0.90479780986E+03  0.11318504675E+04  0.12699999809E+01 0.  1.
</event>
<event>
 5   0  0.5055900E-07  0.3105284E+04  0.7818609E-02  0.8214289E-01
        2   -1    0    0  501    0  0.00000000000E+00  0.00000000000E+00  0.71591231418E+03  0.71591231418E+03  0.25500000920E-02 0. -1.
       -2   -1    0    0    0  501  0.00000000000E+00  0.00000000000E+00 -0.33673080359E+04  0.33673080359E+04  0.25500000920E-02 0.  1.
    10030    2    1    2    0    0  0.00000000000E+00  0.00000000000E+00 -0.26513957217E+04  0.40832203501E+04  0.31052840698E+04 0.  0.
        2    1    3    3  502    0  0.99370444335E+03 -0.11806577983E+04 -0.11006343265E+04  0.18954675619E+04  0.25500000920E-02 0. -1.
       -2    1    3    3    0  502 -0.99370444335E+03  0.11806577983E+04 -0.15507613952E+04  0.21877527882E+04  0.25500000920E-02 0.  1.
</event>
<event>
 5   0  0.5342534E-07  0.3123779E+04  0.7818609E-02  0.8209242E-01
        2   -1    0    0  501    0  0.00000000000E+00  0.00000000000E+00  0.19861140442E+04  0.19861140442E+04  0.25500000920E-02 0. -1.
       -2   -1    0    0    0  501  0.00000000000E+00  0.00000000000E+00 -0.12282773925E+04  0.12282773925E+04  0.25500000920E-02 0.  1.
    10030    2    1    2    0    0  0.00000000000E+00  0.00000000000E+00  0.75783665170E+03  0.32143914367E+04  0.31237791083E+04 0.  0.
        3    1    3    3  502    0 -0.50586893444E+03  0.51914289152E+02  0.18985431243E+04  0.19654680047E+04  0.10100000352E+00 0. -1.
       -3    1    3    3    0  502  0.50586893444E+03 -0.51914289152E+02 -0.11407064726E+04  0.12489234321E+04  0.10100000352E+00 0.  1.
</event>
<event>
 5   0  0.1840359E-07  0.3009584E+04  0.7818609E-02  0.8240999E-01
        1   -1    0    0  501    0  0.00000000000E+00  0.00000000000E+00  0.78989876239E+03  0.78989876241E+03  0.50400001928E-02 0. -1.
       -1   -1    0    0    0  501  0.00000000000E+00  0.00000000000E+00 -0.28666957503E+04  0.28666957503E+04  0.50400001928E-02 0.  1.
    10030    2    1    2    0    0  0.00000000000E+00  0.00000000000E+00 -0.20767969879E+04  0.36565945127E+04  0.30095843071E+04 0.  0.
        1    1    3    3  502    0  0.73127498486E+03  0.12644638699E+04 -0.14777580799E+04  0.20778356346E+04  0.50400001928E-02 0. -1.
       -1    1    3    3    0  502 -0.73127498486E+03 -0.12644638699E+04 -0.59903890803E+03  0.15787588781E+04  0.50400001928E-02 0.  1.
</event>
<event>
 5   0  0.5342534E-07  0.3090269E+04  0.7818609E-02  0.8218414E-01
        2   -1    0    0  501    0  0.00000000000E+00  0.00000000000E+00  0.29503813007E+04  0.29503813007E+04  0.25500000920E-02 0.  1.
       -2   -1    0    0    0  501  0.00000000000E+00  0.00000000000E+00 -0.80919733298E+03  0.80919733298E+03  0.25500000920E-02 0. -1.
    10030    2    1    2    0    0  0.00000000000E+00  0.00000000000E+00  0.21411839677E+04  0.37595786337E+04  0.30902690367E+04 0.  0.
        3    1    3    3  502    0 -0.66714149799E+03  0.16721808583E+03 -0.61269954904E+03  0.92110825323E+03  0.10100000352E+00 0. -1.
       -3    1    3    3    0  502  0.66714149799E+03 -0.16721808583E+03  0.27538835168E+04  0.28384703805E+04  0.10100000352E+00 0.  1.
</event>
<event>
 5   0  0.1875284E-07  0.3101299E+04  0.7818609E-02  0.8215382E-01
       -1   -1    0    0    0  501  0.00000000000E+00  0.00000000000E+00  0.86057194083E+03  0.86057194084E+03  0.50400001928E-02 0.  1.
        1   -1    0    0  501    0  0.00000000000E+00  0.00000000000E+00 -0.27940881282E+04  0.27940881282E+04  0.50400001928E-02 0. -1.
    10030    2    1    2    0    0  0.00000000000E+00  0.00000000000E+00 -0.19335161874E+04  0.36546600691E+04  0.31012989816E+04 0.  0.
        4    1    3    3  502    0  0.92816302615E+03  0.19008343405E+03  0.47982935038E+03  0.10620057125E+04  0.12699999809E+01 0. -1.
       -4    1    3    3    0  502 -0.92816302615E+03 -0.19008343405E+03 -0.24133455378E+04  0.25926543566E+04  0.12699999809E+01 0.  1.
</event>
<event>
 5   0  0.5376678E-07  0.3119800E+04  0.7818609E-02  0.8210325E-01
        2   -1    0    0  501    0  0.00000000000E+00  0.00000000000E+00  0.18995536255E+04  0.18995536255E+04  0.25500000920E-02 0.  1.
       -2   -1    0    0    0  501  0.00000000000E+00  0.00000000000E+00 -0.12809789057E+04  0.12809789057E+04  0.25500000920E-02 0. -1.
    10030    2    1    2    0    0  0.00000000000E+00  0.00000000000E+00  0.61857471980E+03  0.31805325312E+04  0.31198000734E+04 0.  0.
        5    1    3    3  502    0 -0.14716281939E+04 -0.44317250299E+03  0.58126654934E+03  0.16431628951E+04  0.46999998093E+01 0. -1.
       -5    1    3    3    0  502  0.14716281939E+04  0.44317250299E+03  0.37308170460E+02  0.15373696361E+04  0.46999998093E+01 0.  1.
</event>
<event>
 5   0  0.1830902E-07  0.3095759E+04  0.7818609E-02  0.8216903E-01
       -1   -1    0    0    0  501  0.00000000000E+00  0.00000000000E+00  0.19372986565E+04  0.19372986565E+04  0.50400001928E-02 0.  1.
        1   -1    0    0  501    0  0.00000000000E+00  0.00000000000E+00 -0.12367377126E+04  0.12367377126E+04  0.50400001928E-02 0. -1.
    10030    2    1    2    0    0  0.00000000000E+00  0.00000000000E+00  0.70056094390E+03  0.31740363690E+04  0.30957585881E+04 0.  0.
        3    1    3    3  502    0 -0.12336812646E+04  0.14644866756E+03 -0.59638268764E+03  0.13780743794E+04  0.10100000352E+00 0. -1.
       -3    1    3    3    0  502  0.12336812646E+04 -0.14644866756E+03  0.12969436315E+04  0.17959619897E+04  0.10100000352E+00 0.  1.
</event>
<event>
 5   0  0.5055900E-07  0.3099546E+04  0.7818609E-02  0.8215862E-01
       -2   -1    0    0    0  501  0.00000000000E+00  0.00000000000E+00  0.12140632653E+04  0.12140632653E+04  0.25500000920E-02 0. -1.
        2   -1    0    0  501    0  0.00000000000E+00  0.00000000000E+00 -0.19783128685E+04  0.19783128685E+04  0.25500000920E-02 0.  1.
    10030    2    1    2    0    0  0.00000000000E+00  0.00000000000E+00 -0.76424960320E+03  0.31923761337E+04  0.30995464060E+04 0.  0.
        2    1    3    3  502    0 -0.10354652535E+04 -0.36939913600E+03 -0.15071544696E+04  0.18655183216E+04  0.25500000920E-02 0.  1.
       -2    1    3    3    0  502  0.10354652535E+04  0.36939913600E+03  0.74290486644E+03  0.13268578121E+04  0.25500000920E-02 0. -1.
</event>
<event>
 5   0  0.1814075E-07  0.3100135E+04  0.7818609E-02  0.8215701E-01
       -1   -1    0    0    0  501  0.00000000000E+00  0.00000000000E+00  0.16374707117E+04  0.16374707118E+04  0.50400001928E-02 0.  1.
        1   -1    0    0  501    0  0.00000000000E+00  0.00000000000E+00 -0.14673296988E+04  0.14673296988E+04  0.50400001928E-02 0. -1.
    10030    2    1    2    0    0  0.00000000000E+00  0.00000000000E+00  0.17014101295E+03  0.31048004106E+04  0.31001350979E+04 0.  0.
        5    1    3    3  502    0 -0.68381844534E+02  0.92587687386E+03  0.13282133190E+04  0.16205236108E+04  0.46999998093E+01 0.  1.
       -5    1    3    3    0  502  0.68381844534E+02 -0.92587687386E+03 -0.11580723061E+04  0.14842767998E+04  0.46999998093E+01 0. -1.
</event>
<event>
 5   0  0.1845123E-07  0.3105910E+04  0.7818609E-02  0.8214118E-01
       -1   -1    0    0    0  501  0.00000000000E+00  0.00000000000E+00  0.14275520139E+04  0.14275520139E+04  0.50400001928E-02 0.  1.
        1   -1    0    0  501    0  0.00000000000E+00  0.00000000000E+00 -0.16893738310E+04  0.16893738310E+04  0.50400001928E-02 0. -1.
    10030    2    1    2    0    0  0.00000000000E+00  0.00000000000E+00 -0.26182181711E+03  0.31169258450E+04  0.31059098601E+04 0.  0.
        2    1    3    3  502    0  0.14293922429E+04 -0.23972188369E+03 -0.69059880901E+03  0.16054767144E+04  0.25500000920E-02 0. -1.
       -2    1    3    3    0  502 -0.14293922429E+04  0.23972188369E+03  0.42877699190E+03  0.15114491306E+04  0.25500000920E-02 0.  1.
</event>
<event>
 5   0  0.1814075E-07  0.3093901E+04  0.7818609E-02  0.8217414E-01
        1   -1    0    0  501    0  0.00000000000E+00  0.00000000000E+00  0.25257466165E+04  0.25257466166E+04  0.50400001928E-02 0.  1.
       -1   -1    0    0    0  501  0.00000000000E+00  0.00000000000E+00 -0.94746481419E+03  0.94746481420E+03  0.50400001928E-02 0. -1.
    10030    2    1    2    0    0  0.00000000000E+00  0.00000000000E+00  0.15782818024E+04  0.34732114308E+04  0.30939011288E+04 0.  0.
        5    1    3    3  502    0  0.10361667604E+04 -0.43007772706E+03  0.19848149155E+04  0.22799387592E+04  0.46999998093E+01 0.  1.
       -5    1    3    3    0  502 -0.10361667604E+04  0.43007772706E+03 -0.40653311313E+03  0.11932726716E+04  0.46999998093E+01 0. -1.
</event>
<event>
 5   0  0.5342534E-07  0.3104045E+04  0.7818609E-02  0.8214629E-01
        2   -1    0    0  501    0  0.00000000000E+00  0.00000000000E+00  0.16718389103E+04  0.16718389103E+04  0.25500000920E-02 0. -1.
       -2   -1    0    0    0  501  0.00000000000E+00  0.00000000000E+00 -0.14407926677E+04  0.14407926677E+04  0.25500000920E-02 0.  1.
    10030    2    1    2    0    0  0.00000000000E+00  0.00000000000E+00  0.23104624261E+03  0.31126315779E+04  0.31040446153E+04 0.  0.
        3    1    3    3  502    0  0.11606222757E+04  0.17590601079E+03  0.11336081965E+04  0.16318868051E+04  0.10100000352E+00 0. -1.
       -3    1    3    3    0  502 -0.11606222757E+04 -0.17590601079E+03 -0.90256195388E+03  0.14807447728E+04  0.10100000352E+00 0.  1.
</event>
<event>
 5   0  0.1814075E-07  0.3092214E+04  0.7818609E-02  0.8217878E-01
        1   -1    0    0  501    0  0.00000000000E+00  0.00000000000E+00  0.13621208217E+04  0.13621208217E+04  0.50400001928E-02 0.  1.
       -1   -1    0    0    0  501  0.00000000000E+00  0.00000000000E+00 -0.17549453098E+04  0.17549453098E+04  0.50400001928E-02 0. -1.
    10030    2    1    2    0    0  0.00000000000E+00  0.00000000000E+00 -0.39282448813E+03  0.31170661315E+04  0.30922144476E+04 0.  0.
        5    1    3    3  502    0 -0.14222413531E+04  0.11476566432E+03  0.40375823268E+03  0.14828973075E+04  0.46999998093E+01 0.  1.
       -5    1    3    3    0  502  0.14222413531E+04 -0.11476566432E+03 -0.79658272081E+03  0.16341688240E+04  0.46999998093E+01 0. -1.
</event>
<event>
 5   0  0.5154105E-07  0.3100636E+04  0.7818609E-02  0.8215563E-01
        2   -1    0    0  501    0  0.00000000000E+00  0.00000000000E+00  0.14982833125E+04  0.14982833125E+04  0.25500000920E-02 0.  1.
       -2   -1    0    0    0  501  0.00000000000E+00  0.00000000000E+00 -0.16041595411E+04  0.16041595411E+04  0.25500000920E-02 0. -1.
    10030    2    1    2    0    0  0.00000000000E+00  0.00000000000E+00 -0.10587622862E+03  0.31024428535E+04  0.31006357225E+04 0.  0.
        1    1    3    3  502    0 -0.57563303622E+03 -0.55839798753E+03  0.12746070973E+04  0.15059166502E+04  0.50400001928E-02 0.  1.
       -1    1    3    3    0  502  0.57563303622E+03  0.55839798753E+03 -0.13804833259E+04  0.15965262033E+04  0.50400001928E-02 0. -1.
</event>
<event>
 5   0  0.5376678E-07  0.3102941E+04  0.7818609E-02  0.8214931E-01
       -2   -1    0    0    0  501  0.00000000000E+00  0.00000000000E+00  0.11980793089E+04  0.11980793089E+04  0.25500000920E-02 0.  1.
        2   -1    0    0  501    0  0.00000000000E+00  0.00000000000E+00 -0.20090998880E+04  0.20090998880E+04  0.25500000920E-02 0. -1.
    10030    2    1    2    0    0  0.00000000000E+00  0.00000000000E+00 -0.81102057916E+03  0.32071791969E+04  0.31029411888E+04 0.  0.
        5    1    3    3  502    0 -0.42727555776E+03  0.37764894088E+03  0.10858239993E+04  0.12264660502E+04  0.46999998093E+01 0.  1.
       -5    1    3    3    0  502  0.42727555776E+03 -0.37764894088E+03 -0.18968445785E+04  0.19807131467E+04  0.46999998093E+01 0. -1.
</event>
<event>
 5   0  0.5376678E-07  0.3099407E+04  0.7818609E-02  0.8215901E-01
       -2   -1    0    0    0  501  0.00000000000E+00  0.00000000000E+00  0.12218239409E+04  0.12218239409E+04  0.25500000920E-02 0. -1.
        2   -1    0    0  501    0  0.00000000000E+00  0.00000000000E+00 -0.19655702375E+04  0.19655702375E+04  0.25500000920E-02 0.  1.
    10030    2    1    2    0    0  0.00000000000E+00  0.00000000000E+00 -0.74374629658E+03  0.31873941785E+04  0.30994068941E+04 0.  0.
        5    1    3    3  502    0 -0.72756124945E+03 -0.87637060508E+03 -0.14525072469E+04  0.18458521613E+04  0.46999998093E+01 0.  1.
       -5    1    3    3    0  502  0.72756124945E+03  0.87637060508E+03  0.70876095031E+03  0.13415420172E+04  0.46999998093E+01 0. -1.
</event>
<event>
 5   0  0.1814075E-07  0.3069740E+04  0.7818609E-02  0.8224092E-01
       -1   -1    0    0    0  501  0.00000000000E+00  0.00000000000E+00  0.16059775675E+04  0.16059775675E+04  0.50400001928E-02 0. -1.
        1   -1    0    0  501    0  0.00000000000E+00  0.00000000000E+00 -0.14669106412E+04  0.14669106413E+04  0.50400001928E-02 0.  1.
    10030    2    1    2    0    0  0.00000000000E+00  0.00000000000E+00  0.13906692627E+03  0.30728882088E+04  0.30697397827E+04 0.  0.
        5    1    3    3  502    0  0.36694161878E+03  0.14888355931E+04  0.21895166389E+01  0.15333963802E+04  0.46999998093E+01 0. -1.
       -5    1    3    3    0  502 -0.36694161878E+03 -0.14888355931E+04  0.13687740963E+03  0.15394918285E+04  0.46999998093E+01 0.  1.
</event>
<event>
 5   0  0.1814075E-07  0.3093213E+04  0.7818609E-02  0.8217603E-01
        1   -1    0    0  501    0  0.00000000000E+00  0.00000000000E+00  0.21596059015E+04  0.21596059015E+04  0.50400001928E-02 0. -1.
       -1   -1    0    0    0  501  0.00000000000E+00  0.00000000000E+00 -0.11076056095E+04  0.11076056095E+04  0.50400001928E-02 0.  1.
    10030    2    1    2    0    0  0.00000000000E+00  0.00000000000E+00  0.10520002921E+04  0.32672115110E+04  0.30932129644E+04 0.  0.
        5    1    3    3  502    0 -0.15054221921E+04  0.17251067950E+03  0.19887980775E+03  0.15282771931E+04  0.46999998093E+01 0. -1.
       -5    1    3    3    0  502  0.15054221921E+04 -0.17251067950E+03  0.85312048433E+03  0.17389343179E+04  0.46999998093E+01 0.  1.
</event>
<event>
 5   0  0.5376678E-07  0.3101008E+04  0.7818609E-02  0.8215461E-01
        2   -1    0    0  501    0  0.00000000000E+00  0.00000000000E+00  0.17711378209E+04  0.17711378209E+04  0.25500000920E-02 0.  1.
       -2   -1    0    0    0  501  0.00000000000E+00  0.00000000000E+00 -0.13573546983E+04  0.13573546983E+04  0.25500000920E-02 0. -1.
    10030    2    1    2    0    0  0.00000000000E+00  0.00000000000E+00  0.41378312254E+03  0.31284925192E+04  0.31010077346E+04 0.  0.
        5    1    3    3  502    0  0.13392715589E+01 -0.47748840742E+03 -0.12813246321E+04  0.13674106464E+04  0.46999998093E+01 0. -1.
       -5    1    3    3    0  502 -0.13392715589E+01  0.47748840742E+03  0.16951077547E+04  0.17610818728E+04  0.46999998093E+01 0.  1.
</event>
<event>
 5   0  0.1875284E-07  0.3111215E+04  0.7818609E-02  0.8212667E-01
        1   -1    0    0  501    0  0.00000000000E+00  0.00000000000E+00  0.19925675069E+04  0.19925675069E+04  0.50400001928E-02 0.  1.
       -1   -1    0    0    0  501  0.00000000000E+00  0.00000000000E+00 -0.12144703444E+04  0.12144703444E+04  0.50400001928E-02 0. -1.
    10030    2    1    2    0    0  0.00000000000E+00  0.00000000000E+00  0.77809716246E+03  0.32070378513E+04  0.31112146479E+04 0.  0.
        4    1    3    3  502    0 -0.26724648367E+03 -0.11507171120E+04  0.14323182864E+04  0.18566388559E+04  0.12699999809E+01 0.  1.
       -4    1    3    3    0  502  0.26724648367E+03  0.11507171120E+04 -0.65422112395E+03  0.13503989954E+04  0.12699999809E+01 0. -1.
</event>
<event>
 5   0  0.5154105E-07  0.3068591E+04  0.7818609E-02  0.8224411E-01
        2   -1    0    0  501    0  0.00000000000E+00  0.00000000000E+00  0.23522854849E+04  0.23522854849E+04  0.25500000920E-02 0.  1.
       -2   -1    0    0    0  501  0.00000000000E+00  0.00000000000E+00 -0.10007552342E+04  0.10007552342E+04  0.25500000920E-02 0. -1.
    10030    2    1    2    0    0  0.00000000000E+00  0.00000000000E+00  0.13515302507E+04  0.33530407191E+04  0.30685905633E+04 0.  0.
        1    1    3    3  502    0  0.49875820509E+03  0.13558003310E+04  0.11103220144E+03  0.14488900699E+04  0.50400001928E-02 0.  1.
       -1    1    3    3    0  502 -0.49875820509E+03 -0.13558003310E+04  0.12404980492E+04  0.19041506492E+04  0.50400001928E-02 0. -1.
</event>
<event>
 5   0  0.1814075E-07  0.3099823E+04  0.7818609E-02  0.8215787E-01
       -1   -1    0    0    0  501  0.00000000000E+00  0.00000000000E+00  0.17290918166E+04  0.17290918166E+04  0.50400001928E-02 0. -1.
        1   -1    0    0  501    0  0.00000000000E+00  0.00000000000E+00 -0.13892986912E+04  0.13892986913E+04  0.50400001928E-02 0.  1.
    10030    2    1    2    0    0  0.00000000000E+00  0.00000000000E+00  0.33979312538E+03  0.31183905079E+04  0.30998225742E+04 0.  0.
        5    1    3    3  502    0 -0.11009280854E+04 -0.44817369078E+03  0.11704903448E+04  0.16682242186E+04  0.46999998093E+01 0. -1.
       -5    1    3    3    0  502  0.11009280854E+04  0.44817369078E+03 -0.83069721941E+03  0.14501662893E+04  0.46999998093E+01 0.  1.
</event>
<event>
 5   0  0.1840359E-07  0.3101449E+04  0.7818609E-02  0.8215340E-01
        1   -1    0    0  501    0  0.00000000000E+00  0.00000000000E+00  0.25674737686E+04  0.25674737686E+04  0.50400001928E-02 0.  1.
       -1   -1    0    0    0  501  0.00000000000E+00  0.00000000000E+00 -0.93661971485E+03  0.93661971486E+03  0.50400001928E-02 0. -1.
    10030    2    1    2    0    0  0.00000000000E+00  0.00000000000E+00  0.16308540538E+04  0.35040934835E+04  0.31014490478E+04 0.  0.
        1    1    3    3  502    0 -0.38025517868E+03  0.36068815853E+02 -0.88264020778E+03  0.96174253146E+03  0.50400001928E-02 0. -1.
       -1    1    3    3    0  502  0.38025517868E+03 -0.36068815853E+02  0.25134942616E+04  0.25423509520E+04  0.50400001928E-02 0.  1.
</event>
<event>
 5   0  0.1840359E-07  0.3099662E+04  0.7818609E-02  0.8215831E-01
       -1   -1    0    0    0  501  0.00000000000E+00  0.00000000000E+00  0.16237858721E+04  0.16237858721E+04  0.50400001928E-02 0. -1.
        1   -1    0    0  501    0  0.00000000000E+00  0.00000000000E+00 -0.14792440887E+04  0.14792440887E+04  0.50400001928E-02 0.  1.
    10030    2    1    2    0    0  0.00000000000E+00  0.00000000000E+00  0.14454178346E+03  0.31030299608E+04  0.30996616929E+04 0.  0.
        1    1    3    3  502    0 -0.81344029802E+03  0.45096182910E+03  0.13133454241E+04  0.16093252911E+04  0.50400001928E-02 0. -1.
       -1    1    3    3    0  502  0.81344029802E+03 -0.45096182910E+03 -0.11688036406E+04  0.14937046696E+04  0.50400001928E-02 0.  1.
</event>
<event>
 5   0  0.1875284E-07  0.3093270E+04  0.7818609E-02  0.8217587E-01
        1   -1    0    0  501    0  0.00000000000E+00  0.00000000000E+00  0.13456147897E+04  0.13456147898E+04  0.50400001928E-02 0.  1.
       -1   -1    0    0    0  501  0.00000000000E+00  0.00000000000E+00 -0.17776858125E+04  0.17776858125E+04  0.50400001928E-02 0. -1.
    10030    2    1    2    0    0  0.00000000000E+00  0.00000000000E+00 -0.43207102272E+03  0.31233006022E+04  0.30932703217E+04 0.  0.
        4    1    3    3  502    0 -0.10925541307E+04  0.92015792146E+01  0.88926971942E+03  0.14087446342E+04  0.12699999809E+01 0.  1.
       -4    1    3    3    0  502  0.10925541307E+04 -0.92015792146E+01 -0.13213407421E+04  0.17145559680E+04  0.12699999809E+01 0. -1.
</event>
<event>
 5   0  0.5248309E-07  0.3101078E+04  0.7818609E-02  0.8215442E-01
        2   -1    0    0  501    0  0.00000000000E+00  0.00000000000E+00  0.20091808928E+04  0.20091808928E+04  0.25500000920E-02 0.  1.
       -2   -1    0    0    0  501  0.00000000000E+00  0.00000000000E+00 -0.11965924133E+04  0.11965924133E+04  0.25500000920E-02 0. -1.
    10030    2    1    2    0    0  0.00000000000E+00  0.00000000000E+00  0.81258847950E+03  0.32057733061E+04  0.31010776277E+04 0.  0.
        4    1    3    3  502    0  0.70026980889E+02 -0.83893528209E+03 -0.93976143807E+03  0.12616930526E+04  0.12699999809E+01 0. -1.
       -4    1    3    3    0  502 -0.70026980889E+02  0.83893528209E+03  0.17523499176E+04  0.19440802535E+04  0.12699999809E+01 0.  1.
</event>
<event>
 5   0  0.5154105E-07  0.3099644E+04  0.7818609E-02  0.8215836E-01
       -2   -1    0    0    0  501  0.00000000000E+00  0.00000000000E+00  0.14661414673E+04  0.14661414673E+04  0.25500000920E-02 0.  1.
        2   -1    0    0  501    0  0.00000000000E+00  0.00000000000E+00 -0.16382788421E+04  0.16382788421E+04  0.25500000920E-02 0. -1.
    10030    2    1    2    0    0  0.00000000000E+00  0.00000000000E+00 -0.17213737482E+03  0.31044203093E+04  0.30996442024E+04 0.  0.
        1    1    3    3  502    0 -0.15194315905E+04  0.23360970063E+03  0.11096445033E+03  0.15412848405E+04  0.50400001928E-02 0.  1.
       -1    1    3    3    0  502  0.15194315905E+04 -0.23360970063E+03 -0.28310182514E+03  0.15631354688E+04  0.50400001928E-02 0. -1.
</event>
<event>
 5   0  0.1875284E-07  0.3096360E+04  0.7818609E-02  0.8216738E-01
        1   -1    0    0  501    0  0.00000000000E+00  0.00000000000E+00  0.19885107629E+04  0.19885107629E+04  0.50400001928E-02 0. -1.
       -1   -1    0    0    0  501  0.00000000000E+00  0.00000000000E+00 -0.12053549774E+04  0.12053549774E+04  0.50400001928E-02 0.  1.
    10030    2    1    2    0    0  0.00000000000E+00  0.00000000000E+00  0.78315578555E+03  0.31938657403E+04  0.30963600215E+04 0.  0.
        4    1    3    3  502    0 -0.21000168771E+03  0.13442912585E+04 -0.37035780090E+03  0.14101014892E+04  0.12699999809E+01 0.  1.
       -4    1    3    3    0  502  0.21000168771E+03 -0.13442912585E+04  0.11535135864E+04  0.17837642511E+04  0.12699999809E+01 0. -1.
</event>
<event>
 5   0  0.5376678E-07  0.3101817E+04  0.7818609E-02  0.8215240E-01
        2   -1    0    0  501    0  0.00000000000E+00  0.00000000000E+00  0.17376689507E+04  0.17376689507E+04  0.25500000920E-02 0. -1.
       -2   -1    0    0    0  501  0.00000000000E+00  0.00000000000E+00 -0.13842201967E+04  0.13842201967E+04  0.25500000920E-02 0.  1.
    10030    2    1    2    0    0  0.00000000000E+00  0.00000000000E+00  0.35344875394E+03  0.31218891474E+04  0.31018165366E+04 0.  0.
        5    1    3    3  502    0 -0.12851554588E+01 -0.40298443663E+03  0.16840461214E+04  0.17315979721E+04  0.46999998093E+01 0. -1.
       -5    1    3    3    0  502  0.12851554588E+01  0.40298443663E+03 -0.13305973675E+04  0.13902911753E+04  0.46999998093E+01 0.  1.
</event>
<event>
 5   0  0.5342534E-07  0.3101849E+04  0.7818609E-02  0.8215231E-01
       -2   -1    0    0    0  501  0.00000000000E+00  0.00000000000E+00  0.11325833144E+04  0.11325833144E+04  0.25500000920E-02 0.  1.
        2   -1    0    0  501    0  0.00000000000E+00  0.00000000000E+00 -0.21237883018E+04  0.21237883018E+04  0.25500000920E-02 0. -1.
    10030    2    1    2    0    0  0.00000000000E+00  0.00000000000E+00 -0.99120498741E+03  0.32563716163E+04  0.31018492510E+04 0.  0.
        3    1    3    3  502    0 -0.12467686632E+04 -0.71555394485E+03 -0.11067701427E+04  0.18142187593E+04  0.10100000352E+00 0. -1.
       -3    1    3    3    0  502  0.12467686632E+04  0.71555394485E+03  0.11556515528E+03  0.14421528570E+04  0.10100000352E+00 0.  1.
</event>
<event>
 5   0  0.5248309E-07  0.3098013E+04  0.7818609E-02  0.8216283E-01
       -2   -1    0    0    0  501  0.00000000000E+00  0.00000000000E+00  0.14811211277E+04  0.14811211277E+04  0.25500000920E-02 0. -1.
        2   -1    0    0  501    0  0.00000000000E+00  0.00000000000E+00 -0.16200032964E+04  0.16200032964E+04  0.25500000920E-02 0.  1.
    10030    2    1    2    0    0  0.00000000000E+00  0.00000000000E+00 -0.13888216878E+03  0.31011244241E+04  0.30980129821E+04 0.  0.
        4    1    3    3  502    0 -0.34789653017E+03  0.12134231662E+04  0.82923099391E+03  0.15103156724E+04  0.12699999809E+01 0. -1.
       -4    1    3    3    0  502  0.34789653017E+03 -0.12134231662E+04 -0.96811316268E+03  0.15908087518E+04  0.12699999809E+01 0.  1.
</event>
<event>
 5   0  0.5055900E-07  0.3111727E+04  0.7818609E-02  0.8212527E-01
       -2   -1    0    0    0  501  0.00000000000E+00  0.00000000000E+00  0.16136573161E+04  0.16136573161E+04  0.25500000920E-02 0.  1.
        2   -1    0    0  501    0  0.00000000000E+00  0.00000000000E+00 -0.15001395946E+04  0.15001395946E+04  0.25500000920E-02 0. -1.
    10030    2    1    2    0    0  0.00000000000E+00  0.00000000000E+00  0.11351772148E+03  0.31137969107E+04  0.31117270008E+04 0.  0.
        2    1    3    3  502    0  0.14590701773E+04  0.41913230351E+03  0.39779865745E+03  0.15693315272E+04  0.25500000920E-02 0.  1.
       -2    1    3    3    0  502 -0.14590701773E+04 -0.41913230351E+03 -0.28428093596E+03  0.15444653835E+04  0.25500000920E-02 0. -1.
</event>
<event>
 5   0  0.5055900E-07  0.3095824E+04  0.7818609E-02  0.8216885E-01
       -2   -1    0    0    0  501  0.00000000000E+00  0.00000000000E+00  0.11308410666E+04  0.11308410666E+04  0.25500000920E-02 0.  1.
        2   -1    0    0  501    0  0.00000000000E+00  0.00000000000E+00 -0.21188042116E+04  0.21188042116E+04  0.25500000920E-02 0. -1.
    10030    2    1    2    0    0  0.00000000000E+00  0.00000000000E+00 -0.98796314497E+03  0.32496452783E+04  0.30958235187E+04 0.  0.
        2    1    3    3  502    0 -0.12100761275E+04  0.80297563267E+03  0.68337858650E+02  0.14538652496E+04  0.25500000920E-02 0.  1.
       -2    1    3    3    0  502  0.12100761275E+04 -0.80297563267E+03 -0.10563010036E+04  0.17957800287E+04  0.25500000920E-02 0. -1.
</event>
<event>
 5   0  0.5055900E-07  0.3099659E+04  0.7818609E-02  0.8215832E-01
       -2   -1    0    0    0  501  0.00000000000E+00  0.00000000000E+00  0.15756459394E+04  0.15756459394E+04  0.25500000920E-02 0.  1.
        2   -1    0    0  501    0  0.00000000000E+00  0.00000000000E+00 -0.15244358686E+04  0.15244358686E+04  0.25500000920E-02 0. -1.
    10030    2    1    2    0    0  0.00000000000E+00  0.00000000000E+00  0.51210070812E+02  0.31000818081E+04  0.30996588111E+04 0.  0.
        2    1    3    3  502    0 -0.76996669113E+03  0.31275544726E+02 -0.13192510365E+04  0.15278253049E+04  0.25500000920E-02 0. -1.
       -2    1    3    3    0  502  0.76996669113E+03 -0.31275544726E+02  0.13704611073E+04  0.15722565032E+04  0.25500000920E-02 0.  1.
</event>
<event>
 5   0  0.5342534E-07  0.3097529E+04  0.7818609E-02  0.8216416E-01
        2   -1    0    0  501    0  0.00000000000E+00  0.00000000000E+00  0.20607409194E+04  0.20607409195E+04  0.25500000920E-02 0. -1.
       -2   -1    0    0    0  501  0.00000000000E+00  0.00000000000E+00 -0.11639847569E+04  0.11639847569E+04  0.25500000920E-02 0.  1.
    10030    2    1    2    0    0  0.00000000000E+00  0.00000000000E+00  0.89675616253E+03  0.32247256764E+04  0.30975287041E+04 0.  0.
        3    1    3    3  502    0 -0.68725775726E+02  0.14999881909E+04  0.84341105771E+03  0.17222166030E+04  0.10100000352E+00 0. -1.
       -3    1    3    3    0  502  0.68725775726E+02 -0.14999881909E+04  0.53345104817E+02  0.15025090734E+04  0.10100000352E+00 0.  1.
</event>
<event>
 5   0  0.5248309E-07  0.3099733E+04  0.7818609E-02  0.8215811E-01
       -2   -1    0    0    0  501  0.00000000000E+00  0.00000000000E+00  0.15313702105E+04  0.15313702105E+04  0.25500000920E-02 0.  1.
        2   -1    0    0  501    0  0.00000000000E+00  0.00000000000E+00 -0.15685859359E+04  0.15685859359E+04  0.25500000920E-02 0. -1.
    10030    2    1    2    0    0  0.00000000000E+00  0.00000000000E+00 -0.37215725360E+02  0.30999561464E+04  0.30997327464E+04 0.  0.
        4    1    3    3  502    0 -0.85128510722E+03  0.48834081886E+03  0.11810289525E+04  0.15355761423E+04  0.12699999809E+01 0.  1.
       -4    1    3    3    0  502  0.85128510722E+03 -0.48834081886E+03 -0.12182446779E+04  0.15643800041E+04  0.12699999809E+01 0. -1.
</event>
<event>
 5   0  0.5154105E-07  0.3093480E+04  0.7818609E-02  0.8217530E-01
        2   -1    0    0  501    0  0.00000000000E+00  0.00000000000E+00  0.13103929836E+04  0.13103929836E+04  0.25500000920E-02 0.  1.
       -2   -1    0    0    0  501  0.00000000000E+00  0.00000000000E+00 -0.18257152493E+04  0.18257152493E+04  0.25500000920E-02 0. -1.
    10030    2    1    2    0    0  0.00000000000E+00  0.00000000000E+00 -0.51532226567E+03  0.31361082330E+04  0.30934798870E+04 0.  0.
        1    1    3    3  502    0 -0.24039052288E+03 -0.65244873768E+03  0.11430173672E+04  0.13378959827E+04  0.50400001928E-02 0.  1.
       -1    1    3    3    0  502  0.24039052288E+03  0.65244873768E+03 -0.16583396329E+04  0.17982122502E+04  0.50400001928E-02 0. -1.
</event>
<event>
 5   0  0.1840359E-07  0.3106149E+04  0.7818609E-02  0.8214052E-01
        1   -1    0    0  501    0  0.00000000000E+00  0.00000000000E+00  0.21477403255E+04  0.21477403255E+04  0.50400001928E-02 0. -1.
       -1   -1    0    0    0  501  0.00000000000E+00  0.00000000000E+00 -0.11230597886E+04  0.11230597886E+04  0.50400001928E-02 0.  1.
    10030    2    1    2    0    0  0.00000000000E+00  0.00000000000E+00  0.10246805370E+04  0.32708001142E+04  0.31061492533E+04 0.  0.
        1    1    3    3  502    0 -0.11647869773E+04 -0.94505889695E+03  0.93639769638E+03  0.17682493226E+04  0.50400001928E-02 0.  1.
       -1    1    3    3    0  502  0.11647869773E+04  0.94505889695E+03  0.88282840571E+02  0.15025507915E+04  0.50400001928E-02 0. -1.
</event>
<event>
 5   0  0.1830902E-07  0.3068923E+04  0.7818609E-02  0.8224319E-01
       -1   -1    0    0    0  501  0.00000000000E+00  0.00000000000E+00  0.12396218688E+04  0.12396218688E+04  0.50400001928E-02 0.  1.
        1   -1    0    0  501    0  0.00000000000E+00  0.00000000000E+00 -0.18994274645E+04  0.18994274645E+04  0.50400001928E-02 0. -1.
    10030    2    1    2    0    0  0.00000000000E+00  0.00000000000E+00 -0.65980559566E+03  0.31390493333E+04  0.30689228229E+04 0.  0.
        3    1    3    3  502    0  0.22563134833E+03  0.92856908980E+03  0.89812362138E+03  0.13114023446E+04  0.10100000352E+00 0.  1.
       -3    1    3    3    0  502 -0.22563134833E+03 -0.92856908980E+03 -0.15579292170E+04  0.18276469887E+04  0.10100000352E+00 0. -1.
</event>
<event>
 5   0  0.1840359E-07  0.3097307E+04  0.7818609E-02  0.8216477E-01
       -1   -1    0    0    0  501  0.00000000000E+00  0.00000000000E+00  0.12609463339E+04  0.12609463339E+04  0.50400001928E-02 0.  1.
        1   -1    0    0  501    0  0.00000000000E+00  0.00000000000E+00 -0.19020062362E+04  0.19020062362E+04  0.50400001928E-02 0. -1.
    10030    2    1    2    0    0  0.00000000000E+00  0.00000000000E+00 -0.64105990230E+03  0.31629525701E+04  0.30973070823E+04 0.  0.
        1    1    3    3  502    0  0.13654351232E+04 -0.37156766437E+03 -0.96303262220E+03  0.17116972385E+04  0.50400001928E-02 0.  1.
       -1    1    3    3    0  502 -0.13654351232E+04  0.37156766437E+03  0.32197271990E+03  0.14512553315E+04  0.50400001928E-02 0. -1.
</event>
<event>
 5   0  0.5248309E-07  0.3099879E+04  0.7818609E-02  0.8215771E-01
       -2   -1    0    0    0  501  0.00000000000E+00  0.00000000000E+00  0.18494541330E+04  0.18494541330E+04  0.25500000920E-02 0.  1.
        2   -1    0    0  501    0  0.00000000000E+00  0.00000000000E+00 -0.12989306480E+04  0.12989306480E+04  0.25500000920E-02 0. -1.
    10030    2    1    2    0    0  0.00000000000E+00  0.00000000000E+00  0.55052348501E+03  0.31483847810E+04  0.30998791302E+04 0.  0.
        4    1    3    3  502    0 -0.11914872311E+04  0.69796726467E+03 -0.43967836000E+03  0.14491786631E+04  0.12699999809E+01 0.  1.
       -4    1    3    3    0  502  0.11914872311E+04 -0.69796726467E+03  0.99020184502E+03  0.16992061179E+04  0.12699999809E+01 0. -1.
</event>
<event>
 5   0  0.5055900E-07  0.3098680E+04  0.7818609E-02  0.8216100E-01
        2   -1    0    0  501    0  0.00000000000E+00  0.00000000000E+00  0.12597008839E+04  0.12597008839E+04  0.25500000920E-02 0. -1.
       -2   -1    0    0    0  501  0.00000000000E+00  0.00000000000E+00 -0.19055748263E+04  0.19055748263E+04  0.25500000920E-02 0.  1.
    10030    2    1    2    0    0  0.00000000000E+00  0.00000000000E+00 -0.64587394239E+03  0.31652757103E+04  0.30986799080E+04 0.  0.
        2    1    3    3  502    0  0.15466768201E+04 -0.90691917179E+02 -0.32751475214E+03  0.15835719505E+04  0.25500000920E-02 0.  1.
       -2    1    3    3    0  502 -0.15466768201E+04  0.90691917179E+02 -0.31835919025E+03  0.15817037597E+04  0.25500000920E-02 0. -1.
</event>
<event>
 5   0  0.5055900E-07  0.3098828E+04  0.7818609E-02  0.8216060E-01
       -2   -1    0    0    0  501  0.00000000000E+00  0.00000000000E+00  0.11142806025E+04  0.11142806025E+04  0.25500000920E-02 0. -1.
        2   -1    0    0  501    0  0.00000000000E+00  0.00000000000E+00 -0.21544701022E+04  0.21544701022E+04  0.25500000920E-02 0.  1.
    10030    2    1    2    0    0  0.00000000000E+00  0.00000000000E+00 -0.10401894997E+04  0.32687507047E+04  0.30988283228E+04 0.  0.
        2    1    3    3  502    0 -0.97494674158E+03 -0.12041021465E+04 -0.50179054770E+03  0.16285505463E+04  0.25500000920E-02 0.  1.
       -2    1    3    3    0  502  0.97494674158E+03  0.12041021465E+04 -0.53839895204E+03  0.16402001584E+04  0.25500000920E-02 0. -1.
</event>
<event>
 5   0  0.5154105E-07  0.3093076E+04  0.7818609E-02  0.8217641E-01
        2   -1    0    0  501    0  0.00000000000E+00  0.00000000000E+00  0.26583914754E+04  0.26583914754E+04  0.25500000920E-02 0. -1.
       -2   -1    0    0    0  501  0.00000000000E+00  0.00000000000E+00 -0.89970929056E+03  0.89970929056E+03  0.25500000920E-02 0.  1.
    10030    2    1    2    0    0  0.00000000000E+00  0.00000000000E+00  0.17586821848E+04  0.35581007660E+04  0.30930758208E+04 0.  0.
        1    1    3    3  502    0  0.12740913710E+04  0.26828389795E+03  0.18393748472E+04  0.22535715875E+04  0.50400001928E-02 0. -1.
       -1    1    3    3    0  502 -0.12740913710E+04 -0.26828389795E+03 -0.80692662392E+02  0.13045291784E+04  0.50400001928E-02 0.  1.
</event>
<event>
 5   0  0.5376678E-07  0.3089390E+04  0.7818609E-02  0.8218656E-01
        2   -1    0    0  501    0  0.00000000000E+00  0.00000000000E+00  0.12445947352E+04  0.12445947352E+04  0.25500000920E-02 0. -1.
       -2   -1    0    0    0  501  0.00000000000E+00  0.00000000000E+00 -0.19171567372E+04  0.19171567372E+04  0.25500000920E-02 0.  1.
    10030    2    1    2    0    0  0.00000000000E+00  0.00000000000E+00 -0.67256200195E+03  0.31617514724E+04  0.30893903487E+04 0.  0.
        5    1    3    3  502    0 -0.34614434779E+03 -0.13478652301E+04  0.34987358087E+03  0.14349181860E+04  0.46999998093E+01 0. -1.
       -5    1    3    3    0  502  0.34614434779E+03  0.13478652301E+04 -0.10224355828E+04  0.17268332864E+04  0.46999998093E+01 0.  1.
</event>
<event>
 5   0  0.1845123E-07  0.3102838E+04  0.7818609E-02  0.8214960E-01
       -1   -1    0    0    0  501  0.00000000000E+00  0.00000000000E+00  0.11510078294E+04  0.11510078294E+04  0.50400001928E-02 0.  1.
        1   -1    0    0  501    0  0.00000000000E+00  0.00000000000E+00 -0.20911241375E+04  0.20911241375E+04  0.50400001928E-02 0. -1.
    10030    2    1    2    0    0  0.00000000000E+00  0.00000000000E+00 -0.94011630808E+03  0.32421319669E+04  0.31028375751E+04 0.  0.
        2    1    3    3  502    0 -0.48116394855E+03 -0.73284740381E+03  0.86737014381E+03  0.12332538380E+04  0.25500000920E-02 0.  1.
       -2    1    3    3    0  502  0.48116394855E+03  0.73284740381E+03 -0.18074864519E+04  0.20088781288E+04  0.25500000920E-02 0. -1.
</event>
<event>
 5   0  0.1830902E-07  0.3100327E+04  0.7818609E-02  0.8215648E-01
        1   -1    0    0  501    0  0.00000000000E+00  0.00000000000E+00  0.12970506583E+04  0.12970506584E+04  0.50400001928E-02 0. -1.
       -1   -1    0    0    0  501  0.00000000000E+00  0.00000000000E+00 -0.18526695125E+04  0.18526695125E+04  0.50400001928E-02 0.  1.
    10030    2    1    2    0    0  0.00000000000E+00  0.00000000000E+00 -0.55561885416E+03  0.31497201709E+04  0.31003265705E+04 0.  0.
        3    1    3    3  502    0 -0.10153613207E+04 -0.11309874778E+04 -0.58748521009E+03  0.16294877013E+04  0.10100000352E+00 0. -1.
       -3    1    3    3    0  502  0.10153613207E+04  0.11309874778E+04  0.31866355926E+02  0.15202324695E+04  0.10100000352E+00 0.  1.
</event>
<event>
 5   0  0.1840359E-07  0.3104258E+04  0.7818609E-02  0.8214570E-01
        1   -1    0    0  501    0  0.00000000000E+00  0.00000000000E+00  0.98162831666E+03  0.98162831667E+03  0.50400001928E-02 0.  1.
       -1   -1    0    0    0  501  0.00000000000E+00  0.00000000000E+00 -0.24541920450E+04  0.24541920450E+04  0.50400001928E-02 0. -1.
    10030    2    1    2    0    0  0.00000000000E+00  0.00000000000E+00 -0.14725637283E+04  0.34358203617E+04  0.31042579828E+04 0.  0.
        1    1    3    3  502    0 -0.92163969706E+03  0.11768885429E+04 -0.27377605986E+03  0.15196840806E+04  0.50400001928E-02 0. -1.
       -1    1    3    3    0  502  0.92163969706E+03 -0.11768885429E+04 -0.11987876685E+04  0.19161362811E+04  0.50400001928E-02 0.  1.
</event>
<event>
 5   0  0.1845123E-07  0.3120276E+04  0.7818609E-02  0.8210195E-01
       -1   -1    0    0    0  501  0.00000000000E+00  0.00000000000E+00  0.17337247402E+04  0.17337247402E+04  0.50400001928E-02 0.  1.
        1   -1    0    0  501    0  0.00000000000E+00  0.00000000000E+00 -0.14039309444E+04  0.14039309444E+04  0.50400001928E-02 0. -1.
    10030    2    1    2    0    0  0.00000000000E+00  0.00000000000E+00  0.32979379584E+03  0.31376556846E+04  0.31202755082E+04 0.  0.
        2    1    3    3  502    0 -0.59920894854E+03  0.74692830818E+02  0.16114504102E+04  0.17208726878E+04  0.25500000920E-02 0.  1.
       -2    1    3    3    0  502  0.59920894854E+03 -0.74692830818E+02 -0.12816566144E+04  0.14167829968E+04  0.25500000920E-02 0. -1.
</event>
<event>
 5   0  0.5342534E-07  0.3095466E+04  0.7818609E-02  0.8216983E-01
        2   -1    0    0  501    0  0.00000000000E+00  0.00000000000E+00  0.99949125823E+03  0.99949125824E+03  0.25500000920E-02 0.  1.
       -2   -1    0    0    0  501  0.00000000000E+00  0.00000000000E+00 -0.23966965059E+04  0.23966965060E+04  0.25500000920E-02 0. -1.
    10030    2    1    2    0    0  0.00000000000E+00  0.00000000000E+00 -0.13972052477E+04  0.33961877642E+04  0.30954658495E+04 0.  0.
        3    1    3    3  502    0 -0.40129420261E+03  0.12976877838E+04 -0.15126004832E+04  0.20329758615E+04  0.10100000352E+00 0. -1.
       -3    1    3    3    0  502  0.40129420261E+03 -0.12976877838E+04  0.11539523553E+03  0.13632119027E+04  0.10100000352E+00 0.  1.
</event>
<event>
 5   0  0.1845123E-07  0.3099319E+04  0.7818609E-02  0.8215925E-01
        1   -1    0    0  501    0  0.00000000000E+00  0.00000000000E+00  0.14390840181E+04  0.14390840181E+04  0.50400001928E-02 0.  1.
       -1   -1    0    0    0  501  0.00000000000E+00  0.00000000000E+00 -0.16687309959E+04  0.16687309959E+04  0.50400001928E-02 0. -1.
    10030    2    1    2    0    0  0.00000000000E+00  0.00000000000E+00 -0.22964697785E+03  0.31078150140E+04  0.30993187037E+04 0.  0.
        2    1    3    3  502    0 -0.57081172381E+03 -0.37748021748E+03 -0.15090042666E+04  0.16569282469E+04  0.25500000920E-02 0. -1.
       -2    1    3    3    0  502  0.57081172381E+03  0.37748021748E+03  0.12793572888E+04  0.14508867671E+04  0.25500000920E-02 0.  1.
</event>
<event>
 5   0  0.5376678E-07  0.3133420E+04  0.7818609E-02  0.8206625E-01
        2   -1    0    0  501    0  0.00000000000E+00  0.00000000000E+00  0.75641578094E+03  0.75641578095E+03  0.25500000920E-02 0. -1.
       -2   -1    0    0    0  501  0.00000000000E+00  0.00000000000E+00 -0.32450146174E+04  0.32450146174E+04  0.25500000920E-02 0.  1.
    10030    2    1    2    0    0  0.00000000000E+00  0.00000000000E+00 -0.24885988365E+04  0.40014303984E+04  0.31334200268E+04 0.  0.
        5    1    3    3  502    0 -0.62730563660E+03  0.74673021844E+03 -0.28101116202E+04  0.29745365670E+04  0.46999998093E+01 0.  1.
       -5    1    3    3    0  502  0.62730563660E+03 -0.74673021844E+03  0.32151278366E+03  0.10268938314E+04  0.46999998093E+01 0. -1.
</event>
<event>
 5   0  0.5248309E-07  0.3098695E+04  0.7818609E-02  0.8216096E-01
        2   -1    0    0  501    0  0.00000000000E+00  0.00000000000E+00  0.19453023091E+04  0.19453023091E+04  0.25500000920E-02 0. -1.
       -2   -1    0    0    0  501  0.00000000000E+00  0.00000000000E+00 -0.12339866840E+04  0.12339866840E+04  0.25500000920E-02 0.  1.
    10030    2    1    2    0    0  0.00000000000E+00  0.00000000000E+00  0.71131562511E+03  0.31792889931E+04  0.30986946579E+04 0.  0.
        4    1    3    3  502    0  0.49274847371E+01  0.87587306280E+03  0.16669029451E+04  0.18830148549E+04  0.12699999809E+01 0. -1.
       -4    1    3    3    0  502 -0.49274847371E+01 -0.87587306280E+03 -0.95558732003E+03  0.12962741382E+04  0.12699999809E+01 0.  1.
</event>
<event>
 5   0  0.1814075E-07  0.3101753E+04  0.7818609E-02  0.8215257E-01
        1   -1    0    0  501    0  0.00000000000E+00  0.00000000000E+00  0.13998626727E+04  0.13998626728E+04  0.50400001928E-02 0. -1.
       -1   -1    0    0    0  501  0.00000000000E+00  0.00000000000E+00 -0.17181816968E+04  0.17181816968E+04  0.50400001928E-02 0.  1.
    10030    2    1    2    0    0  0.00000000000E+00  0.00000000000E+00 -0.31831902407E+03  0.31180443696E+04  0.31017533251E+04 0.  0.
        5    1    3    3  502    0 -0.62497319468E+03 -0.14291019112E+03 -0.15787313584E+04  0.17039453068E+04  0.46999998093E+01 0.  1.
       -5    1    3    3    0  502  0.62497319468E+03  0.14291019112E+03  0.12604123343E+04  0.14140990627E+04  0.46999998093E+01 0. -1.
</event>
<event>
 5   0  0.1830902E-07  0.3098608E+04  0.7818609E-02  0.8216120E-01
       -1   -1    0    0    0  501  0.00000000000E+00  0.00000000000E+00  0.13506134586E+04  0.13506134586E+04  0.50400001928E-02 0.  1.
        1   -1    0    0  501    0  0.00000000000E+00  0.00000000000E+00 -0.17772243877E+04  0.17772243877E+04  0.50400001928E-02 0. -1.
    10030    2    1    2    0    0  0.00000000000E+00  0.00000000000E+00 -0.42661092911E+03  0.31278378463E+04  0.30986081888E+04 0.  0.
        3    1    3    3  502    0  0.11106802563E+04  0.89018383825E+03 -0.83088164383E+03  0.16481511502E+04  0.10100000352E+00 0. -1.
       -3    1    3    3    0  502 -0.11106802563E+04 -0.89018383825E+03  0.40427071472E+03  0.14796866961E+04  0.10100000352E+00 0.  1.
</event>
<event>
 5   0  0.1875284E-07  0.3103629E+04  0.7818609E-02  0.8214743E-01
       -1   -1    0    0    0  501  0.00000000000E+00  0.00000000000E+00  0.12285004389E+04  0.12285004389E+04  0.50400001928E-02 0. -1.
        1   -1    0    0  501    0  0.00000000000E+00  0.00000000000E+00 -0.19602174942E+04  0.19602174942E+04  0.50400001928E-02 0.  1.
    10030    2    1    2    0    0  0.00000000000E+00  0.00000000000E+00 -0.73171705537E+03  0.31887179331E+04  0.31036288773E+04 0.  0.
        4    1    3    3  502    0 -0.59791904231E+03  0.14274571050E+04 -0.48293649630E+03  0.16212249197E+04  0.12699999809E+01 0.  1.
       -4    1    3    3    0  502  0.59791904231E+03 -0.14274571050E+04 -0.24878055907E+03  0.15674930135E+04  0.12699999809E+01 0. -1.
</event>
<event>
 5   0  0.1814075E-07  0.3093529E+04  0.7818609E-02  0.8217516E-01
        1   -1    0    0  501    0  0.00000000000E+00  0.00000000000E+00  0.27517231537E+04  0.27517231537E+04  0.50400001928E-02 0. -1.
       -1   -1    0    0    0  501  0.00000000000E+00  0.00000000000E+00 -0.86944826596E+03  0.86944826598E+03  0.50400001928E-02 0.  1.
    10030    2    1    2    0    0  0.00000000000E+00  0.00000000000E+00  0.18822748877E+04  0.36211714197E+04  0.30935293271E+04 0.  0.
        5    1    3    3  502    0 -0.47018082502E+03  0.51202905023E+03  0.25585554522E+04  0.26513151168E+04  0.46999998093E+01 0. -1.
       -5    1    3    3    0  502  0.47018082502E+03 -0.51202905023E+03 -0.67628056443E+03  0.96985630293E+03  0.46999998093E+01 0.  1.
</event>
<event>
 5   0  0.5055900E-07  0.3093601E+04  0.7818609E-02  0.8217496E-01
        2   -1    0    0  501    0  0.00000000000E+00  0.00000000000E+00  0.20024907727E+04  0.20024907728E+04  0.25500000920E-02 0.  1.
       -2   -1    0    0    0  501  0.00000000000E+00  0.00000000000E+00 -0.11948075924E+04  0.11948075924E+04  0.25500000920E-02 0. -1.
    10030    2    1    2    0    0  0.00000000000E+00  0.00000000000E+00  0.80768318036E+03  0.31972983651E+04  0.30936006070E+04 0.  0.
        2    1    3    3  502    0 -0.95058046878E+03  0.59748061682E+03 -0.69577951763E+03  0.13208692033E+04  0.25500000920E-02 0. -1.
       -2    1    3    3    0  502  0.95058046878E+03 -0.59748061682E+03  0.15034626980E+04  0.18764291618E+04  0.25500000920E-02 0.  1.
</event>
<event>
 5   0  0.1845123E-07  0.3097918E+04  0.7818609E-02  0.8216310E-01
       -1   -1    0    0    0  501  0.00000000000E+00  0.00000000000E+00  0.85525119684E+03  0.85525119685E+03  0.50400001928E-02 0.  1.
        1   -1    0    0  501    0  0.00000000000E+00  0.00000000000E+00 -0.28053440374E+04  0.28053440374E+04  0.50400001928E-02 0. -1.
    10030    2    1    2    0    0  0.00000000000E+00  0.00000000000E+00 -0.19500928406E+04  0.36605952343E+04  0.30979179108E+04 0.  0.
        2    1    3    3  502    0  0.95194431628E+03 -0.11469493064E+04 -0.47709991882E+03  0.15650287618E+04  0.25500000920E-02 0.  1.
       -2    1    3    3    0  502 -0.95194431628E+03  0.11469493064E+04 -0.14729929218E+04  0.20955664724E+04  0.25500000920E-02 0. -1.
</event>
<event>
 5   0  0.5376678E-07  0.3103794E+04  0.7818609E-02  0.8214697E-01
        2   -1    0    0  501    0  0.00000000000E+00  0.00000000000E+00  0.25640472953E+04  0.25640472953E+04  0.25500000920E-02 0. -1.
       -2   -1    0    0    0  501  0.00000000000E+00  0.00000000000E+00 -0.93929024428E+03  0.93929024428E+03  0.25500000920E-02 0.  1.
    10030    2    1    2    0    0  0.00000000000E+00  0.00000000000E+00  0.16247570511E+04  0.35033375396E+04  0.31037942009E+04 0.  0.
        5    1    3    3  502    0  0.99469278217E+03 -0.11886085524E+04  0.90095665141E+03  0.17927490063E+04  0.46999998093E+01 0.  1.
       -5    1    3    3    0  502 -0.99469278217E+03  0.11886085524E+04  0.72380039965E+03  0.17105885333E+04  0.46999998093E+01 0. -1.
</event>
<event>
 5   0  0.1840359E-07  0.3103417E+04  0.7818609E-02  0.8214801E-01
        1   -1    0    0  501    0  0.00000000000E+00  0.00000000000E+00  0.17736769480E+04  0.17736769480E+04  0.50400001928E-02 0.  1.
       -1   -1    0    0    0  501  0.00000000000E+00  0.00000000000E+00 -0.13575188931E+04  0.13575188931E+04  0.50400001928E-02 0. -1.
    10030    2    1    2    0    0  0.00000000000E+00  0.00000000000E+00  0.41615805491E+03  0.31311958410E+04  0.31034174499E+04 0.  0.
        1    1    3    3  502    0  0.14077881134E+04  0.38670586530E+03  0.73851395659E+03  0.16360964711E+04  0.50400001928E-02 0. -1.
       -1    1    3    3    0  502 -0.14077881134E+04 -0.38670586530E+03 -0.32235590167E+03  0.14950993699E+04  0.50400001928E-02 0.  1.
</event>
<event>
 5   0  0.5342534E-07  0.3097274E+04  0.7818609E-02  0.8216486E-01
        2   -1    0    0  501    0  0.00000000000E+00  0.00000000000E+00  0.17966420532E+04  0.17966420532E+04  0.25500000920E-02 0. -1.
       -2   -1    0    0    0  501  0.00000000000E+00  0.00000000000E+00 -0.13348659855E+04  0.13348659855E+04  0.25500000920E-02 0.  1.
    10030    2    1    2    0    0  0.00000000000E+00  0.00000000000E+00  0.46177606767E+03  0.31315080387E+04  0.30972738755E+04 0.  0.
        3    1    3    3  502    0  0.67113876911E+03  0.10240031999E+04 -0.72789014691E+03  0.14243713971E+04  0.10100000352E+00 0.  1.
       -3    1    3    3    0  502 -0.67113876911E+03 -0.10240031999E+04  0.11896662146E+04  0.17071366416E+04  0.10100000352E+00 0. -1.
</event>
<event>
 5   0  0.5376678E-07  0.3098421E+04  0.7818609E-02  0.8216171E-01
        2   -1    0    0  501    0  0.00000000000E+00  0.00000000000E+00  0.22511163942E+04  0.22511163942E+04  0.25500000920E-02 0.  1.
       -2   -1    0    0    0  501  0.00000000000E+00  0.00000000000E+00 -0.10661611453E+04  0.10661611453E+04  0.25500000920E-02 0. -1.
    10030    2    1    2    0    0  0.00000000000E+00  0.00000000000E+00  0.11849552489E+04  0.33172775395E+04  0.30984207804E+04 0.  0.
        5    1    3    3  502    0 -0.44422155789E+03  0.12518647026E+04 -0.26103582277E+03  0.13537576655E+04  0.46999998093E+01 0. -1.
       -5    1    3    3    0  502  0.44422155789E+03 -0.12518647026E+04  0.14459910717E+04  0.19635198740E+04  0.46999998093E+01 0.  1.
</event>
<event>
 5   0  0.5376678E-07  0.3092017E+04  0.7818609E-02  0.8217932E-01
       -2   -1    0    0    0  501  0.00000000000E+00  0.00000000000E+00  0.10750061689E+04  0.10750061689E+04  0.25500000920E-02 0.  1.
        2   -1    0    0  501    0  0.00000000000E+00  0.00000000000E+00 -0.22233754293E+04  0.22233754293E+04  0.25500000920E-02 0. -1.
    10030    2    1    2    0    0  0.00000000000E+00  0.00000000000E+00 -0.11483692603E+04  0.32983815982E+04  0.30920170131E+04 0.  0.
        5    1    3    3  502    0  0.47158688221E+03 -0.11222789481E+04 -0.15907927995E+04  0.20031345551E+04  0.46999998093E+01 0. -1.
       -5    1    3    3    0  502 -0.47158688221E+03  0.11222789481E+04  0.44242353912E+03  0.12952470432E+04  0.46999998093E+01 0.  1.
</event>
<event>
 5   0  0.5342534E-07  0.3098497E+04  0.7818609E-02  0.8216151E-01
       -2   -1    0    0    0  501  0.00000000000E+00  0.00000000000E+00  0.12045239028E+04  0.12045239029E+04  0.25500000920E-02 0. -1.
        2   -1    0    0  501    0  0.00000000000E+00  0.00000000000E+00 -0.19926297714E+04  0.19926297714E+04  0.25500000920E-02 0.  1.
    10030    2    1    2    0    0  0.00000000000E+00  0.00000000000E+00 -0.78810586852E+03  0.31971536742E+04  0.30984965316E+04 0.  0.
        3    1    3    3  502    0  0.23000103935E+03  0.15133798381E+04 -0.14780998198E+03  0.15378773727E+04  0.10100000352E+00 0. -1.
       -3    1    3    3    0  502 -0.23000103935E+03 -0.15133798381E+04 -0.64029588654E+03  0.16592763016E+04  0.10100000352E+00 0.  1.
</event>
<event>
 5   0  0.1840359E-07  0.3081217E+04  0.7818609E-02  0.8220912E-01
       -1   -1    0    0    0  501  0.00000000000E+00  0.00000000000E+00  0.10676113553E+04  0.10676113553E+04  0.50400001928E-02 0. -1.
        1   -1    0    0  501    0  0.00000000000E+00  0.00000000000E+00 -0.22231629071E+04  0.22231629071E+04  0.50400001928E-02 0.  1.
    10030    2    1    2    0    0  0.00000000000E+00  0.00000000000E+00 -0.11555515518E+04  0.32907742624E+04  0.30812166196E+04 0.  0.
        1    1    3    3  502    0  0.38992700115E+03 -0.14333071859E+04 -0.14124594197E+03  0.14921001881E+04  0.50400001928E-02 0.  1.
       -1    1    3    3    0  502 -0.38992700115E+03  0.14333071859E+04 -0.10143056098E+04  0.17986740742E+04  0.50400001928E-02 0. -1.
</event>
<event>
 5   0  0.1875284E-07  0.3101439E+04  0.7818609E-02  0.8215343E-01
       -1   -1    0    0    0  501  0.00000000000E+00  0.00000000000E+00  0.14886268810E+04  0.14886268810E+04  0.50400001928E-02 0. -1.
        1   -1    0    0  501    0  0.00000000000E+00  0.00000000000E+00 -0.16154022993E+04  0.16154022993E+04  0.50400001928E-02 0.  1.
    10030    2    1    2    0    0  0.00000000000E+00  0.00000000000E+00 -0.12677541831E+03  0.31040291803E+04  0.31014392055E+04 0.  0.
        4    1    3    3  502    0 -0.40122468433E+03 -0.14538589901E+04  0.29752744378E+03  0.15372740169E+04  0.12699999809E+01 0.  1.
       -4    1    3    3    0  502  0.40122468433E+03  0.14538589901E+04 -0.42430286209E+03  0.15667551634E+04  0.12699999809E+01 0. -1.
</event>
<event>
 5   0  0.1814075E-07  0.3100250E+04  0.7818609E-02  0.8215669E-01
        1   -1    0    0  501    0  0.00000000000E+00  0.00000000000E+00  0.22874999566E+04  0.22874999566E+04  0.50400001928E-02 0. -1.
       -1   -1    0    0    0  501  0.00000000000E+00  0.00000000000E+00 -0.10504427750E+04  0.10504427750E+04  0.50400001928E-02 0.  1.
    10030    2    1    2    0    0  0.00000000000E+00  0.00000000000E+00  0.12370571817E+04  0.33379427316E+04  0.31002501849E+04 0.  0.
        5    1    3    3  502    0  0.62246598285E+03  0.12108743584E+04 -0.17935863557E+03  0.13732706295E+04  0.46999998093E+01 0.  1.
       -5    1    3    3    0  502 -0.62246598285E+03 -0.12108743584E+04  0.14164158172E+04  0.19646721021E+04  0.46999998093E+01 0. -1.
</event>
<event>
 5   0  0.5055900E-07  0.3100861E+04  0.7818609E-02  0.8215502E-01
        2   -1    0    0  501    0  0.00000000000E+00  0.00000000000E+00  0.15732005585E+04  0.15732005586E+04  0.25500000920E-02 0. -1.
       -2   -1    0    0    0  501  0.00000000000E+00  0.00000000000E+00 -0.15279904292E+04  0.15279904292E+04  0.25500000920E-02 0.  1.
    10030    2    1    2    0    0  0.00000000000E+00  0.00000000000E+00  0.45210129353E+02  0.31011909877E+04  0.31008614266E+04 0.  0.
        2    1    3    3  502    0 -0.42434836636E+03 -0.91008186972E+03  0.12040497307E+04  0.15678189627E+04  0.25500000920E-02 0. -1.
       -2    1    3    3    0  502  0.42434836636E+03  0.91008186972E+03 -0.11588396014E+04  0.15333720251E+04  0.25500000920E-02 0.  1.
</event>
<event>
 5   0  0.1830902E-07  0.3094709E+04  0.7818609E-02  0.8217191E-01
        1   -1    0    0  501    0  0.00000000000E+00  0.00000000000E+00  0.15581298914E+04  0.15581298915E+04  0.50400001928E-02 0.  1.
       -1   -1    0    0    0  501  0.00000000000E+00  0.00000000000E+00 -0.15366538813E+04  0.15366538813E+04  0.50400001928E-02 0. -1.
    10030    2    1    2    0    0  0.00000000000E+00  0.00000000000E+00  0.21476010160E+02  0.30947837728E+04  0.30947092563E+04 0.  0.
        3    1    3    3  502    0 -0.11480736594E+04  0.64679539548E+03  0.82186105779E+03  0.15530206114E+04  0.10100000352E+00 0.  1.
       -3    1    3    3    0  502  0.11480736594E+04 -0.64679539548E+03 -0.80038504763E+03  0.15417631613E+04  0.10100000352E+00 0. -1.
</event>
<event>
 5   0  0.1875284E-07  0.3099410E+04  0.7818609E-02  0.8215900E-01
       -1   -1    0    0    0  501  0.00000000000E+00  0.00000000000E+00  0.18011325869E+04  0.18011325869E+04  0.50400001928E-02 0. -1.
        1   -1    0    0  501    0  0.00000000000E+00  0.00000000000E+00 -0.13333754190E+04  0.13333754190E+04  0.50400001928E-02 0.  1.
    10030    2    1    2    0    0  0.00000000000E+00  0.00000000000E+00  0.46775716784E+03  0.31345080059E+04  0.30994102134E+04 0.  0.
        4    1    3    3  502    0 -0.20014874167E+03  0.54432890447E+03 -0.12194861688E+04  0.13503709134E+04  0.12699999809E+01 0.  1.
       -4    1    3    3    0  502  0.20014874167E+03 -0.54432890447E+03  0.16872433366E+04  0.17841370925E+04  0.12699999809E+01 0. -1.
</event>
<event>
 5   0  0.5248309E-07  0.3099363E+04  0.7818609E-02  0.8215913E-01
       -2   -1    0    0    0  501  0.00000000000E+00  0.00000000000E+00  0.88549353662E+03  0.88549353662E+03  0.25500000920E-02 0.  1.
        2   -1    0    0  501    0  0.00000000000E+00  0.00000000000E+00 -0.27120617428E+04  0.27120617428E+04  0.25500000920E-02 0. -1.
    10030    2    1    2    0    0  0.00000000000E+00  0.00000000000E+00 -0.18265682061E+04  0.35975552794E+04  0.30993632534E+04 0.  0.
        4    1    3    3  502    0  0.15194835214E+03 -0.38145971222E+03  0.82120179267E+03  0.91813605253E+03  0.12699999809E+01 0.  1.
       -4    1    3    3    0  502 -0.15194835214E+03  0.38145971222E+03 -0.26477699988E+04  0.26794192269E+04  0.12699999809E+01 0. -1.
</event>
<event>
 5   0  0.1875284E-07  0.3100140E+04  0.7818609E-02  0.8215699E-01
        1   -1    0    0  501    0  0.00000000000E+00  0.00000000000E+00  0.15776241686E+04  0.15776241686E+04  0.50400001928E-02 0. -1.
       -1   -1    0    0    0  501  0.00000000000E+00  0.00000000000E+00 -0.15229975538E+04  0.15229975538E+04  0.50400001928E-02 0.  1.
    10030    2    1    2    0    0  0.00000000000E+00  0.00000000000E+00  0.54626614826E+02  0.31006217224E+04  0.31001404804E+04 0.  0.
        4    1    3    3  502    0 -0.66497555893E+03 -0.13705093375E+04 -0.25948510503E+03  0.15452580596E+04  0.12699999809E+01 0. -1.
       -4    1    3    3    0  502  0.66497555893E+03  0.13705093375E+04  0.31411171986E+03  0.15553636628E+04  0.12699999809E+01 0.  1.
</event>
<event>
 5   0  0.1875284E-07  0.3131411E+04  0.7818609E-02  0.8207170E-01
       -1   -1    0    0    0  501  0.00000000000E+00  0.00000000000E+00  0.11733272901E+04  0.11733272901E+04  0.50400001928E-02 0. -1.
        1   -1    0    0  501    0  0.00000000000E+00  0.00000000000E+00 -0.20893007778E+04  0.20893007778E+04  0.50400001928E-02 0.  1.
    10030    2    1    2    0    0  0.00000000000E+00  0.00000000000E+00 -0.91597348762E+03  0.32626280679E+04  0.31314109407E+04 0.  0.
        4    1    3    3  502    0 -0.11436197669E+04  0.10440412234E+04 -0.21689522423E+03  0.15636282802E+04  0.12699999809E+01 0. -1.
       -4    1    3    3    0  502  0.11436197669E+04 -0.10440412234E+04 -0.69907826339E+03  0.16989997877E+04  0.12699999809E+01 0.  1.
</event>
<event>
 5   0  0.1840359E-07  0.3098063E+04  0.7818609E-02  0.8216270E-01
        1   -1    0    0  501    0  0.00000000000E+00  0.00000000000E+00  0.18571998460E+04  0.18571998460E+04  0.50400001928E-02 0. -1.
       -1   -1    0    0    0  501  0.00000000000E+00  0.00000000000E+00 -0.12919979178E+04  0.12919979178E+04  0.50400001928E-02 0.  1.
    10030    2    1    2    0    0  0.00000000000E+00  0.00000000000E+00  0.56520192819E+03  0.31491977638E+04  0.30980628360E+04 0.  0.
        1    1    3    3  502    0  0.57109095547E+03  0.67049048701E+03 -0.10127141732E+04  0.13421223377E+04  0.50400001928E-02 0.  1.
       -1    1    3    3    0  502 -0.57109095547E+03 -0.67049048701E+03  0.15779161014E+04  0.18070754261E+04  0.50400001928E-02 0. -1.
</event>
<event>
 5   0  0.5154105E-07  0.3098369E+04  0.7818609E-02  0.8216186E-01
        2   -1    0    0  501    0  0.00000000000E+00  0.00000000000E+00  0.14854315117E+04  0.14854315117E+04  0.25500000920E-02 0. -1.
       -2   -1    0    0    0  501  0.00000000000E+00  0.00000000000E+00 -0.16156741371E+04  0.16156741371E+04  0.25500000920E-02 0.  1.
    10030    2    1    2    0    0  0.00000000000E+00  0.00000000000E+00 -0.13024262541E+03  0.31011056489E+04  0.30983694267E+04 0.  0.
        1    1    3    3  502    0 -0.14323970460E+04  0.58781934499E+03 -0.11693957773E+03  0.15527291279E+04  0.50400001928E-02 0. -1.
       -1    1    3    3    0  502  0.14323970460E+04 -0.58781934499E+03 -0.13303047680E+02  0.15483765210E+04  0.50400001928E-02 0.  1.
</event>
<event>
 5   0  0.1830902E-07  0.3100713E+04  0.7818609E-02  0.8215542E-01
       -1   -1    0    0    0  501  0.00000000000E+00  0.00000000000E+00  0.13060900695E+04  0.13060900695E+04  0.50400001928E-02 0. -1.
        1   -1    0    0  501    0  0.00000000000E+00  0.00000000000E+00 -0.18403062406E+04  0.18403062406E+04  0.50400001928E-02 0.  1.
    10030    2    1    2    0    0  0.00000000000E+00  0.00000000000E+00 -0.53421617110E+03  0.31463963100E+04  0.31007132764E+04 0.  0.
        3    1    3    3  502    0  0.62150541135E+03 -0.10567316400E+04 -0.12301186198E+04  0.17367045127E+04  0.10100000352E+00 0.  1.
       -3    1    3    3    0  502 -0.62150541135E+03  0.10567316400E+04  0.69590244873E+03  0.14096917974E+04  0.10100000352E+00 0. -1.
</event>
<event>
 5   0  0.5055900E-07  0.3091296E+04  0.7818609E-02  0.8218131E-01
       -2   -1    0    0    0  501  0.00000000000E+00  0.00000000000E+00  0.11111702513E+04  0.11111702513E+04  0.25500000920E-02 0. -1.
        2   -1    0    0  501    0  0.00000000000E+00  0.00000000000E+00 -0.21500104254E+04  0.21500104254E+04  0.25500000920E-02 0.  1.
    10030    2    1    2    0    0  0.00000000000E+00  0.00000000000E+00 -0.10388401741E+04  0.32611806767E+04  0.30912959255E+04 0.  0.
        2    1    3    3  502    0 -0.14093516435E+04 -0.52245898515E+03 -0.13935450756E+03  0.15095214888E+04  0.25500000920E-02 0.  1.
       -2    1    3    3    0  502  0.14093516435E+04  0.52245898515E+03 -0.89948566650E+03  0.17516591879E+04  0.25500000920E-02 0. -1.
</event>
<event>
 5   0  0.5342534E-07  0.3108543E+04  0.7818609E-02  0.8213397E-01
        2   -1    0    0  501    0  0.00000000000E+00  0.00000000000E+00  0.12909879068E+04  0.12909879068E+04  0.25500000920E-02 0. -1.
       -2   -1    0    0    0  501  0.00000000000E+00  0.00000000000E+00 -0.18712492827E+04  0.18712492827E+04  0.25500000920E-02 0.  1.
    10030    2    1    2    0    0  0.00000000000E+00  0.00000000000E+00 -0.58026137591E+03  0.31622371895E+04  0.31085431923E+04 0.  0.
        3    1    3    3  502    0 -0.48331735053E+03  0.55331464358E+03  0.11032019573E+04  0.13254460853E+04  0.10100000352E+00 0. -1.
       -3    1    3    3    0  502  0.48331735053E+03 -0.55331464358E+03 -0.16834633332E+04  0.18367911042E+04  0.10100000352E+00 0.  1.
</event>
<event>
 5   0  0.1727000E-07  0.3105595E+04  0.7818609E-02  0.8214204E-01
       -3   -1    0    0    0  501  0.00000000000E+00  0.00000000000E+00  0.12387603689E+04  0.12387603730E+04  0.10100000352E+00 0. -1.
        3   -1    0    0  501    0  0.00000000000E+00  0.00000000000E+00 -0.19464454957E+04  0.19464454983E+04  0.10100000352E+00 0.  1.
    10030    2    1    2    0    0  0.00000000000E+00  0.00000000000E+00 -0.70768512681E+03  0.31852058713E+04  0.31055946619E+04 0.  0.
        3    1    3    3  502    0  0.95393746856E+02  0.12162731433E+04 -0.13390709843E+04  0.18114997756E+04  0.10100000352E+00 0.  1.
       -3    1    3    3    0  502 -0.95393746856E+02 -0.12162731433E+04  0.63138585744E+03  0.13737060957E+04  0.10100000352E+00 0. -1.
</event>
<event>
 5   0  0.1814075E-07  0.3098748E+04  0.7818609E-02  0.8216082E-01
       -1   -1    0    0    0  501  0.00000000000E+00  0.00000000000E+00  0.13695555675E+04  0.13695555675E+04  0.50400001928E-02 0.  1.
        1   -1    0    0  501    0  0.00000000000E+00  0.00000000000E+00 -0.17528015066E+04  0.17528015066E+04  0.50400001928E-02 0. -1.
    10030    2    1    2    0    0  0.00000000000E+00  0.00000000000E+00 -0.38324593904E+03  0.31223570741E+04  0.30987475290E+04 0.  0.
        5    1    3    3  502    0  0.26486791961E+03 -0.14310301097E+04 -0.72721281536E+03  0.16269181781E+04  0.46999998093E+01 0. -1.
       -5    1    3    3    0  502 -0.26486791961E+03  0.14310301097E+04  0.34396687632E+03  0.14954388960E+04  0.46999998093E+01 0.  1.
</event>
<event>
 5   0  0.5248309E-07  0.3098436E+04  0.7818609E-02  0.8216167E-01
        2   -1    0    0  501    0  0.00000000000E+00  0.00000000000E+00  0.13207123626E+04  0.13207123626E+04  0.25500000920E-02 0.  1.
       -2   -1    0    0    0  501  0.00000000000E+00  0.00000000000E+00 -0.18172588256E+04  0.18172588256E+04  0.25500000920E-02 0. -1.
    10030    2    1    2    0    0  0.00000000000E+00  0.00000000000E+00 -0.49654646299E+03  0.31379711882E+04  0.30984358616E+04 0.  0.
        4    1    3    3  502    0 -0.16769322872E+03  0.14737257984E+04  0.20474388817E+03  0.14973010454E+04  0.12699999809E+01 0.  1.
       -4    1    3    3    0  502  0.16769322872E+03 -0.14737257984E+04 -0.70129035116E+03  0.16406701428E+04  0.12699999809E+01 0. -1.
</event>
<event>
 5   0  0.5248309E-07  0.3100191E+04  0.7818609E-02  0.8215685E-01
        2   -1    0    0  501    0  0.00000000000E+00  0.00000000000E+00  0.14363478812E+04  0.14363478812E+04  0.25500000920E-02 0.  1.
       -2   -1    0    0    0  501  0.00000000000E+00  0.00000000000E+00 -0.16728510789E+04  0.16728510789E+04  0.25500000920E-02 0. -1.
    10030    2    1    2    0    0  0.00000000000E+00  0.00000000000E+00 -0.23650319768E+03  0.31091989600E+04  0.31001910281E+04 0.  0.
        4    1    3    3  502    0 -0.45247127136E+03  0.10297522158E+04  0.95146587988E+03  0.14732307392E+04  0.12699999809E+01 0.  1.
       -4    1    3    3    0  502  0.45247127136E+03 -0.10297522158E+04 -0.11879690776E+04  0.16359682208E+04  0.12699999809E+01 0. -1.
</event>
<event>
 5   0  0.5055900E-07  0.3104479E+04  0.7818609E-02  0.8214510E-01
        2   -1    0    0  501    0  0.00000000000E+00  0.00000000000E+00  0.12497701200E+04  0.12497701200E+04  0.25500000920E-02 0. -1.
       -2   -1    0    0    0  501  0.00000000000E+00  0.00000000000E+00 -0.19279121390E+04  0.19279121390E+04  0.25500000920E-02 0.  1.
    10030    2    1    2    0    0  0.00000000000E+00  0.00000000000E+00 -0.67814201900E+03  0.31776822590E+04  0.31044786907E+04 0.  0.
        2    1    3    3  502    0 -0.11706896954E+04 -0.40809281602E+03 -0.12951149238E+04  0.17928683095E+04  0.25500000920E-02 0.  1.
       -2    1    3    3    0  502  0.11706896954E+04  0.40809281602E+03  0.61697290482E+03  0.13848139495E+04  0.25500000920E-02 0. -1.
</event>
<event>
 5   0  0.1814075E-07  0.3107563E+04  0.7818609E-02  0.8213665E-01
       -1   -1    0    0    0  501  0.00000000000E+00  0.00000000000E+00  0.13694181480E+04  0.13694181480E+04  0.50400001928E-02 0. -1.
        1   -1    0    0  501    0  0.00000000000E+00  0.00000000000E+00 -0.17629654136E+04  0.17629654136E+04  0.50400001928E-02 0.  1.
    10030    2    1    2    0    0  0.00000000000E+00  0.00000000000E+00 -0.39354726556E+03  0.31323835616E+04  0.31075629240E+04 0.  0.
        5    1    3    3  502    0  0.72250090494E+03 -0.86738796929E+03 -0.12729363948E+04  0.17013990132E+04  0.46999998093E+01 0.  1.
       -5    1    3    3    0  502 -0.72250090494E+03  0.86738796929E+03  0.87938912928E+03  0.14309845483E+04  0.46999998093E+01 0. -1.
</event>
<event>
 5   0  0.5342534E-07  0.3097911E+04  0.7818609E-02  0.8216312E-01
        2   -1    0    0  501    0  0.00000000000E+00  0.00000000000E+00  0.16270386570E+04  0.16270386570E+04  0.25500000920E-02 0.  1.
       -2   -1    0    0    0  501  0.00000000000E+00  0.00000000000E+00 -0.14746192161E+04  0.14746192161E+04  0.25500000920E-02 0. -1.
    10030    2    1    2    0    0  0.00000000000E+00  0.00000000000E+00  0.15241944097E+03  0.31016578731E+04  0.30979105662E+04 0.  0.
        3    1    3    3  502    0  0.14799683599E+04  0.43135464687E+03 -0.75265324615E+02  0.15433852588E+04  0.10100000352E+00 0. -1.
       -3    1    3    3    0  502 -0.14799683599E+04 -0.43135464687E+03  0.22768476558E+03  0.15582726143E+04  0.10100000352E+00 0.  1.
</event>
<event>
 5   0  0.1727000E-07  0.3084236E+04  0.7818609E-02  0.8220077E-01
        3   -1    0    0  501    0  0.00000000000E+00  0.00000000000E+00  0.17292357868E+04  0.17292357898E+04  0.10100000352E+00 0.  1.
       -3   -1    0    0    0  501  0.00000000000E+00  0.00000000000E+00 -0.13752483504E+04  0.13752483541E+04  0.10100000352E+00 0. -1.
    10030    2    1    2    0    0  0.00000000000E+00  0.00000000000E+00  0.35398743643E+03  0.31044841439E+04  0.30842364849E+04 0.  0.
        2    1    3    3  502    0 -0.49974887050E+02 -0.86711757054E+03 -0.11056315561E+04  0.14059912903E+04  0.25500000920E-02 0. -1.
       -2    1    3    3    0  502  0.49974887050E+02  0.86711757054E+03  0.14596189925E+04  0.16984928536E+04  0.25500000920E-02 0.  1.
</event>
<event>
 5   0  0.1830902E-07  0.3099108E+04  0.7818609E-02  0.8215983E-01
        1   -1    0    0  501    0  0.00000000000E+00  0.00000000000E+00  0.14599182891E+04  0.14599182891E+04  0.50400001928E-02 0.  1.
       -1   -1    0    0    0  501  0.00000000000E+00  0.00000000000E+00 -0.16446929236E+04  0.16446929236E+04  0.50400001928E-02 0. -1.
    10030    2    1    2    0    0  0.00000000000E+00  0.00000000000E+00 -0.18477463446E+03  0.31046112128E+04  0.30991077937E+04 0.  0.
        3    1    3    3  502    0  0.33090272982E+03 -0.20033870009E+03  0.14107722106E+04  0.14628432766E+04  0.10100000352E+00 0.  1.
       -3    1    3    3    0  502 -0.33090272982E+03  0.20033870009E+03 -0.15955468451E+04  0.16417679362E+04  0.10100000352E+00 0. -1.
</event>
<event>
 5   0  0.1727000E-07  0.3097491E+04  0.7818609E-02  0.8216427E-01
       -3   -1    0    0    0  501  0.00000000000E+00  0.00000000000E+00  0.27131965596E+04  0.27131965615E+04  0.10100000352E+00 0. -1.
        3   -1    0    0  501    0  0.00000000000E+00  0.00000000000E+00 -0.88405422802E+03  0.88405423379E+03  0.10100000352E+00 0.  1.
    10030    2    1    2    0    0  0.00000000000E+00  0.00000000000E+00  0.18291423316E+04  0.35972507953E+04  0.30974911808E+04 0.  0.
        4    1    3    3  502    0 -0.13158875553E+04 -0.81654184487E+03  0.93504009603E+03  0.18090335090E+04  0.12699999809E+01 0. -1.
       -4    1    3    3    0  502  0.13158875553E+04  0.81654184487E+03  0.89410223556E+03  0.17882172863E+04  0.12699999809E+01 0.  1.
</event>
<event>
 5   0  0.5248309E-07  0.3106008E+04  0.7818609E-02  0.8214091E-01
       -2   -1    0    0    0  501  0.00000000000E+00  0.00000000000E+00  0.90441473678E+03  0.90441473679E+03  0.25500000920E-02 0. -1.
        2   -1    0    0  501    0  0.00000000000E+00  0.00000000000E+00 -0.26667201487E+04  0.26667201487E+04  0.25500000920E-02 0.  1.
    10030    2    1    2    0    0  0.00000000000E+00  0.00000000000E+00 -0.17623054119E+04  0.35711348854E+04  0.31060077278E+04 0.  0.
        4    1    3    3  502    0  0.64430208512E+02  0.34681712147E+03  0.85774267416E+03  0.92744675075E+03  0.12699999809E+01 0. -1.
       -4    1    3    3    0  502 -0.64430208512E+02 -0.34681712147E+03 -0.26200480860E+04  0.26436881347E+04  0.12699999809E+01 0.  1.
</event>
<event>
 5   0  0.1875284E-07  0.3097528E+04  0.7818609E-02  0.8216417E-01
       -1   -1    0    0    0  501  0.00000000000E+00  0.00000000000E+00  0.15498721207E+04  0.15498721208E+04  0.50400001928E-02 0.  1.
        1   -1    0    0  501    0  0.00000000000E+00  0.00000000000E+00 -0.15476565372E+04  0.15476565373E+04  0.50400001928E-02 0. -1.
    10030    2    1    2    0    0  0.00000000000E+00  0.00000000000E+00  0.22155834950E+01  0.30975286580E+04  0.30975278656E+04 0.  0.
        4    1    3    3  502    0 -0.99961522568E+00  0.52369462956E+03 -0.14564285300E+04  0.15477217903E+04  0.12699999809E+01 0. -1.
       -4    1    3    3    0  502  0.99961522568E+00 -0.52369462956E+03  0.14586441135E+04  0.15498068677E+04  0.12699999809E+01 0.  1.
</event>
<event>
 5   0  0.1830902E-07  0.3102897E+04  0.7818609E-02  0.8214943E-01
       -1   -1    0    0    0  501  0.00000000000E+00  0.00000000000E+00  0.94977279743E+03  0.94977279744E+03  0.50400001928E-02 0.  1.
        1   -1    0    0  501    0  0.00000000000E+00  0.00000000000E+00 -0.25342824534E+04  0.25342824534E+04  0.50400001928E-02 0. -1.
    10030    2    1    2    0    0  0.00000000000E+00  0.00000000000E+00 -0.15845096560E+04  0.34840552509E+04  0.31028970562E+04 0.  0.
        3    1    3    3  502    0 -0.78534540756E+02 -0.10713300624E+04 -0.20491715435E+04  0.23136593962E+04  0.10100000352E+00 0. -1.
       -3    1    3    3    0  502  0.78534540756E+02  0.10713300624E+04  0.46466188748E+03  0.11703958547E+04  0.10100000352E+00 0.  1.
</event>
<event>
 5   0  0.5055900E-07  0.3107781E+04  0.7818609E-02  0.8213606E-01
        2   -1    0    0  501    0  0.00000000000E+00  0.00000000000E+00  0.17327872964E+04  0.17327872964E+04  0.25500000920E-02 0. -1.
       -2   -1    0    0    0  501  0.00000000000E+00  0.00000000000E+00 -0.13934633492E+04  0.13934633492E+04  0.25500000920E-02 0.  1.
    10030    2    1    2    0    0  0.00000000000E+00  0.00000000000E+00  0.33932394719E+03  0.31262506457E+04  0.31077809380E+04 0.  0.
        2    1    3    3  502    0  0.33381194698E+03  0.13963426495E+03 -0.13504932095E+04  0.13981273379E+04  0.25500000920E-02 0.  1.
       -2    1    3    3    0  502 -0.33381194698E+03 -0.13963426495E+03  0.16898171567E+04  0.17281233078E+04  0.25500000920E-02 0. -1.
</event>
<event>
 5   0  0.1830902E-07  0.3101785E+04  0.7818609E-02  0.8215248E-01
       -1   -1    0    0    0  501  0.00000000000E+00  0.00000000000E+00  0.20380458728E+04  0.20380458728E+04  0.50400001928E-02 0. -1.
        1   -1    0    0  501    0  0.00000000000E+00  0.00000000000E+00 -0.11801835382E+04  0.11801835383E+04  0.50400001928E-02 0.  1.
    10030    2    1    2    0    0  0.00000000000E+00  0.00000000000E+00  0.85786233458E+03  0.32182294111E+04  0.31017854145E+04 0.  0.
        3    1    3    3  502    0 -0.54663094727E+03  0.47057328292E+03  0.18534350677E+04  0.19888353797E+04  0.10100000352E+00 0. -1.
       -3    1    3    3    0  502  0.54663094727E+03 -0.47057328292E+03 -0.99557273317E+03  0.12293940314E+04  0.10100000352E+00 0.  1.
</event>
<event>
 5   0  0.5248309E-07  0.3101225E+04  0.7818609E-02  0.8215402E-01
        2   -1    0    0  501    0  0.00000000000E+00  0.00000000000E+00  0.17495561429E+04  0.17495561429E+04  0.25500000920E-02 0. -1.
       -2   -1    0    0    0  501  0.00000000000E+00  0.00000000000E+00 -0.13742911173E+04  0.13742911173E+04  0.25500000920E-02 0.  1.
    10030    2    1    2    0    0  0.00000000000E+00  0.00000000000E+00  0.37526502560E+03  0.31238472602E+04  0.31012252201E+04 0.  0.
        4    1    3    3  502    0  0.78830794799E+03  0.11765624620E+04 -0.44837585451E+03  0.14855205040E+04  0.12699999809E+01 0.  1.
       -4    1    3    3    0  502 -0.78830794799E+03 -0.11765624620E+04  0.82364088011E+03  0.16383267562E+04  0.12699999809E+01 0. -1.
</event>
<event>
 5   0  0.5154105E-07  0.3106698E+04  0.7818609E-02  0.8213902E-01
       -2   -1    0    0    0  501  0.00000000000E+00  0.00000000000E+00  0.12209143204E+04  0.12209143204E+04  0.25500000920E-02 0.  1.
        2   -1    0    0  501    0  0.00000000000E+00  0.00000000000E+00 -0.19763005148E+04  0.19763005148E+04  0.25500000920E-02 0. -1.
    10030    2    1    2    0    0  0.00000000000E+00  0.00000000000E+00 -0.75538619440E+03  0.31972148353E+04  0.31066983117E+04 0.  0.
        1    1    3    3  502    0 -0.36330652417E+03 -0.14784001866E+04 -0.60100254420E+02  0.15235717190E+04  0.50400001928E-02 0. -1.
       -1    1    3    3    0  502  0.36330652417E+03  0.14784001866E+04 -0.69528593998E+03  0.16736431163E+04  0.50400001928E-02 0.  1.
</event>
<event>
 5   0  0.5154105E-07  0.3088856E+04  0.7818609E-02  0.8218803E-01
        2   -1    0    0  501    0  0.00000000000E+00  0.00000000000E+00  0.13048278280E+04  0.13048278280E+04  0.25500000920E-02 0.  1.
       -2   -1    0    0    0  501  0.00000000000E+00  0.00000000000E+00 -0.18280251620E+04  0.18280251620E+04  0.25500000920E-02 0. -1.
    10030    2    1    2    0    0  0.00000000000E+00  0.00000000000E+00 -0.52319733402E+03  0.31328529901E+04  0.30888561648E+04 0.  0.
        1    1    3    3  502    0  0.92781340334E+03  0.52953415452E+03  0.86964186953E+03  0.13775053951E+04  0.50400001928E-02 0.  1.
       -1    1    3    3    0  502 -0.92781340334E+03 -0.52953415452E+03 -0.13928392036E+04  0.17553475950E+04  0.50400001928E-02 0. -1.
</event>
<event>
 5   0  0.5342534E-07  0.3090909E+04  0.7818609E-02  0.8218237E-01
        2   -1    0    0  501    0  0.00000000000E+00  0.00000000000E+00  0.16691133105E+04  0.16691133105E+04  0.25500000920E-02 0. -1.
       -2   -1    0    0    0  501  0.00000000000E+00  0.00000000000E+00 -0.14309570523E+04  0.14309570523E+04  0.25500000920E-02 0.  1.
    10030    2    1    2    0    0  0.00000000000E+00  0.00000000000E+00  0.23815625814E+03  0.31000703628E+04  0.30909089037E+04 0.  0.
        3    1    3    3  502    0 -0.11360199134E+04  0.78060646127E+03 -0.58195120748E+03  0.14961801058E+04  0.10100000352E+00 0.  1.
       -3    1    3    3    0  502  0.11360199134E+04 -0.78060646127E+03  0.82010746562E+03  0.16038902569E+04  0.10100000352E+00 0. -1.
</event>
<event>
 5   0  0.5376678E-07  0.3099557E+04  0.7818609E-02  0.8215859E-01
        2   -1    0    0  501    0  0.00000000000E+00  0.00000000000E+00  0.17902580341E+04  0.17902580341E+04  0.25500000920E-02 0. -1.
       -2   -1    0    0    0  501  0.00000000000E+00  0.00000000000E+00 -0.13416020702E+04  0.13416020702E+04  0.25500000920E-02 0.  1.
    10030    2    1    2    0    0  0.00000000000E+00  0.00000000000E+00  0.44865596394E+03  0.31318601044E+04  0.30995573134E+04 0.  0.
        5    1    3    3  502    0 -0.15138667023E+04 -0.55692357257E+02 -0.10603166524E+03  0.15186042391E+04  0.46999998093E+01 0.  1.
       -5    1    3    3    0  502  0.15138667023E+04  0.55692357257E+02  0.55468762917E+03  0.16132558653E+04  0.46999998093E+01 0. -1.
</event>
<event>
 5   0  0.1830902E-07  0.3085632E+04  0.7818609E-02  0.8219692E-01
        1   -1    0    0  501    0  0.00000000000E+00  0.00000000000E+00  0.22562800493E+04  0.22562800493E+04  0.50400001928E-02 0.  1.
       -1   -1    0    0    0  501  0.00000000000E+00  0.00000000000E+00 -0.10549581338E+04  0.10549581338E+04  0.50400001928E-02 0. -1.
    10030    2    1    2    0    0  0.00000000000E+00  0.00000000000E+00  0.12013219155E+04  0.33112381831E+04  0.30856318576E+04 0.  0.
        3    1    3    3  502    0  0.13920660103E+04  0.65414109255E+03  0.73002646044E+03  0.17025530796E+04  0.10100000352E+00 0.  1.
       -3    1    3    3    0  502 -0.13920660103E+04 -0.65414109255E+03  0.47129545508E+03  0.16086851034E+04  0.10100000352E+00 0. -1.
</event>
<event>
 5   0  0.1875284E-07  0.3084416E+04  0.7818609E-02  0.8220028E-01
        1   -1    0    0  501    0  0.00000000000E+00  0.00000000000E+00  0.24734380567E+04  0.24734380567E+04  0.50400001928E-02 0. -1.
       -1   -1    0    0    0  501  0.00000000000E+00  0.00000000000E+00 -0.96157861189E+03  0.96157861190E+03  0.50400001928E-02 0.  1.
    10030    2    1    2    0    0  0.00000000000E+00  0.00000000000E+00  0.15118594448E+04  0.34350166686E+04  0.30844157523E+04 0.  0.
        4    1    3    3  502    0 -0.85076353920E+03  0.64214267918E+03 -0.48532749037E+03  0.11711917887E+04  0.12699999809E+01 0.  1.
       -4    1    3    3    0  502  0.85076353920E+03 -0.64214267918E+03  0.19971869352E+04  0.22638248800E+04  0.12699999809E+01 0. -1.
</event>
<event>
 5   0  0.5248309E-07  0.3097274E+04  0.7818609E-02  0.8216487E-01
        2   -1    0    0  501    0  0.00000000000E+00  0.00000000000E+00  0.21438499451E+04  0.21438499451E+04  0.25500000920E-02 0. -1.
       -2   -1    0    0    0  501  0.00000000000E+00  0.00000000000E+00 -0.11186771315E+04  0.11186771315E+04  0.25500000920E-02 0.  1.
    10030    2    1    2    0    0  0.00000000000E+00  0.00000000000E+00  0.10251728135E+04  0.32625270766E+04  0.30972735798E+04 0.  0.
        4    1    3    3  502    0 -0.69386772606E+03  0.60594511627E+03 -0.79868231460E+03  0.12192280171E+04  0.12699999809E+01 0.  1.
       -4    1    3    3    0  502  0.69386772606E+03 -0.60594511627E+03  0.18238551281E+04  0.20432990595E+04  0.12699999809E+01 0. -1.
</event>
<event>
 5   0  0.1830902E-07  0.3108559E+04  0.7818609E-02  0.8213393E-01
       -1   -1    0    0    0  501  0.00000000000E+00  0.00000000000E+00  0.10465587488E+04  0.10465587488E+04  0.50400001928E-02 0. -1.
        1   -1    0    0  501    0  0.00000000000E+00  0.00000000000E+00 -0.23083133274E+04  0.23083133274E+04  0.50400001928E-02 0.  1.
    10030    2    1    2    0    0  0.00000000000E+00  0.00000000000E+00 -0.12617545787E+04  0.33548720762E+04  0.31085594785E+04 0.  0.
        3    1    3    3  502    0  0.10442995981E+04 -0.36591731997E+03  0.54708808276E+03  0.12344077593E+04  0.10100000352E+00 0. -1.
       -3    1    3    3    0  502 -0.10442995981E+04  0.36591731997E+03 -0.18088426614E+04  0.21204643170E+04  0.10100000352E+00 0.  1.
</event>
<event>
 5   0  0.1845123E-07  0.3165292E+04  0.7818609E-02  0.8198044E-01
        1   -1    0    0  501    0  0.00000000000E+00  0.00000000000E+00  0.15149506067E+04  0.15149506067E+04  0.50400001928E-02 0.  1.
       -1   -1    0    0    0  501  0.00000000000E+00  0.00000000000E+00 -0.16533666305E+04  0.16533666305E+04  0.50400001928E-02 0. -1.
    10030    2    1    2    0    0  0.00000000000E+00  0.00000000000E+00 -0.13841602381E+03  0.31683172373E+04  0.31652922646E+04 0.  0.
        2    1    3    3  502    0  0.63367848463E+01  0.10608637878E+04  0.11063489674E+04  0.15328014121E+04  0.25500000920E-02 0.  1.
       -2    1    3    3    0  502 -0.63367848463E+01 -0.10608637878E+04 -0.12447649912E+04  0.16355158252E+04  0.25500000920E-02 0. -1.
</event>
<event>
 5   0  0.1830902E-07  0.3088810E+04  0.7818609E-02  0.8218816E-01
        1   -1    0    0  501    0  0.00000000000E+00  0.00000000000E+00  0.21531396632E+04  0.21531396632E+04  0.50400001928E-02 0. -1.
       -1   -1    0    0    0  501  0.00000000000E+00  0.00000000000E+00 -0.11077717658E+04  0.11077717658E+04  0.50400001928E-02 0.  1.
    10030    2    1    2    0    0  0.00000000000E+00  0.00000000000E+00  0.10453678974E+04  0.32609114290E+04  0.30888103385E+04 0.  0.
        3    1    3    3  502    0 -0.13325913716E+04  0.31648631733E+03  0.12760432892E+04  0.18719641660E+04  0.10100000352E+00 0.  1.
       -3    1    3    3    0  502  0.13325913716E+04 -0.31648631733E+03 -0.23067539184E+03  0.13889472630E+04  0.10100000352E+00 0. -1.
</event>
<event>
 5   0  0.1830902E-07  0.3098385E+04  0.7818609E-02  0.8216181E-01
        1   -1    0    0  501    0  0.00000000000E+00  0.00000000000E+00  0.16572164616E+04  0.16572164616E+04  0.50400001928E-02 0. -1.
       -1   -1    0    0    0  501  0.00000000000E+00  0.00000000000E+00 -0.14482101909E+04  0.14482101909E+04  0.50400001928E-02 0.  1.
    10030    2    1    2    0    0  0.00000000000E+00  0.00000000000E+00  0.20900627064E+03  0.31054266525E+04  0.30983852364E+04 0.  0.
        3    1    3    3  502    0  0.13595440873E+04  0.73333694825E+03 -0.13469728903E+02  0.15447733325E+04  0.10100000352E+00 0.  1.
       -3    1    3    3    0  502 -0.13595440873E+04 -0.73333694825E+03  0.22247599955E+03  0.15606533201E+04  0.10100000352E+00 0. -1.
</event>
<event>
 5   0  0.1814075E-07  0.3103624E+04  0.7818609E-02  0.8214744E-01
       -1   -1    0    0    0  501  0.00000000000E+00  0.00000000000E+00  0.10127206560E+04  0.10127206560E+04  0.50400001928E-02 0.  1.
        1   -1    0    0  501    0  0.00000000000E+00  0.00000000000E+00 -0.23778726009E+04  0.23778726010E+04  0.50400001928E-02 0. -1.
    10030    2    1    2    0    0  0.00000000000E+00  0.00000000000E+00 -0.13651519450E+04  0.33905932569E+04  0.31036241398E+04 0.  0.
        5    1    3    3  502    0 -0.94407496519E+03  0.12300839222E+04 -0.74915898778E+03  0.17221048965E+04  0.46999998093E+01 0. -1.
       -5    1    3    3    0  502  0.94407496519E+03 -0.12300839222E+04 -0.61599295721E+03  0.16684883604E+04  0.46999998093E+01 0.  1.
</event>
<event>
 5   0  0.1845123E-07  0.3065542E+04  0.7818609E-02  0.8225259E-01
        1   -1    0    0  501    0  0.00000000000E+00  0.00000000000E+00  0.14453481352E+04  0.14453481352E+04  0.50400001928E-02 0.  1.
       -1   -1    0    0    0  501  0.00000000000E+00  0.00000000000E+00 -0.16254820962E+04  0.16254820962E+04  0.50400001928E-02 0. -1.
    10030    2    1    2    0    0  0.00000000000E+00  0.00000000000E+00 -0.18013396099E+03  0.30708302315E+04  0.30655423772E+04 0.  0.
        2    1    3    3  502    0 -0.17554998814E+03 -0.63388294083E+03 -0.14769268905E+04  0.16167678934E+04  0.25500000920E-02 0. -1.
       -2    1    3    3    0  502  0.17554998814E+03  0.63388294083E+03  0.12967929295E+04  0.14540623381E+04  0.25500000920E-02 0.  1.
</event>
<event>
 5   0  0.1727000E-07  0.3091225E+04  0.7818609E-02  0.8218150E-01
       -3   -1    0    0    0  501  0.00000000000E+00  0.00000000000E+00  0.25308216897E+04  0.25308216917E+04  0.10100000352E+00 0. -1.
        3   -1    0    0  501    0  0.00000000000E+00  0.00000000000E+00 -0.94392951098E+03  0.94392951638E+03  0.10100000352E+00 0.  1.
    10030    2    1    2    0    0  0.00000000000E+00  0.00000000000E+00  0.15868921787E+04  0.34747512081E+04  0.30912245424E+04 0.  0.
        5    1    3    3  502    0  0.12226273521E+04  0.22162095019E+03  0.18267109918E+04  0.22092597459E+04  0.46999998093E+01 0. -1.
       -5    1    3    3    0  502 -0.12226273521E+04 -0.22162095019E+03 -0.23981881305E+03  0.12654914621E+04  0.46999998093E+01 0.  1.
</event>
<event>
 5   0  0.1845123E-07  0.3101538E+04  0.7818609E-02  0.8215316E-01
       -1   -1    0    0    0  501  0.00000000000E+00  0.00000000000E+00  0.12248844744E+04  0.12248844744E+04  0.50400001928E-02 0. -1.
        1   -1    0    0  501    0  0.00000000000E+00  0.00000000000E+00 -0.19633567395E+04  0.19633567395E+04  0.50400001928E-02 0.  1.
    10030    2    1    2    0    0  0.00000000000E+00  0.00000000000E+00 -0.73847226513E+03  0.31882412139E+04  0.31015384492E+04 0.  0.
        2    1    3    3  502    0 -0.16671172665E+03  0.12191836745E+04  0.60090678900E+03  0.13694125022E+04  0.25500000920E-02 0. -1.
       -2    1    3    3    0  502  0.16671172665E+03 -0.12191836745E+04 -0.13393790541E+04  0.18188287117E+04  0.25500000920E-02 0.  1.
</event>
<event>
 5   0  0.5376678E-07  0.3113230E+04  0.7818609E-02  0.8212116E-01
       -2   -1    0    0    0  501  0.00000000000E+00  0.00000000000E+00  0.27262283232E+04  0.27262283232E+04  0.25500000920E-02 0. -1.
        2   -1    0    0  501    0  0.00000000000E+00  0.00000000000E+00 -0.88879219377E+03  0.88879219378E+03  0.25500000920E-02 0.  1.
    10030    2    1    2    0    0  0.00000000000E+00  0.00000000000E+00  0.18374361295E+04  0.36150205170E+04  0.31132301246E+04 0.  0.
        5    1    3    3  502    0 -0.12439260032E+04  0.10519895601E+03 -0.16099803966E+03  0.12587140980E+04  0.46999998093E+01 0.  1.
       -5    1    3    3    0  502  0.12439260032E+04 -0.10519895601E+03  0.19984341691E+04  0.23563064190E+04  0.46999998093E+01 0. -1.
</event>
<event>
 5   0  0.1830902E-07  0.3106440E+04  0.7818609E-02  0.8213973E-01
        1   -1    0    0  501    0  0.00000000000E+00  0.00000000000E+00  0.11275844865E+04  0.11275844865E+04  0.50400001928E-02 0.  1.
       -1   -1    0    0    0  501  0.00000000000E+00  0.00000000000E+00 -0.21395222751E+04  0.21395222751E+04  0.50400001928E-02 0. -1.
    10030    2    1    2    0    0  0.00000000000E+00  0.00000000000E+00 -0.10119377886E+04  0.32671067616E+04  0.31064398439E+04 0.  0.
        3    1    3    3  502    0  0.13219107647E+04 -0.57623044692E+03 -0.11128786761E+04  0.18215346705E+04  0.10100000352E+00 0. -1.
       -3    1    3    3    0  502 -0.13219107647E+04  0.57623044692E+03  0.10094088748E+03  0.14455720912E+04  0.10100000352E+00 0.  1.
</event>
<event>
 5   0  0.5376678E-07  0.3124397E+04  0.7818609E-02  0.8209074E-01
       -2   -1    0    0    0  501  0.00000000000E+00  0.00000000000E+00  0.13475721950E+04  0.13475721950E+04  0.25500000920E-02 0.  1.
        2   -1    0    0  501    0  0.00000000000E+00  0.00000000000E+00 -0.18110081472E+04  0.18110081472E+04  0.25500000920E-02 0. -1.
    10030    2    1    2    0    0  0.00000000000E+00  0.00000000000E+00 -0.46343595217E+03  0.31585803422E+04  0.31243970452E+04 0.  0.
        5    1    3    3  502    0  0.10913444273E+04 -0.83331033208E+03  0.52141821582E+03  0.14687878725E+04  0.46999998093E+01 0. -1.
       -5    1    3    3    0  502 -0.10913444273E+04  0.83331033208E+03 -0.98485416799E+03  0.16897924697E+04  0.46999998093E+01 0.  1.
</event>
<event>
 5   0  0.1830902E-07  0.3100341E+04  0.7818609E-02  0.8215644E-01
        1   -1    0    0  501    0  0.00000000000E+00  0.00000000000E+00  0.14658191435E+04  0.14658191435E+04  0.50400001928E-02 0.  1.
       -1   -1    0    0    0  501  0.00000000000E+00  0.00000000000E+00 -0.16393759403E+04  0.16393759403E+04  0.50400001928E-02 0. -1.
    10030    2    1    2    0    0  0.00000000000E+00  0.00000000000E+00 -0.17355679686E+03  0.31051950838E+04  0.31003410372E+04 0.  0.
        3    1    3    3  502    0  0.10893206625E+04 -0.10334521934E+04 -0.47259012482E+03  0.15741614841E+04  0.10100000352E+00 0. -1.
       -3    1    3    3    0  502 -0.10893206625E+04  0.10334521934E+04  0.29903332796E+03  0.15310335997E+04  0.10100000352E+00 0.  1.
</event>
<event>
 5   0  0.5248309E-07  0.3100255E+04  0.7818609E-02  0.8215668E-01
       -2   -1    0    0    0  501  0.00000000000E+00  0.00000000000E+00  0.11622596095E+04  0.11622596095E+04  0.25500000920E-02 0.  1.
        2   -1    0    0  501    0  0.00000000000E+00  0.00000000000E+00 -0.20674340374E+04  0.20674340374E+04  0.25500000920E-02 0. -1.
    10030    2    1    2    0    0  0.00000000000E+00  0.00000000000E+00 -0.90517442789E+03  0.32296936468E+04  0.31002548778E+04 0.  0.
        4    1    3    3  502    0 -0.77747607685E+03  0.98291298963E+03  0.49781089771E+03  0.13484822201E+04  0.12699999809E+01 0.  1.
       -4    1    3    3    0  502  0.77747607685E+03 -0.98291298963E+03 -0.14029853256E+04  0.18812114267E+04  0.12699999809E+01 0. -1.
</event>
<event>
 5   0  0.1875284E-07  0.3104308E+04  0.7818609E-02  0.8214557E-01
        1   -1    0    0  501    0  0.00000000000E+00  0.00000000000E+00  0.13495238124E+04  0.13495238124E+04  0.50400001928E-02 0.  1.
       -1   -1    0    0    0  501  0.00000000000E+00  0.00000000000E+00 -0.17852088165E+04  0.17852088166E+04  0.50400001928E-02 0. -1.
    10030    2    1    2    0    0  0.00000000000E+00  0.00000000000E+00 -0.43568500418E+03  0.31347326289E+04  0.31043078507E+04 0.  0.
        4    1    3    3  502    0  0.67158815794E+03 -0.97475939813E+03  0.79598629017E+03  0.14264579647E+04  0.12699999809E+01 0.  1.
       -4    1    3    3    0  502 -0.67158815794E+03  0.97475939813E+03 -0.12316712943E+04  0.17082746642E+04  0.12699999809E+01 0. -1.
</event>
<event>
 5   0  0.5248309E-07  0.3091628E+04  0.7818609E-02  0.8218039E-01
       -2   -1    0    0    0  501  0.00000000000E+00  0.00000000000E+00  0.13446365647E+04  0.13446365647E+04  0.25500000920E-02 0. -1.
        2   -1    0    0  501    0  0.00000000000E+00  0.00000000000E+00 -0.17770900255E+04  0.17770900255E+04  0.25500000920E-02 0.  1.
    10030    2    1    2    0    0  0.00000000000E+00  0.00000000000E+00 -0.43245346080E+03  0.31217265902E+04  0.30916275500E+04 0.  0.
        4    1    3    3  502    0 -0.19570377840E+03  0.10888116258E+04 -0.13064270078E+04  0.17118889757E+04  0.12699999809E+01 0.  1.
       -4    1    3    3    0  502  0.19570377840E+03 -0.10888116258E+04  0.87397354704E+03  0.14098376145E+04  0.12699999809E+01 0. -1.
</event>
<event>
 5   0  0.5055900E-07  0.3100083E+04  0.7818609E-02  0.8215715E-01
        2   -1    0    0  501    0  0.00000000000E+00  0.00000000000E+00  0.15748782184E+04  0.15748782185E+04  0.25500000920E-02 0. -1.
       -2   -1    0    0    0  501  0.00000000000E+00  0.00000000000E+00 -0.15255960012E+04  0.15255960012E+04  0.25500000920E-02 0.  1.
    10030    2    1    2    0    0  0.00000000000E+00  0.00000000000E+00  0.49282217238E+02  0.31004742197E+04  0.31000825231E+04 0.  0.
        2    1    3    3  502    0  0.33824731987E+03 -0.11955644804E+04 -0.90221339994E+03  0.15355047038E+04  0.25500000920E-02 0.  1.
       -2    1    3    3    0  502 -0.33824731987E+03  0.11955644804E+04  0.95149561718E+03  0.15649695159E+04  0.25500000920E-02 0. -1.
</event>
<event>
 5   0  0.1840359E-07  0.3102407E+04  0.7818609E-02  0.8215078E-01
        1   -1    0    0  501    0  0.00000000000E+00  0.00000000000E+00  0.24911785121E+04  0.24911785121E+04  0.50400001928E-02 0. -1.
       -1   -1    0    0    0  501  0.00000000000E+00  0.00000000000E+00 -0.96590111539E+03  0.96590111540E+03  0.50400001928E-02 0.  1.
    10030    2    1    2    0    0  0.00000000000E+00  0.00000000000E+00  0.15252773967E+04  0.34570796275E+04  0.31024068744E+04 0.  0.
        1    1    3    3  502    0  0.50312473582E+03 -0.68377659133E+03 -0.68406997458E+03  0.10902461450E+04  0.50400001928E-02 0.  1.
       -1    1    3    3    0  502 -0.50312473582E+03  0.68377659133E+03  0.22093473713E+04  0.23668334825E+04  0.50400001928E-02 0. -1.
</event>
<event>
 5   0  0.1727000E-07  0.3107129E+04  0.7818609E-02  0.8213784E-01
       -3   -1    0    0    0  501  0.00000000000E+00  0.00000000000E+00  0.12442725454E+04  0.12442725495E+04  0.10100000352E+00 0.  1.
        3   -1    0    0  501    0  0.00000000000E+00  0.00000000000E+00 -0.19397376272E+04  0.19397376299E+04  0.10100000352E+00 0. -1.
    10030    2    1    2    0    0  0.00000000000E+00  0.00000000000E+00 -0.69546508181E+03  0.31840101794E+04  0.31071287618E+04 0.  0.
        4    1    3    3  502    0  0.34755093610E+03 -0.11764120059E+04  0.62917856104E+03  0.13786240007E+04  0.12699999809E+01 0.  1.
       -4    1    3    3    0  502 -0.34755093610E+03  0.11764120059E+04 -0.13246436429E+04  0.18053861787E+04  0.12699999809E+01 0. -1.
</event>
<event>
 5   0  0.1840359E-07  0.3104728E+04  0.7818609E-02  0.8214441E-01
        1   -1    0    0  501    0  0.00000000000E+00  0.00000000000E+00  0.13140661116E+04  0.13140661116E+04  0.50400001928E-02 0.  1.
       -1   -1    0    0    0  501  0.00000000000E+00  0.00000000000E+00 -0.18338763432E+04  0.18338763433E+04  0.50400001928E-02 0. -1.
    10030    2    1    2    0    0  0.00000000000E+00  0.00000000000E+00 -0.51981023169E+03  0.31479424548E+04  0.31047284941E+04 0.  0.
        1    1    3    3  502    0  0.15227099633E+04 -0.16081172765E+02 -0.56564915065E+03  0.16244578166E+04  0.50400001928E-02 0. -1.
       -1    1    3    3    0  502 -0.15227099633E+04  0.16081172765E+02  0.45838918959E+02  0.15234846382E+04  0.50400001928E-02 0.  1.
</event>
<event>
 5   0  0.5376678E-07  0.3099904E+04  0.7818609E-02  0.8215764E-01
        2   -1    0    0  501    0  0.00000000000E+00  0.00000000000E+00  0.25418663041E+04  0.25418663041E+04  0.25500000920E-02 0. -1.
       -2   -1    0    0    0  501  0.00000000000E+00  0.00000000000E+00 -0.94511329065E+03  0.94511329065E+03  0.25500000920E-02 0.  1.
    10030    2    1    2    0    0  0.00000000000E+00  0.00000000000E+00  0.15967530135E+04  0.34869795948E+04  0.30999042740E+04 0.  0.
        5    1    3    3  502    0  0.72468550089E+03 -0.98564514721E+03  0.18688716490E+04  0.22336894954E+04  0.46999998093E+01 0.  1.
       -5    1    3    3    0  502 -0.72468550089E+03  0.98564514721E+03 -0.27211863552E+03  0.12532900994E+04  0.46999998093E+01 0. -1.
</event>
<event>
 5   0  0.5342534E-07  0.3102821E+04  0.7818609E-02  0.8214964E-01
       -2   -1    0    0    0  501  0.00000000000E+00  0.00000000000E+00  0.11248362558E+04  0.11248362558E+04  0.25500000920E-02 0. -1.
        2   -1    0    0  501    0  0.00000000000E+00  0.00000000000E+00 -0.21397559987E+04  0.21397559987E+04  0.25500000920E-02 0.  1.
    10030    2    1    2    0    0  0.00000000000E+00  0.00000000000E+00 -0.10149197429E+04  0.32645922545E+04  0.31028213780E+04 0.  0.
        3    1    3    3  502    0  0.40840140959E+03  0.14966868633E+04 -0.50383990432E+03  0.16311707260E+04  0.10100000352E+00 0. -1.
       -3    1    3    3    0  502 -0.40840140959E+03 -0.14966868633E+04 -0.51107983860E+03  0.16334215285E+04  0.10100000352E+00 0.  1.
</event>
<event>
 5   0  0.5342534E-07  0.3101164E+04  0.7818609E-02  0.8215418E-01
        2   -1    0    0  501    0  0.00000000000E+00  0.00000000000E+00  0.14891154269E+04  0.14891154269E+04  0.25500000920E-02 0.  1.
       -2   -1    0    0    0  501  0.00000000000E+00  0.00000000000E+00 -0.16145862336E+04  0.16145862336E+04  0.25500000920E-02 0. -1.
    10030    2    1    2    0    0  0.00000000000E+00  0.00000000000E+00 -0.12547080671E+03  0.31037016604E+04  0.31011644706E+04 0.  0.
        3    1    3    3  502    0 -0.39391795771E+03  0.60968671683E+03  0.13085739151E+04  0.14964140308E+04  0.10100000352E+00 0.  1.
       -3    1    3    3    0  502  0.39391795771E+03 -0.60968671683E+03 -0.14340447218E+04  0.16072876296E+04  0.10100000352E+00 0. -1.
</event>
<event>
 5   0  0.1845123E-07  0.3102234E+04  0.7818609E-02  0.8215125E-01
        1   -1    0    0  501    0  0.00000000000E+00  0.00000000000E+00  0.14794890639E+04  0.14794890639E+04  0.50400001928E-02 0.  1.
       -1   -1    0    0    0  501  0.00000000000E+00  0.00000000000E+00 -0.16262122422E+04  0.16262122423E+04  0.50400001928E-02 0. -1.
    10030    2    1    2    0    0  0.00000000000E+00  0.00000000000E+00 -0.14672317833E+03  0.31057013062E+04  0.31022335360E+04 0.  0.
        2    1    3    3  502    0 -0.29956837860E+02  0.87475784858E+03 -0.13553650023E+04  0.16134165597E+04  0.25500000920E-02 0. -1.
       -2    1    3    3    0  502  0.29956837860E+02 -0.87475784858E+03  0.12086418240E+04  0.14922847464E+04  0.25500000920E-02 0.  1.
</event>
<event>
 5   0  0.5248309E-07  0.3098124E+04  0.7818609E-02  0.8216253E-01
        2   -1    0    0  501    0  0.00000000000E+00  0.00000000000E+00  0.13338672761E+04  0.13338672761E+04  0.25500000920E-02 0.  1.
       -2   -1    0    0    0  501  0.00000000000E+00  0.00000000000E+00 -0.17989738872E+04  0.17989738872E+04  0.25500000920E-02 0. -1.
    10030    2    1    2    0    0  0.00000000000E+00  0.00000000000E+00 -0.46510661111E+03  0.31328411633E+04  0.30981235603E+04 0.  0.
        4    1    3    3  502    0  0.52384131201E+03 -0.14518686812E+04 -0.36539667549E+03  0.15861427209E+04  0.12699999809E+01 0. -1.
       -4    1    3    3    0  502 -0.52384131201E+03  0.14518686812E+04 -0.99709935621E+02  0.15466984424E+04  0.12699999809E+01 0.  1.
</event>
<event>
 5   0  0.1840359E-07  0.3100523E+04  0.7818609E-02  0.8215594E-01
       -1   -1    0    0    0  501  0.00000000000E+00  0.00000000000E+00  0.24077158555E+04  0.24077158555E+04  0.50400001928E-02 0.  1.
        1   -1    0    0  501    0  0.00000000000E+00  0.00000000000E+00 -0.99817023896E+03  0.99817023897E+03  0.50400001928E-02 0. -1.
    10030    2    1    2    0    0  0.00000000000E+00  0.00000000000E+00  0.14095456165E+04  0.34058860944E+04  0.31005227371E+04 0.  0.
        1    1    3    3  502    0  0.10164189830E+04  0.28581952853E+03  0.19516942376E+04  0.22189886771E+04  0.50400001928E-02 0.  1.
       -1    1    3    3    0  502 -0.10164189830E+04 -0.28581952853E+03 -0.54214862107E+03  0.11868974174E+04  0.50400001928E-02 0. -1.
</event>
<event>
 5   0  0.5342534E-07  0.3098143E+04  0.7818609E-02  0.8216248E-01
        2   -1    0    0  501    0  0.00000000000E+00  0.00000000000E+00  0.13416851113E+04  0.13416851113E+04  0.25500000920E-02 0. -1.
       -2   -1    0    0    0  501  0.00000000000E+00  0.00000000000E+00 -0.17885143781E+04  0.17885143781E+04  0.25500000920E-02 0.  1.
    10030    2    1    2    0    0  0.00000000000E+00  0.00000000000E+00 -0.44682926676E+03  0.31301994894E+04  0.30981433875E+04 0.  0.
        3    1    3    3  502    0 -0.11131017281E+04  0.10726595346E+04 -0.32459656273E+03  0.15795432482E+04  0.10100000352E+00 0.  1.
       -3    1    3    3    0  502  0.11131017281E+04 -0.10726595346E+04 -0.12223270404E+03  0.15506562412E+04  0.10100000352E+00 0. -1.
</event>
<event>
 5   0  0.1840359E-07  0.3099525E+04  0.7818609E-02  0.8215868E-01
        1   -1    0    0  501    0  0.00000000000E+00  0.00000000000E+00  0.22730662575E+04  0.22730662575E+04  0.50400001928E-02 0.  1.
       -1   -1    0    0    0  501  0.00000000000E+00  0.00000000000E+00 -0.10566186081E+04  0.10566186082E+04  0.50400001928E-02 0. -1.
    10030    2    1    2    0    0  0.00000000000E+00  0.00000000000E+00  0.12164476494E+04  0.33296848657E+04  0.30995251928E+04 0.  0.
        1    1    3    3  502    0  0.49213057203E+02  0.15472343164E+04  0.52922286877E+03  0.16359806844E+04  0.50400001928E-02 0.  1.
       -1    1    3    3    0  502 -0.49213057203E+02 -0.15472343164E+04  0.68722478059E+03  0.16937041813E+04  0.50400001928E-02 0. -1.
</event>
<event>
 5   0  0.5376678E-07  0.3099816E+04  0.7818609E-02  0.8215789E-01
        2   -1    0    0  501    0  0.00000000000E+00  0.00000000000E+00  0.20915652714E+04  0.20915652714E+04  0.25500000920E-02 0.  1.
       -2   -1    0    0    0  501  0.00000000000E+00  0.00000000000E+00 -0.11485245814E+04  0.11485245814E+04  0.25500000920E-02 0. -1.
    10030    2    1    2    0    0  0.00000000000E+00  0.00000000000E+00  0.94304068998E+03  0.32400898528E+04  0.30998155609E+04 0.  0.
        5    1    3    3  502    0 -0.11764031226E+04  0.71778516768E+03  0.12128779028E+04  0.18358199125E+04  0.46999998093E+01 0.  1.
       -5    1    3    3    0  502  0.11764031226E+04 -0.71778516768E+03 -0.26983721285E+03  0.14042699403E+04  0.46999998093E+01 0. -1.
</event>
<event>
 5   0  0.1727000E-07  0.3100589E+04  0.7818609E-02  0.8215576E-01
        3   -1    0    0  501    0  0.00000000000E+00  0.00000000000E+00  0.15145623626E+04  0.15145623659E+04  0.10100000352E+00 0.  1.
       -3   -1    0    0    0  501  0.00000000000E+00  0.00000000000E+00 -0.15868699235E+04  0.15868699267E+04  0.10100000352E+00 0. -1.
    10030    2    1    2    0    0  0.00000000000E+00  0.00000000000E+00 -0.72307560913E+02  0.31014322926E+04  0.31005892799E+04 0.  0.
        3    1    3    3  502    0  0.72750704817E+03 -0.44944474296E+03 -0.13296203532E+04  0.15808723465E+04  0.10100000352E+00 0. -1.
       -3    1    3    3    0  502 -0.72750704817E+03  0.44944474296E+03  0.12573127922E+04  0.15205599462E+04  0.10100000352E+00 0.  1.
</event>
<event>
 5   0  0.1875284E-07  0.3094579E+04  0.7818609E-02  0.8217227E-01
       -1   -1    0    0    0  501  0.00000000000E+00  0.00000000000E+00  0.13825193123E+04  0.13825193123E+04  0.50400001928E-02 0. -1.
        1   -1    0    0  501    0  0.00000000000E+00  0.00000000000E+00 -0.17316977109E+04  0.17316977109E+04  0.50400001928E-02 0.  1.
    10030    2    1    2    0    0  0.00000000000E+00  0.00000000000E+00 -0.34917839854E+03  0.31142170232E+04  0.30945794728E+04 0.  0.
        4    1    3    3  502    0  0.39090384953E+03 -0.86746193539E+03 -0.14024992785E+04  0.16947866733E+04  0.12699999809E+01 0.  1.
       -4    1    3    3    0  502 -0.39090384953E+03  0.86746193539E+03  0.10533208800E+04  0.14194303499E+04  0.12699999809E+01 0. -1.
</event>
<event>
 5   0  0.5055900E-07  0.3103354E+04  0.7818609E-02  0.8214818E-01
        2   -1    0    0  501    0  0.00000000000E+00  0.00000000000E+00  0.19461829568E+04  0.19461829568E+04  0.25500000920E-02 0. -1.
       -2   -1    0    0    0  501  0.00000000000E+00  0.00000000000E+00 -0.12371403092E+04  0.12371403092E+04  0.25500000920E-02 0.  1.
    10030    2    1    2    0    0  0.00000000000E+00  0.00000000000E+00  0.70904264752E+03  0.31833232660E+04  0.31033539179E+04 0.  0.
        2    1    3    3  502    0 -0.97208566212E+02  0.70947774022E+03  0.17665444409E+04  0.19061708819E+04  0.25500000920E-02 0. -1.
       -2    1    3    3    0  502  0.97208566212E+02 -0.70947774022E+03 -0.10575017934E+04  0.12771523841E+04  0.25500000920E-02 0.  1.
</event>
<event>
 5   0  0.5342534E-07  0.3073186E+04  0.7818609E-02  0.8223135E-01
        2   -1    0    0  501    0  0.00000000000E+00  0.00000000000E+00  0.23254190424E+04  0.23254190424E+04  0.25500000920E-02 0.  1.
       -2   -1    0    0    0  501  0.00000000000E+00  0.00000000000E+00 -0.10153517247E+04  0.10153517247E+04  0.25500000920E-02 0. -1.
    10030    2    1    2    0    0  0.00000000000E+00  0.00000000000E+00  0.13100673177E+04  0.33407707671E+04  0.30731861222E+04 0.  0.
        3    1    3    3  502    0  0.61456781299E+03 -0.50139986890E+03 -0.77562034875E+03  0.11093612400E+04  0.10100000352E+00 0. -1.
       -3    1    3    3    0  502 -0.61456781299E+03  0.50139986890E+03  0.20856876665E+04  0.22314095271E+04  0.10100000352E+00 0.  1.
</event>
<event>
 5   0  0.1814075E-07  0.3102727E+04  0.7818609E-02  0.8214990E-01
        1   -1    0    0  501    0  0.00000000000E+00  0.00000000000E+00  0.23841585704E+04  0.23841585704E+04  0.50400001928E-02 0. -1.
       -1   -1    0    0    0  501  0.00000000000E+00  0.00000000000E+00 -0.10094665603E+04  0.10094665603E+04  0.50400001928E-02 0.  1.
    10030    2    1    2    0    0  0.00000000000E+00  0.00000000000E+00  0.13746920101E+04  0.33936251307E+04  0.31027267693E+04 0.  0.
        5    1    3    3  502    0  0.81969479234E+03  0.75184250369E+03  0.18701908801E+04  0.21759601837E+04  0.46999998093E+01 0. -1.
       -5    1    3    3    0  502 -0.81969479234E+03 -0.75184250369E+03 -0.49549887002E+03  0.12176649470E+04  0.46999998093E+01 0.  1.
</event>
<event>
 5   0  0.5376678E-07  0.3101409E+04  0.7818609E-02  0.8215351E-01
        2   -1    0    0  501    0  0.00000000000E+00  0.00000000000E+00  0.22786457952E+04  0.22786457952E+04  0.25500000920E-02 0.  1.
       -2   -1    0    0    0  501  0.00000000000E+00  0.00000000000E+00 -0.10553127836E+04  0.10553127836E+04  0.25500000920E-02 0. -1.
    10030    2    1    2    0    0  0.00000000000E+00  0.00000000000E+00  0.12233330116E+04  0.33339585789E+04  0.31014087361E+04 0.  0.
        5    1    3    3  502    0 -0.10536338834E+04  0.10979715337E+04  0.29101161207E+03  0.15493210440E+04  0.46999998093E+01 0.  1.
       -5    1    3    3    0  502  0.10536338834E+04 -0.10979715337E+04  0.93232139949E+03  0.17846375349E+04  0.46999998093E+01 0. -1.
</event>
<event>
 5   0  0.5248309E-07  0.3101672E+04  0.7818609E-02  0.8215279E-01
       -2   -1    0    0    0  501  0.00000000000E+00  0.00000000000E+00  0.14899285455E+04  0.14899285455E+04  0.25500000920E-02 0.  1.
        2   -1    0    0  501    0  0.00000000000E+00  0.00000000000E+00 -0.16142332149E+04  0.16142332149E+04  0.25500000920E-02 0. -1.
    10030    2    1    2    0    0  0.00000000000E+00  0.00000000000E+00 -0.12430466939E+03  0.31041617604E+04  0.31016719014E+04 0.  0.
        4    1    3    3  502    0 -0.52708127201E+02  0.50258731587E+03  0.14052164408E+04  0.14933208011E+04  0.12699999809E+01 0.  1.
       -4    1    3    3    0  502  0.52708127201E+02 -0.50258731587E+03 -0.15295211102E+04  0.16108409593E+04  0.12699999809E+01 0. -1.
</event>
<event>
 5   0  0.5055900E-07  0.3103406E+04  0.7818609E-02  0.8214804E-01
        2   -1    0    0  501    0  0.00000000000E+00  0.00000000000E+00  0.15341004860E+04  0.15341004860E+04  0.25500000920E-02 0.  1.
       -2   -1    0    0    0  501  0.00000000000E+00  0.00000000000E+00 -0.15695073509E+04  0.15695073509E+04  0.25500000920E-02 0. -1.
    10030    2    1    2    0    0  0.00000000000E+00  0.00000000000E+00 -0.35406864927E+02  0.31036078370E+04  0.31034058645E+04 0.  0.
        2    1    3    3  502    0 -0.14708313967E+04  0.31628320729E+03 -0.39773069650E+03  0.15561393805E+04  0.25500000920E-02 0.  1.
       -2    1    3    3    0  502  0.14708313967E+04 -0.31628320729E+03  0.36232383157E+03  0.15474684564E+04  0.25500000920E-02 0. -1.
</event>
<event>
 5   0  0.1845123E-07  0.3101563E+04  0.7818609E-02  0.8215309E-01
       -1   -1    0    0    0  501  0.00000000000E+00  0.00000000000E+00  0.26724322087E+04  0.26724322087E+04  0.50400001928E-02 0. -1.
        1   -1    0    0  501    0  0.00000000000E+00  0.00000000000E+00 -0.89990071145E+03  0.89990071146E+03  0.50400001928E-02 0.  1.
    10030    2    1    2    0    0  0.00000000000E+00  0.00000000000E+00  0.17725314973E+04  0.35723329202E+04  0.31015632484E+04 0.  0.
        2    1    3    3  502    0 -0.15327945684E+04  0.16497994806E+03  0.69269027630E+03  0.16901175673E+04  0.25500000920E-02 0. -1.
       -2    1    3    3    0  502  0.15327945684E+04 -0.16497994806E+03  0.10798412210E+04  0.18822153529E+04  0.25500000920E-02 0.  1.
</event>
<event>
 5   0  0.5055900E-07  0.3114010E+04  0.7818609E-02  0.8211903E-01
        2   -1    0    0  501    0  0.00000000000E+00  0.00000000000E+00  0.18650654896E+04  0.18650654896E+04  0.25500000920E-02 0. -1.
       -2   -1    0    0    0  501  0.00000000000E+00  0.00000000000E+00 -0.12998285061E+04  0.12998285061E+04  0.25500000920E-02 0.  1.
    10030    2    1    2    0    0  0.00000000000E+00  0.00000000000E+00  0.56523698351E+03  0.31648939958E+04  0.31140104619E+04 0.  0.
        2    1    3    3  502    0  0.11455108415E+02 -0.78668811705E+03  0.16481712531E+04  0.18263290757E+04  0.25500000920E-02 0. -1.
       -2    1    3    3    0  502 -0.11455108415E+02  0.78668811705E+03 -0.10829342696E+04  0.13385649201E+04  0.25500000920E-02 0.  1.
</event>
<event>
 5   0  0.5376678E-07  0.3093035E+04  0.7818609E-02  0.8217652E-01
       -2   -1    0    0    0  501  0.00000000000E+00  0.00000000000E+00  0.26767573386E+04  0.26767573386E+04  0.25500000920E-02 0.  1.
        2   -1    0    0  501    0  0.00000000000E+00  0.00000000000E+00 -0.89351232279E+03  0.89351232280E+03  0.25500000920E-02 0. -1.
    10030    2    1    2    0    0  0.00000000000E+00  0.00000000000E+00  0.17832450158E+04  0.35702696614E+04  0.30930345405E+04 0.  0.
        5    1    3    3  502    0  0.74053753878E+03  0.12355190907E+04  0.15413065391E+04  0.21096329556E+04  0.46999998093E+01 0.  1.
       -5    1    3    3    0  502 -0.74053753878E+03 -0.12355190907E+04  0.24193847666E+03  0.14606367058E+04  0.46999998093E+01 0. -1.
</event>
<event>
 5   0  0.5248309E-07  0.3103383E+04  0.7818609E-02  0.8214810E-01
       -2   -1    0    0    0  501  0.00000000000E+00  0.00000000000E+00  0.14616958827E+04  0.14616958827E+04  0.25500000920E-02 0. -1.
        2   -1    0    0  501    0  0.00000000000E+00  0.00000000000E+00 -0.16472282610E+04  0.16472282610E+04  0.25500000920E-02 0.  1.
    10030    2    1    2    0    0  0.00000000000E+00  0.00000000000E+00 -0.18553237833E+03  0.31089241437E+04  0.31033831648E+04 0.  0.
        4    1    3    3  502    0  0.48881198564E+03  0.13963160847E+04  0.37616078894E+03  0.15264777488E+04  0.12699999809E+01 0. -1.
       -4    1    3    3    0  502 -0.48881198564E+03 -0.13963160847E+04 -0.56169316728E+03  0.15824463949E+04  0.12699999809E+01 0.  1.
</event>
<event>
 5   0  0.5055900E-07  0.3101953E+04  0.7818609E-02  0.8215202E-01
       -2   -1    0    0    0  501  0.00000000000E+00  0.00000000000E+00  0.81817975320E+03  0.81817975320E+03  0.25500000920E-02 0.  1.
        2   -1    0    0  501    0  0.00000000000E+00  0.00000000000E+00 -0.29400967083E+04  0.29400967083E+04  0.25500000920E-02 0. -1.
    10030    2    1    2    0    0  0.00000000000E+00  0.00000000000E+00 -0.21219169551E+04  0.37582764615E+04  0.31019526748E+04 0.  0.
        2    1    3    3  502    0 -0.38853384670E+03 -0.89462154401E+03 -0.25220210418E+04  0.27040518472E+04  0.25500000920E-02 0. -1.
       -2    1    3    3    0  502  0.38853384670E+03  0.89462154401E+03  0.40010408676E+03  0.10542246142E+04  0.25500000920E-02 0.  1.
</event>
<event>
 5   0  0.5376678E-07  0.3095565E+04  0.7818609E-02  0.8216956E-01
        2   -1    0    0  501    0  0.00000000000E+00  0.00000000000E+00  0.18964952706E+04  0.18964952706E+04  0.25500000920E-02 0. -1.
       -2   -1    0    0    0  501  0.00000000000E+00  0.00000000000E+00 -0.12631881086E+04  0.12631881086E+04  0.25500000920E-02 0.  1.
    10030    2    1    2    0    0  0.00000000000E+00  0.00000000000E+00  0.63330716199E+03  0.31596833792E+04  0.30955647458E+04 0.  0.
        5    1    3    3  502    0 -0.60192726619E+02 -0.21929625209E+03  0.18793430066E+04  0.18930573782E+04  0.46999998093E+01 0. -1.
       -5    1    3    3    0  502  0.60192726619E+02  0.21929625209E+03 -0.12460358446E+04  0.12666260011E+04  0.46999998093E+01 0.  1.
</event>
<event>
 5   0  0.1840359E-07  0.3097311E+04  0.7818609E-02  0.8216476E-01
        1   -1    0    0  501    0  0.00000000000E+00  0.00000000000E+00  0.16185045751E+04  0.16185045751E+04  0.50400001928E-02 0.  1.
       -1   -1    0    0    0  501  0.00000000000E+00  0.00000000000E+00 -0.14818208303E+04  0.14818208303E+04  0.50400001928E-02 0. -1.
    10030    2    1    2    0    0  0.00000000000E+00  0.00000000000E+00  0.13668374477E+03  0.31003254054E+04  0.30973109585E+04 0.  0.
        1    1    3    3  502    0 -0.53034699269E+03  0.11498661559E+04  0.96076646481E+03  0.15895069390E+04  0.50400001928E-02 0.  1.
       -1    1    3    3    0  502  0.53034699269E+03 -0.11498661559E+04 -0.82408272004E+03  0.15108184665E+04  0.50400001928E-02 0. -1.
</event>
<event>
 5   0  0.5342534E-07  0.3095001E+04  0.7818609E-02  0.8217111E-01
        2   -1    0    0  501    0  0.00000000000E+00  0.00000000000E+00  0.21274718839E+04  0.21274718839E+04  0.25500000920E-02 0.  1.
       -2   -1    0    0    0  501  0.00000000000E+00  0.00000000000E+00 -0.11256351395E+04  0.11256351395E+04  0.25500000920E-02 0. -1.
    10030    2    1    2    0    0  0.00000000000E+00  0.00000000000E+00  0.10018367443E+04  0.32531070234E+04  0.30950005563E+04 0.  0.
        3    1    3    3  502    0  0.11290465905E+04 -0.21567955180E+03  0.15899419298E+04  0.19619325225E+04  0.10100000352E+00 0.  1.
       -3    1    3    3    0  502 -0.11290465905E+04  0.21567955180E+03 -0.58810518544E+03  0.12911745009E+04  0.10100000352E+00 0. -1.
</event>
<event>
 5   0  0.1840359E-07  0.3100171E+04  0.7818609E-02  0.8215691E-01
        1   -1    0    0  501    0  0.00000000000E+00  0.00000000000E+00  0.17391061221E+04  0.17391061221E+04  0.50400001928E-02 0. -1.
       -1   -1    0    0    0  501  0.00000000000E+00  0.00000000000E+00 -0.13816091302E+04  0.13816091302E+04  0.50400001928E-02 0.  1.
    10030    2    1    2    0    0  0.00000000000E+00  0.00000000000E+00  0.35749699186E+03  0.31207152523E+04  0.31001708964E+04 0.  0.
        1    1    3    3  502    0  0.97828610599E+03 -0.58952734200E+03 -0.87613626274E+03  0.14395141344E+04  0.50400001928E-02 0.  1.
       -1    1    3    3    0  502 -0.97828610599E+03  0.58952734200E+03  0.12336332546E+04  0.16812011180E+04  0.50400001928E-02 0. -1.
</event>
<event>
 5   0  0.5055900E-07  0.3098344E+04  0.7818609E-02  0.8216193E-01
       -2   -1    0    0    0  501  0.00000000000E+00  0.00000000000E+00  0.10004649480E+04  0.10004649480E+04  0.25500000920E-02 0.  1.
        2   -1    0    0  501    0  0.00000000000E+00  0.00000000000E+00 -0.23988180724E+04  0.23988180724E+04  0.25500000920E-02 0. -1.
    10030    2    1    2    0    0  0.00000000000E+00  0.00000000000E+00 -0.13983531244E+04  0.33992830204E+04  0.30983436853E+04 0.  0.
        2    1    3    3  502    0 -0.26803242000E+03  0.13008968025E+04 -0.15739672950E+04  0.20595016181E+04  0.25500000920E-02 0. -1.
       -2    1    3    3    0  502  0.26803242000E+03 -0.13008968025E+04  0.17561417062E+03  0.13397814023E+04  0.25500000920E-02 0.  1.
</event>
<event>
 5   0  0.5376678E-07  0.3097886E+04  0.7818609E-02  0.8216318E-01
        2   -1    0    0  501    0  0.00000000000E+00  0.00000000000E+00  0.22830205761E+04  0.22830205761E+04  0.25500000920E-02 0.  1.
       -2   -1    0    0    0  501  0.00000000000E+00  0.00000000000E+00 -0.10508988320E+04  0.10508988320E+04  0.25500000920E-02 0. -1.
    10030    2    1    2    0    0  0.00000000000E+00  0.00000000000E+00  0.12321217441E+04  0.33339194081E+04  0.30978855091E+04 0.  0.
        5    1    3    3  502    0  0.57843925173E+03  0.74743113159E+03  0.19367357578E+04  0.21550435611E+04  0.46999998093E+01 0.  1.
       -5    1    3    3    0  502 -0.57843925173E+03 -0.74743113159E+03 -0.70461401376E+03  0.11788758471E+04  0.46999998093E+01 0. -1.
</event>
<event>
 5   0  0.1840359E-07  0.3106833E+04  0.7818609E-02  0.8213865E-01
       -1   -1    0    0    0  501  0.00000000000E+00  0.00000000000E+00  0.27896718985E+04  0.27896718986E+04  0.50400001928E-02 0. -1.
        1   -1    0    0  501    0  0.00000000000E+00  0.00000000000E+00 -0.86501325289E+03  0.86501325291E+03  0.50400001928E-02 0.  1.
    10030    2    1    2    0    0  0.00000000000E+00  0.00000000000E+00  0.19246586457E+04  0.36546851515E+04  0.31068332195E+04 0.  0.
        1    1    3    3  502    0 -0.10366797916E+04  0.11565607078E+04  0.99487589755E+03  0.18444825054E+04  0.50400001928E-02 0. -1.
       -1    1    3    3    0  502  0.10366797916E+04 -0.11565607078E+04  0.92978274811E+03  0.18102026461E+04  0.50400001928E-02 0.  1.
</event>
<event>
 5   0  0.1875284E-07  0.3098004E+04  0.7818609E-02  0.8216286E-01
       -1   -1    0    0    0  501  0.00000000000E+00  0.00000000000E+00  0.15931520995E+04  0.15931520995E+04  0.50400001928E-02 0.  1.
        1   -1    0    0  501    0  0.00000000000E+00  0.00000000000E+00 -0.15060753391E+04  0.15060753391E+04  0.50400001928E-02 0. -1.
    10030    2    1    2    0    0  0.00000000000E+00  0.00000000000E+00  0.87076760414E+02  0.30992274387E+04  0.30980039306E+04 0.  0.
        4    1    3    3  502    0  0.92246534599E+03 -0.94554738775E+02 -0.11977266290E+04  0.15147387907E+04  0.12699999809E+01 0. -1.
       -4    1    3    3    0  502 -0.92246534599E+03  0.94554738775E+02  0.12848033894E+04  0.15844886480E+04  0.12699999809E+01 0.  1.
</event>
<event>
 5   0  0.1814075E-07  0.3109807E+04  0.7818609E-02  0.8213052E-01
        1   -1    0    0  501    0  0.00000000000E+00  0.00000000000E+00  0.22144381749E+04  0.22144381749E+04  0.50400001928E-02 0.  1.
       -1   -1    0    0    0  501  0.00000000000E+00  0.00000000000E+00 -0.10918006359E+04  0.10918006359E+04  0.50400001928E-02 0. -1.
    10030    2    1    2    0    0  0.00000000000E+00  0.00000000000E+00  0.11226375390E+04  0.33062388108E+04  0.31098070728E+04 0.  0.
        5    1    3    3  502    0 -0.66064198190E+03  0.54832083421E+03  0.19395842164E+04  0.21211111682E+04  0.46999998093E+01 0.  1.
       -5    1    3    3    0  502  0.66064198190E+03 -0.54832083421E+03 -0.81694667741E+03  0.11851276426E+04  0.46999998093E+01 0. -1.
</event>
<event>
 5   0  0.1727000E-07  0.3096661E+04  0.7818609E-02  0.8216655E-01
       -3   -1    0    0    0  501  0.00000000000E+00  0.00000000000E+00  0.15311678489E+04  0.15311678522E+04  0.10100000352E+00 0. -1.
        3   -1    0    0  501    0  0.00000000000E+00  0.00000000000E+00 -0.15656858561E+04  0.15656858594E+04  0.10100000352E+00 0.  1.
    10030    2    1    2    0    0  0.00000000000E+00  0.00000000000E+00 -0.34518007241E+02  0.30968537116E+04  0.30966613341E+04 0.  0.
        3    1    3    3  502    0 -0.84972776950E+03 -0.99443096830E+03  0.81128363124E+03  0.15391917923E+04  0.10100000352E+00 0. -1.
       -3    1    3    3    0  502  0.84972776950E+03  0.99443096830E+03 -0.84580163848E+03  0.15576619193E+04  0.10100000352E+00 0.  1.
</event>
<event>
 5   0  0.1727000E-07  0.3102107E+04  0.7818609E-02  0.8215160E-01
       -3   -1    0    0    0  501  0.00000000000E+00  0.00000000000E+00  0.19991270954E+04  0.19991270980E+04  0.10100000352E+00 0. -1.
        3   -1    0    0  501    0  0.00000000000E+00  0.00000000000E+00 -0.12034084883E+04  0.12034084925E+04  0.10100000352E+00 0.  1.
    10030    2    1    2    0    0  0.00000000000E+00  0.00000000000E+00  0.79571860715E+03  0.32025355904E+04  0.31021067206E+04 0.  0.
        2    1    3    3  502    0  0.11199360622E+04 -0.15541112187E+03 -0.69828564663E+03  0.13289139342E+04  0.25500000920E-02 0.  1.
       -2    1    3    3    0  502 -0.11199360622E+04  0.15541112187E+03  0.14940042538E+04  0.18736216562E+04  0.25500000920E-02 0. -1.
</event>
<event>
 5   0  0.1830902E-07  0.3102215E+04  0.7818609E-02  0.8215130E-01
       -1   -1    0    0    0  501  0.00000000000E+00  0.00000000000E+00  0.13318079257E+04  0.13318079258E+04  0.50400001928E-02 0.  1.
        1   -1    0    0  501    0  0.00000000000E+00  0.00000000000E+00 -0.18065181739E+04  0.18065181739E+04  0.50400001928E-02 0. -1.
    10030    2    1    2    0    0  0.00000000000E+00  0.00000000000E+00 -0.47471024818E+03  0.31383260997E+04  0.31022154806E+04 0.  0.
        3    1    3    3  502    0 -0.67488833494E+03  0.20475311237E+03 -0.16349342722E+04  0.17805640079E+04  0.10100000352E+00 0. -1.
       -3    1    3    3    0  502  0.67488833494E+03 -0.20475311237E+03  0.11602240240E+04  0.13577620918E+04  0.10100000352E+00 0.  1.
</event>
<event>
 5   0  0.5376678E-07  0.3081756E+04  0.7818609E-02  0.8220763E-01
       -2   -1    0    0    0  501  0.00000000000E+00  0.00000000000E+00  0.13660759114E+04  0.13660759115E+04  0.25500000920E-02 0.  1.
        2   -1    0    0  501    0  0.00000000000E+00  0.00000000000E+00 -0.17380476641E+04  0.17380476641E+04  0.25500000920E-02 0. -1.
    10030    2    1    2    0    0  0.00000000000E+00  0.00000000000E+00 -0.37197175263E+03  0.31041235755E+04  0.30817560233E+04 0.  0.
        5    1    3    3  502    0 -0.15142590797E+04 -0.49697341143E+02  0.96823362752E+02  0.15181723353E+04  0.46999998093E+01 0. -1.
       -5    1    3    3    0  502  0.15142590797E+04  0.49697341143E+02 -0.46879511538E+03  0.15859512402E+04  0.46999998093E+01 0.  1.
</event>
<event>
 5   0  0.1814075E-07  0.3101146E+04  0.7818609E-02  0.8215423E-01
        1   -1    0    0  501    0  0.00000000000E+00  0.00000000000E+00  0.11255847488E+04  0.11255847488E+04  0.50400001928E-02 0. -1.
       -1   -1    0    0    0  501  0.00000000000E+00  0.00000000000E+00 -0.21360247389E+04  0.21360247389E+04  0.50400001928E-02 0.  1.
    10030    2    1    2    0    0  0.00000000000E+00  0.00000000000E+00 -0.10104399901E+04  0.32616094877E+04  0.31011461553E+04 0.  0.
        5    1    3    3  502    0 -0.10212570554E+04 -0.57176330878E+03 -0.15748876038E+04  0.19621855950E+04  0.46999998093E+01 0.  1.
       -5    1    3    3    0  502  0.10212570554E+04  0.57176330878E+03  0.56444761365E+03  0.12994238927E+04  0.46999998093E+01 0. -1.
</event>
<event>
 5   0  0.5376678E-07  0.3100800E+04  0.7818609E-02  0.8215518E-01
        2   -1    0    0  501    0  0.00000000000E+00  0.00000000000E+00  0.19264972075E+04  0.19264972075E+04  0.25500000920E-02 0.  1.
       -2   -1    0    0    0  501  0.00000000000E+00  0.00000000000E+00 -0.12477257898E+04  0.12477257898E+04  0.25500000920E-02 0. -1.
    10030    2    1    2    0    0  0.00000000000E+00  0.00000000000E+00  0.67877141766E+03  0.31742229973E+04  0.31008000579E+04 0.  0.
        5    1    3    3  502    0  0.13185628799E+04  0.61008463992E+03  0.89340950013E+03  0.17055831733E+04  0.46999998093E+01 0.  1.
       -5    1    3    3    0  502 -0.13185628799E+04 -0.61008463992E+03 -0.21463808247E+03  0.14686398240E+04  0.46999998093E+01 0. -1.
</event>
<event>
 5   0  0.1875284E-07  0.3093146E+04  0.7818609E-02  0.8217622E-01
        1   -1    0    0  501    0  0.00000000000E+00  0.00000000000E+00  0.13421144838E+04  0.13421144838E+04  0.50400001928E-02 0. -1.
       -1   -1    0    0    0  501  0.00000000000E+00  0.00000000000E+00 -0.17821784794E+04  0.17821784794E+04  0.50400001928E-02 0.  1.
    10030    2    1    2    0    0  0.00000000000E+00  0.00000000000E+00 -0.44006399565E+03  0.31242929632E+04  0.30931456803E+04 0.  0.
        4    1    3    3  502    0  0.41213482711E+03 -0.41048794646E+03 -0.16674766005E+04  0.17660224506E+04  0.12699999809E+01 0.  1.
       -4    1    3    3    0  502 -0.41213482711E+03  0.41048794646E+03  0.12274126049E+04  0.13582705126E+04  0.12699999809E+01 0. -1.
</event>
<event>
 5   0  0.1814075E-07  0.3094870E+04  0.7818609E-02  0.8217147E-01
        1   -1    0    0  501    0  0.00000000000E+00  0.00000000000E+00  0.23280965778E+04  0.23280965778E+04  0.50400001928E-02 0.  1.
       -1   -1    0    0    0  501  0.00000000000E+00  0.00000000000E+00 -0.10285464748E+04  0.10285464748E+04  0.50400001928E-02 0. -1.
    10030    2    1    2    0    0  0.00000000000E+00  0.00000000000E+00  0.12995501030E+04  0.33566430527E+04  0.30948702901E+04 0.  0.
        5    1    3    3  502    0 -0.15219830114E+04 -0.27241251404E+03  0.71744270447E+03  0.17045195772E+04  0.46999998093E+01 0.  1.
       -5    1    3    3    0  502  0.15219830114E+04  0.27241251404E+03  0.58210739851E+03  0.16521234755E+04  0.46999998093E+01 0. -1.
</event>
<event>
 5   0  0.5342534E-07  0.3102918E+04  0.7818609E-02  0.8214938E-01
       -2   -1    0    0    0  501  0.00000000000E+00  0.00000000000E+00  0.10717518138E+04  0.10717518138E+04  0.25500000920E-02 0. -1.
        2   -1    0    0  501    0  0.00000000000E+00  0.00000000000E+00 -0.22458790454E+04  0.22458790454E+04  0.25500000920E-02 0.  1.
    10030    2    1    2    0    0  0.00000000000E+00  0.00000000000E+00 -0.11741272316E+04  0.33176308592E+04  0.31029179432E+04 0.  0.
        3    1    3    3  502    0 -0.58191768529E+03 -0.40007710311E+03  0.88995199219E+03  0.11360917390E+04  0.10100000352E+00 0. -1.
       -3    1    3    3    0  502  0.58191768529E+03  0.40007710311E+03 -0.20640792238E+04  0.21815391202E+04  0.10100000352E+00 0.  1.
</event>
<event>
 5   0  0.5376678E-07  0.3106343E+04  0.7818609E-02  0.8213999E-01
        2   -1    0    0  501    0  0.00000000000E+00  0.00000000000E+00  0.15397782161E+04  0.15397782161E+04  0.25500000920E-02 0.  1.
       -2   -1    0    0    0  501  0.00000000000E+00  0.00000000000E+00 -0.15666815128E+04  0.15666815128E+04  0.25500000920E-02 0. -1.
    10030    2    1    2    0    0  0.00000000000E+00  0.00000000000E+00 -0.26903296689E+02  0.31064597290E+04  0.31063432296E+04 0.  0.
        5    1    3    3  502    0 -0.43197668461E+03 -0.55329678351E+03  0.13720889587E+04  0.15412304783E+04  0.46999998093E+01 0.  1.
       -5    1    3    3    0  502  0.43197668461E+03  0.55329678351E+03 -0.13989922554E+04  0.15652292507E+04  0.46999998093E+01 0. -1.
</event>
<event>
 5   0  0.1727000E-07  0.3099900E+04  0.7818609E-02  0.8215765E-01
       -3   -1    0    0    0  501  0.00000000000E+00  0.00000000000E+00  0.11241141046E+04  0.11241141092E+04  0.10100000352E+00 0.  1.
        3   -1    0    0  501    0  0.00000000000E+00  0.00000000000E+00 -0.21371010554E+04  0.21371010578E+04  0.10100000352E+00 0. -1.
    10030    2    1    2    0    0  0.00000000000E+00  0.00000000000E+00 -0.10129869508E+04  0.32612151670E+04  0.30999002892E+04 0.  0.
        4    1    3    3  502    0 -0.84406549520E+03  0.66054197721E+03 -0.16843924095E+04  0.19964823230E+04  0.12699999809E+01 0. -1.
       -4    1    3    3    0  502  0.84406549520E+03 -0.66054197721E+03  0.67140545872E+03  0.12647328440E+04  0.12699999809E+01 0.  1.
</event>
<event>
 5   0  0.5248309E-07  0.3107482E+04  0.7818609E-02  0.8213687E-01
       -2   -1    0    0    0  501  0.00000000000E+00  0.00000000000E+00  0.71972221652E+03  0.71972221653E+03  0.25500000920E-02 0.  1.
        2   -1    0    0  501    0  0.00000000000E+00  0.00000000000E+00 -0.33542269154E+04  0.33542269154E+04  0.25500000920E-02 0. -1.
    10030    2    1    2    0    0  0.00000000000E+00  0.00000000000E+00 -0.26345046989E+04  0.40739491319E+04  0.31074823445E+04 0.  0.
        4    1    3    3  502    0  0.51853660990E+03  0.53395286423E+03 -0.31052950938E+04  0.31932499291E+04  0.12699999809E+01 0. -1.
       -4    1    3    3    0  502 -0.51853660990E+03 -0.53395286423E+03  0.47079039494E+03  0.88069920284E+03  0.12699999809E+01 0.  1.
</event>
<event>
 5   0  0.1840359E-07  0.3091585E+04  0.7818609E-02  0.8218051E-01
        1   -1    0    0  501    0  0.00000000000E+00  0.00000000000E+00  0.14961865909E+04  0.14961865909E+04  0.50400001928E-02 0. -1.
       -1   -1    0    0    0  501  0.00000000000E+00  0.00000000000E+00 -0.15970430881E+04  0.15970430881E+04  0.50400001928E-02 0.  1.
    10030    2    1    2    0    0  0.00000000000E+00  0.00000000000E+00 -0.10085649719E+03  0.30932296790E+04  0.30915850003E+04 0.  0.
        1    1    3    3  502    0  0.57940306622E+03 -0.96650087092E+03  0.10082663208E+04  0.15120955064E+04  0.50400001928E-02 0. -1.
       -1    1    3    3    0  502 -0.57940306622E+03  0.96650087092E+03 -0.11091228180E+04  0.15811341727E+04  0.50400001928E-02 0.  1.
</event>
<event>
 5   0  0.1875284E-07  0.3100284E+04  0.7818609E-02  0.8215660E-01
       -1   -1    0    0    0  501  0.00000000000E+00  0.00000000000E+00  0.11460951017E+04  0.11460951017E+04  0.50400001928E-02 0. -1.
        1   -1    0    0  501    0  0.00000000000E+00  0.00000000000E+00 -0.20966318932E+04  0.20966318932E+04  0.50400001928E-02 0.  1.
    10030    2    1    2    0    0  0.00000000000E+00  0.00000000000E+00 -0.95053679153E+03  0.32427269949E+04  0.31002835630E+04 0.  0.
        4    1    3    3  502    0  0.10639175406E+04  0.79579905463E+03 -0.13105336531E+04  0.18662038306E+04  0.12699999809E+01 0.  1.
       -4    1    3    3    0  502 -0.10639175406E+04 -0.79579905463E+03  0.35999686158E+03  0.13765231643E+04  0.12699999809E+01 0. -1.
</event>
<event>
 5   0  0.1875284E-07  0.3098458E+04  0.7818609E-02  0.8216161E-01
        1   -1    0    0  501    0  0.00000000000E+00  0.00000000000E+00  0.26062495278E+04  0.26062495278E+04  0.50400001928E-02 0.  1.
       -1   -1    0    0    0  501  0.00000000000E+00  0.00000000000E+00 -0.92090569872E+03  0.92090569874E+03  0.50400001928E-02 0. -1.
    10030    2    1    2    0    0  0.00000000000E+00  0.00000000000E+00  0.16853438291E+04  0.35271552266E+04  0.30984577083E+04 0.  0.
        4    1    3    3  502    0 -0.11447277897E+04  0.10411207288E+03 -0.33972430914E+03  0.11986055462E+04  0.12699999809E+01 0. -1.
       -4    1    3    3    0  502  0.11447277897E+04 -0.10411207288E+03  0.20250681382E+04  0.23285496803E+04  0.12699999809E+01 0.  1.
</event>
<event>
 5   0  0.1875284E-07  0.3116637E+04  0.7818609E-02  0.8211187E-01
        1   -1    0    0  501    0  0.00000000000E+00  0.00000000000E+00  0.17897624222E+04  0.17897624222E+04  0.50400001928E-02 0.  1.
       -1   -1    0    0    0  501  0.00000000000E+00  0.00000000000E+00 -0.13568036370E+04  0.13568036371E+04  0.50400001928E-02 0. -1.
    10030    2    1    2    0    0  0.00000000000E+00  0.00000000000E+00  0.43295878518E+03  0.31465660593E+04  0.31166367539E+04 0.  0.
        4    1    3    3  502    0  0.92624370035E+03  0.12407733726E+04  0.38982682552E+02  0.15488599734E+04  0.12699999809E+01 0. -1.
       -4    1    3    3    0  502 -0.92624370035E+03 -0.12407733726E+04  0.39397610263E+03  0.15977060859E+04  0.12699999809E+01 0.  1.
</event>
<event>
 5   0  0.1840359E-07  0.3100991E+04  0.7818609E-02  0.8215466E-01
        1   -1    0    0  501    0  0.00000000000E+00  0.00000000000E+00  0.21896863466E+04  0.21896863466E+04  0.50400001928E-02 0. -1.
       -1   -1    0    0    0  501  0.00000000000E+00  0.00000000000E+00 -0.10978906790E+04  0.10978906791E+04  0.50400001928E-02 0.  1.
    10030    2    1    2    0    0  0.00000000000E+00  0.00000000000E+00  0.10917956676E+04  0.32875770257E+04  0.31009909577E+04 0.  0.
        1    1    3    3  502    0  0.87288166597E+03  0.56561739235E+02 -0.81133262854E+03  0.11930558526E+04  0.50400001928E-02 0.  1.
       -1    1    3    3    0  502 -0.87288166597E+03 -0.56561739235E+02  0.19031282961E+04  0.20945211731E+04  0.50400001928E-02 0. -1.
</event>
<event>
 5   0  0.1814075E-07  0.3182668E+04  0.7818609E-02  0.8193410E-01
        1   -1    0    0  501    0  0.00000000000E+00  0.00000000000E+00  0.12845854377E+04  0.12845854377E+04  0.50400001928E-02 0. -1.
       -1   -1    0    0    0  501  0.00000000000E+00  0.00000000000E+00 -0.19713314299E+04  0.19713314299E+04  0.50400001928E-02 0.  1.
    10030    2    1    2    0    0  0.00000000000E+00  0.00000000000E+00 -0.68674599225E+03  0.32559168676E+04  0.31826678418E+04 0.  0.
        5    1    3    3  502    0 -0.11548147983E+04 -0.17827395631E+03  0.76174019825E+03  0.13948652413E+04  0.46999998093E+01 0. -1.
       -5    1    3    3    0  502  0.11548147983E+04  0.17827395631E+03 -0.14484861905E+04  0.18610516263E+04  0.46999998093E+01 0.  1.
</event>
<event>
 5   0  0.5248309E-07  0.3104142E+04  0.7818609E-02  0.8214602E-01
        2   -1    0    0  501    0  0.00000000000E+00  0.00000000000E+00  0.22570541348E+04  0.22570541348E+04  0.25500000920E-02 0.  1.
       -2   -1    0    0    0  501  0.00000000000E+00  0.00000000000E+00 -0.10672868253E+04  0.10672868253E+04  0.25500000920E-02 0. -1.
    10030    2    1    2    0    0  0.00000000000E+00  0.00000000000E+00  0.11897673095E+04  0.33243409601E+04  0.31041418409E+04 0.  0.
        4    1    3    3  502    0 -0.49331553193E+03  0.17326335986E+03  0.21598971040E+04  0.22222820520E+04  0.12699999809E+01 0.  1.
       -4    1    3    3    0  502  0.49331553193E+03 -0.17326335986E+03 -0.97012979451E+03  0.11020589081E+04  0.12699999809E+01 0. -1.
</event>
<event>
 5   0  0.1814075E-07  0.3096303E+04  0.7818609E-02  0.8216753E-01
        1   -1    0    0  501    0  0.00000000000E+00  0.00000000000E+00  0.17777839917E+04  0.17777839917E+04  0.50400001928E-02 0. -1.
       -1   -1    0    0    0  501  0.00000000000E+00  0.00000000000E+00 -0.13481804011E+04  0.13481804012E+04  0.50400001928E-02 0.  1.
    10030    2    1    2    0    0  0.00000000000E+00  0.00000000000E+00  0.42960359055E+03  0.31259643929E+04  0.30963033024E+04 0.  0.
        5    1    3    3  502    0 -0.10777078983E+04  0.45094665220E+03 -0.81077609144E+03  0.14220362715E+04  0.46999998093E+01 0.  1.
       -5    1    3    3    0  502  0.10777078983E+04 -0.45094665220E+03  0.12403796820E+04  0.17039281213E+04  0.46999998093E+01 0. -1.
</event>
<event>
 5   0  0.5248309E-07  0.3104584E+04  0.7818609E-02  0.8214481E-01
        2   -1    0    0  501    0  0.00000000000E+00  0.00000000000E+00  0.27846680401E+04  0.27846680401E+04  0.25500000920E-02 0.  1.
       -2   -1    0    0    0  501  0.00000000000E+00  0.00000000000E+00 -0.86531351159E+03  0.86531351160E+03  0.25500000920E-02 0. -1.
    10030    2    1    2    0    0  0.00000000000E+00  0.00000000000E+00  0.19193545285E+04  0.36499815517E+04  0.31045842752E+04 0.  0.
        4    1    3    3  502    0  0.99204782808E+03 -0.24180301565E+01  0.23633387265E+04  0.25631106666E+04  0.12699999809E+01 0.  1.
       -4    1    3    3    0  502 -0.99204782808E+03  0.24180301565E+01 -0.44398419795E+03  0.10868708852E+04  0.12699999809E+01 0. -1.
</event>
<event>
 5   0  0.1840359E-07  0.3101533E+04  0.7818609E-02  0.8215317E-01
        1   -1    0    0  501    0  0.00000000000E+00  0.00000000000E+00  0.21494200176E+04  0.21494200176E+04  0.50400001928E-02 0. -1.
       -1   -1    0    0    0  501  0.00000000000E+00  0.00000000000E+00 -0.11188493293E+04  0.11188493293E+04  0.50400001928E-02 0.  1.
    10030    2    1    2    0    0  0.00000000000E+00  0.00000000000E+00  0.10305706883E+04  0.32682693469E+04  0.31015332628E+04 0.  0.
        1    1    3    3  502    0  0.13265542993E+04  0.80253690107E+03  0.48089082054E+03  0.16232891818E+04  0.50400001928E-02 0. -1.
       -1    1    3    3    0  502 -0.13265542993E+04 -0.80253690107E+03  0.54967986781E+03  0.16449801651E+04  0.50400001928E-02 0.  1.
</event>
<event>
 5   0  0.5154105E-07  0.3128533E+04  0.7818609E-02  0.8207951E-01
        2   -1    0    0  501    0  0.00000000000E+00  0.00000000000E+00  0.21964953446E+04  0.21964953446E+04  0.25500000920E-02 0.  1.
       -2   -1    0    0    0  501  0.00000000000E+00  0.00000000000E+00 -0.11140157094E+04  0.11140157094E+04  0.25500000920E-02 0. -1.
    10030    2    1    2    0    0  0.00000000000E+00  0.00000000000E+00  0.10824796353E+04  0.33105110540E+04  0.31285334068E+04 0.  0.
        1    1    3    3  502    0 -0.94694050627E+03 -0.10754832086E+04  0.12050824880E+04  0.18723205541E+04  0.50400001928E-02 0.  1.
       -1    1    3    3    0  502  0.94694050627E+03  0.10754832086E+04 -0.12260285271E+03  0.14381904999E+04  0.50400001928E-02 0. -1.
</event>
<event>
 5   0  0.1830902E-07  0.3101557E+04  0.7818609E-02  0.8215311E-01
       -1   -1    0    0    0  501  0.00000000000E+00  0.00000000000E+00  0.12509723943E+04  0.12509723943E+04  0.50400001928E-02 0. -1.
        1   -1    0    0  501    0  0.00000000000E+00  0.00000000000E+00 -0.19224357799E+04  0.19224357799E+04  0.50400001928E-02 0.  1.
    10030    2    1    2    0    0  0.00000000000E+00  0.00000000000E+00 -0.67146338554E+03  0.31734081742E+04  0.31015570867E+04 0.  0.
        3    1    3    3  502    0 -0.13828753961E+04 -0.28299421112E+03 -0.99285929253E+03  0.17257461197E+04  0.10100000352E+00 0. -1.
       -3    1    3    3    0  502  0.13828753961E+04  0.28299421112E+03  0.32139590700E+03  0.14476620545E+04  0.10100000352E+00 0.  1.
</event>
<event>
 5   0  0.5055900E-07  0.3091285E+04  0.7818609E-02  0.8218134E-01
        2   -1    0    0  501    0  0.00000000000E+00  0.00000000000E+00  0.11087356205E+04  0.11087356205E+04  0.25500000920E-02 0. -1.
       -2   -1    0    0    0  501  0.00000000000E+00  0.00000000000E+00 -0.21547169633E+04  0.21547169633E+04  0.25500000920E-02 0.  1.
    10030    2    1    2    0    0  0.00000000000E+00  0.00000000000E+00 -0.10459813428E+04  0.32634525838E+04  0.30912854603E+04 0.  0.
        2    1    3    3  502    0 -0.13258368406E+04  0.51054712124E+03  0.11960533366E+03  0.14257654529E+04  0.25500000920E-02 0. -1.
       -2    1    3    3    0  502  0.13258368406E+04 -0.51054712124E+03 -0.11655866764E+04  0.18376871309E+04  0.25500000920E-02 0.  1.
</event>
<event>
 5   0  0.1840359E-07  0.3098520E+04  0.7818609E-02  0.8216144E-01
       -1   -1    0    0    0  501  0.00000000000E+00  0.00000000000E+00  0.14195217972E+04  0.14195217972E+04  0.50400001928E-02 0. -1.
        1   -1    0    0  501    0  0.00000000000E+00  0.00000000000E+00 -0.16908552127E+04  0.16908552127E+04  0.50400001928E-02 0.  1.
    10030    2    1    2    0    0  0.00000000000E+00  0.00000000000E+00 -0.27133341549E+03  0.31103770100E+04  0.30985195371E+04 0.  0.
        1    1    3    3  502    0 -0.71389474617E+03 -0.88981298493E+03 -0.11879113695E+04  0.16469809588E+04  0.50400001928E-02 0.  1.
       -1    1    3    3    0  502  0.71389474617E+03  0.88981298493E+03  0.91657795402E+03  0.14633960512E+04  0.50400001928E-02 0. -1.
</event>
<event>
 5   0  0.1830902E-07  0.3101468E+04  0.7818609E-02  0.8215335E-01
        1   -1    0    0  501    0  0.00000000000E+00  0.00000000000E+00  0.18465403152E+04  0.18465403152E+04  0.50400001928E-02 0. -1.
       -1   -1    0    0    0  501  0.00000000000E+00  0.00000000000E+00 -0.13023143299E+04  0.13023143299E+04  0.50400001928E-02 0.  1.
    10030    2    1    2    0    0  0.00000000000E+00  0.00000000000E+00  0.54422598531E+03  0.31488546452E+04  0.31014679836E+04 0.  0.
        3    1    3    3  502    0 -0.30415965347E+03  0.34020278588E+03 -0.12325989710E+04  0.13143634443E+04  0.10100000352E+00 0.  1.
       -3    1    3    3    0  502  0.30415965347E+03 -0.34020278588E+03  0.17768249563E+04  0.18344912008E+04  0.10100000352E+00 0. -1.
</event>
<event>
 5   0  0.1840359E-07  0.3096535E+04  0.7818609E-02  0.8216689E-01
        1   -1    0    0  501    0  0.00000000000E+00  0.00000000000E+00  0.19118781647E+04  0.19118781647E+04  0.50400001928E-02 0. -1.
       -1   -1    0    0    0  501  0.00000000000E+00  0.00000000000E+00 -0.12538104386E+04  0.12538104386E+04  0.50400001928E-02 0.  1.
    10030    2    1    2    0    0  0.00000000000E+00  0.00000000000E+00  0.65806772609E+03  0.31656886033E+04  0.30965353544E+04 0.  0.
        1    1    3    3  502    0 -0.61181121744E+03  0.13040888754E+04 -0.25124409366E+03  0.14622189833E+04  0.50400001928E-02 0. -1.
       -1    1    3    3    0  502  0.61181121744E+03 -0.13040888754E+04  0.90931181974E+03  0.17034696200E+04  0.50400001928E-02 0.  1.
</event>
<event>
 5   0  0.5376678E-07  0.3114884E+04  0.7818609E-02  0.8211665E-01
        2   -1    0    0  501    0  0.00000000000E+00  0.00000000000E+00  0.11692951761E+04  0.11692951761E+04  0.25500000920E-02 0.  1.
       -2   -1    0    0    0  501  0.00000000000E+00  0.00000000000E+00 -0.20744345247E+04  0.20744345247E+04  0.25500000920E-02 0. -1.
    10030    2    1    2    0    0  0.00000000000E+00  0.00000000000E+00 -0.90513934857E+03  0.32437297007E+04  0.31148844491E+04 0.  0.
        5    1    3    3  502    0  0.30725516793E+03 -0.10934800185E+03 -0.20384693151E+04  0.20643986926E+04  0.46999998093E+01 0. -1.
       -5    1    3    3    0  502 -0.30725516793E+03  0.10934800185E+03  0.11333299665E+04  0.11793310081E+04  0.46999998093E+01 0.  1.
</event>
<event>
 5   0  0.5154105E-07  0.3099867E+04  0.7818609E-02  0.8215774E-01
       -2   -1    0    0    0  501  0.00000000000E+00  0.00000000000E+00  0.12970991032E+04  0.12970991032E+04  0.25500000920E-02 0. -1.
        2   -1    0    0  501    0  0.00000000000E+00  0.00000000000E+00 -0.18520514681E+04  0.18520514681E+04  0.25500000920E-02 0.  1.
    10030    2    1    2    0    0  0.00000000000E+00  0.00000000000E+00 -0.55495236492E+03  0.31491505713E+04  0.30998672864E+04 0.  0.
        1    1    3    3  502    0 -0.19013631542E+03  0.14325061435E+03 -0.18333677049E+04  0.18487589616E+04  0.50400001928E-02 0.  1.
       -1    1    3    3    0  502  0.19013631542E+03 -0.14325061435E+03  0.12784153400E+04  0.13003916096E+04  0.50400001928E-02 0. -1.
</event>
<event>
 5   0  0.5154105E-07  0.3102033E+04  0.7818609E-02  0.8215180E-01
       -2   -1    0    0    0  501  0.00000000000E+00  0.00000000000E+00  0.11320409899E+04  0.11320409899E+04  0.25500000920E-02 0. -1.
        2   -1    0    0  501    0  0.00000000000E+00  0.00000000000E+00 -0.21250581644E+04  0.21250581644E+04  0.25500000920E-02 0.  1.
    10030    2    1    2    0    0  0.00000000000E+00  0.00000000000E+00 -0.99301717442E+03  0.32570991543E+04  0.31020334931E+04 0.  0.
        1    1    3    3  502    0 -0.79884282446E+03 -0.58971695509E+03  0.75458111069E+03  0.12471201217E+04  0.50400001928E-02 0. -1.
       -1    1    3    3    0  502  0.79884282446E+03  0.58971695509E+03 -0.17475982851E+04  0.20099790326E+04  0.50400001928E-02 0.  1.
</event>
<event>
 5   0  0.1845123E-07  0.3087525E+04  0.7818609E-02  0.8219170E-01
       -1   -1    0    0    0  501  0.00000000000E+00  0.00000000000E+00  0.13508645142E+04  0.13508645142E+04  0.50400001928E-02 0. -1.
        1   -1    0    0  501    0  0.00000000000E+00  0.00000000000E+00 -0.17642060620E+04  0.17642060620E+04  0.50400001928E-02 0.  1.
    10030    2    1    2    0    0  0.00000000000E+00  0.00000000000E+00 -0.41334154781E+03  0.31150705762E+04  0.30875254590E+04 0.  0.
        2    1    3    3  502    0  0.12016456251E+04 -0.11816875580E+03  0.76382945993E+03  0.14287587295E+04  0.25500000920E-02 0. -1.
       -2    1    3    3    0  502 -0.12016456251E+04  0.11816875580E+03 -0.11771710077E+04  0.16863118468E+04  0.25500000920E-02 0.  1.
</event>
<event>
 5   0  0.1840359E-07  0.3098221E+04  0.7818609E-02  0.8216226E-01
       -1   -1    0    0    0  501  0.00000000000E+00  0.00000000000E+00  0.23220263499E+04  0.23220263499E+04  0.50400001928E-02 0. -1.
        1   -1    0    0  501    0  0.00000000000E+00  0.00000000000E+00 -0.10334694654E+04  0.10334694654E+04  0.50400001928E-02 0.  1.
    10030    2    1    2    0    0  0.00000000000E+00  0.00000000000E+00  0.12885568845E+04  0.33554958153E+04  0.30982209931E+04 0.  0.
        1    1    3    3  502    0  0.32963869381E+03 -0.10977154145E+04  0.17729815532E+04  0.21111855408E+04  0.50400001928E-02 0. -1.
       -1    1    3    3    0  502 -0.32963869381E+03  0.10977154145E+04 -0.48442466862E+03  0.12443102746E+04  0.50400001928E-02 0.  1.
</event>
<event>
 5   0  0.5376678E-07  0.3102779E+04  0.7818609E-02  0.8214976E-01
       -2   -1    0    0    0  501  0.00000000000E+00  0.00000000000E+00  0.16242487391E+04  0.16242487391E+04  0.25500000920E-02 0.  1.
        2   -1    0    0  501    0  0.00000000000E+00  0.00000000000E+00 -0.14817987142E+04  0.14817987142E+04  0.25500000920E-02 0. -1.
    10030    2    1    2    0    0  0.00000000000E+00  0.00000000000E+00  0.14245002487E+03  0.31060474533E+04  0.31027792014E+04 0.  0.
        5    1    3    3  502    0 -0.66637032054E+03  0.62053517350E+03  0.13286031070E+04  0.16106897937E+04  0.46999998093E+01 0.  1.
       -5    1    3    3    0  502  0.66637032054E+03 -0.62053517350E+03 -0.11861530822E+04  0.14953576595E+04  0.46999998093E+01 0. -1.
</event>
<event>
 5   0  0.1830902E-07  0.3097615E+04  0.7818609E-02  0.8216393E-01
        1   -1    0    0  501    0  0.00000000000E+00  0.00000000000E+00  0.15478219520E+04  0.15478219520E+04  0.50400001928E-02 0. -1.
       -1   -1    0    0    0  501  0.00000000000E+00  0.00000000000E+00 -0.15497936853E+04  0.15497936853E+04  0.50400001928E-02 0.  1.
    10030    2    1    2    0    0  0.00000000000E+00  0.00000000000E+00 -0.19717333202E+01  0.30976156373E+04  0.30976150098E+04 0.  0.
        3    1    3    3  502    0 -0.13895906751E+04 -0.66740840704E+03  0.14870868848E+03  0.15487125332E+04  0.10100000352E+00 0.  1.
       -3    1    3    3    0  502  0.13895906751E+04  0.66740840704E+03 -0.15068042180E+03  0.15489031041E+04  0.10100000352E+00 0. -1.
</event>
<event>
 5   0  0.1875284E-07  0.3099533E+04  0.7818609E-02  0.8215866E-01
        1   -1    0    0  501    0  0.00000000000E+00  0.00000000000E+00  0.19930857767E+04  0.19930857767E+04  0.50400001928E-02 0. -1.
       -1   -1    0    0    0  501  0.00000000000E+00  0.00000000000E+00 -0.12050540154E+04  0.12050540154E+04  0.50400001928E-02 0.  1.
    10030    2    1    2    0    0  0.00000000000E+00  0.00000000000E+00  0.78803176128E+03  0.31981397920E+04  0.30995328798E+04 0.  0.
        4    1    3    3  502    0  0.69112405858E+03  0.13654984184E+04  0.64577839043E+03  0.16611049748E+04  0.12699999809E+01 0.  1.
       -4    1    3    3    0  502 -0.69112405858E+03 -0.13654984184E+04  0.14225337085E+03  0.15370348172E+04  0.12699999809E+01 0. -1.
</event>
<event>
 5   0  0.5342534E-07  0.3100092E+04  0.7818609E-02  0.8215713E-01
       -2   -1    0    0    0  501  0.00000000000E+00  0.00000000000E+00  0.11345122316E+04  0.11345122316E+04  0.25500000920E-02 0.  1.
        2   -1    0    0  501    0  0.00000000000E+00  0.00000000000E+00 -0.21177764427E+04  0.21177764427E+04  0.25500000920E-02 0. -1.
    10030    2    1    2    0    0  0.00000000000E+00  0.00000000000E+00 -0.98326421108E+03  0.32522886743E+04  0.31000924361E+04 0.  0.
        3    1    3    3  502    0  0.78005741548E+03  0.20460730536E+03  0.89709649063E+03  0.12062901162E+04  0.10100000352E+00 0.  1.
       -3    1    3    3    0  502 -0.78005741548E+03 -0.20460730536E+03 -0.18803607017E+04  0.20459985581E+04  0.10100000352E+00 0. -1.
</event>
<event>
 5   0  0.1814075E-07  0.3089021E+04  0.7818609E-02  0.8218758E-01
       -1   -1    0    0    0  501  0.00000000000E+00  0.00000000000E+00  0.15150574282E+04  0.15150574282E+04  0.50400001928E-02 0.  1.
        1   -1    0    0  501    0  0.00000000000E+00  0.00000000000E+00 -0.15745356426E+04  0.15745356426E+04  0.50400001928E-02 0. -1.
    10030    2    1    2    0    0  0.00000000000E+00  0.00000000000E+00 -0.59478214388E+02  0.30895930708E+04  0.30890205058E+04 0.  0.
        5    1    3    3  502    0 -0.22765338081E+03  0.10863019471E+04 -0.11040014327E+04  0.15654773187E+04  0.46999998093E+01 0. -1.
       -5    1    3    3    0  502  0.22765338081E+03 -0.10863019471E+04  0.10445232183E+04  0.15241157520E+04  0.46999998093E+01 0.  1.
</event>
<event>
 5   0  0.5376678E-07  0.3137220E+04  0.7818609E-02  0.8205597E-01
       -2   -1    0    0    0  501  0.00000000000E+00  0.00000000000E+00  0.10664210494E+04  0.10664210494E+04  0.25500000920E-02 0.  1.
        2   -1    0    0  501    0  0.00000000000E+00  0.00000000000E+00 -0.23072855096E+04  0.23072855096E+04  0.25500000920E-02 0. -1.
    10030    2    1    2    0    0  0.00000000000E+00  0.00000000000E+00 -0.12408644602E+04  0.33737065590E+04  0.31372203202E+04 0.  0.
        5    1    3    3  502    0 -0.96827660795E+02 -0.47705587612E+03 -0.22239969826E+04  0.22766516144E+04  0.46999998093E+01 0. -1.
       -5    1    3    3    0  502  0.96827660795E+02  0.47705587612E+03  0.98313252239E+03  0.10970549446E+04  0.46999998093E+01 0.  1.
</event>
<event>
 5   0  0.5248309E-07  0.3099723E+04  0.7818609E-02  0.8215814E-01
        2   -1    0    0  501    0  0.00000000000E+00  0.00000000000E+00  0.97995442427E+03  0.97995442428E+03  0.25500000920E-02 0. -1.
       -2   -1    0    0    0  501  0.00000000000E+00  0.00000000000E+00 -0.24512062709E+04  0.24512062709E+04  0.25500000920E-02 0.  1.
    10030    2    1    2    0    0  0.00000000000E+00  0.00000000000E+00 -0.14712518466E+04  0.34311606952E+04  0.30997228457E+04 0.  0.
        4    1    3    3  502    0  0.12694031759E+04 -0.58469488425E+03 -0.14771965140E+04  0.20335593634E+04  0.12699999809E+01 0.  1.
       -4    1    3    3    0  502 -0.12694031759E+04  0.58469488425E+03  0.59446673594E+01  0.13976013318E+04  0.12699999809E+01 0. -1.
</event>
<event>
 5   0  0.5154105E-07  0.3100540E+04  0.7818609E-02  0.8215590E-01
       -2   -1    0    0    0  501  0.00000000000E+00  0.00000000000E+00  0.13530675685E+04  0.13530675685E+04  0.25500000920E-02 0.  1.
        2   -1    0    0  501    0  0.00000000000E+00  0.00000000000E+00 -0.17762136628E+04  0.17762136628E+04  0.25500000920E-02 0. -1.
    10030    2    1    2    0    0  0.00000000000E+00  0.00000000000E+00 -0.42314609438E+03  0.31292812313E+04  0.31005400187E+04 0.  0.
        1    1    3    3  502    0  0.14094109546E+04 -0.63311170177E+03 -0.33950544586E+03  0.15819398262E+04  0.50400001928E-02 0. -1.
       -1    1    3    3    0  502 -0.14094109546E+04  0.63311170177E+03 -0.83640648525E+02  0.15473414051E+04  0.50400001928E-02 0.  1.
</event>
<event>
 5   0  0.5154105E-07  0.3098123E+04  0.7818609E-02  0.8216253E-01
        2   -1    0    0  501    0  0.00000000000E+00  0.00000000000E+00  0.15996458006E+04  0.15996458006E+04  0.25500000920E-02 0. -1.
       -2   -1    0    0    0  501  0.00000000000E+00  0.00000000000E+00 -0.15000765048E+04  0.15000765048E+04  0.25500000920E-02 0.  1.
    10030    2    1    2    0    0  0.00000000000E+00  0.00000000000E+00  0.99569295851E+02  0.30997223054E+04  0.30981227099E+04 0.  0.
        1    1    3    3  502    0  0.75570004771E+03 -0.70483547869E+03  0.12043802401E+04  0.15869490782E+04  0.50400001928E-02 0. -1.
       -1    1    3    3    0  502 -0.75570004771E+03  0.70483547869E+03 -0.11048109443E+04  0.15127732271E+04  0.50400001928E-02 0.  1.
</event>
<event>
 5   0  0.1845123E-07  0.3087243E+04  0.7818609E-02  0.8219248E-01
       -1   -1    0    0    0  501  0.00000000000E+00  0.00000000000E+00  0.12093400097E+04  0.12093400097E+04  0.50400001928E-02 0.  1.
        1   -1    0    0  501    0  0.00000000000E+00  0.00000000000E+00 -0.19703038232E+04  0.19703038232E+04  0.50400001928E-02 0. -1.
    10030    2    1    2    0    0  0.00000000000E+00  0.00000000000E+00 -0.76096381352E+03  0.31796438330E+04  0.30872429414E+04 0.  0.
        2    1    3    3  502    0  0.52029455149E+03  0.14165752686E+04 -0.71481329278E+03  0.16698353079E+04  0.25500000920E-02 0. -1.
       -2    1    3    3    0  502 -0.52029455149E+03 -0.14165752686E+04 -0.46150520745E+02  0.15098085251E+04  0.25500000920E-02 0.  1.
</event>
<event>
 5   0  0.5154105E-07  0.3087934E+04  0.7818609E-02  0.8219057E-01
       -2   -1    0    0    0  501  0.00000000000E+00  0.00000000000E+00  0.17182203122E+04  0.17182203122E+04  0.25500000920E-02 0.  1.
        2   -1    0    0  501    0  0.00000000000E+00  0.00000000000E+00 -0.13873852335E+04  0.13873852335E+04  0.25500000920E-02 0. -1.
    10030    2    1    2    0    0  0.00000000000E+00  0.00000000000E+00  0.33083507871E+03  0.31056055456E+04  0.30879336061E+04 0.  0.
        1    1    3    3  502    0  0.11168687884E+04  0.30874372702E+03 -0.86077221087E+03  0.14434844573E+04  0.50400001928E-02 0. -1.
       -1    1    3    3    0  502 -0.11168687884E+04 -0.30874372702E+03  0.11916072896E+04  0.16621210883E+04  0.50400001928E-02 0.  1.
</event>
<event>
 5   0  0.1814075E-07  0.3098477E+04  0.7818609E-02  0.8216156E-01
        1   -1    0    0  501    0  0.00000000000E+00  0.00000000000E+00  0.23104509365E+04  0.23104509365E+04  0.50400001928E-02 0.  1.
       -1   -1    0    0    0  501  0.00000000000E+00  0.00000000000E+00 -0.10388187708E+04  0.10388187708E+04  0.50400001928E-02 0. -1.
    10030    2    1    2    0    0  0.00000000000E+00  0.00000000000E+00  0.12716321657E+04  0.33492697073E+04  0.30984769174E+04 0.  0.
        5    1    3    3  502    0 -0.25336591842E+03 -0.11966270782E+04  0.16635667495E+04  0.20648455325E+04  0.46999998093E+01 0.  1.
       -5    1    3    3    0  502  0.25336591842E+03  0.11966270782E+04 -0.39193458377E+03  0.12844241749E+04  0.46999998093E+01 0. -1.
</event>
<event>
 5   0  0.1830902E-07  0.3097687E+04  0.7818609E-02  0.8216373E-01
        1   -1    0    0  501    0  0.00000000000E+00  0.00000000000E+00  0.25963448633E+04  0.25963448633E+04  0.50400001928E-02 0.  1.
       -1   -1    0    0    0  501  0.00000000000E+00  0.00000000000E+00 -0.92395922274E+03  0.92395922275E+03  0.50400001928E-02 0. -1.
    10030    2    1    2    0    0  0.00000000000E+00  0.00000000000E+00  0.16723856406E+04  0.35203040861E+04  0.30976873838E+04 0.  0.
        3    1    3    3  502    0 -0.11003151989E+04 -0.85911864929E+03  0.73735365323E+02  0.13979325108E+04  0.10100000352E+00 0. -1.
       -3    1    3    3    0  502  0.11003151989E+04  0.85911864929E+03  0.15986502753E+04  0.21223715752E+04  0.10100000352E+00 0.  1.
</event>
<event>
 5   0  0.5248309E-07  0.3098872E+04  0.7818609E-02  0.8216048E-01
        2   -1    0    0  501    0  0.00000000000E+00  0.00000000000E+00  0.17558892710E+04  0.17558892710E+04  0.25500000920E-02 0.  1.
       -2   -1    0    0    0  501  0.00000000000E+00  0.00000000000E+00 -0.13672566733E+04  0.13672566733E+04  0.25500000920E-02 0. -1.
    10030    2    1    2    0    0  0.00000000000E+00  0.00000000000E+00  0.38863259773E+03  0.31231459444E+04  0.30988716162E+04 0.  0.
        4    1    3    3  502    0  0.40292651339E+03 -0.14867794659E+04  0.26014915250E+02  0.15406301776E+04  0.12699999809E+01 0. -1.
       -4    1    3    3    0  502 -0.40292651339E+03  0.14867794659E+04  0.36261768248E+03  0.15825157667E+04  0.12699999809E+01 0.  1.
</event>
<event>
 5   0  0.1875284E-07  0.3112499E+04  0.7818609E-02  0.8212316E-01
        1   -1    0    0  501    0  0.00000000000E+00  0.00000000000E+00  0.22983337290E+04  0.22983337290E+04  0.50400001928E-02 0.  1.
       -1   -1    0    0    0  501  0.00000000000E+00  0.00000000000E+00 -0.10537686192E+04  0.10537686192E+04  0.50400001928E-02 0. -1.
    10030    2    1    2    0    0  0.00000000000E+00  0.00000000000E+00  0.12445651098E+04  0.33521023481E+04  0.31124986490E+04 0.  0.
        4    1    3    3  502    0  0.24231207973E+03 -0.65654075101E+02  0.22763814046E+04  0.22901832926E+04  0.12699999809E+01 0.  1.
       -4    1    3    3    0  502 -0.24231207973E+03  0.65654075101E+02 -0.10318162948E+04  0.10619190556E+04  0.12699999809E+01 0. -1.
</event>
<event>
 5   0  0.5154105E-07  0.3099878E+04  0.7818609E-02  0.8215771E-01
       -2   -1    0    0    0  501  0.00000000000E+00  0.00000000000E+00  0.10339163554E+04  0.10339163554E+04  0.25500000920E-02 0.  1.
        2   -1    0    0  501    0  0.00000000000E+00  0.00000000000E+00 -0.23235059782E+04  0.23235059782E+04  0.25500000920E-02 0. -1.
    10030    2    1    2    0    0  0.00000000000E+00  0.00000000000E+00 -0.12895896229E+04  0.33574223336E+04  0.30998779542E+04 0.  0.
        1    1    3    3  502    0  0.83511024581E+03  0.12069605203E+04 -0.11843262798E+04  0.18859457991E+04  0.50400001928E-02 0. -1.
       -1    1    3    3    0  502 -0.83511024581E+03 -0.12069605203E+04 -0.10526334309E+03  0.14714765345E+04  0.50400001928E-02 0.  1.
</event>
<event>
 5   0  0.5342534E-07  0.3088769E+04  0.7818609E-02  0.8218827E-01
        2   -1    0    0  501    0  0.00000000000E+00  0.00000000000E+00  0.24837676045E+04  0.24837676045E+04  0.25500000920E-02 0.  1.
       -2   -1    0    0    0  501  0.00000000000E+00  0.00000000000E+00 -0.96028435095E+03  0.96028435095E+03  0.25500000920E-02 0. -1.
    10030    2    1    2    0    0  0.00000000000E+00  0.00000000000E+00  0.15234832536E+04  0.34440519555E+04  0.30887687916E+04 0.  0.
        3    1    3    3  502    0  0.11986742370E+04 -0.19303148301E+03  0.18260157685E+04  0.21928097676E+04  0.10100000352E+00 0.  1.
       -3    1    3    3    0  502 -0.11986742370E+04  0.19303148301E+03 -0.30253251498E+03  0.12512421878E+04  0.10100000352E+00 0. -1.
</event>
<event>
 5   0  0.5342534E-07  0.3099654E+04  0.7818609E-02  0.8215833E-01
        2   -1    0    0  501    0  0.00000000000E+00  0.00000000000E+00  0.23008495693E+04  0.23008495693E+04  0.25500000920E-02 0.  1.
       -2   -1    0    0    0  501  0.00000000000E+00  0.00000000000E+00 -0.10439466583E+04  0.10439466583E+04  0.25500000920E-02 0. -1.
    10030    2    1    2    0    0  0.00000000000E+00  0.00000000000E+00  0.12569029109E+04  0.33447962276E+04  0.30996543157E+04 0.  0.
        3    1    3    3  502    0 -0.20305755746E+03  0.14137863208E+03 -0.10224963914E+04  0.10520072100E+04  0.10100000352E+00 0. -1.
       -3    1    3    3    0  502  0.20305755746E+03 -0.14137863208E+03  0.22793993024E+04  0.22927890176E+04  0.10100000352E+00 0.  1.
</event>
<event>
 5   0  0.1845123E-07  0.3106137E+04  0.7818609E-02  0.8214056E-01
       -1   -1    0    0    0  501  0.00000000000E+00  0.00000000000E+00  0.20624245500E+04  0.20624245500E+04  0.50400001928E-02 0. -1.
        1   -1    0    0  501    0  0.00000000000E+00  0.00000000000E+00 -0.11695081707E+04  0.11695081707E+04  0.50400001928E-02 0.  1.
    10030    2    1    2    0    0  0.00000000000E+00  0.00000000000E+00  0.89291637933E+03  0.32319327208E+04  0.31061373845E+04 0.  0.
        2    1    3    3  502    0 -0.13786943798E+04  0.55999801132E+03 -0.16097606755E+02  0.14881717302E+04  0.25500000920E-02 0. -1.
       -2    1    3    3    0  502  0.13786943798E+04 -0.55999801132E+03  0.90901398608E+03  0.17437609906E+04  0.25500000920E-02 0.  1.
</event>
<event>
 5   0  0.5376678E-07  0.3097232E+04  0.7818609E-02  0.8216498E-01
        2   -1    0    0  501    0  0.00000000000E+00  0.00000000000E+00  0.14394155388E+04  0.14394155388E+04  0.25500000920E-02 0.  1.
       -2   -1    0    0    0  501  0.00000000000E+00  0.00000000000E+00 -0.16661010977E+04  0.16661010977E+04  0.25500000920E-02 0. -1.
    10030    2    1    2    0    0  0.00000000000E+00  0.00000000000E+00 -0.22668555896E+03  0.31055166365E+04  0.30972321897E+04 0.  0.
        5    1    3    3  502    0 -0.36105733168E+03  0.52052198501E+03 -0.15302340828E+04  0.16561835562E+04  0.46999998093E+01 0. -1.
       -5    1    3    3    0  502  0.36105733168E+03 -0.52052198501E+03  0.13035485238E+04  0.14493330803E+04  0.46999998093E+01 0.  1.
</event>
<event>
 5   0  0.5376678E-07  0.3097793E+04  0.7818609E-02  0.8216344E-01
       -2   -1    0    0    0  501  0.00000000000E+00  0.00000000000E+00  0.15248144111E+04  0.15248144111E+04  0.25500000920E-02 0. -1.
        2   -1    0    0  501    0  0.00000000000E+00  0.00000000000E+00 -0.15733585719E+04  0.15733585719E+04  0.25500000920E-02 0.  1.
    10030    2    1    2    0    0  0.00000000000E+00  0.00000000000E+00 -0.48544160801E+02  0.30981729831E+04  0.30977926492E+04 0.  0.
        5    1    3    3  502    0 -0.13399114905E+02 -0.13215745251E+04  0.78348974121E+03  0.15364299614E+04  0.46999998093E+01 0. -1.
       -5    1    3    3    0  502  0.13399114905E+02  0.13215745251E+04 -0.83203390201E+03  0.15617430217E+04  0.46999998093E+01 0.  1.
</event>
<event>
 5   0  0.5248309E-07  0.3095901E+04  0.7818609E-02  0.8216864E-01
        2   -1    0    0  501    0  0.00000000000E+00  0.00000000000E+00  0.10947094179E+04  0.10947094179E+04  0.25500000920E-02 0. -1.
       -2   -1    0    0    0  501  0.00000000000E+00  0.00000000000E+00 -0.21888469878E+04  0.21888469878E+04  0.25500000920E-02 0.  1.
    10030    2    1    2    0    0  0.00000000000E+00  0.00000000000E+00 -0.10941375700E+04  0.32835564057E+04  0.30959014273E+04 0.  0.
        4    1    3    3  502    0  0.59637828481E+03  0.59289598666E+03 -0.19254414903E+04  0.21010757376E+04  0.12699999809E+01 0.  1.
       -4    1    3    3    0  502 -0.59637828481E+03 -0.59289598666E+03  0.83130392033E+03  0.11824806681E+04  0.12699999809E+01 0. -1.
</event>
<event>
 5   0  0.5248309E-07  0.3098578E+04  0.7818609E-02  0.8216128E-01
       -2   -1    0    0    0  501  0.00000000000E+00  0.00000000000E+00  0.11079890315E+04  0.11079890315E+04  0.25500000920E-02 0. -1.
        2   -1    0    0  501    0  0.00000000000E+00  0.00000000000E+00 -0.21663538046E+04  0.21663538046E+04  0.25500000920E-02 0.  1.
    10030    2    1    2    0    0  0.00000000000E+00  0.00000000000E+00 -0.10583647731E+04  0.32743428361E+04  0.30985779022E+04 0.  0.
        4    1    3    3  502    0  0.97184671483E+03 -0.65346981880E+03  0.54264342381E+03  0.12907255090E+04  0.12699999809E+01 0. -1.
       -4    1    3    3    0  502 -0.97184671483E+03  0.65346981880E+03 -0.16010081969E+04  0.19836173272E+04  0.12699999809E+01 0.  1.
</event>
<event>
 5   0  0.1845123E-07  0.3102497E+04  0.7818609E-02  0.8215053E-01
        1   -1    0    0  501    0  0.00000000000E+00  0.00000000000E+00  0.11989192019E+04  0.11989192019E+04  0.50400001928E-02 0.  1.
       -1   -1    0    0    0  501  0.00000000000E+00  0.00000000000E+00 -0.20071174628E+04  0.20071174628E+04  0.50400001928E-02 0. -1.
    10030    2    1    2    0    0  0.00000000000E+00  0.00000000000E+00 -0.80819826086E+03  0.32060366647E+04  0.31024968439E+04 0.  0.
        2    1    3    3  502    0 -0.42674617019E+03 -0.14852971305E+04 -0.26487418064E+03  0.15679216151E+04  0.25500000920E-02 0.  1.
       -2    1    3    3    0  502  0.42674617019E+03  0.14852971305E+04 -0.54332408023E+03  0.16381150496E+04  0.25500000920E-02 0. -1.
</event>
<event>
 5   0  0.5342534E-07  0.3094359E+04  0.7818609E-02  0.8217288E-01
        2   -1    0    0  501    0  0.00000000000E+00  0.00000000000E+00  0.18448631168E+04  0.18448631168E+04  0.25500000920E-02 0. -1.
       -2   -1    0    0    0  501  0.00000000000E+00  0.00000000000E+00 -0.12975291568E+04  0.12975291568E+04  0.25500000920E-02 0.  1.
    10030    2    1    2    0    0  0.00000000000E+00  0.00000000000E+00  0.54733396001E+03  0.31423922737E+04  0.30943585341E+04 0.  0.
        3    1    3    3  502    0 -0.82480240614E+03 -0.10444050215E+04 -0.52768480024E+03  0.14316187050E+04  0.10100000352E+00 0.  1.
       -3    1    3    3    0  502  0.82480240614E+03  0.10444050215E+04  0.10750187603E+04  0.17107735686E+04  0.10100000352E+00 0. -1.
</event>
<event>
 5   0  0.1875284E-07  0.3112586E+04  0.7818609E-02  0.8212292E-01
        1   -1    0    0  501    0  0.00000000000E+00  0.00000000000E+00  0.13540210160E+04  0.13540210160E+04  0.50400001928E-02 0.  1.
       -1   -1    0    0    0  501  0.00000000000E+00  0.00000000000E+00 -0.17887812265E+04  0.17887812265E+04  0.50400001928E-02 0. -1.
    10030    2    1    2    0    0  0.00000000000E+00  0.00000000000E+00 -0.43476021046E+03  0.31428022425E+04  0.31125856607E+04 0.  0.
        4    1    3    3  502    0  0.32458035442E+03 -0.15168521444E+04 -0.90249398437E+02  0.15538144681E+04  0.12699999809E+01 0. -1.
       -4    1    3    3    0  502 -0.32458035442E+03  0.15168521444E+04 -0.34451081202E+03  0.15889877744E+04  0.12699999809E+01 0.  1.
</event>
<event>
 5   0  0.5154105E-07  0.3104985E+04  0.7818609E-02  0.8214371E-01
        2   -1    0    0  501    0  0.00000000000E+00  0.00000000000E+00  0.21761090971E+04  0.21761090971E+04  0.25500000920E-02 0. -1.
       -2   -1    0    0    0  501  0.00000000000E+00  0.00000000000E+00 -0.11075883176E+04  0.11075883176E+04  0.25500000920E-02 0.  1.
    10030    2    1    2    0    0  0.00000000000E+00  0.00000000000E+00  0.10685207795E+04  0.32836974147E+04  0.31049850330E+04 0.  0.
        1    1    3    3  502    0  0.56562838966E+03  0.32542597994E+03  0.20240252750E+04  0.21266207601E+04  0.50400001928E-02 0. -1.
       -1    1    3    3    0  502 -0.56562838966E+03 -0.32542597994E+03 -0.95550449551E+03  0.11570766546E+04  0.50400001928E-02 0.  1.
</event>
<event>
 5   0  0.5055900E-07  0.3094391E+04  0.7818609E-02  0.8217279E-01
        2   -1    0    0  501    0  0.00000000000E+00  0.00000000000E+00  0.11933641045E+04  0.11933641045E+04  0.25500000920E-02 0. -1.
       -2   -1    0    0    0  501  0.00000000000E+00  0.00000000000E+00 -0.20059377192E+04  0.20059377192E+04  0.25500000920E-02 0.  1.
    10030    2    1    2    0    0  0.00000000000E+00  0.00000000000E+00 -0.81257361471E+03  0.31993018238E+04  0.30943911001E+04 0.  0.
        2    1    3    3  502    0  0.17133712818E+02 -0.57244864478E+03  0.10797397476E+04  0.12222229492E+04  0.25500000920E-02 0. -1.
       -2    1    3    3    0  502 -0.17133712818E+02  0.57244864478E+03 -0.18923133623E+04  0.19770788746E+04  0.25500000920E-02 0.  1.
</event>
<event>
 5   0  0.1875284E-07  0.3097270E+04  0.7818609E-02  0.8216488E-01
        1   -1    0    0  501    0  0.00000000000E+00  0.00000000000E+00  0.31133052862E+04  0.31133052862E+04  0.50400001928E-02 0.  1.
       -1   -1    0    0    0  501  0.00000000000E+00  0.00000000000E+00 -0.77032924545E+03  0.77032924546E+03  0.50400001928E-02 0. -1.
    10030    2    1    2    0    0  0.00000000000E+00  0.00000000000E+00  0.23429760407E+04  0.38836345316E+04  0.30972698378E+04 0.  0.
        4    1    3    3  502    0  0.14326650147E+04  0.55821844719E+03  0.14031409311E+04  0.20815722338E+04  0.12699999809E+01 0.  1.
       -4    1    3    3    0  502 -0.14326650147E+04 -0.55821844719E+03  0.93983510966E+03  0.18020622979E+04  0.12699999809E+01 0. -1.
</event>
<event>
 5   0  0.1845123E-07  0.3133219E+04  0.7818609E-02  0.8206680E-01
       -1   -1    0    0    0  501  0.00000000000E+00  0.00000000000E+00  0.14640838618E+04  0.14640838618E+04  0.50400001928E-02 0. -1.
        1   -1    0    0  501    0  0.00000000000E+00  0.00000000000E+00 -0.16763146301E+04  0.16763146302E+04  0.50400001928E-02 0.  1.
    10030    2    1    2    0    0  0.00000000000E+00  0.00000000000E+00 -0.21223076838E+03  0.31403984919E+04  0.31332189182E+04 0.  0.
        2    1    3    3  502    0 -0.74880843219E+03  0.12570626766E+04  0.45493917662E+03  0.15322827074E+04  0.25500000920E-02 0. -1.
       -2    1    3    3    0  502  0.74880843219E+03 -0.12570626766E+04 -0.66716994500E+03  0.16081157845E+04  0.25500000920E-02 0.  1.
</event>
<event>
 5   0  0.5248309E-07  0.3099029E+04  0.7818609E-02  0.8216005E-01
        2   -1    0    0  501    0  0.00000000000E+00  0.00000000000E+00  0.21656067481E+04  0.21656067481E+04  0.25500000920E-02 0.  1.
       -2   -1    0    0    0  501  0.00000000000E+00  0.00000000000E+00 -0.11086937280E+04  0.11086937280E+04  0.25500000920E-02 0. -1.
    10030    2    1    2    0    0  0.00000000000E+00  0.00000000000E+00  0.10569130202E+04  0.32743004761E+04  0.30990286342E+04 0.  0.
        4    1    3    3  502    0  0.14734847657E+04 -0.12955185381E+03  0.10161373776E+04  0.17945689790E+04  0.12699999809E+01 0.  1.
       -4    1    3    3    0  502 -0.14734847657E+04  0.12955185381E+03  0.40775642601E+02  0.14797314971E+04  0.12699999809E+01 0. -1.
</event>
<event>
 5   0  0.5248309E-07  0.3123127E+04  0.7818609E-02  0.8209419E-01
       -2   -1    0    0    0  501  0.00000000000E+00  0.00000000000E+00  0.19848937233E+04  0.19848937233E+04  0.25500000920E-02 0. -1.
        2   -1    0    0  501    0  0.00000000000E+00  0.00000000000E+00 -0.12285198442E+04  0.12285198442E+04  0.25500000920E-02 0.  1.
    10030    2    1    2    0    0  0.00000000000E+00  0.00000000000E+00  0.75637387910E+03  0.32134135674E+04  0.31231274887E+04 0.  0.
        4    1    3    3  502    0  0.13450353955E+04 -0.78491718900E+03  0.25968582146E+03  0.15788139687E+04  0.12699999809E+01 0.  1.
       -4    1    3    3    0  502 -0.13450353955E+04  0.78491718900E+03  0.49668805764E+03  0.16345995988E+04  0.12699999809E+01 0. -1.
</event>
<event>
 5   0  0.1875284E-07  0.3102914E+04  0.7818609E-02  0.8214939E-01
        1   -1    0    0  501    0  0.00000000000E+00  0.00000000000E+00  0.23643329795E+04  0.23643329795E+04  0.50400001928E-02 0.  1.
       -1   -1    0    0    0  501  0.00000000000E+00  0.00000000000E+00 -0.10180540204E+04  0.10180540204E+04  0.50400001928E-02 0. -1.
    10030    2    1    2    0    0  0.00000000000E+00  0.00000000000E+00  0.13462789591E+04  0.33823870000E+04  0.31029139179E+04 0.  0.
        4    1    3    3  502    0 -0.24472918441E+03 -0.14133043337E+03  0.23360381904E+04  0.23530709095E+04  0.12699999809E+01 0.  1.
       -4    1    3    3    0  502  0.24472918441E+03  0.14133043337E+03 -0.98975923136E+03  0.10293160905E+04  0.12699999809E+01 0. -1.
</event>
<event>
 5   0  0.1845123E-07  0.3081321E+04  0.7818609E-02  0.8220883E-01
        1   -1    0    0  501    0  0.00000000000E+00  0.00000000000E+00  0.16969478306E+04  0.16969478307E+04  0.50400001928E-02 0. -1.
       -1   -1    0    0    0  501  0.00000000000E+00  0.00000000000E+00 -0.13987674539E+04  0.13987674539E+04  0.50400001928E-02 0.  1.
    10030    2    1    2    0    0  0.00000000000E+00  0.00000000000E+00  0.29818037673E+03  0.30957152846E+04  0.30813214026E+04 0.  0.
        2    1    3    3  502    0 -0.57405106911E+03  0.55982048449E+03  0.14707970132E+04  0.16751649050E+04  0.25500000920E-02 0. -1.
       -2    1    3    3    0  502  0.57405106911E+03 -0.55982048449E+03 -0.11726166365E+04  0.14205503796E+04  0.25500000920E-02 0.  1.
</event>
<event>
 5   0  0.5376678E-07  0.3100038E+04  0.7818609E-02  0.8215727E-01
        2   -1    0    0  501    0  0.00000000000E+00  0.00000000000E+00  0.15426812782E+04  0.15426812782E+04  0.25500000920E-02 0.  1.
       -2   -1    0    0    0  501  0.00000000000E+00  0.00000000000E+00 -0.15573921005E+04  0.15573921005E+04  0.25500000920E-02 0. -1.
    10030    2    1    2    0    0  0.00000000000E+00  0.00000000000E+00 -0.14710822252E+02  0.31000733787E+04  0.31000384748E+04 0.  0.
        5    1    3    3  502    0  0.63909835062E+02  0.14208871166E+04  0.60871392564E+03  0.15471132468E+04  0.46999998093E+01 0.  1.
       -5    1    3    3    0  502 -0.63909835062E+02 -0.14208871166E+04 -0.62342474789E+03  0.15529601319E+04  0.46999998093E+01 0. -1.
</event>
<event>
 5   0  0.5376678E-07  0.3100774E+04  0.7818609E-02  0.8215526E-01
        2   -1    0    0  501    0  0.00000000000E+00  0.00000000000E+00  0.22735533812E+04  0.22735533812E+04  0.25500000920E-02 0. -1.
       -2   -1    0    0    0  501  0.00000000000E+00  0.00000000000E+00 -0.10572433786E+04  0.10572433786E+04  0.25500000920E-02 0.  1.
    10030    2    1    2    0    0  0.00000000000E+00  0.00000000000E+00  0.12163100026E+04  0.33307967598E+04  0.31007736184E+04 0.  0.
        5    1    3    3  502    0 -0.40385142532E+03  0.11363866021E+04 -0.43839134826E+03  0.12832301226E+04  0.46999998093E+01 0.  1.
       -5    1    3    3    0  502  0.40385142532E+03 -0.11363866021E+04  0.16547013509E+04  0.20475666372E+04  0.46999998093E+01 0. -1.
</event>
<event>
 5   0  0.1814075E-07  0.3095966E+04  0.7818609E-02  0.8216846E-01
       -1   -1    0    0    0  501  0.00000000000E+00  0.00000000000E+00  0.13653634956E+04  0.13653634956E+04  0.50400001928E-02 0. -1.
        1   -1    0    0  501    0  0.00000000000E+00  0.00000000000E+00 -0.17550278705E+04  0.17550278705E+04  0.50400001928E-02 0.  1.
    10030    2    1    2    0    0  0.00000000000E+00  0.00000000000E+00 -0.38966437483E+03  0.31203913661E+04  0.30959657544E+04 0.  0.
        5    1    3    3  502    0  0.56671323059E+02 -0.15346256455E+04 -0.39115443799E+03  0.15847117703E+04  0.46999998093E+01 0.  1.
       -5    1    3    3    0  502 -0.56671323059E+02  0.15346256455E+04  0.14900631605E+01  0.15356795958E+04  0.46999998093E+01 0. -1.
</event>
<event>
 5   0  0.5055900E-07  0.3101688E+04  0.7818609E-02  0.8215275E-01
        2   -1    0    0  501    0  0.00000000000E+00  0.00000000000E+00  0.17055600695E+04  0.17055600695E+04  0.25500000920E-02 0. -1.
       -2   -1    0    0    0  501  0.00000000000E+00  0.00000000000E+00 -0.14101626807E+04  0.14101626807E+04  0.25500000920E-02 0.  1.
    10030    2    1    2    0    0  0.00000000000E+00  0.00000000000E+00  0.29539738875E+03  0.31157227502E+04  0.31016880305E+04 0.  0.
        2    1    3    3  502    0  0.13366892422E+04  0.10391831678E+03 -0.63530251116E+03  0.14836261077E+04  0.25500000920E-02 0.  1.
       -2    1    3    3    0  502 -0.13366892422E+04 -0.10391831678E+03  0.93069989991E+03  0.16320966425E+04  0.25500000920E-02 0. -1.
</event>
<event>
 5   0  0.1875284E-07  0.3099369E+04  0.7818609E-02  0.8215911E-01
        1   -1    0    0  501    0  0.00000000000E+00  0.00000000000E+00  0.19780877424E+04  0.19780877424E+04  0.50400001928E-02 0. -1.
       -1   -1    0    0    0  501  0.00000000000E+00  0.00000000000E+00 -0.12140621837E+04  0.12140621837E+04  0.50400001928E-02 0.  1.
    10030    2    1    2    0    0  0.00000000000E+00  0.00000000000E+00  0.76402555866E+03  0.31921499261E+04  0.30993686610E+04 0.  0.
        4    1    3    3  502    0  0.47493025624E+03  0.11761912367E+04 -0.53488170712E+03  0.13766207274E+04  0.12699999809E+01 0.  1.
       -4    1    3    3    0  502 -0.47493025624E+03 -0.11761912367E+04  0.12989072658E+04  0.18155291988E+04  0.12699999809E+01 0. -1.
</event>
<event>
 5   0  0.5342534E-07  0.3100153E+04  0.7818609E-02  0.8215696E-01
       -2   -1    0    0    0  501  0.00000000000E+00  0.00000000000E+00  0.14631179684E+04  0.14631179684E+04  0.25500000920E-02 0.  1.
        2   -1    0    0  501    0  0.00000000000E+00  0.00000000000E+00 -0.16422030270E+04  0.16422030270E+04  0.25500000920E-02 0. -1.
    10030    2    1    2    0    0  0.00000000000E+00  0.00000000000E+00 -0.17908505866E+03  0.31053209954E+04  0.31001527424E+04 0.  0.
        3    1    3    3  502    0 -0.18981856065E+03 -0.12437645192E+04 -0.99645541494E+03  0.16049625133E+04  0.10100000352E+00 0. -1.
       -3    1    3    3    0  502  0.18981856065E+03  0.12437645192E+04  0.81737035628E+03  0.15003584820E+04  0.10100000352E+00 0.  1.
</event>
<event>
 5   0  0.5376678E-07  0.3104794E+04  0.7818609E-02  0.8214424E-01
        2   -1    0    0  501    0  0.00000000000E+00  0.00000000000E+00  0.21856596252E+04  0.21856596252E+04  0.25500000920E-02 0.  1.
       -2   -1    0    0    0  501  0.00000000000E+00  0.00000000000E+00 -0.11026126147E+04  0.11026126147E+04  0.25500000920E-02 0. -1.
    10030    2    1    2    0    0  0.00000000000E+00  0.00000000000E+00  0.10830470104E+04  0.32882722399E+04  0.31047936320E+04 0.  0.
        5    1    3    3  502    0  0.13254301246E+04  0.21245186429E+03 -0.28430800664E+03  0.13721348120E+04  0.46999998093E+01 0.  1.
       -5    1    3    3    0  502 -0.13254301246E+04 -0.21245186429E+03  0.13673550171E+04  0.19161374279E+04  0.46999998093E+01 0. -1.
</event>
<event>
 5   0  0.5055900E-07  0.3104699E+04  0.7818609E-02  0.8214450E-01
       -2   -1    0    0    0  501  0.00000000000E+00  0.00000000000E+00  0.10649561272E+04  0.10649561272E+04  0.25500000920E-02 0. -1.
        2   -1    0    0  501    0  0.00000000000E+00  0.00000000000E+00 -0.22628055665E+04  0.22628055665E+04  0.25500000920E-02 0.  1.
    10030    2    1    2    0    0  0.00000000000E+00  0.00000000000E+00 -0.11978494393E+04  0.33277616937E+04  0.31046987955E+04 0.  0.
        2    1    3    3  502    0 -0.66782543960E+03 -0.13101556308E+04 -0.11319355986E+04  0.18557415752E+04  0.25500000920E-02 0. -1.
       -2    1    3    3    0  502  0.66782543960E+03  0.13101556308E+04 -0.65913840730E+02  0.14720201184E+04  0.25500000920E-02 0.  1.
</event>
<event>
 5   0  0.1830902E-07  0.3089168E+04  0.7818609E-02  0.8218717E-01
       -1   -1    0    0    0  501  0.00000000000E+00  0.00000000000E+00  0.90913404906E+03  0.90913404907E+03  0.50400001928E-02 0. -1.
        1   -1    0    0  501    0  0.00000000000E+00  0.00000000000E+00 -0.26241887392E+04  0.26241887392E+04  0.50400001928E-02 0.  1.
    10030    2    1    2    0    0  0.00000000000E+00  0.00000000000E+00 -0.17150546902E+04  0.35333227883E+04  0.30891677417E+04 0.  0.
        3    1    3    3  502    0  0.14178242546E+04 -0.16793248926E+03 -0.15315926269E+04  0.20938488300E+04  0.10100000352E+00 0.  1.
       -3    1    3    3    0  502 -0.14178242546E+04  0.16793248926E+03 -0.18346206331E+03  0.14394739583E+04  0.10100000352E+00 0. -1.
</event>
<event>
 5   0  0.5055900E-07  0.3093978E+04  0.7818609E-02  0.8217392E-01
        2   -1    0    0  501    0  0.00000000000E+00  0.00000000000E+00  0.14866037513E+04  0.14866037513E+04  0.25500000920E-02 0. -1.
       -2   -1    0    0    0  501  0.00000000000E+00  0.00000000000E+00 -0.16098275483E+04  0.16098275483E+04  0.25500000920E-02 0.  1.
    10030    2    1    2    0    0  0.00000000000E+00  0.00000000000E+00 -0.12322379704E+03  0.30964312996E+04  0.30939784565E+04 0.  0.
        2    1    3    3  502    0  0.71193810945E+03 -0.68884974741E+01 -0.14361170209E+04  0.16029146642E+04  0.25500000920E-02 0.  1.
       -2    1    3    3    0  502 -0.71193810945E+03  0.68884974741E+01  0.13128932238E+04  0.14935166354E+04  0.25500000920E-02 0. -1.
</event>
<event>
 5   0  0.1814075E-07  0.3133476E+04  0.7818609E-02  0.8206610E-01
       -1   -1    0    0    0  501  0.00000000000E+00  0.00000000000E+00  0.24975712634E+04  0.24975712634E+04  0.50400001928E-02 0. -1.
        1   -1    0    0  501    0  0.00000000000E+00  0.00000000000E+00 -0.98282193107E+03  0.98282193108E+03  0.50400001928E-02 0.  1.
    10030    2    1    2    0    0  0.00000000000E+00  0.00000000000E+00  0.15147493323E+04  0.34803931945E+04  0.31334759052E+04 0.  0.
        5    1    3    3  502    0 -0.94678380431E+03  0.52095041199E+03 -0.50261523772E+03  0.11918192275E+04  0.46999998093E+01 0.  1.
       -5    1    3    3    0  502  0.94678380431E+03 -0.52095041199E+03  0.20173645701E+04  0.22885739670E+04  0.46999998093E+01 0. -1.
</event>
<event>
 5   0  0.1875284E-07  0.3044193E+04  0.7818609E-02  0.8231223E-01
        1   -1    0    0  501    0  0.00000000000E+00  0.00000000000E+00  0.13249065658E+04  0.13249065658E+04  0.50400001928E-02 0. -1.
       -1   -1    0    0    0  501  0.00000000000E+00  0.00000000000E+00 -0.17486346211E+04  0.17486346211E+04  0.50400001928E-02 0.  1.
    10030    2    1    2    0    0  0.00000000000E+00  0.00000000000E+00 -0.42372805527E+03  0.30735411869E+04  0.30441928262E+04 0.  0.
        4    1    3    3  502    0 -0.38110809061E+03  0.96179902170E+03  0.91535598392E+03  0.13813684972E+04  0.12699999809E+01 0. -1.
       -4    1    3    3    0  502  0.38110809061E+03 -0.96179902170E+03 -0.13390840392E+04  0.16921726897E+04  0.12699999809E+01 0.  1.
</event>
<event>
 5   0  0.5342534E-07  0.3098430E+04  0.7818609E-02  0.8216169E-01
       -2   -1    0    0    0  501  0.00000000000E+00  0.00000000000E+00  0.97694154318E+03  0.97694154318E+03  0.25500000920E-02 0. -1.
        2   -1    0    0  501    0  0.00000000000E+00  0.00000000000E+00 -0.24567152227E+04  0.24567152227E+04  0.25500000920E-02 0.  1.
    10030    2    1    2    0    0  0.00000000000E+00  0.00000000000E+00 -0.14797736795E+04  0.34336567658E+04  0.30984300288E+04 0.  0.
        3    1    3    3  502    0 -0.10725891525E+04  0.77649364488E+03 -0.16310536191E+04  0.21008869054E+04  0.10100000352E+00 0. -1.
       -3    1    3    3    0  502  0.10725891525E+04 -0.77649364488E+03  0.15127993959E+03  0.13327698605E+04  0.10100000352E+00 0.  1.
</event>
<event>
 5   0  0.1830902E-07  0.3100773E+04  0.7818609E-02  0.8215526E-01
        1   -1    0    0  501    0  0.00000000000E+00  0.00000000000E+00  0.19900512380E+04  0.19900512380E+04  0.50400001928E-02 0. -1.
       -1   -1    0    0    0  501  0.00000000000E+00  0.00000000000E+00 -0.12078574074E+04  0.12078574075E+04  0.50400001928E-02 0.  1.
    10030    2    1    2    0    0  0.00000000000E+00  0.00000000000E+00  0.78219383058E+03  0.31979086455E+04  0.31007728901E+04 0.  0.
        3    1    3    3  502    0  0.10553774739E+04  0.51605614529E+03 -0.65230899147E+03  0.13437420095E+04  0.10100000352E+00 0.  1.
       -3    1    3    3    0  502 -0.10553774739E+04 -0.51605614529E+03  0.14345028220E+04  0.18541666360E+04  0.10100000352E+00 0. -1.
</event>
<event>
 5   0  0.1845123E-07  0.3100019E+04  0.7818609E-02  0.8215733E-01
        1   -1    0    0  501    0  0.00000000000E+00  0.00000000000E+00  0.17362392743E+04  0.17362392743E+04  0.50400001928E-02 0. -1.
       -1   -1    0    0    0  501  0.00000000000E+00  0.00000000000E+00 -0.13837549001E+04  0.13837549001E+04  0.50400001928E-02 0.  1.
    10030    2    1    2    0    0  0.00000000000E+00  0.00000000000E+00  0.35248437419E+03  0.31199941743E+04  0.31000190990E+04 0.  0.
        2    1    3    3  502    0  0.11065797121E+04 -0.80062130128E+02 -0.91313751847E+03  0.14369233562E+04  0.25500000920E-02 0.  1.
       -2    1    3    3    0  502 -0.11065797121E+04  0.80062130128E+02  0.12656218927E+04  0.16830708182E+04  0.25500000920E-02 0. -1.
</event>
<event>
 5   0  0.1845123E-07  0.3079455E+04  0.7818609E-02  0.8221399E-01
       -1   -1    0    0    0  501  0.00000000000E+00  0.00000000000E+00  0.14754670522E+04  0.14754670522E+04  0.50400001928E-02 0.  1.
        1   -1    0    0  501    0  0.00000000000E+00  0.00000000000E+00 -0.16067869557E+04  0.16067869558E+04  0.50400001928E-02 0. -1.
    10030    2    1    2    0    0  0.00000000000E+00  0.00000000000E+00 -0.13131990358E+03  0.30822540079E+04  0.30794552850E+04 0.  0.
        2    1    3    3  502    0 -0.72049985377E+03  0.34217833197E+01  0.12963226668E+04  0.14830995261E+04  0.25500000920E-02 0.  1.
       -2    1    3    3    0  502  0.72049985377E+03 -0.34217833197E+01 -0.14276425704E+04  0.15991544818E+04  0.25500000920E-02 0. -1.
</event>
<event>
 5   0  0.5248309E-07  0.3101844E+04  0.7818609E-02  0.8215232E-01
       -2   -1    0    0    0  501  0.00000000000E+00  0.00000000000E+00  0.16395625273E+04  0.16395625273E+04  0.25500000920E-02 0.  1.
        2   -1    0    0  501    0  0.00000000000E+00  0.00000000000E+00 -0.14670740455E+04  0.14670740455E+04  0.25500000920E-02 0. -1.
    10030    2    1    2    0    0  0.00000000000E+00  0.00000000000E+00  0.17248848181E+03  0.31066365728E+04  0.31018443737E+04 0.  0.
        4    1    3    3  502    0 -0.77974309758E+02  0.14039611468E+04  0.74160303682E+03  0.15897054984E+04  0.12699999809E+01 0.  1.
       -4    1    3    3    0  502  0.77974309758E+02 -0.14039611468E+04 -0.56911455501E+03  0.15169310743E+04  0.12699999809E+01 0. -1.
</event>
<event>
 5   0  0.1840359E-07  0.3088803E+04  0.7818609E-02  0.8218818E-01
       -1   -1    0    0    0  501  0.00000000000E+00  0.00000000000E+00  0.15704313444E+04  0.15704313444E+04  0.50400001928E-02 0. -1.
        1   -1    0    0  501    0  0.00000000000E+00  0.00000000000E+00 -0.15188028956E+04  0.15188028956E+04  0.50400001928E-02 0.  1.
    10030    2    1    2    0    0  0.00000000000E+00  0.00000000000E+00  0.51628448800E+02  0.30892342399E+04  0.30888027928E+04 0.  0.
        1    1    3    3  502    0  0.52418631666E+03  0.14280500327E+04  0.29245506979E+03  0.15490733224E+04  0.50400001928E-02 0. -1.
       -1    1    3    3    0  502 -0.52418631666E+03 -0.14280500327E+04 -0.24082662099E+03  0.15401609175E+04  0.50400001928E-02 0.  1.
</event>
<event>
 5   0  0.1840359E-07  0.3104830E+04  0.7818609E-02  0.8214414E-01
       -1   -1    0    0    0  501  0.00000000000E+00  0.00000000000E+00  0.12338962052E+04  0.12338962053E+04  0.50400001928E-02 0. -1.
        1   -1    0    0  501    0  0.00000000000E+00  0.00000000000E+00 -0.19531565811E+04  0.19531565811E+04  0.50400001928E-02 0.  1.
    10030    2    1    2    0    0  0.00000000000E+00  0.00000000000E+00 -0.71926037582E+03  0.31870527863E+04  0.31048301040E+04 0.  0.
        1    1    3    3  502    0 -0.10594309966E+04 -0.11323340136E+04 -0.28407288057E+03  0.15764744706E+04  0.50400001928E-02 0.  1.
       -1    1    3    3    0  502  0.10594309966E+04  0.11323340136E+04 -0.43518749525E+03  0.16105783157E+04  0.50400001928E-02 0. -1.
</event>
<event>
 5   0  0.5376678E-07  0.3096469E+04  0.7818609E-02  0.8216708E-01
       -2   -1    0    0    0  501  0.00000000000E+00  0.00000000000E+00  0.16206445603E+04  0.16206445603E+04  0.25500000920E-02 0. -1.
        2   -1    0    0  501    0  0.00000000000E+00  0.00000000000E+00 -0.14790596544E+04  0.14790596544E+04  0.25500000920E-02 0.  1.
    10030    2    1    2    0    0  0.00000000000E+00  0.00000000000E+00  0.14158490588E+03  0.30997042147E+04  0.30964689459E+04 0.  0.
        5    1    3    3  502    0 -0.11808920605E+04 -0.55449618757E+03  0.90535158995E+03  0.15879721887E+04  0.46999998093E+01 0.  1.
       -5    1    3    3    0  502  0.11808920605E+04  0.55449618757E+03 -0.76376668407E+03  0.15117320260E+04  0.46999998093E+01 0. -1.
</event>
<event>
 5   0  0.5154105E-07  0.3099252E+04  0.7818609E-02  0.8215943E-01
       -2   -1    0    0    0  501  0.00000000000E+00  0.00000000000E+00  0.19734579338E+04  0.19734579338E+04  0.25500000920E-02 0.  1.
        2   -1    0    0  501    0  0.00000000000E+00  0.00000000000E+00 -0.12168189890E+04  0.12168189890E+04  0.25500000920E-02 0. -1.
    10030    2    1    2    0    0  0.00000000000E+00  0.00000000000E+00  0.75663894483E+03  0.31902769227E+04  0.30992522245E+04 0.  0.
        1    1    3    3  502    0 -0.45546381748E+02  0.76968502506E+03  0.17619900313E+04  0.19233040273E+04  0.50400001928E-02 0.  1.
       -1    1    3    3    0  502  0.45546381748E+02 -0.76968502506E+03 -0.10053510865E+04  0.12669728955E+04  0.50400001928E-02 0. -1.
</event>
<event>
 5   0  0.5154105E-07  0.3097627E+04  0.7818609E-02  0.8216389E-01
       -2   -1    0    0    0  501  0.00000000000E+00  0.00000000000E+00  0.12828497305E+04  0.12828497305E+04  0.25500000920E-02 0.  1.
        2   -1    0    0  501    0  0.00000000000E+00  0.00000000000E+00 -0.18699173947E+04  0.18699173947E+04  0.25500000920E-02 0. -1.
    10030    2    1    2    0    0  0.00000000000E+00  0.00000000000E+00 -0.58706766419E+03  0.31527671252E+04  0.30976268503E+04 0.  0.
        1    1    3    3  502    0 -0.20197597297E+03  0.38521573299E+02 -0.18559641063E+04  0.18673191931E+04  0.50400001928E-02 0. -1.
       -1    1    3    3    0  502  0.20197597297E+03 -0.38521573299E+02  0.12688964421E+04  0.12854479321E+04  0.50400001928E-02 0.  1.
</event>
<event>
 5   0  0.1830902E-07  0.3108440E+04  0.7818609E-02  0.8213425E-01
       -1   -1    0    0    0  501  0.00000000000E+00  0.00000000000E+00  0.10600161855E+04  0.10600161855E+04  0.50400001928E-02 0.  1.
        1   -1    0    0  501    0  0.00000000000E+00  0.00000000000E+00 -0.22788334171E+04  0.22788334171E+04  0.50400001928E-02 0. -1.
    10030    2    1    2    0    0  0.00000000000E+00  0.00000000000E+00 -0.12188172316E+04  0.33388496026E+04  0.31084403202E+04 0.  0.
        3    1    3    3  502    0 -0.39561772505E+03  0.13077540156E+04 -0.14051787296E+04  0.19599135751E+04  0.10100000352E+00 0. -1.
       -3    1    3    3    0  502  0.39561772505E+03 -0.13077540156E+04  0.18636149798E+03  0.13789360274E+04  0.10100000352E+00 0.  1.
</event>
<event>
 5   0  0.5376678E-07  0.3097290E+04  0.7818609E-02  0.8216482E-01
        2   -1    0    0  501    0  0.00000000000E+00  0.00000000000E+00  0.22543791600E+04  0.22543791600E+04  0.25500000920E-02 0. -1.
       -2   -1    0    0    0  501  0.00000000000E+00  0.00000000000E+00 -0.10638413166E+04  0.10638413166E+04  0.25500000920E-02 0.  1.
    10030    2    1    2    0    0  0.00000000000E+00  0.00000000000E+00  0.11905378434E+04  0.33182204766E+04  0.30972902309E+04 0.  0.
        5    1    3    3  502    0  0.40299920396E+03  0.14927709604E+04  0.68808659072E+03  0.16924121085E+04  0.46999998093E+01 0.  1.
       -5    1    3    3    0  502 -0.40299920396E+03 -0.14927709604E+04  0.50245125263E+03  0.16258083681E+04  0.46999998093E+01 0. -1.
</event>
<event>
 5   0  0.5055900E-07  0.3102130E+04  0.7818609E-02  0.8215154E-01
       -2   -1    0    0    0  501  0.00000000000E+00  0.00000000000E+00  0.79186592399E+03  0.79186592399E+03  0.25500000920E-02 0.  1.
        2   -1    0    0  501    0  0.00000000000E+00  0.00000000000E+00 -0.30381438274E+04  0.30381438274E+04  0.25500000920E-02 0. -1.
    10030    2    1    2    0    0  0.00000000000E+00  0.00000000000E+00 -0.22462779034E+04  0.38300097514E+04  0.31021299580E+04 0.  0.
        2    1    3    3  502    0  0.81577851946E+03  0.69799095135E+03  0.25894885297E+03  0.11044186115E+04  0.25500000920E-02 0.  1.
       -2    1    3    3    0  502 -0.81577851946E+03 -0.69799095135E+03 -0.25052267564E+04  0.27255911399E+04  0.25500000920E-02 0. -1.
</event>
<event>
 5   0  0.1814075E-07  0.3099297E+04  0.7818609E-02  0.8215931E-01
        1   -1    0    0  501    0  0.00000000000E+00  0.00000000000E+00  0.14696798247E+04  0.14696798247E+04  0.50400001928E-02 0.  1.
       -1   -1    0    0    0  501  0.00000000000E+00  0.00000000000E+00 -0.16339687212E+04  0.16339687213E+04  0.50400001928E-02 0. -1.
    10030    2    1    2    0    0  0.00000000000E+00  0.00000000000E+00 -0.16428889658E+03  0.31036485459E+04  0.30992972518E+04 0.  0.
        5    1    3    3  502    0  0.68766248700E+03 -0.95063836981E+03 -0.10958876777E+04  0.16054858761E+04  0.46999998093E+01 0. -1.
       -5    1    3    3    0  502 -0.68766248700E+03  0.95063836981E+03  0.93159878116E+03  0.14981626698E+04  0.46999998093E+01 0.  1.
</event>
<event>
 5   0  0.5154105E-07  0.3098826E+04  0.7818609E-02  0.8216060E-01
        2   -1    0    0  501    0  0.00000000000E+00  0.00000000000E+00  0.21706280839E+04  0.21706280839E+04  0.25500000920E-02 0. -1.
       -2   -1    0    0    0  501  0.00000000000E+00  0.00000000000E+00 -0.11059845264E+04  0.11059845264E+04  0.25500000920E-02 0.  1.
    10030    2    1    2    0    0  0.00000000000E+00  0.00000000000E+00  0.10646435575E+04  0.32766126103E+04  0.30988262768E+04 0.  0.
        1    1    3    3  502    0 -0.15278980641E+04  0.24158542441E+03  0.62597571855E+03  0.16687365316E+04  0.50400001928E-02 0. -1.
       -1    1    3    3    0  502  0.15278980641E+04 -0.24158542441E+03  0.43866783893E+03  0.16078760787E+04  0.50400001928E-02 0.  1.
</event>
<event>
 5   0  0.5248309E-07  0.3103107E+04  0.7818609E-02  0.8214886E-01
       -2   -1    0    0    0  501  0.00000000000E+00  0.00000000000E+00  0.11782927283E+04  0.11782927283E+04  0.25500000920E-02 0. -1.
        2   -1    0    0  501    0  0.00000000000E+00  0.00000000000E+00 -0.20430566774E+04  0.20430566774E+04  0.25500000920E-02 0.  1.
    10030    2    1    2    0    0  0.00000000000E+00  0.00000000000E+00 -0.86476394912E+03  0.32213494056E+04  0.31031073629E+04 0.  0.
        4    1    3    3  502    0  0.11416748234E+04  0.63016487132E+03 -0.13051234779E+04  0.18449601820E+04  0.12699999809E+01 0.  1.
       -4    1    3    3    0  502 -0.11416748234E+04 -0.63016487132E+03  0.44035952883E+03  0.13763892237E+04  0.12699999809E+01 0. -1.
</event>
<event>
 5   0  0.5154105E-07  0.3104156E+04  0.7818609E-02  0.8214598E-01
        2   -1    0    0  501    0  0.00000000000E+00  0.00000000000E+00  0.20158558604E+04  0.20158558604E+04  0.25500000920E-02 0. -1.
       -2   -1    0    0    0  501  0.00000000000E+00  0.00000000000E+00 -0.11949990432E+04  0.11949990432E+04  0.25500000920E-02 0.  1.
    10030    2    1    2    0    0  0.00000000000E+00  0.00000000000E+00  0.82085681717E+03  0.32108549037E+04  0.31041558109E+04 0.  0.
        1    1    3    3  502    0 -0.13616956585E+04 -0.81059673026E+02 -0.35539894384E+03  0.14096432691E+04  0.50400001928E-02 0.  1.
       -1    1    3    3    0  502  0.13616956585E+04  0.81059673026E+02  0.11762557610E+04  0.18012116345E+04  0.50400001928E-02 0. -1.
</event>
<event>
 5   0  0.5055900E-07  0.3100551E+04  0.7818609E-02  0.8215587E-01
       -2   -1    0    0    0  501  0.00000000000E+00  0.00000000000E+00  0.11508922928E+04  0.11508922928E+04  0.25500000920E-02 0.  1.
        2   -1    0    0  501    0  0.00000000000E+00  0.00000000000E+00 -0.20882534502E+04  0.20882534502E+04  0.25500000920E-02 0. -1.
    10030    2    1    2    0    0  0.00000000000E+00  0.00000000000E+00 -0.93736115746E+03  0.32391457430E+04  0.31005514356E+04 0.  0.
        2    1    3    3  502    0 -0.46203282193E+02  0.15467443385E+04 -0.37066785443E+03  0.15912094300E+04  0.25500000920E-02 0.  1.
       -2    1    3    3    0  502  0.46203282193E+02 -0.15467443385E+04 -0.56669330302E+03  0.16479363130E+04  0.25500000920E-02 0. -1.
</event>
<event>
 5   0  0.1845123E-07  0.3096919E+04  0.7818609E-02  0.8216584E-01
        1   -1    0    0  501    0  0.00000000000E+00  0.00000000000E+00  0.13580301396E+04  0.13580301396E+04  0.50400001928E-02 0.  1.
       -1   -1    0    0    0  501  0.00000000000E+00  0.00000000000E+00 -0.17655915481E+04  0.17655915481E+04  0.50400001928E-02 0. -1.
    10030    2    1    2    0    0  0.00000000000E+00  0.00000000000E+00 -0.40756140843E+03  0.31236216877E+04  0.30969188149E+04 0.  0.
        2    1    3    3  502    0  0.63065110583E+03  0.10962176524E+04 -0.11049680708E+04  0.16793952472E+04  0.25500000920E-02 0. -1.
       -2    1    3    3    0  502 -0.63065110583E+03 -0.10962176524E+04  0.69740666234E+03  0.14442264405E+04  0.25500000920E-02 0.  1.
</event>
<event>
 5   0  0.1845123E-07  0.3118021E+04  0.7818609E-02  0.8210810E-01
        1   -1    0    0  501    0  0.00000000000E+00  0.00000000000E+00  0.23559189687E+04  0.23559189687E+04  0.50400001928E-02 0.  1.
       -1   -1    0    0    0  501  0.00000000000E+00  0.00000000000E+00 -0.10316626500E+04  0.10316626500E+04  0.50400001928E-02 0. -1.
    10030    2    1    2    0    0  0.00000000000E+00  0.00000000000E+00  0.13242563187E+04  0.33875816187E+04  0.31180209149E+04 0.  0.
        2    1    3    3  502    0 -0.92331929430E+03 -0.11834726613E+04  0.11197137163E+04  0.18726678471E+04  0.25500000920E-02 0. -1.
       -2    1    3    3    0  502  0.92331929430E+03  0.11834726613E+04  0.20454260239E+03  0.15149137716E+04  0.25500000920E-02 0.  1.
</event>
<event>
 5   0  0.5154105E-07  0.3102600E+04  0.7818609E-02  0.8215025E-01
        2   -1    0    0  501    0  0.00000000000E+00  0.00000000000E+00  0.16444116221E+04  0.16444116221E+04  0.25500000920E-02 0. -1.
       -2   -1    0    0    0  501  0.00000000000E+00  0.00000000000E+00 -0.14634610604E+04  0.14634610604E+04  0.25500000920E-02 0.  1.
    10030    2    1    2    0    0  0.00000000000E+00  0.00000000000E+00  0.18095056164E+03  0.31078726825E+04  0.31026004424E+04 0.  0.
        1    1    3    3  502    0  0.15172305767E+04  0.28435107400E+03 -0.63696036729E+02  0.15449599805E+04  0.50400001928E-02 0. -1.
       -1    1    3    3    0  502 -0.15172305767E+04 -0.28435107400E+03  0.24464659837E+03  0.15629127020E+04  0.50400001928E-02 0.  1.
</event>
<event>
 5   0  0.1840359E-07  0.3104414E+04  0.7818609E-02  0.8214527E-01
       -1   -1    0    0    0  501  0.00000000000E+00  0.00000000000E+00  0.13138918137E+04  0.13138918137E+04  0.50400001928E-02 0.  1.
        1   -1    0    0  501    0  0.00000000000E+00  0.00000000000E+00 -0.18337485367E+04  0.18337485367E+04  0.50400001928E-02 0. -1.
    10030    2    1    2    0    0  0.00000000000E+00  0.00000000000E+00 -0.51985672307E+03  0.31476403504E+04  0.31044143994E+04 0.  0.
        1    1    3    3  502    0 -0.12599972945E+04  0.98818947504E+02  0.65372286327E+03  0.14229237325E+04  0.50400001928E-02 0.  1.
       -1    1    3    3    0  502  0.12599972945E+04 -0.98818947504E+02 -0.11735795863E+04  0.17247166179E+04  0.50400001928E-02 0. -1.
</event>
<event>
 5   0  0.1814075E-07  0.3106743E+04  0.7818609E-02  0.8213890E-01
        1   -1    0    0  501    0  0.00000000000E+00  0.00000000000E+00  0.18449531906E+04  0.18449531906E+04  0.50400001928E-02 0.  1.
       -1   -1    0    0    0  501  0.00000000000E+00  0.00000000000E+00 -0.13078719284E+04  0.13078719285E+04  0.50400001928E-02 0. -1.
    10030    2    1    2    0    0  0.00000000000E+00  0.00000000000E+00  0.53708126212E+03  0.31528251190E+04  0.31067426590E+04 0.  0.
        5    1    3    3  502    0  0.12503970178E+04  0.84219449054E+03 -0.11138680588E+03  0.15116922215E+04  0.46999998093E+01 0. -1.
       -5    1    3    3    0  502 -0.12503970178E+04 -0.84219449054E+03  0.64846806800E+03  0.16411328975E+04  0.46999998093E+01 0.  1.
</event>
<event>
 5   0  0.5154105E-07  0.3097938E+04  0.7818609E-02  0.8216304E-01
        2   -1    0    0  501    0  0.00000000000E+00  0.00000000000E+00  0.19006596739E+04  0.19006596739E+04  0.25500000920E-02 0.  1.
       -2   -1    0    0    0  501  0.00000000000E+00  0.00000000000E+00 -0.12623537784E+04  0.12623537784E+04  0.25500000920E-02 0. -1.
    10030    2    1    2    0    0  0.00000000000E+00  0.00000000000E+00  0.63830589543E+03  0.31630134523E+04  0.30979379728E+04 0.  0.
        1    1    3    3  502    0  0.74139119269E+03 -0.66887322534E+03  0.15281951275E+04  0.18254951767E+04  0.50400001928E-02 0.  1.
       -1    1    3    3    0  502 -0.74139119269E+03  0.66887322534E+03 -0.88988923212E+03  0.13375182756E+04  0.50400001928E-02 0. -1.
</event>
<event>
 5   0  0.1875284E-07  0.3104207E+04  0.7818609E-02  0.8214584E-01
       -1   -1    0    0    0  501  0.00000000000E+00  0.00000000000E+00  0.15907826505E+04  0.15907826505E+04  0.50400001928E-02 0. -1.
        1   -1    0    0  501    0  0.00000000000E+00  0.00000000000E+00 -0.15143644185E+04  0.15143644185E+04  0.50400001928E-02 0.  1.
    10030    2    1    2    0    0  0.00000000000E+00  0.00000000000E+00  0.76418232033E+02  0.31051470691E+04  0.31042065934E+04 0.  0.
        4    1    3    3  502    0 -0.21119127714E+03  0.26935677741E+03 -0.14761412853E+04  0.15153050967E+04  0.12699999809E+01 0.  1.
       -4    1    3    3    0  502  0.21119127714E+03 -0.26935677741E+03  0.15525595174E+04  0.15898419723E+04  0.12699999809E+01 0. -1.
</event>
<event>
 5   0  0.5055900E-07  0.3091522E+04  0.7818609E-02  0.8218069E-01
       -2   -1    0    0    0  501  0.00000000000E+00  0.00000000000E+00  0.11226340142E+04  0.11226340142E+04  0.25500000920E-02 0.  1.
        2   -1    0    0  501    0  0.00000000000E+00  0.00000000000E+00 -0.21283664846E+04  0.21283664846E+04  0.25500000920E-02 0. -1.
    10030    2    1    2    0    0  0.00000000000E+00  0.00000000000E+00 -0.10057324704E+04  0.32510004987E+04  0.30915217031E+04 0.  0.
        2    1    3    3  502    0  0.93754095166E+02 -0.64057069853E+03  0.97320073233E+03  0.11688628301E+04  0.25500000920E-02 0.  1.
       -2    1    3    3    0  502 -0.93754095166E+02  0.64057069853E+03 -0.19789332028E+04  0.20821376686E+04  0.25500000920E-02 0. -1.
</event>
<event>
 5   0  0.1875284E-07  0.3100726E+04  0.7818609E-02  0.8215539E-01
       -1   -1    0    0    0  501  0.00000000000E+00  0.00000000000E+00  0.12495710527E+04  0.12495710527E+04  0.50400001928E-02 0.  1.
        1   -1    0    0  501    0  0.00000000000E+00  0.00000000000E+00 -0.19235600226E+04  0.19235600227E+04  0.50400001928E-02 0. -1.
    10030    2    1    2    0    0  0.00000000000E+00  0.00000000000E+00 -0.67398896999E+03  0.31731310753E+04  0.31007256714E+04 0.  0.
        4    1    3    3  502    0  0.12350821535E+04  0.88886690079E+03 -0.64076091183E+03  0.16510870517E+04  0.12699999809E+01 0. -1.
       -4    1    3    3    0  502 -0.12350821535E+04 -0.88886690079E+03 -0.33228058161E+02  0.15220440236E+04  0.12699999809E+01 0.  1.
</event>
<event>
 5   0  0.1840359E-07  0.3106690E+04  0.7818609E-02  0.8213904E-01
        1   -1    0    0  501    0  0.00000000000E+00  0.00000000000E+00  0.18626828144E+04  0.18626828144E+04  0.50400001928E-02 0.  1.
       -1   -1    0    0    0  501  0.00000000000E+00  0.00000000000E+00 -0.12953796022E+04  0.12953796022E+04  0.50400001928E-02 0. -1.
    10030    2    1    2    0    0  0.00000000000E+00  0.00000000000E+00  0.56730321216E+03  0.31580624166E+04  0.31066904082E+04 0.  0.
        1    1    3    3  502    0  0.11839912623E+04 -0.98224090421E+03  0.65040077403E+02  0.15397606031E+04  0.50400001928E-02 0.  1.
       -1    1    3    3    0  502 -0.11839912623E+04  0.98224090421E+03  0.50226313476E+03  0.16183018135E+04  0.50400001928E-02 0. -1.
</event>
<event>
 5   0  0.5376678E-07  0.3095359E+04  0.7818609E-02  0.8217013E-01
        2   -1    0    0  501    0  0.00000000000E+00  0.00000000000E+00  0.27463997197E+04  0.27463997197E+04  0.25500000920E-02 0. -1.
       -2   -1    0    0    0  501  0.00000000000E+00  0.00000000000E+00 -0.87216450935E+03  0.87216450935E+03  0.25500000920E-02 0.  1.
    10030    2    1    2    0    0  0.00000000000E+00  0.00000000000E+00  0.18742352104E+04  0.36185642291E+04  0.30953593420E+04 0.  0.
        5    1    3    3  502    0 -0.27134901867E+03 -0.74959879524E+03 -0.61366933151E+03  0.10060520773E+04  0.46999998093E+01 0.  1.
       -5    1    3    3    0  502  0.27134901867E+03  0.74959879524E+03  0.24879045419E+04  0.26125121518E+04  0.46999998093E+01 0. -1.
</event>
<event>
 5   0  0.1830902E-07  0.3084380E+04  0.7818609E-02  0.8220038E-01
       -1   -1    0    0    0  501  0.00000000000E+00  0.00000000000E+00  0.88446464071E+03  0.88446464073E+03  0.50400001928E-02 0. -1.
        1   -1    0    0  501    0  0.00000000000E+00  0.00000000000E+00 -0.26890283271E+04  0.26890283271E+04  0.50400001928E-02 0.  1.
    10030    2    1    2    0    0  0.00000000000E+00  0.00000000000E+00 -0.18045636864E+04  0.35734929679E+04  0.30843803094E+04 0.  0.
        3    1    3    3  502    0 -0.56488570182E+03 -0.13694489110E+04 -0.40549086441E+03  0.15358740272E+04  0.10100000352E+00 0.  1.
       -3    1    3    3    0  502  0.56488570182E+03  0.13694489110E+04 -0.13990728220E+04  0.20376189407E+04  0.10100000352E+00 0. -1.
</event>
<event>
 5   0  0.1830902E-07  0.3105758E+04  0.7818609E-02  0.8214160E-01
        1   -1    0    0  501    0  0.00000000000E+00  0.00000000000E+00  0.21487088533E+04  0.21487088534E+04  0.50400001928E-02 0.  1.
       -1   -1    0    0    0  501  0.00000000000E+00  0.00000000000E+00 -0.11222705289E+04  0.11222705289E+04  0.50400001928E-02 0. -1.
    10030    2    1    2    0    0  0.00000000000E+00  0.00000000000E+00  0.10264383244E+04  0.32709793823E+04  0.31057576347E+04 0.  0.
        3    1    3    3  502    0  0.47401598103E+03 -0.64784900063E+02  0.20691553678E+04  0.21237448481E+04  0.10100000352E+00 0.  1.
       -3    1    3    3    0  502 -0.47401598103E+03  0.64784900063E+02 -0.10427170434E+04  0.11472345341E+04  0.10100000352E+00 0. -1.
</event>
<event>
 5   0  0.5055900E-07  0.3095660E+04  0.7818609E-02  0.8216930E-01
        2   -1    0    0  501    0  0.00000000000E+00  0.00000000000E+00  0.13451410536E+04  0.13451410536E+04  0.25500000920E-02 0.  1.
       -2   -1    0    0    0  501  0.00000000000E+00  0.00000000000E+00 -0.17810610209E+04  0.17810610209E+04  0.25500000920E-02 0. -1.
    10030    2    1    2    0    0  0.00000000000E+00  0.00000000000E+00 -0.43591996734E+03  0.31262020745E+04  0.30956603807E+04 0.  0.
        2    1    3    3  502    0  0.39598308881E+01  0.15420858193E+04 -0.35244267825E+03  0.15818534053E+04  0.25500000920E-02 0. -1.
       -2    1    3    3    0  502 -0.39598308881E+01 -0.15420858193E+04 -0.83477289095E+02  0.15443486692E+04  0.25500000920E-02 0.  1.
</event>
<event>
 5   0  0.5248309E-07  0.3098609E+04  0.7818609E-02  0.8216120E-01
        2   -1    0    0  501    0  0.00000000000E+00  0.00000000000E+00  0.23207096699E+04  0.23207096699E+04  0.25500000920E-02 0. -1.
       -2   -1    0    0    0  501  0.00000000000E+00  0.00000000000E+00 -0.10343147471E+04  0.10343147471E+04  0.25500000920E-02 0.  1.
    10030    2    1    2    0    0  0.00000000000E+00  0.00000000000E+00  0.12863949228E+04  0.33550244170E+04  0.30986088719E+04 0.  0.
        4    1    3    3  502    0  0.13602411327E+04 -0.45961521114E+03  0.12734674217E+04  0.19191724697E+04  0.12699999809E+01 0.  1.
       -4    1    3    3    0  502 -0.13602411327E+04  0.45961521114E+03  0.12927501099E+02  0.14358519473E+04  0.12699999809E+01 0. -1.
</event>
<event>
 5   0  0.1830902E-07  0.3099206E+04  0.7818609E-02  0.8215956E-01
        1   -1    0    0  501    0  0.00000000000E+00  0.00000000000E+00  0.12127614619E+04  0.12127614619E+04  0.50400001928E-02 0. -1.
       -1   -1    0    0    0  501  0.00000000000E+00  0.00000000000E+00 -0.19800011876E+04  0.19800011876E+04  0.50400001928E-02 0.  1.
    10030    2    1    2    0    0  0.00000000000E+00  0.00000000000E+00 -0.76723972562E+03  0.31927626495E+04  0.30992057917E+04 0.  0.
        3    1    3    3  502    0  0.10774949775E+04  0.94292053381E+03  0.22686900048E+03  0.14496772445E+04  0.10100000352E+00 0. -1.
       -3    1    3    3    0  502 -0.10774949775E+04 -0.94292053381E+03 -0.99410872610E+03  0.17430854050E+04  0.10100000352E+00 0.  1.
</event>
<event>
 5   0  0.5055900E-07  0.3098579E+04  0.7818609E-02  0.8216128E-01
       -2   -1    0    0    0  501  0.00000000000E+00  0.00000000000E+00  0.11104488767E+04  0.11104488767E+04  0.25500000920E-02 0. -1.
        2   -1    0    0  501    0  0.00000000000E+00  0.00000000000E+00 -0.21615568760E+04  0.21615568760E+04  0.25500000920E-02 0.  1.
    10030    2    1    2    0    0  0.00000000000E+00  0.00000000000E+00 -0.10511079993E+04  0.32720057528E+04  0.30985792906E+04 0.  0.
        2    1    3    3  502    0  0.40578528921E+03 -0.45325528555E+02 -0.21037190609E+04  0.21429768995E+04  0.25500000920E-02 0.  1.
       -2    1    3    3    0  502 -0.40578528921E+03  0.45325528555E+02  0.10526110616E+04  0.11290288533E+04  0.25500000920E-02 0. -1.
</event>
<event>
 5   0  0.5248309E-07  0.3094168E+04  0.7818609E-02  0.8217340E-01
       -2   -1    0    0    0  501  0.00000000000E+00  0.00000000000E+00  0.17494137162E+04  0.17494137162E+04  0.25500000920E-02 0.  1.
        2   -1    0    0  501    0  0.00000000000E+00  0.00000000000E+00 -0.13681545876E+04  0.13681545876E+04  0.25500000920E-02 0. -1.
    10030    2    1    2    0    0  0.00000000000E+00  0.00000000000E+00  0.38125912863E+03  0.31175683038E+04  0.30941676758E+04 0.  0.
        4    1    3    3  502    0 -0.11274699087E+04 -0.39883505267E+03 -0.79822494244E+03  0.14378534229E+04  0.12699999809E+01 0. -1.
       -4    1    3    3    0  502  0.11274699087E+04  0.39883505267E+03  0.11794840711E+04  0.16797148809E+04  0.12699999809E+01 0.  1.
</event>
<event>
 5   0  0.5342534E-07  0.3102696E+04  0.7818609E-02  0.8214998E-01
       -2   -1    0    0    0  501  0.00000000000E+00  0.00000000000E+00  0.10272624883E+04  0.10272624883E+04  0.25500000920E-02 0. -1.
        2   -1    0    0  501    0  0.00000000000E+00  0.00000000000E+00 -0.23428099450E+04  0.23428099450E+04  0.25500000920E-02 0.  1.
    10030    2    1    2    0    0  0.00000000000E+00  0.00000000000E+00 -0.13155474567E+04  0.33700724333E+04  0.31026961010E+04 0.  0.
        3    1    3    3  502    0 -0.33353257017E+03  0.14337549213E+04 -0.12589852192E+03  0.14774124671E+04  0.10100000352E+00 0. -1.
       -3    1    3    3    0  502  0.33353257017E+03 -0.14337549213E+04 -0.11896489348E+04  0.18926599663E+04  0.10100000352E+00 0.  1.
</event>
<event>
 5   0  0.1830902E-07  0.3079942E+04  0.7818609E-02  0.8221264E-01
        1   -1    0    0  501    0  0.00000000000E+00  0.00000000000E+00  0.16244046278E+04  0.16244046278E+04  0.50400001928E-02 0.  1.
       -1   -1    0    0    0  501  0.00000000000E+00  0.00000000000E+00 -0.14599257813E+04  0.14599257813E+04  0.50400001928E-02 0. -1.
    10030    2    1    2    0    0  0.00000000000E+00  0.00000000000E+00  0.16447884646E+03  0.30843304091E+04  0.30799416848E+04 0.  0.
        3    1    3    3  502    0 -0.90623123329E+03  0.85918291679E+03 -0.82018828603E+03  0.14940412201E+04  0.10100000352E+00 0. -1.
       -3    1    3    3    0  502  0.90623123329E+03 -0.85918291679E+03  0.98466713249E+03  0.15902891890E+04  0.10100000352E+00 0.  1.
</event>
<event>
 5   0  0.5055900E-07  0.3093403E+04  0.7818609E-02  0.8217551E-01
        2   -1    0    0  501    0  0.00000000000E+00  0.00000000000E+00  0.21003609183E+04  0.21003609183E+04  0.25500000920E-02 0. -1.
       -2   -1    0    0    0  501  0.00000000000E+00  0.00000000000E+00 -0.11389875204E+04  0.11389875204E+04  0.25500000920E-02 0.  1.
    10030    2    1    2    0    0  0.00000000000E+00  0.00000000000E+00  0.96137339789E+03  0.32393484386E+04  0.30934025759E+04 0.  0.
        2    1    3    3  502    0  0.14576599334E+04  0.41598627189E+03  0.15882955281E+03  0.15241534984E+04  0.25500000920E-02 0.  1.
       -2    1    3    3    0  502 -0.14576599334E+04 -0.41598627189E+03  0.80254384508E+03  0.17151949402E+04  0.25500000920E-02 0. -1.
</event>
<event>
 5   0  0.1814075E-07  0.3100052E+04  0.7818609E-02  0.8215724E-01
       -1   -1    0    0    0  501  0.00000000000E+00  0.00000000000E+00  0.14907541417E+04  0.14907541417E+04  0.50400001928E-02 0. -1.
        1   -1    0    0  501    0  0.00000000000E+00  0.00000000000E+00 -0.16116544154E+04  0.16116544155E+04  0.50400001928E-02 0.  1.
    10030    2    1    2    0    0  0.00000000000E+00  0.00000000000E+00 -0.12090027376E+03  0.31024085571E+04  0.31000519317E+04 0.  0.
        5    1    3    3  502    0  0.29315785031E+03 -0.97094967514E+03 -0.12334647187E+04  0.15969164346E+04  0.46999998093E+01 0.  1.
       -5    1    3    3    0  502 -0.29315785031E+03  0.97094967514E+03  0.11125644450E+04  0.15054921225E+04  0.46999998093E+01 0. -1.
</event>
<event>
 5   0  0.1875284E-07  0.3096951E+04  0.7818609E-02  0.8216575E-01
       -1   -1    0    0    0  501  0.00000000000E+00  0.00000000000E+00  0.17313531480E+04  0.17313531480E+04  0.50400001928E-02 0. -1.
        1   -1    0    0  501    0  0.00000000000E+00  0.00000000000E+00 -0.13849146334E+04  0.13849146334E+04  0.50400001928E-02 0.  1.
    10030    2    1    2    0    0  0.00000000000E+00  0.00000000000E+00  0.34643851466E+03  0.31162677814E+04  0.30969509588E+04 0.  0.
        4    1    3    3  502    0 -0.12002764461E+03 -0.21577608901E+03  0.17114164898E+04  0.17291367704E+04  0.12699999809E+01 0. -1.
       -4    1    3    3    0  502  0.12002764461E+03  0.21577608901E+03 -0.13649779752E+04  0.13871310110E+04  0.12699999809E+01 0.  1.
</event>
<event>
 5   0  0.5055900E-07  0.3104035E+04  0.7818609E-02  0.8214632E-01
        2   -1    0    0  501    0  0.00000000000E+00  0.00000000000E+00  0.17405288456E+04  0.17405288456E+04  0.25500000920E-02 0. -1.
       -2   -1    0    0    0  501  0.00000000000E+00  0.00000000000E+00 -0.13839228673E+04  0.13839228673E+04  0.25500000920E-02 0.  1.
    10030    2    1    2    0    0  0.00000000000E+00  0.00000000000E+00  0.35660597831E+03  0.31244517129E+04  0.31040345814E+04 0.  0.
        2    1    3    3  502    0 -0.92206763506E+03  0.46068161528E+03 -0.98963998949E+03  0.14289239249E+04  0.25500000920E-02 0.  1.
       -2    1    3    3    0  502  0.92206763506E+03 -0.46068161528E+03  0.13462459678E+04  0.16955277881E+04  0.25500000920E-02 0. -1.
</event>
<event>
 5   0  0.1814075E-07  0.3101002E+04  0.7818609E-02  0.8215463E-01
       -1   -1    0    0    0  501  0.00000000000E+00  0.00000000000E+00  0.11389558319E+04  0.11389558319E+04  0.50400001928E-02 0.  1.
        1   -1    0    0  501    0  0.00000000000E+00  0.00000000000E+00 -0.21107520850E+04  0.21107520850E+04  0.50400001928E-02 0. -1.
    10030    2    1    2    0    0  0.00000000000E+00  0.00000000000E+00 -0.97179625315E+03  0.32497079169E+04  0.31010020296E+04 0.  0.
        5    1    3    3  502    0 -0.78394591350E+03  0.77118819192E+03 -0.16313502976E+04  0.19673912438E+04  0.46999998093E+01 0. -1.
       -5    1    3    3    0  502  0.78394591350E+03 -0.77118819192E+03  0.65955404441E+03  0.12823166731E+04  0.46999998093E+01 0.  1.
</event>
<event>
 5   0  0.1830902E-07  0.3097623E+04  0.7818609E-02  0.8216390E-01
        1   -1    0    0  501    0  0.00000000000E+00  0.00000000000E+00  0.20499619539E+04  0.20499619539E+04  0.50400001928E-02 0.  1.
       -1   -1    0    0    0  501  0.00000000000E+00  0.00000000000E+00 -0.11701766840E+04  0.11701766840E+04  0.50400001928E-02 0. -1.
    10030    2    1    2    0    0  0.00000000000E+00  0.00000000000E+00  0.87978526997E+03  0.32201386379E+04  0.30976233996E+04 0.  0.
        3    1    3    3  502    0 -0.73728817862E+03  0.12336823549E+04 -0.16021909323E+03  0.14461107078E+04  0.10100000352E+00 0.  1.
       -3    1    3    3    0  502  0.73728817862E+03 -0.12336823549E+04  0.10400043632E+04  0.17740279301E+04  0.10100000352E+00 0. -1.
</event>
<event>
 5   0  0.1830902E-07  0.3102163E+04  0.7818609E-02  0.8215145E-01
        1   -1    0    0  501    0  0.00000000000E+00  0.00000000000E+00  0.28251102826E+04  0.28251102826E+04  0.50400001928E-02 0. -1.
       -1   -1    0    0    0  501  0.00000000000E+00  0.00000000000E+00 -0.85159646443E+03  0.85159646445E+03  0.50400001928E-02 0.  1.
    10030    2    1    2    0    0  0.00000000000E+00  0.00000000000E+00  0.19735138182E+04  0.36767067470E+04  0.31021630701E+04 0.  0.
        3    1    3    3  502    0 -0.27193463576E+03  0.51960496415E+03 -0.71512675286E+03  0.92484812145E+03  0.10100000352E+00 0.  1.
       -3    1    3    3    0  502  0.27193463576E+03 -0.51960496415E+03  0.26886405710E+04  0.27518586256E+04  0.10100000352E+00 0. -1.
</event>
<event>
 5   0  0.1845123E-07  0.3103157E+04  0.7818609E-02  0.8214872E-01
        1   -1    0    0  501    0  0.00000000000E+00  0.00000000000E+00  0.10192536329E+04  0.10192536329E+04  0.50400001928E-02 0.  1.
       -1   -1    0    0    0  501  0.00000000000E+00  0.00000000000E+00 -0.23619209568E+04  0.23619209568E+04  0.50400001928E-02 0. -1.
    10030    2    1    2    0    0  0.00000000000E+00  0.00000000000E+00 -0.13426673239E+04  0.33811745897E+04  0.31031574345E+04 0.  0.
        2    1    3    3  502    0  0.39845064643E+03 -0.66755425993E+02  0.96093773620E+03  0.10424109254E+04  0.25500000920E-02 0.  1.
       -2    1    3    3    0  502 -0.39845064643E+03  0.66755425993E+02 -0.23036050601E+04  0.23387636643E+04  0.25500000920E-02 0. -1.
</event>
<event>
 5   0  0.5376678E-07  0.3100343E+04  0.7818609E-02  0.8215644E-01
        2   -1    0    0  501    0  0.00000000000E+00  0.00000000000E+00  0.11803025879E+04  0.11803025879E+04  0.25500000920E-02 0.  1.
       -2   -1    0    0    0  501  0.00000000000E+00  0.00000000000E+00 -0.20359457611E+04  0.20359457611E+04  0.25500000920E-02 0. -1.
    10030    2    1    2    0    0  0.00000000000E+00  0.00000000000E+00 -0.85564317326E+03  0.32162483490E+04  0.31003432394E+04 0.  0.
        5    1    3    3  502    0 -0.13537319014E+04  0.92819143699E+02 -0.12053788959E+04  0.18149836988E+04  0.46999998093E+01 0. -1.
       -5    1    3    3    0  502  0.13537319014E+04 -0.92819143699E+02  0.34973572260E+03  0.14012646502E+04  0.46999998093E+01 0.  1.
</event>
<event>
 5   0  0.1875284E-07  0.3097621E+04  0.7818609E-02  0.8216391E-01
        1   -1    0    0  501    0  0.00000000000E+00  0.00000000000E+00  0.22730520902E+04  0.22730520902E+04  0.50400001928E-02 0.  1.
       -1   -1    0    0    0  501  0.00000000000E+00  0.00000000000E+00 -0.10553271470E+04  0.10553271470E+04  0.50400001928E-02 0. -1.
    10030    2    1    2    0    0  0.00000000000E+00  0.00000000000E+00  0.12177249432E+04  0.33283792373E+04  0.30976207498E+04 0.  0.
        4    1    3    3  502    0  0.25640873267E+03 -0.14685155126E+04  0.15740978675E+03  0.14990205811E+04  0.12699999809E+01 0. -1.
       -4    1    3    3    0  502 -0.25640873267E+03  0.14685155126E+04  0.10603151564E+04  0.18293586561E+04  0.12699999809E+01 0.  1.
</event>
<event>
 5   0  0.1830902E-07  0.3097681E+04  0.7818609E-02  0.8216375E-01
        1   -1    0    0  501    0  0.00000000000E+00  0.00000000000E+00  0.20119753162E+04  0.20119753162E+04  0.50400001928E-02 0. -1.
       -1   -1    0    0    0  501  0.00000000000E+00  0.00000000000E+00 -0.11923142654E+04  0.11923142654E+04  0.50400001928E-02 0.  1.
    10030    2    1    2    0    0  0.00000000000E+00  0.00000000000E+00  0.81966105082E+03  0.32042895816E+04  0.30976809849E+04 0.  0.
        3    1    3    3  502    0 -0.25558932357E+03 -0.56840550911E+03  0.18765487531E+04  0.19773330418E+04  0.10100000352E+00 0. -1.
       -3    1    3    3    0  502  0.25558932357E+03  0.56840550911E+03 -0.10568877023E+04  0.12269565398E+04  0.10100000352E+00 0.  1.
</event>
<event>
 5   0  0.5055900E-07  0.3101081E+04  0.7818609E-02  0.8215441E-01
       -2   -1    0    0    0  501  0.00000000000E+00  0.00000000000E+00  0.12764877268E+04  0.12764877268E+04  0.25500000920E-02 0.  1.
        2   -1    0    0  501    0  0.00000000000E+00  0.00000000000E+00 -0.18834302465E+04  0.18834302465E+04  0.25500000920E-02 0. -1.
    10030    2    1    2    0    0  0.00000000000E+00  0.00000000000E+00 -0.60694251972E+03  0.31599179733E+04  0.31010808399E+04 0.  0.
        2    1    3    3  502    0  0.23096600616E+03  0.86552968069E+03  0.98611908563E+03  0.13322604007E+04  0.25500000920E-02 0.  1.
       -2    1    3    3    0  502 -0.23096600616E+03 -0.86552968069E+03 -0.15930616054E+04  0.18276575726E+04  0.25500000920E-02 0. -1.
</event>
<event>
 5   0  0.1845123E-07  0.3105743E+04  0.7818609E-02  0.8214164E-01
        1   -1    0    0  501    0  0.00000000000E+00  0.00000000000E+00  0.12953967063E+04  0.12953967063E+04  0.50400001928E-02 0. -1.
       -1   -1    0    0    0  501  0.00000000000E+00  0.00000000000E+00 -0.18615222372E+04  0.18615222372E+04  0.50400001928E-02 0.  1.
    10030    2    1    2    0    0  0.00000000000E+00  0.00000000000E+00 -0.56612553096E+03  0.31569189435E+04  0.31057429223E+04 0.  0.
        2    1    3    3  502    0 -0.12840211783E+04 -0.81814359757E+03  0.27488178527E+02  0.15227688376E+04  0.25500000920E-02 0. -1.
       -2    1    3    3    0  502  0.12840211783E+04  0.81814359757E+03 -0.59361370949E+03  0.16341501060E+04  0.25500000920E-02 0.  1.
</event>
<event>
 5   0  0.5376678E-07  0.3092999E+04  0.7818609E-02  0.8217662E-01
       -2   -1    0    0    0  501  0.00000000000E+00  0.00000000000E+00  0.96401813166E+03  0.96401813166E+03  0.25500000920E-02 0. -1.
        2   -1    0    0  501    0  0.00000000000E+00  0.00000000000E+00 -0.24809298770E+04  0.24809298770E+04  0.25500000920E-02 0.  1.
    10030    2    1    2    0    0  0.00000000000E+00  0.00000000000E+00 -0.15169117453E+04  0.34449480087E+04  0.30929994406E+04 0.  0.
        5    1    3    3  502    0  0.15080568280E+04  0.79258786892E+02 -0.11297368886E+04  0.18859599358E+04  0.46999998093E+01 0.  1.
       -5    1    3    3    0  502 -0.15080568280E+04 -0.79258786892E+02 -0.38717485674E+03  0.15589880729E+04  0.46999998093E+01 0. -1.
</event>
<event>
 5   0  0.1840359E-07  0.3084659E+04  0.7818609E-02  0.8219961E-01
       -1   -1    0    0    0  501  0.00000000000E+00  0.00000000000E+00  0.17541118783E+04  0.17541118783E+04  0.50400001928E-02 0.  1.
        1   -1    0    0  501    0  0.00000000000E+00  0.00000000000E+00 -0.13561166740E+04  0.13561166740E+04  0.50400001928E-02 0. -1.
    10030    2    1    2    0    0  0.00000000000E+00  0.00000000000E+00  0.39799520433E+03  0.31102285523E+04  0.30846590517E+04 0.  0.
        1    1    3    3  502    0 -0.98961339859E+03  0.53210561976E+03 -0.86631583869E+03  0.14187932202E+04  0.50400001928E-02 0. -1.
       -1    1    3    3    0  502  0.98961339859E+03 -0.53210561976E+03  0.12643110430E+04  0.16914353321E+04  0.50400001928E-02 0.  1.
</event>
<event>
 5   0  0.5342534E-07  0.3097623E+04  0.7818609E-02  0.8216390E-01
        2   -1    0    0  501    0  0.00000000000E+00  0.00000000000E+00  0.16320570297E+04  0.16320570297E+04  0.25500000920E-02 0.  1.
       -2   -1    0    0    0  501  0.00000000000E+00  0.00000000000E+00 -0.14698122312E+04  0.14698122312E+04  0.25500000920E-02 0. -1.
    10030    2    1    2    0    0  0.00000000000E+00  0.00000000000E+00  0.16224479848E+03  0.31018692608E+04  0.30976232077E+04 0.  0.
        3    1    3    3  502    0 -0.10036328412E+04 -0.15191242130E+03  0.12525383397E+04  0.16122061178E+04  0.10100000352E+00 0.  1.
       -3    1    3    3    0  502  0.10036328412E+04  0.15191242130E+03 -0.10902935412E+04  0.14896631431E+04  0.10100000352E+00 0. -1.
</event>
<event>
 5   0  0.5376678E-07  0.3097514E+04  0.7818609E-02  0.8216421E-01
        2   -1    0    0  501    0  0.00000000000E+00  0.00000000000E+00  0.19765584035E+04  0.19765584035E+04  0.25500000920E-02 0.  1.
       -2   -1    0    0    0  501  0.00000000000E+00  0.00000000000E+00 -0.12135476896E+04  0.12135476896E+04  0.25500000920E-02 0. -1.
    10030    2    1    2    0    0  0.00000000000E+00  0.00000000000E+00  0.76301071390E+03  0.31901060931E+04  0.30975137668E+04 0.  0.
        5    1    3    3  502    0  0.10501450590E+04 -0.71647348308E+03  0.12925306157E+04  0.18129523931E+04  0.46999998093E+01 0.  1.
       -5    1    3    3    0  502 -0.10501450590E+04  0.71647348308E+03 -0.52951990184E+03  0.13771537000E+04  0.46999998093E+01 0. -1.
</event>
<event>
 5   0  0.1840359E-07  0.3101543E+04  0.7818609E-02  0.8215315E-01
       -1   -1    0    0    0  501  0.00000000000E+00  0.00000000000E+00  0.90332634180E+03  0.90332634181E+03  0.50400001928E-02 0. -1.
        1   -1    0    0  501    0  0.00000000000E+00  0.00000000000E+00 -0.26622629514E+04  0.26622629515E+04  0.50400001928E-02 0.  1.
    10030    2    1    2    0    0  0.00000000000E+00  0.00000000000E+00 -0.17589366097E+04  0.35655892933E+04  0.31015430049E+04 0.  0.
        1    1    3    3  502    0 -0.15166844073E+04 -0.11896393643E+03 -0.12251349898E+04  0.19533150675E+04  0.50400001928E-02 0.  1.
       -1    1    3    3    0  502  0.15166844073E+04  0.11896393643E+03 -0.53380161982E+03  0.16122742257E+04  0.50400001928E-02 0. -1.
</event>
<event>
 5   0  0.5055900E-07  0.3100787E+04  0.7818609E-02  0.8215522E-01
       -2   -1    0    0    0  501  0.00000000000E+00  0.00000000000E+00  0.22120782117E+04  0.22120782117E+04  0.25500000920E-02 0. -1.
        2   -1    0    0  501    0  0.00000000000E+00  0.00000000000E+00 -0.10866344779E+04  0.10866344779E+04  0.25500000920E-02 0.  1.
    10030    2    1    2    0    0  0.00000000000E+00  0.00000000000E+00  0.11254437338E+04  0.32987126895E+04  0.31007872888E+04 0.  0.
        2    1    3    3  502    0 -0.12922261745E+04  0.60820344712E+03 -0.79078058861E+02  0.14303891983E+04  0.25500000920E-02 0.  1.
       -2    1    3    3    0  502  0.12922261745E+04 -0.60820344712E+03  0.12045217926E+04  0.18683234913E+04  0.25500000920E-02 0. -1.
</event>
<event>
 5   0  0.5376678E-07  0.3094383E+04  0.7818609E-02  0.8217281E-01
        2   -1    0    0  501    0  0.00000000000E+00  0.00000000000E+00  0.18730354562E+04  0.18730354562E+04  0.25500000920E-02 0.  1.
       -2   -1    0    0    0  501  0.00000000000E+00  0.00000000000E+00 -0.12780328573E+04  0.12780328573E+04  0.25500000920E-02 0. -1.
    10030    2    1    2    0    0  0.00000000000E+00  0.00000000000E+00  0.59500259889E+03  0.31510683135E+04  0.30943825594E+04 0.  0.
        5    1    3    3  502    0  0.11094034133E+04  0.87807707538E+03 -0.34005376105E+03  0.14551473926E+04  0.46999998093E+01 0. -1.
       -5    1    3    3    0  502 -0.11094034133E+04 -0.87807707538E+03  0.93505635994E+03  0.16959209209E+04  0.46999998093E+01 0.  1.
</event>
<event>
 5   0  0.1845123E-07  0.3101327E+04  0.7818609E-02  0.8215374E-01
        1   -1    0    0  501    0  0.00000000000E+00  0.00000000000E+00  0.10301056328E+04  0.10301056328E+04  0.50400001928E-02 0. -1.
       -1   -1    0    0    0  501  0.00000000000E+00  0.00000000000E+00 -0.23342825596E+04  0.23342825596E+04  0.50400001928E-02 0.  1.
    10030    2    1    2    0    0  0.00000000000E+00  0.00000000000E+00 -0.13041769269E+04  0.33643881924E+04  0.31013272082E+04 0.  0.
        2    1    3    3  502    0  0.21941068413E+03 -0.11337344397E+04  0.47061736097E+03  0.12469865791E+04  0.25500000920E-02 0. -1.
       -2    1    3    3    0  502 -0.21941068413E+03  0.11337344397E+04 -0.17747942878E+04  0.21174016133E+04  0.25500000920E-02 0.  1.
</event>
<event>
 5   0  0.5376678E-07  0.3096938E+04  0.7818609E-02  0.8216579E-01
       -2   -1    0    0    0  501  0.00000000000E+00  0.00000000000E+00  0.15768589299E+04  0.15768589299E+04  0.25500000920E-02 0.  1.
        2   -1    0    0  501    0  0.00000000000E+00  0.00000000000E+00 -0.15205901955E+04  0.15205901955E+04  0.25500000920E-02 0. -1.
    10030    2    1    2    0    0  0.00000000000E+00  0.00000000000E+00  0.56268734415E+02  0.30974491254E+04  0.30969379900E+04 0.  0.
        5    1    3    3  502    0 -0.18412349870E+03  0.15160811354E+04 -0.22750646187E+03  0.15440805523E+04  0.46999998093E+01 0.  1.
       -5    1    3    3    0  502  0.18412349870E+03 -0.15160811354E+04  0.28377519628E+03  0.15533685731E+04  0.46999998093E+01 0. -1.
</event>
<event>
 5   0  0.1875284E-07  0.3097408E+04  0.7818609E-02  0.8216450E-01
        1   -1    0    0  501    0  0.00000000000E+00  0.00000000000E+00  0.16842156746E+04  0.16842156746E+04  0.50400001928E-02 0.  1.
       -1   -1    0    0    0  501  0.00000000000E+00  0.00000000000E+00 -0.14240956397E+04  0.14240956398E+04  0.50400001928E-02 0. -1.
    10030    2    1    2    0    0  0.00000000000E+00  0.00000000000E+00  0.26012003485E+03  0.31083113144E+04  0.30974080768E+04 0.  0.
        4    1    3    3  502    0  0.10126398755E+04 -0.24258276970E+03 -0.10203595598E+04  0.14578824238E+04  0.12699999809E+01 0. -1.
       -4    1    3    3    0  502 -0.10126398755E+04  0.24258276970E+03  0.12804795946E+04  0.16504288905E+04  0.12699999809E+01 0.  1.
</event>
<event>
 5   0  0.1814075E-07  0.3097440E+04  0.7818609E-02  0.8216441E-01
       -1   -1    0    0    0  501  0.00000000000E+00  0.00000000000E+00  0.12767968975E+04  0.12767968975E+04  0.50400001928E-02 0. -1.
        1   -1    0    0  501    0  0.00000000000E+00  0.00000000000E+00 -0.18785554861E+04  0.18785554861E+04  0.50400001928E-02 0.  1.
    10030    2    1    2    0    0  0.00000000000E+00  0.00000000000E+00 -0.60175858868E+03  0.31553523836E+04  0.30974401149E+04 0.  0.
        5    1    3    3  502    0 -0.26977275584E+03  0.98745300122E+03  0.88303354270E+03  0.13518916735E+04  0.46999998093E+01 0. -1.
       -5    1    3    3    0  502  0.26977275584E+03 -0.98745300122E+03 -0.14847921314E+04  0.18034607101E+04  0.46999998093E+01 0.  1.
</event>
<event>
 5   0  0.1814075E-07  0.3103871E+04  0.7818609E-02  0.8214676E-01
        1   -1    0    0  501    0  0.00000000000E+00  0.00000000000E+00  0.20180226298E+04  0.20180226298E+04  0.50400001928E-02 0.  1.
       -1   -1    0    0    0  501  0.00000000000E+00  0.00000000000E+00 -0.11934966442E+04  0.11934966442E+04  0.50400001928E-02 0. -1.
    10030    2    1    2    0    0  0.00000000000E+00  0.00000000000E+00  0.82452598562E+03  0.32115192741E+04  0.31038706395E+04 0.  0.
        5    1    3    3  502    0 -0.34659301746E+03  0.72987340973E+03  0.17832222823E+04  0.19577399501E+04  0.46999998093E+01 0.  1.
       -5    1    3    3    0  502  0.34659301746E+03 -0.72987340973E+03 -0.95869629669E+03  0.12537793240E+04  0.46999998093E+01 0. -1.
</event>
<event>
 5   0  0.1727000E-07  0.3096841E+04  0.7818609E-02  0.8216605E-01
       -3   -1    0    0    0  501  0.00000000000E+00  0.00000000000E+00  0.16106011742E+04  0.16106011774E+04  0.10100000352E+00 0.  1.
        3   -1    0    0  501    0  0.00000000000E+00  0.00000000000E+00 -0.14886406028E+04  0.14886406062E+04  0.10100000352E+00 0. -1.
    10030    2    1    2    0    0  0.00000000000E+00  0.00000000000E+00  0.12196057141E+03  0.30992417836E+04  0.30968411732E+04 0.  0.
        2    1    3    3  502    0  0.67997719083E+03  0.10209922561E+04 -0.88463954447E+03  0.15124091017E+04  0.25500000920E-02 0. -1.
       -2    1    3    3    0  502 -0.67997719083E+03 -0.10209922561E+04  0.10066001159E+04  0.15868326819E+04  0.25500000920E-02 0.  1.
</event>
<event>
 5   0  0.5342534E-07  0.3093722E+04  0.7818609E-02  0.8217463E-01
       -2   -1    0    0    0  501  0.00000000000E+00  0.00000000000E+00  0.16208006608E+04  0.16208006608E+04  0.25500000920E-02 0.  1.
        2   -1    0    0  501    0  0.00000000000E+00  0.00000000000E+00 -0.14762947850E+04  0.14762947850E+04  0.25500000920E-02 0. -1.
    10030    2    1    2    0    0  0.00000000000E+00  0.00000000000E+00  0.14450587579E+03  0.30970954459E+04  0.30937223943E+04 0.  0.
        3    1    3    3  502    0  0.81324654277E+03 -0.13004045206E+04  0.27336421909E+03  0.15579312768E+04  0.10100000352E+00 0.  1.
       -3    1    3    3    0  502 -0.81324654277E+03  0.13004045206E+04 -0.12885834330E+03  0.15391641691E+04  0.10100000352E+00 0. -1.
</event>
<event>
 5   0  0.1814075E-07  0.3094746E+04  0.7818609E-02  0.8217181E-01
       -1   -1    0    0    0  501  0.00000000000E+00  0.00000000000E+00  0.12247107837E+04  0.12247107837E+04  0.50400001928E-02 0. -1.
        1   -1    0    0  501    0  0.00000000000E+00  0.00000000000E+00 -0.19550437853E+04  0.19550437853E+04  0.50400001928E-02 0.  1.
    10030    2    1    2    0    0  0.00000000000E+00  0.00000000000E+00 -0.73033300155E+03  0.31797545690E+04  0.30947460035E+04 0.  0.
        5    1    3    3  502    0  0.76509589636E+03 -0.60082126444E+03 -0.16015418852E+04  0.18738506938E+04  0.46999998093E+01 0.  1.
       -5    1    3    3    0  502 -0.76509589636E+03  0.60082126444E+03  0.87120888368E+03  0.13059038753E+04  0.46999998093E+01 0. -1.
</event>
<event>
 5   0  0.1814075E-07  0.3177539E+04  0.7818609E-02  0.8194774E-01
        1   -1    0    0  501    0  0.00000000000E+00  0.00000000000E+00  0.15157541303E+04  0.15157541303E+04  0.50400001928E-02 0. -1.
       -1   -1    0    0    0  501  0.00000000000E+00  0.00000000000E+00 -0.16653020564E+04  0.16653020564E+04  0.50400001928E-02 0.  1.
    10030    2    1    2    0    0  0.00000000000E+00  0.00000000000E+00 -0.14954792611E+03  0.31810561867E+04  0.31775389661E+04 0.  0.
        5    1    3    3  502    0  0.98158717132E+03  0.12301664258E+04  0.14305265944E+03  0.15802876205E+04  0.46999998093E+01 0. -1.
       -5    1    3    3    0  502 -0.98158717132E+03 -0.12301664258E+04 -0.29260058555E+03  0.16007685663E+04  0.46999998093E+01 0.  1.
</event>
<event>
 5   0  0.5342534E-07  0.3100458E+04  0.7818609E-02  0.8215612E-01
       -2   -1    0    0    0  501  0.00000000000E+00  0.00000000000E+00  0.14845413275E+04  0.14845413275E+04  0.25500000920E-02 0. -1.
        2   -1    0    0  501    0  0.00000000000E+00  0.00000000000E+00 -0.16188236876E+04  0.16188236876E+04  0.25500000920E-02 0.  1.
    10030    2    1    2    0    0  0.00000000000E+00  0.00000000000E+00 -0.13428236005E+03  0.31033650151E+04  0.31004584604E+04 0.  0.
        3    1    3    3  502    0  0.77945262424E+03  0.28912543228E+03 -0.13768290230E+04  0.16083525975E+04  0.10100000352E+00 0.  1.
       -3    1    3    3    0  502 -0.77945262424E+03 -0.28912543228E+03  0.12425466630E+04  0.14950124176E+04  0.10100000352E+00 0. -1.
</event>
<event>
 5   0  0.5154105E-07  0.3101065E+04  0.7818609E-02  0.8215446E-01
        2   -1    0    0  501    0  0.00000000000E+00  0.00000000000E+00  0.22890037230E+04  0.22890037230E+04  0.25500000920E-02 0.  1.
       -2   -1    0    0    0  501  0.00000000000E+00  0.00000000000E+00 -0.10503042306E+04  0.10503042306E+04  0.25500000920E-02 0. -1.
    10030    2    1    2    0    0  0.00000000000E+00  0.00000000000E+00  0.12386994924E+04  0.33393079535E+04  0.31010645230E+04 0.  0.
        1    1    3    3  502    0 -0.13114961114E+04 -0.47685726946E+02 -0.26983389869E+03  0.13398157753E+04  0.50400001928E-02 0. -1.
       -1    1    3    3    0  502  0.13114961114E+04  0.47685726946E+02  0.15085333911E+04  0.19994921782E+04  0.50400001928E-02 0.  1.
</event>
<event>
 5   0  0.5248309E-07  0.3020847E+04  0.7818609E-02  0.8237803E-01
       -2   -1    0    0    0  501  0.00000000000E+00  0.00000000000E+00  0.20128764030E+04  0.20128764030E+04  0.25500000920E-02 0. -1.
        2   -1    0    0  501    0  0.00000000000E+00  0.00000000000E+00 -0.11333928536E+04  0.11333928536E+04  0.25500000920E-02 0.  1.
    10030    2    1    2    0    0  0.00000000000E+00  0.00000000000E+00  0.87948354936E+03  0.31462692567E+04  0.30208473847E+04 0.  0.
        4    1    3    3  502    0 -0.68468687096E+03 -0.10090482142E+04 -0.48855690536E+03  0.13136452613E+04  0.12699999809E+01 0.  1.
       -4    1    3    3    0  502  0.68468687096E+03  0.10090482142E+04  0.13680404547E+04  0.18326239954E+04  0.12699999809E+01 0. -1.
</event>
<event>
 5   0  0.1845123E-07  0.3093511E+04  0.7818609E-02  0.8217521E-01
       -1   -1    0    0    0  501  0.00000000000E+00  0.00000000000E+00  0.14271724285E+04  0.14271724285E+04  0.50400001928E-02 0.  1.
        1   -1    0    0  501    0  0.00000000000E+00  0.00000000000E+00 -0.16763585853E+04  0.16763585853E+04  0.50400001928E-02 0. -1.
    10030    2    1    2    0    0  0.00000000000E+00  0.00000000000E+00 -0.24918615680E+03  0.31035310138E+04  0.30935111141E+04 0.  0.
        2    1    3    3  502    0 -0.31873538102E+03  0.12848781081E+04  0.67796599501E+03  0.14873270946E+04  0.25500000920E-02 0.  1.
       -2    1    3    3    0  502  0.31873538102E+03 -0.12848781081E+04 -0.92715215181E+03  0.16162039192E+04  0.25500000920E-02 0. -1.
</event>
<event>
 5   0  0.5376678E-07  0.3105685E+04  0.7818609E-02  0.8214180E-01
       -2   -1    0    0    0  501  0.00000000000E+00  0.00000000000E+00  0.20525572531E+04  0.20525572531E+04  0.25500000920E-02 0.  1.
        2   -1    0    0  501    0  0.00000000000E+00  0.00000000000E+00 -0.11747879404E+04  0.11747879404E+04  0.25500000920E-02 0. -1.
    10030    2    1    2    0    0  0.00000000000E+00  0.00000000000E+00  0.87776931263E+03  0.32273451935E+04  0.31056847927E+04 0.  0.
        5    1    3    3  502    0 -0.99286588063E+03 -0.61808583439E+03  0.15004117397E+04  0.19023854063E+04  0.46999998093E+01 0.  1.
       -5    1    3    3    0  502  0.99286588063E+03  0.61808583439E+03 -0.62264242709E+03  0.13249597872E+04  0.46999998093E+01 0. -1.
</event>
<event>
 5   0  0.1875284E-07  0.3099670E+04  0.7818609E-02  0.8215828E-01
       -1   -1    0    0    0  501  0.00000000000E+00  0.00000000000E+00  0.12146329139E+04  0.12146329139E+04  0.50400001928E-02 0. -1.
        1   -1    0    0  501    0  0.00000000000E+00  0.00000000000E+00 -0.19775432281E+04  0.19775432281E+04  0.50400001928E-02 0.  1.
    10030    2    1    2    0    0  0.00000000000E+00  0.00000000000E+00 -0.76291031424E+03  0.31921761420E+04  0.30996703654E+04 0.  0.
        4    1    3    3  502    0  0.10530147623E+04  0.11281363141E+04 -0.52874746877E+03  0.16312900206E+04  0.12699999809E+01 0.  1.
       -4    1    3    3    0  502 -0.10530147623E+04 -0.11281363141E+04 -0.23416284546E+03  0.15608861214E+04  0.12699999809E+01 0. -1.
</event>
<event>
 5   0  0.5154105E-07  0.3117781E+04  0.7818609E-02  0.8210875E-01
       -2   -1    0    0    0  501  0.00000000000E+00  0.00000000000E+00  0.13594402536E+04  0.13594402536E+04  0.25500000920E-02 0. -1.
        2   -1    0    0  501    0  0.00000000000E+00  0.00000000000E+00 -0.17876035456E+04  0.17876035456E+04  0.25500000920E-02 0.  1.
    10030    2    1    2    0    0  0.00000000000E+00  0.00000000000E+00 -0.42816329206E+03  0.31470437992E+04  0.31177814018E+04 0.  0.
        1    1    3    3  502    0 -0.98291990357E+03  0.12616236815E+03 -0.14287428571E+04  0.17387796386E+04  0.50400001928E-02 0.  1.
       -1    1    3    3    0  502  0.98291990357E+03 -0.12616236815E+03  0.10005795650E+04  0.14082641606E+04  0.50400001928E-02 0. -1.
</event>
<event>
 5   0  0.5376678E-07  0.3128983E+04  0.7818609E-02  0.8207828E-01
        2   -1    0    0  501    0  0.00000000000E+00  0.00000000000E+00  0.25875990100E+04  0.25875990100E+04  0.25500000920E-02 0.  1.
       -2   -1    0    0    0  501  0.00000000000E+00  0.00000000000E+00 -0.94590926105E+03  0.94590926106E+03  0.25500000920E-02 0. -1.
    10030    2    1    2    0    0  0.00000000000E+00  0.00000000000E+00  0.16416897489E+04  0.35335082710E+04  0.31289831367E+04 0.  0.
        5    1    3    3  502    0 -0.73799154377E+03 -0.40653504516E+02  0.23779981382E+04  0.24902171514E+04  0.46999998093E+01 0.  1.
       -5    1    3    3    0  502  0.73799154377E+03  0.40653504516E+02 -0.73630838927E+03  0.10432911196E+04  0.46999998093E+01 0. -1.
</event>
<event>
 5   0  0.5055900E-07  0.3100257E+04  0.7818609E-02  0.8215667E-01
        2   -1    0    0  501    0  0.00000000000E+00  0.00000000000E+00  0.20665499769E+04  0.20665499769E+04  0.25500000920E-02 0.  1.
       -2   -1    0    0    0  501  0.00000000000E+00  0.00000000000E+00 -0.11627584026E+04  0.11627584026E+04  0.25500000920E-02 0. -1.
    10030    2    1    2    0    0  0.00000000000E+00  0.00000000000E+00  0.90379157430E+03  0.32293083795E+04  0.31002569894E+04 0.  0.
        2    1    3    3  502    0  0.15438360014E+04 -0.80419449842E+02  0.57066610942E+03  0.16478946251E+04  0.25500000920E-02 0.  1.
       -2    1    3    3    0  502 -0.15438360014E+04  0.80419449842E+02  0.33312546488E+03  0.15814137544E+04  0.25500000920E-02 0. -1.
</event>
<event>
 5   0  0.1840359E-07  0.3094818E+04  0.7818609E-02  0.8217162E-01
        1   -1    0    0  501    0  0.00000000000E+00  0.00000000000E+00  0.15110480271E+04  0.15110480271E+04  0.50400001928E-02 0. -1.
       -1   -1    0    0    0  501  0.00000000000E+00  0.00000000000E+00 -0.15846448397E+04  0.15846448397E+04  0.50400001928E-02 0.  1.
    10030    2    1    2    0    0  0.00000000000E+00  0.00000000000E+00 -0.73596812557E+02  0.30956928668E+04  0.30948179001E+04 0.  0.
        1    1    3    3  502    0 -0.52349099313E+03  0.73185367883E+03  0.12224545785E+04  0.15179090301E+04  0.50400001928E-02 0. -1.
       -1    1    3    3    0  502  0.52349099313E+03 -0.73185367883E+03 -0.12960513910E+04  0.15777838367E+04  0.50400001928E-02 0.  1.
</event>
<event>
 5   0  0.1875284E-07  0.3099333E+04  0.7818609E-02  0.8215921E-01
       -1   -1    0    0    0  501  0.00000000000E+00  0.00000000000E+00  0.81975884530E+03  0.81975884532E+03  0.50400001928E-02 0. -1.
        1   -1    0    0  501    0  0.00000000000E+00  0.00000000000E+00 -0.29294780529E+04  0.29294780529E+04  0.50400001928E-02 0.  1.
    10030    2    1    2    0    0  0.00000000000E+00  0.00000000000E+00 -0.21097192076E+04  0.37492368982E+04  0.30993325385E+04 0.  0.
        4    1    3    3  502    0 -0.56341304514E+03 -0.47068936692E+02 -0.28002624863E+04  0.28567676400E+04  0.12699999809E+01 0.  1.
       -4    1    3    3    0  502  0.56341304514E+03  0.47068936692E+02  0.69054327866E+03  0.89246925820E+03  0.12699999809E+01 0. -1.
</event>
<event>
 5   0  0.5055900E-07  0.3101104E+04  0.7818609E-02  0.8215435E-01
        2   -1    0    0  501    0  0.00000000000E+00  0.00000000000E+00  0.22731332515E+04  0.22731332515E+04  0.25500000920E-02 0. -1.
       -2   -1    0    0    0  501  0.00000000000E+00  0.00000000000E+00 -0.10576639146E+04  0.10576639146E+04  0.25500000920E-02 0.  1.
    10030    2    1    2    0    0  0.00000000000E+00  0.00000000000E+00  0.12154693369E+04  0.33307971661E+04  0.31011036829E+04 0.  0.
        2    1    3    3  502    0 -0.35344044431E+03 -0.88294714905E+03 -0.70759131690E+03  0.11854118641E+04  0.25500000920E-02 0.  1.
       -2    1    3    3    0  502  0.35344044431E+03  0.88294714905E+03  0.19230606538E+04  0.21453853020E+04  0.25500000920E-02 0. -1.
</event>
<event>
 5   0  0.5376678E-07  0.3099155E+04  0.7818609E-02  0.8215970E-01
        2   -1    0    0  501    0  0.00000000000E+00  0.00000000000E+00  0.23032726198E+04  0.23032726198E+04  0.25500000920E-02 0.  1.
       -2   -1    0    0    0  501  0.00000000000E+00  0.00000000000E+00 -0.10425123592E+04  0.10425123592E+04  0.25500000920E-02 0. -1.
    10030    2    1    2    0    0  0.00000000000E+00  0.00000000000E+00  0.12607602606E+04  0.33457849790E+04  0.30991548350E+04 0.  0.
        5    1    3    3  502    0 -0.10025858101E+04 -0.77064326982E+03  0.15972514239E+04  0.20372293826E+04  0.46999998093E+01 0.  1.
       -5    1    3    3    0  502  0.10025858101E+04  0.77064326982E+03 -0.33649116332E+03  0.13085555965E+04  0.46999998093E+01 0. -1.
</event>
<event>
 5   0  0.1875284E-07  0.3098523E+04  0.7818609E-02  0.8216143E-01
       -1   -1    0    0    0  501  0.00000000000E+00  0.00000000000E+00  0.13324410952E+04  0.13324410953E+04  0.50400001928E-02 0.  1.
        1   -1    0    0  501    0  0.00000000000E+00  0.00000000000E+00 -0.18013636152E+04  0.18013636152E+04  0.50400001928E-02 0. -1.
    10030    2    1    2    0    0  0.00000000000E+00  0.00000000000E+00 -0.46892251995E+03  0.31338047105E+04  0.30985228148E+04 0.  0.
        4    1    3    3  502    0  0.49152137349E+02 -0.15452022494E+04 -0.13260015229E+03  0.15516605097E+04  0.12699999809E+01 0. -1.
       -4    1    3    3    0  502 -0.49152137349E+02  0.15452022494E+04 -0.33632236766E+03  0.15821442008E+04  0.12699999809E+01 0.  1.
</event>
<event>
 5   0  0.1845123E-07  0.3098459E+04  0.7818609E-02  0.8216161E-01
       -1   -1    0    0    0  501  0.00000000000E+00  0.00000000000E+00  0.16092384249E+04  0.16092384249E+04  0.50400001928E-02 0. -1.
        1   -1    0    0  501    0  0.00000000000E+00  0.00000000000E+00 -0.14914583635E+04  0.14914583635E+04  0.50400001928E-02 0.  1.
    10030    2    1    2    0    0  0.00000000000E+00  0.00000000000E+00  0.11778006139E+03  0.31006967883E+04  0.30984590412E+04 0.  0.
        2    1    3    3  502    0  0.29931960784E+03 -0.42745521539E+03  0.15186422290E+04  0.16057971256E+04  0.25500000920E-02 0. -1.
       -2    1    3    3    0  502 -0.29931960784E+03  0.42745521539E+03 -0.14008621677E+04  0.14948996627E+04  0.25500000920E-02 0.  1.
</event>
<event>
 5   0  0.5248309E-07  0.3104775E+04  0.7818609E-02  0.8214429E-01
       -2   -1    0    0    0  501  0.00000000000E+00  0.00000000000E+00  0.17167822754E+04  0.17167822754E+04  0.25500000920E-02 0. -1.
        2   -1    0    0  501    0  0.00000000000E+00  0.00000000000E+00 -0.14037347782E+04  0.14037347782E+04  0.25500000920E-02 0.  1.
    10030    2    1    2    0    0  0.00000000000E+00  0.00000000000E+00  0.31304749726E+03  0.31205170536E+04  0.31047750234E+04 0.  0.
        4    1    3    3  502    0  0.12573410370E+04 -0.57149128312E+03 -0.55586946181E+03  0.14887918731E+04  0.12699999809E+01 0.  1.
       -4    1    3    3    0  502 -0.12573410370E+04  0.57149128312E+03  0.86891695908E+03  0.16317251805E+04  0.12699999809E+01 0. -1.
</event>
<event>
 5   0  0.1814075E-07  0.3015124E+04  0.7818609E-02  0.8239425E-01
       -1   -1    0    0    0  501  0.00000000000E+00  0.00000000000E+00  0.26665942111E+04  0.26665942111E+04  0.50400001928E-02 0.  1.
        1   -1    0    0  501    0  0.00000000000E+00  0.00000000000E+00 -0.85230194840E+03  0.85230194842E+03  0.50400001928E-02 0. -1.
    10030    2    1    2    0    0  0.00000000000E+00  0.00000000000E+00  0.18142922627E+04  0.35188961595E+04  0.30151241711E+04 0.  0.
        5    1    3    3  502    0  0.71721519503E+03  0.41964858180E+03  0.23751747328E+04  0.25163425183E+04  0.46999998093E+01 0.  1.
       -5    1    3    3    0  502 -0.71721519503E+03 -0.41964858180E+03 -0.56088247011E+03  0.10025536412E+04  0.46999998093E+01 0. -1.
</event>
<event>
 5   0  0.5248309E-07  0.3096604E+04  0.7818609E-02  0.8216670E-01
        2   -1    0    0  501    0  0.00000000000E+00  0.00000000000E+00  0.29225743062E+04  0.29225743062E+04  0.25500000920E-02 0.  1.
       -2   -1    0    0    0  501  0.00000000000E+00  0.00000000000E+00 -0.82024926901E+03  0.82024926901E+03  0.25500000920E-02 0. -1.
    10030    2    1    2    0    0  0.00000000000E+00  0.00000000000E+00  0.21023250371E+04  0.37428235752E+04  0.30966042293E+04 0.  0.
        4    1    3    3  502    0  0.27624859593E+03  0.90224807638E+03  0.25348825900E+04  0.27048098337E+04  0.12699999809E+01 0.  1.
       -4    1    3    3    0  502 -0.27624859593E+03 -0.90224807638E+03 -0.43255755289E+03  0.10380137415E+04  0.12699999809E+01 0. -1.
</event>
<event>
 5   0  0.5248309E-07  0.3182647E+04  0.7818609E-02  0.8193415E-01
       -2   -1    0    0    0  501  0.00000000000E+00  0.00000000000E+00  0.13589513059E+04  0.13589513059E+04  0.25500000920E-02 0.  1.
        2   -1    0    0  501    0  0.00000000000E+00  0.00000000000E+00 -0.18634296772E+04  0.18634296772E+04  0.25500000920E-02 0. -1.
    10030    2    1    2    0    0  0.00000000000E+00  0.00000000000E+00 -0.50447837132E+03  0.32223809832E+04  0.31826468189E+04 0.  0.
        4    1    3    3  502    0 -0.62473152641E+03 -0.88803886062E+02 -0.17313447684E+04  0.18427511852E+04  0.12699999809E+01 0. -1.
       -4    1    3    3    0  502  0.62473152641E+03  0.88803886062E+02  0.12268663971E+04  0.13796297980E+04  0.12699999809E+01 0.  1.
</event>
<event>
 5   0  0.5342534E-07  0.3099801E+04  0.7818609E-02  0.8215792E-01
        2   -1    0    0  501    0  0.00000000000E+00  0.00000000000E+00  0.26168907357E+04  0.26168907357E+04  0.25500000920E-02 0.  1.
       -2   -1    0    0    0  501  0.00000000000E+00  0.00000000000E+00 -0.91795656569E+03  0.91795656570E+03  0.25500000920E-02 0. -1.
    10030    2    1    2    0    0  0.00000000000E+00  0.00000000000E+00  0.16989341701E+04  0.35348473014E+04  0.30998013050E+04 0.  0.
        3    1    3    3  502    0  0.10927395780E+03  0.14773171346E+04  0.32965757624E+03  0.15175904723E+04  0.10100000352E+00 0. -1.
       -3    1    3    3    0  502 -0.10927395780E+03 -0.14773171346E+04  0.13692765938E+04  0.20172568291E+04  0.10100000352E+00 0.  1.
</event>
<event>
 5   0  0.1845123E-07  0.3098632E+04  0.7818609E-02  0.8216113E-01
       -1   -1    0    0    0  501  0.00000000000E+00  0.00000000000E+00  0.12813049322E+04  0.12813049322E+04  0.50400001928E-02 0. -1.
        1   -1    0    0  501    0  0.00000000000E+00  0.00000000000E+00 -0.18733870895E+04  0.18733870895E+04  0.50400001928E-02 0.  1.
    10030    2    1    2    0    0  0.00000000000E+00  0.00000000000E+00 -0.59208215730E+03  0.31546920217E+04  0.30986320322E+04 0.  0.
        2    1    3    3  502    0  0.26573375939E+03 -0.14347370049E+04 -0.82632466798E+03  0.16768712417E+04  0.25500000920E-02 0.  1.
       -2    1    3    3    0  502 -0.26573375939E+03  0.14347370049E+04  0.23424251068E+03  0.14778207801E+04  0.25500000920E-02 0. -1.
</event>
<event>
 5   0  0.1840359E-07  0.3102210E+04  0.7818609E-02  0.8215132E-01
       -1   -1    0    0    0  501  0.00000000000E+00  0.00000000000E+00  0.13802021658E+04  0.13802021658E+04  0.50400001928E-02 0.  1.
        1   -1    0    0  501    0  0.00000000000E+00  0.00000000000E+00 -0.17431693674E+04  0.17431693674E+04  0.50400001928E-02 0. -1.
    10030    2    1    2    0    0  0.00000000000E+00  0.00000000000E+00 -0.36296720162E+03  0.31233715333E+04  0.31022096231E+04 0.  0.
        1    1    3    3  502    0 -0.31473955624E+03  0.40906667546E+03  0.12912074815E+04  0.13905442437E+04  0.50400001928E-02 0.  1.
       -1    1    3    3    0  502  0.31473955624E+03 -0.40906667546E+03 -0.16541746831E+04  0.17328272896E+04  0.50400001928E-02 0. -1.
</event>
<event>
 5   0  0.1814075E-07  0.3139657E+04  0.7818609E-02  0.8204938E-01
        1   -1    0    0  501    0  0.00000000000E+00  0.00000000000E+00  0.97182729481E+03  0.97182729482E+03  0.50400001928E-02 0.  1.
       -1   -1    0    0    0  501  0.00000000000E+00  0.00000000000E+00 -0.25358019613E+04  0.25358019613E+04  0.50400001928E-02 0. -1.
    10030    2    1    2    0    0  0.00000000000E+00  0.00000000000E+00 -0.15639746665E+04  0.35076292561E+04  0.31396570260E+04 0.  0.
        5    1    3    3  502    0  0.93314394441E+03  0.84623876394E+03 -0.18285026412E+04  0.22204327653E+04  0.46999998093E+01 0. -1.
       -5    1    3    3    0  502 -0.93314394441E+03 -0.84623876394E+03  0.26452797466E+03  0.12871964908E+04  0.46999998093E+01 0.  1.
</event>
<event>
 5   0  0.5154105E-07  0.3099542E+04  0.7818609E-02  0.8215864E-01
        2   -1    0    0  501    0  0.00000000000E+00  0.00000000000E+00  0.27411668431E+04  0.27411668431E+04  0.25500000920E-02 0.  1.
       -2   -1    0    0    0  501  0.00000000000E+00  0.00000000000E+00 -0.87619264236E+03  0.87619264236E+03  0.25500000920E-02 0. -1.
    10030    2    1    2    0    0  0.00000000000E+00  0.00000000000E+00  0.18649742007E+04  0.36173594854E+04  0.30995420432E+04 0.  0.
        1    1    3    3  502    0  0.83064455594E+03 -0.10356241484E+04 -0.65402006036E+00  0.13275873541E+04  0.50400001928E-02 0. -1.
       -1    1    3    3    0  502 -0.83064455594E+03  0.10356241484E+04  0.18656282208E+04  0.22897721313E+04  0.50400001928E-02 0.  1.
</event>
<event>
 5   0  0.5376678E-07  0.3094981E+04  0.7818609E-02  0.8217117E-01
        2   -1    0    0  501    0  0.00000000000E+00  0.00000000000E+00  0.17800117735E+04  0.17800117735E+04  0.25500000920E-02 0. -1.
       -2   -1    0    0    0  501  0.00000000000E+00  0.00000000000E+00 -0.13453436569E+04  0.13453436570E+04  0.25500000920E-02 0.  1.
    10030    2    1    2    0    0  0.00000000000E+00  0.00000000000E+00  0.43466811654E+03  0.31253554304E+04  0.30949814531E+04 0.  0.
        5    1    3    3  502    0  0.12401780082E+04 -0.75354409041E+03  0.76004237422E+03  0.16381564909E+04  0.46999998093E+01 0. -1.
       -5    1    3    3    0  502 -0.12401780082E+04  0.75354409041E+03 -0.32537425768E+03  0.14871989395E+04  0.46999998093E+01 0.  1.
</event>
<event>
 5   0  0.5248309E-07  0.3098612E+04  0.7818609E-02  0.8216119E-01
        2   -1    0    0  501    0  0.00000000000E+00  0.00000000000E+00  0.13534218814E+04  0.13534218814E+04  0.25500000920E-02 0.  1.
       -2   -1    0    0    0  501  0.00000000000E+00  0.00000000000E+00 -0.17735406973E+04  0.17735406973E+04  0.25500000920E-02 0. -1.
    10030    2    1    2    0    0  0.00000000000E+00  0.00000000000E+00 -0.42011881597E+03  0.31269625787E+04  0.30986118100E+04 0.  0.
        4    1    3    3  502    0  0.11795400146E+04 -0.70324730945E+03 -0.93389172074E+03  0.16607307980E+04  0.12699999809E+01 0. -1.
       -4    1    3    3    0  502 -0.11795400146E+04  0.70324730945E+03  0.51377290477E+03  0.14662317808E+04  0.12699999809E+01 0.  1.
</event>
<event>
 5   0  0.1814075E-07  0.3099613E+04  0.7818609E-02  0.8215844E-01
       -1   -1    0    0    0  501  0.00000000000E+00  0.00000000000E+00  0.10673889393E+04  0.10673889393E+04  0.50400001928E-02 0. -1.
        1   -1    0    0  501    0  0.00000000000E+00  0.00000000000E+00 -0.22502583284E+04  0.22502583284E+04  0.50400001928E-02 0.  1.
    10030    2    1    2    0    0  0.00000000000E+00  0.00000000000E+00 -0.11828693891E+04  0.33176472677E+04  0.30996134277E+04 0.  0.
        5    1    3    3  502    0  0.76938397116E+03  0.13426541674E+04 -0.68229945356E+03  0.16912204299E+04  0.46999998093E+01 0.  1.
       -5    1    3    3    0  502 -0.76938397116E+03 -0.13426541674E+04 -0.50056993555E+03  0.16264268378E+04  0.46999998093E+01 0. -1.
</event>
<event>
 5   0  0.1840359E-07  0.3095189E+04  0.7818609E-02  0.8217060E-01
        1   -1    0    0  501    0  0.00000000000E+00  0.00000000000E+00  0.21837679256E+04  0.21837679256E+04  0.50400001928E-02 0. -1.
       -1   -1    0    0    0  501  0.00000000000E+00  0.00000000000E+00 -0.10967505006E+04  0.10967505006E+04  0.50400001928E-02 0.  1.
    10030    2    1    2    0    0  0.00000000000E+00  0.00000000000E+00  0.10870174251E+04  0.32805184262E+04  0.30951888896E+04 0.  0.
        1    1    3    3  502    0  0.77036020710E+03 -0.44213979430E+03  0.18867141526E+04  0.20853375602E+04  0.50400001928E-02 0. -1.
       -1    1    3    3    0  502 -0.77036020710E+03  0.44213979430E+03 -0.79969672753E+03  0.11951808660E+04  0.50400001928E-02 0.  1.
</event>
<event>
 5   0  0.1845123E-07  0.3098315E+04  0.7818609E-02  0.8216200E-01
        1   -1    0    0  501    0  0.00000000000E+00  0.00000000000E+00  0.14929479450E+04  0.14929479450E+04  0.50400001928E-02 0. -1.
       -1   -1    0    0    0  501  0.00000000000E+00  0.00000000000E+00 -0.16074837181E+04  0.16074837181E+04  0.50400001928E-02 0.  1.
    10030    2    1    2    0    0  0.00000000000E+00  0.00000000000E+00 -0.11453577308E+03  0.31004316631E+04  0.30983153574E+04 0.  0.
        2    1    3    3  502    0 -0.14299462269E+04  0.39042791024E+03  0.39327219442E+03  0.15335720341E+04  0.25500000920E-02 0.  1.
       -2    1    3    3    0  502  0.14299462269E+04 -0.39042791024E+03 -0.50780796749E+03  0.15668596289E+04  0.25500000920E-02 0. -1.
</event>
<event>
 5   0  0.1845123E-07  0.3102072E+04  0.7818609E-02  0.8215170E-01
       -1   -1    0    0    0  501  0.00000000000E+00  0.00000000000E+00  0.12705897618E+04  0.12705897618E+04  0.50400001928E-02 0. -1.
        1   -1    0    0  501    0  0.00000000000E+00  0.00000000000E+00 -0.18933825412E+04  0.18933825412E+04  0.50400001928E-02 0.  1.
    10030    2    1    2    0    0  0.00000000000E+00  0.00000000000E+00 -0.62279277941E+03  0.31639723029E+04  0.31020718702E+04 0.  0.
        2    1    3    3  502    0 -0.75377154132E+03  0.13207486362E+04 -0.62271481413E+03  0.16432657229E+04  0.25500000920E-02 0.  1.
       -2    1    3    3    0  502  0.75377154132E+03 -0.13207486362E+04 -0.77965288673E-01  0.15207065800E+04  0.25500000920E-02 0. -1.
</event>
<event>
 5   0  0.1814075E-07  0.3095865E+04  0.7818609E-02  0.8216874E-01
        1   -1    0    0  501    0  0.00000000000E+00  0.00000000000E+00  0.15949267063E+04  0.15949267063E+04  0.50400001928E-02 0.  1.
       -1   -1    0    0    0  501  0.00000000000E+00  0.00000000000E+00 -0.15023233629E+04  0.15023233629E+04  0.50400001928E-02 0. -1.
    10030    2    1    2    0    0  0.00000000000E+00  0.00000000000E+00  0.92603343385E+02  0.30972500692E+04  0.30958654060E+04 0.  0.
        5    1    3    3  502    0 -0.13297576008E+04 -0.77241167687E+03 -0.13040826472E+03  0.15433416604E+04  0.46999998093E+01 0.  1.
       -5    1    3    3    0  502  0.13297576008E+04  0.77241167687E+03  0.22301160810E+03  0.15539084087E+04  0.46999998093E+01 0. -1.
</event>
<event>
 5   0  0.5154105E-07  0.3101325E+04  0.7818609E-02  0.8215374E-01
       -2   -1    0    0    0  501  0.00000000000E+00  0.00000000000E+00  0.13544733613E+04  0.13544733613E+04  0.25500000920E-02 0. -1.
        2   -1    0    0  501    0  0.00000000000E+00  0.00000000000E+00 -0.17752684071E+04  0.17752684071E+04  0.25500000920E-02 0.  1.
    10030    2    1    2    0    0  0.00000000000E+00  0.00000000000E+00 -0.42079504578E+03  0.31297417684E+04  0.31013247277E+04 0.  0.
        1    1    3    3  502    0  0.92145553408E+03 -0.62483754454E+03  0.87886817428E+03  0.14184186710E+04  0.50400001928E-02 0. -1.
       -1    1    3    3    0  502 -0.92145553408E+03  0.62483754454E+03 -0.12996632201E+04  0.17113230975E+04  0.50400001928E-02 0.  1.
</event>
<event>
 5   0  0.1845123E-07  0.3094025E+04  0.7818609E-02  0.8217380E-01
        1   -1    0    0  501    0  0.00000000000E+00  0.00000000000E+00  0.10277611375E+04  0.10277611375E+04  0.50400001928E-02 0.  1.
       -1   -1    0    0    0  501  0.00000000000E+00  0.00000000000E+00 -0.23286034652E+04  0.23286034652E+04  0.50400001928E-02 0. -1.
    10030    2    1    2    0    0  0.00000000000E+00  0.00000000000E+00 -0.13008423277E+04  0.33563646027E+04  0.30940253045E+04 0.  0.
        2    1    3    3  502    0  0.41238531856E+03  0.72415008760E+03  0.76346850457E+03  0.11301943009E+04  0.25500000920E-02 0.  1.
       -2    1    3    3    0  502 -0.41238531856E+03 -0.72415008760E+03 -0.20643108323E+04  0.22261703018E+04  0.25500000920E-02 0. -1.
</event>
<event>
 5   0  0.1840359E-07  0.3102043E+04  0.7818609E-02  0.8215177E-01
        1   -1    0    0  501    0  0.00000000000E+00  0.00000000000E+00  0.29457012950E+04  0.29457012950E+04  0.50400001928E-02 0.  1.
       -1   -1    0    0    0  501  0.00000000000E+00  0.00000000000E+00 -0.81667079701E+03  0.81667079703E+03  0.50400001928E-02 0. -1.
    10030    2    1    2    0    0  0.00000000000E+00  0.00000000000E+00  0.21290304980E+04  0.37623720921E+04  0.31020433423E+04 0.  0.
        1    1    3    3  502    0 -0.15118764470E+04 -0.26963564335E+03  0.13280023520E+04  0.20302866837E+04  0.50400001928E-02 0. -1.
       -1    1    3    3    0  502  0.15118764470E+04  0.26963564335E+03  0.80102814605E+03  0.17320854084E+04  0.50400001928E-02 0.  1.
</event>
<event>
 5   0  0.5248309E-07  0.3085120E+04  0.7818609E-02  0.8219834E-01
        2   -1    0    0  501    0  0.00000000000E+00  0.00000000000E+00  0.25660636964E+04  0.25660636964E+04  0.25500000920E-02 0. -1.
       -2   -1    0    0    0  501  0.00000000000E+00  0.00000000000E+00 -0.92729233827E+03  0.92729233827E+03  0.25500000920E-02 0.  1.
    10030    2    1    2    0    0  0.00000000000E+00  0.00000000000E+00  0.16387713581E+04  0.34933560347E+04  0.30851199038E+04 0.  0.
        4    1    3    3  502    0 -0.77355546390E+02  0.15114460551E+04  0.48151156042E+03  0.15881775889E+04  0.12699999809E+01 0.  1.
       -4    1    3    3    0  502  0.77355546390E+02 -0.15114460551E+04  0.11572597977E+04  0.19051784458E+04  0.12699999809E+01 0. -1.
</event>
<event>
 5   0  0.1814075E-07  0.3097190E+04  0.7818609E-02  0.8216509E-01
        1   -1    0    0  501    0  0.00000000000E+00  0.00000000000E+00  0.16481902741E+04  0.16481902741E+04  0.50400001928E-02 0.  1.
       -1   -1    0    0    0  501  0.00000000000E+00  0.00000000000E+00 -0.14550183379E+04  0.14550183379E+04  0.50400001928E-02 0. -1.
    10030    2    1    2    0    0  0.00000000000E+00  0.00000000000E+00  0.19317193621E+03  0.31032086120E+04  0.30971903869E+04 0.  0.
        5    1    3    3  502    0  0.15188816758E+04 -0.29926888214E+03  0.56992421220E+02  0.15491396434E+04  0.46999998093E+01 0.  1.
       -5    1    3    3    0  502 -0.15188816758E+04  0.29926888214E+03  0.13617951498E+03  0.15540689686E+04  0.46999998093E+01 0. -1.
</event>
<event>
 5   0  0.1814075E-07  0.3098345E+04  0.7818609E-02  0.8216192E-01
        1   -1    0    0  501    0  0.00000000000E+00  0.00000000000E+00  0.27280289999E+04  0.27280289999E+04  0.50400001928E-02 0.  1.
       -1   -1    0    0    0  501  0.00000000000E+00  0.00000000000E+00 -0.87973213847E+03  0.87973213849E+03  0.50400001928E-02 0. -1.
    10030    2    1    2    0    0  0.00000000000E+00  0.00000000000E+00  0.18482968614E+04  0.36077611383E+04  0.30983445812E+04 0.  0.
        5    1    3    3  502    0  0.69189399091E+02  0.14435820225E+04  0.27457928307E+03  0.14710989435E+04  0.46999998093E+01 0. -1.
       -5    1    3    3    0  502 -0.69189399091E+02 -0.14435820225E+04  0.15737175783E+04  0.21366621949E+04  0.46999998093E+01 0.  1.
</event>
<event>
 5   0  0.1845123E-07  0.3066154E+04  0.7818609E-02  0.8225089E-01
       -1   -1    0    0    0  501  0.00000000000E+00  0.00000000000E+00  0.15852781331E+04  0.15852781331E+04  0.50400001928E-02 0.  1.
        1   -1    0    0  501    0  0.00000000000E+00  0.00000000000E+00 -0.14825943649E+04  0.14825943649E+04  0.50400001928E-02 0. -1.
    10030    2    1    2    0    0  0.00000000000E+00  0.00000000000E+00  0.10268376824E+03  0.30678724980E+04  0.30661535689E+04 0.  0.
        2    1    3    3  502    0 -0.13799898667E+03  0.78383820908E+02 -0.14743528505E+04  0.14828702140E+04  0.25500000920E-02 0. -1.
       -2    1    3    3    0  502  0.13799898667E+03 -0.78383820908E+02  0.15770366187E+04  0.15850022841E+04  0.25500000920E-02 0.  1.
</event>
<event>
 5   0  0.5154105E-07  0.3090771E+04  0.7818609E-02  0.8218275E-01
       -2   -1    0    0    0  501  0.00000000000E+00  0.00000000000E+00  0.16152987204E+04  0.16152987204E+04  0.25500000920E-02 0.  1.
        2   -1    0    0  501    0  0.00000000000E+00  0.00000000000E+00 -0.14784983418E+04  0.14784983418E+04  0.25500000920E-02 0. -1.
    10030    2    1    2    0    0  0.00000000000E+00  0.00000000000E+00  0.13680037861E+03  0.30937970622E+04  0.30907710880E+04 0.  0.
        1    1    3    3  502    0  0.27926775618E+03  0.22915803025E+03  0.15724399235E+04  0.16134036059E+04  0.50400001928E-02 0.  1.
       -1    1    3    3    0  502 -0.27926775618E+03 -0.22915803025E+03 -0.14356395449E+04  0.14803934563E+04  0.50400001928E-02 0. -1.
</event>
<event>
 5   0  0.1875284E-07  0.3093784E+04  0.7818609E-02  0.8217446E-01
        1   -1    0    0  501    0  0.00000000000E+00  0.00000000000E+00  0.16230759479E+04  0.16230759479E+04  0.50400001928E-02 0. -1.
       -1   -1    0    0    0  501  0.00000000000E+00  0.00000000000E+00 -0.14742840356E+04  0.14742840356E+04  0.50400001928E-02 0.  1.
    10030    2    1    2    0    0  0.00000000000E+00  0.00000000000E+00  0.14879191229E+03  0.30973599835E+04  0.30937840639E+04 0.  0.
        4    1    3    3  502    0  0.11897046129E+04 -0.17132693032E+03 -0.90044576809E+03  0.15018502512E+04  0.12699999809E+01 0.  1.
       -4    1    3    3    0  502 -0.11897046129E+04  0.17132693032E+03  0.10492376804E+04  0.15955097323E+04  0.12699999809E+01 0. -1.
</event>
<event>
 5   0  0.5154105E-07  0.3083036E+04  0.7818609E-02  0.8220409E-01
        2   -1    0    0  501    0  0.00000000000E+00  0.00000000000E+00  0.19979543430E+04  0.19979543430E+04  0.25500000920E-02 0.  1.
       -2   -1    0    0    0  501  0.00000000000E+00  0.00000000000E+00 -0.11893556560E+04  0.11893556560E+04  0.25500000920E-02 0. -1.
    10030    2    1    2    0    0  0.00000000000E+00  0.00000000000E+00  0.80859868700E+03  0.31873099990E+04  0.30830363593E+04 0.  0.
        1    1    3    3  502    0 -0.33292173099E+03 -0.11736342308E+04  0.13785215788E+04  0.18408084990E+04  0.50400001928E-02 0.  1.
       -1    1    3    3    0  502  0.33292173099E+03  0.11736342308E+04 -0.56992289184E+03  0.13465015000E+04  0.50400001928E-02 0. -1.
</event>
<event>
 5   0  0.5342534E-07  0.3097373E+04  0.7818609E-02  0.8216459E-01
        2   -1    0    0  501    0  0.00000000000E+00  0.00000000000E+00  0.15046575675E+04  0.15046575676E+04  0.25500000920E-02 0. -1.
       -2   -1    0    0    0  501  0.00000000000E+00  0.00000000000E+00 -0.15940038322E+04  0.15940038322E+04  0.25500000920E-02 0.  1.
    10030    2    1    2    0    0  0.00000000000E+00  0.00000000000E+00 -0.89346264602E+02  0.30986613997E+04  0.30973730345E+04 0.  0.
        3    1    3    3  502    0 -0.64052503500E+03 -0.25158591740E+03  0.13432979647E+04  0.15093101823E+04  0.10100000352E+00 0. -1.
       -3    1    3    3    0  502  0.64052503500E+03  0.25158591740E+03 -0.14326442293E+04  0.15893512174E+04  0.10100000352E+00 0.  1.
</event>
<event>
 5   0  0.5342534E-07  0.3104880E+04  0.7818609E-02  0.8214400E-01
       -2   -1    0    0    0  501  0.00000000000E+00  0.00000000000E+00  0.17888939893E+04  0.17888939894E+04  0.25500000920E-02 0. -1.
        2   -1    0    0  501    0  0.00000000000E+00  0.00000000000E+00 -0.13472402032E+04  0.13472402032E+04  0.25500000920E-02 0.  1.
    10030    2    1    2    0    0  0.00000000000E+00  0.00000000000E+00  0.44165378619E+03  0.31361341925E+04  0.31048799665E+04 0.  0.
        3    1    3    3  502    0  0.21923168691E+03 -0.73508134458E+03  0.15841029720E+04  0.17600537923E+04  0.10100000352E+00 0. -1.
       -3    1    3    3    0  502 -0.21923168691E+03  0.73508134458E+03 -0.11424491858E+04  0.13760804002E+04  0.10100000352E+00 0.  1.
</event>
<event>
 5   0  0.1840359E-07  0.3114413E+04  0.7818609E-02  0.8211794E-01
       -1   -1    0    0    0  501  0.00000000000E+00  0.00000000000E+00  0.10306767680E+04  0.10306767680E+04  0.50400001928E-02 0. -1.
        1   -1    0    0  501    0  0.00000000000E+00  0.00000000000E+00 -0.23527176510E+04  0.23527176510E+04  0.50400001928E-02 0.  1.
    10030    2    1    2    0    0  0.00000000000E+00  0.00000000000E+00 -0.13220408831E+04  0.33833944190E+04  0.31144125767E+04 0.  0.
        1    1    3    3  502    0  0.82312565776E+02 -0.10140542062E+04 -0.19417405281E+04  0.21921308287E+04  0.50400001928E-02 0.  1.
       -1    1    3    3    0  502 -0.82312565776E+02  0.10140542062E+04  0.61969964502E+03  0.11912635903E+04  0.50400001928E-02 0. -1.
</event>
<event>
 5   0  0.1814075E-07  0.3095725E+04  0.7818609E-02  0.8216912E-01
       -1   -1    0    0    0  501  0.00000000000E+00  0.00000000000E+00  0.15434584731E+04  0.15434584732E+04  0.50400001928E-02 0.  1.
        1   -1    0    0  501    0  0.00000000000E+00  0.00000000000E+00 -0.15522787228E+04  0.15522787228E+04  0.50400001928E-02 0. -1.
    10030    2    1    2    0    0  0.00000000000E+00  0.00000000000E+00 -0.88202496696E+01  0.30957371960E+04  0.30957246308E+04 0.  0.
        5    1    3    3  502    0 -0.14888156214E+04  0.42228011645E+03  0.26625564517E+02  0.15477801724E+04  0.46999998093E+01 0. -1.
       -5    1    3    3    0  502  0.14888156214E+04 -0.42228011645E+03 -0.35445814186E+02  0.15479570236E+04  0.46999998093E+01 0.  1.
</event>
<event>
 5   0  0.5342534E-07  0.3100967E+04  0.7818609E-02  0.8215473E-01
       -2   -1    0    0    0  501  0.00000000000E+00  0.00000000000E+00  0.20658316382E+04  0.20658316382E+04  0.25500000920E-02 0.  1.
        2   -1    0    0  501    0  0.00000000000E+00  0.00000000000E+00 -0.11636951962E+04  0.11636951962E+04  0.25500000920E-02 0. -1.
    10030    2    1    2    0    0  0.00000000000E+00  0.00000000000E+00  0.90213644199E+03  0.32295268344E+04  0.31009665290E+04 0.  0.
        3    1    3    3  502    0 -0.14960628478E+04  0.60056204564E+02  0.87048961283E+03  0.17319246428E+04  0.10100000352E+00 0.  1.
       -3    1    3    3    0  502  0.14960628478E+04 -0.60056204564E+02  0.31646829155E+02  0.14976021916E+04  0.10100000352E+00 0. -1.
</event>
<event>
 5   0  0.1814075E-07  0.3131059E+04  0.7818609E-02  0.8207265E-01
       -1   -1    0    0    0  501  0.00000000000E+00  0.00000000000E+00  0.14378007830E+04  0.14378007830E+04  0.50400001928E-02 0.  1.
        1   -1    0    0  501    0  0.00000000000E+00  0.00000000000E+00 -0.17046048066E+04  0.17046048066E+04  0.50400001928E-02 0. -1.
    10030    2    1    2    0    0  0.00000000000E+00  0.00000000000E+00 -0.26680402356E+03  0.31424055896E+04  0.31310586872E+04 0.  0.
        5    1    3    3  502    0 -0.12365388817E+04  0.15013419236E+03 -0.10851484050E+04  0.16520102399E+04  0.46999998093E+01 0. -1.
       -5    1    3    3    0  502  0.12365388817E+04 -0.15013419236E+03  0.81834438148E+03  0.14903953497E+04  0.46999998093E+01 0.  1.
</event>
<event>
 5   0  0.5055900E-07  0.3100218E+04  0.7818609E-02  0.8215678E-01
       -2   -1    0    0    0  501  0.00000000000E+00  0.00000000000E+00  0.13478249324E+04  0.13478249324E+04  0.25500000920E-02 0.  1.
        2   -1    0    0  501    0  0.00000000000E+00  0.00000000000E+00 -0.17827523909E+04  0.17827523909E+04  0.25500000920E-02 0. -1.
    10030    2    1    2    0    0  0.00000000000E+00  0.00000000000E+00 -0.43492745844E+03  0.31305773233E+04  0.31002181348E+04 0.  0.
        2    1    3    3  502    0  0.11308085357E+04 -0.23176560891E+03  0.82726657896E+03  0.14201454977E+04  0.25500000920E-02 0.  1.
       -2    1    3    3    0  502 -0.11308085357E+04  0.23176560891E+03 -0.12621940374E+04  0.17104318256E+04  0.25500000920E-02 0. -1.
</event>
<event>
 5   0  0.1830902E-07  0.3099151E+04  0.7818609E-02  0.8215971E-01
       -1   -1    0    0    0  501  0.00000000000E+00  0.00000000000E+00  0.94179067994E+03  0.94179067995E+03  0.50400001928E-02 0.  1.
        1   -1    0    0  501    0  0.00000000000E+00  0.00000000000E+00 -0.25495951690E+04  0.25495951690E+04  0.50400001928E-02 0. -1.
    10030    2    1    2    0    0  0.00000000000E+00  0.00000000000E+00 -0.16078044890E+04  0.34913858489E+04  0.30991514760E+04 0.  0.
        3    1    3    3  502    0 -0.30192958461E+03  0.79561151269E+02  0.90598468608E+03  0.95827955862E+03  0.10100000352E+00 0.  1.
       -3    1    3    3    0  502  0.30192958461E+03 -0.79561151269E+02 -0.25137891751E+04  0.25331062903E+04  0.10100000352E+00 0. -1.
</event>
<event>
 5   0  0.1840359E-07  0.3088731E+04  0.7818609E-02  0.8218838E-01
        1   -1    0    0  501    0  0.00000000000E+00  0.00000000000E+00  0.23064937671E+04  0.23064937671E+04  0.50400001928E-02 0.  1.
       -1   -1    0    0    0  501  0.00000000000E+00  0.00000000000E+00 -0.10340648597E+04  0.10340648597E+04  0.50400001928E-02 0. -1.
    10030    2    1    2    0    0  0.00000000000E+00  0.00000000000E+00  0.12724289074E+04  0.33405586267E+04  0.30887305830E+04 0.  0.
        1    1    3    3  502    0 -0.14887667148E+04  0.37583364753E+03  0.81519690113E+03  0.17384542702E+04  0.50400001928E-02 0.  1.
       -1    1    3    3    0  502  0.14887667148E+04 -0.37583364753E+03  0.45723200627E+03  0.16021043566E+04  0.50400001928E-02 0. -1.
</event>
<event>
 5   0  0.1875284E-07  0.3105052E+04  0.7818609E-02  0.8214353E-01
       -1   -1    0    0    0  501  0.00000000000E+00  0.00000000000E+00  0.10240226135E+04  0.10240226135E+04  0.50400001928E-02 0. -1.
        1   -1    0    0  501    0  0.00000000000E+00  0.00000000000E+00 -0.23537925606E+04  0.23537925606E+04  0.50400001928E-02 0.  1.
    10030    2    1    2    0    0  0.00000000000E+00  0.00000000000E+00 -0.13297699471E+04  0.33778151741E+04  0.31050518897E+04 0.  0.
        4    1    3    3  502    0  0.14121527834E+04  0.64483251486E+03 -0.68525821443E+03  0.16969280743E+04  0.12699999809E+01 0.  1.
       -4    1    3    3    0  502 -0.14121527834E+04 -0.64483251486E+03 -0.64451173265E+03  0.16808870998E+04  0.12699999809E+01 0. -1.
</event>
<event>
 5   0  0.5248309E-07  0.3103899E+04  0.7818609E-02  0.8214669E-01
       -2   -1    0    0    0  501  0.00000000000E+00  0.00000000000E+00  0.11472371673E+04  0.11472371673E+04  0.25500000920E-02 0.  1.
        2   -1    0    0  501    0  0.00000000000E+00  0.00000000000E+00 -0.20994322377E+04  0.20994322377E+04  0.25500000920E-02 0. -1.
    10030    2    1    2    0    0  0.00000000000E+00  0.00000000000E+00 -0.95219507041E+03  0.32466694050E+04  0.31038986409E+04 0.  0.
        4    1    3    3  502    0  0.31767547334E+03  0.33643259968E+03 -0.20256006038E+04  0.20777786262E+04  0.12699999809E+01 0. -1.
       -4    1    3    3    0  502 -0.31767547334E+03 -0.33643259968E+03  0.10734055334E+04  0.11688907787E+04  0.12699999809E+01 0.  1.
</event>
<event>
 5   0  0.1830902E-07  0.3088642E+04  0.7818609E-02  0.8218862E-01
        1   -1    0    0  501    0  0.00000000000E+00  0.00000000000E+00  0.14922902016E+04  0.14922902016E+04  0.50400001928E-02 0. -1.
       -1   -1    0    0    0  501  0.00000000000E+00  0.00000000000E+00 -0.15981662174E+04  0.15981662174E+04  0.50400001928E-02 0.  1.
    10030    2    1    2    0    0  0.00000000000E+00  0.00000000000E+00 -0.10587601579E+03  0.30904564190E+04  0.30886422821E+04 0.  0.
        3    1    3    3  502    0 -0.14261531436E+04  0.55787817949E+03 -0.25252176584E+03  0.15520657539E+04  0.10100000352E+00 0.  1.
       -3    1    3    3    0  502  0.14261531436E+04 -0.55787817949E+03  0.14664575005E+03  0.15383906650E+04  0.10100000352E+00 0. -1.
</event>
<event>
 5   0  0.1814075E-07  0.3093720E+04  0.7818609E-02  0.8217464E-01
       -1   -1    0    0    0  501  0.00000000000E+00  0.00000000000E+00  0.21327645272E+04  0.21327645272E+04  0.50400001928E-02 0. -1.
        1   -1    0    0  501    0  0.00000000000E+00  0.00000000000E+00 -0.11219125854E+04  0.11219125854E+04  0.50400001928E-02 0.  1.
    10030    2    1    2    0    0  0.00000000000E+00  0.00000000000E+00  0.10108519418E+04  0.32546771126E+04  0.30937196801E+04 0.  0.
        5    1    3    3  502    0 -0.10961347948E+04 -0.26320585545E+03 -0.60891090048E+03  0.12812429065E+04  0.46999998093E+01 0.  1.
       -5    1    3    3    0  502  0.10961347948E+04  0.26320585545E+03  0.16197628422E+04  0.19734342061E+04  0.46999998093E+01 0. -1.
</event>
<event>
 5   0  0.1875284E-07  0.3097745E+04  0.7818609E-02  0.8216357E-01
        1   -1    0    0  501    0  0.00000000000E+00  0.00000000000E+00  0.10944160769E+04  0.10944160769E+04  0.50400001928E-02 0.  1.
       -1   -1    0    0    0  501  0.00000000000E+00  0.00000000000E+00 -0.21920419527E+04  0.21920419527E+04  0.50400001928E-02 0. -1.
    10030    2    1    2    0    0  0.00000000000E+00  0.00000000000E+00 -0.10976258758E+04  0.32864580296E+04  0.30977449567E+04 0.  0.
        4    1    3    3  502    0 -0.11711857706E+04 -0.10071620640E+04 -0.42806925723E+03  0.16029025031E+04  0.12699999809E+01 0. -1.
       -4    1    3    3    0  502  0.11711857706E+04  0.10071620640E+04 -0.66955661859E+03  0.16835555265E+04  0.12699999809E+01 0.  1.
</event>
<event>
 5   0  0.5055900E-07  0.3098769E+04  0.7818609E-02  0.8216076E-01
        2   -1    0    0  501    0  0.00000000000E+00  0.00000000000E+00  0.22177409912E+04  0.22177409912E+04  0.25500000920E-02 0. -1.
       -2   -1    0    0    0  501  0.00000000000E+00  0.00000000000E+00 -0.10824493990E+04  0.10824493990E+04  0.25500000920E-02 0.  1.
    10030    2    1    2    0    0  0.00000000000E+00  0.00000000000E+00  0.11352915922E+04  0.33001903901E+04  0.30987690478E+04 0.  0.
        2    1    3    3  502    0 -0.84493125403E+03  0.92288662537E+03 -0.40551280165E+03  0.13153209417E+04  0.25500000920E-02 0.  1.
       -2    1    3    3    0  502  0.84493125403E+03 -0.92288662537E+03  0.15408043938E+04  0.19848694485E+04  0.25500000920E-02 0. -1.
</event>
<event>
 5   0  0.5248309E-07  0.3120764E+04  0.7818609E-02  0.8210062E-01
        2   -1    0    0  501    0  0.00000000000E+00  0.00000000000E+00  0.17767105122E+04  0.17767105122E+04  0.25500000920E-02 0. -1.
       -2   -1    0    0    0  501  0.00000000000E+00  0.00000000000E+00 -0.13703930402E+04  0.13703930402E+04  0.25500000920E-02 0.  1.
    10030    2    1    2    0    0  0.00000000000E+00  0.00000000000E+00  0.40631747205E+03  0.31471035524E+04  0.31207638298E+04 0.  0.
        4    1    3    3  502    0  0.65468011481E+03  0.14013411193E+04  0.41087567594E+03  0.16003697758E+04  0.12699999809E+01 0. -1.
       -4    1    3    3    0  502 -0.65468011481E+03 -0.14013411193E+04 -0.45582038891E+01  0.15467337765E+04  0.12699999809E+01 0.  1.
</event>
<event>
 5   0  0.5248309E-07  0.3102760E+04  0.7818609E-02  0.8214981E-01
       -2   -1    0    0    0  501  0.00000000000E+00  0.00000000000E+00  0.14684056685E+04  0.14684056685E+04  0.25500000920E-02 0. -1.
        2   -1    0    0  501    0  0.00000000000E+00  0.00000000000E+00 -0.16390424006E+04  0.16390424006E+04  0.25500000920E-02 0.  1.
    10030    2    1    2    0    0  0.00000000000E+00  0.00000000000E+00 -0.17063673211E+03  0.31074480691E+04  0.31027595150E+04 0.  0.
        4    1    3    3  502    0  0.35388095943E+00  0.82421097279E+03  0.12309940256E+04  0.14814424582E+04  0.12699999809E+01 0. -1.
       -4    1    3    3    0  502 -0.35388095943E+00 -0.82421097279E+03 -0.14016307577E+04  0.16260056109E+04  0.12699999809E+01 0.  1.
</event>
<event>
 5   0  0.1875284E-07  0.3099538E+04  0.7818609E-02  0.8215865E-01
       -1   -1    0    0    0  501  0.00000000000E+00  0.00000000000E+00  0.14991909801E+04  0.14991909801E+04  0.50400001928E-02 0. -1.
        1   -1    0    0  501    0  0.00000000000E+00  0.00000000000E+00 -0.16020532762E+04  0.16020532762E+04  0.50400001928E-02 0.  1.
    10030    2    1    2    0    0  0.00000000000E+00  0.00000000000E+00 -0.10286229610E+03  0.31012442563E+04  0.30995379148E+04 0.  0.
        4    1    3    3  502    0  0.13389011349E+04  0.43973707643E+03  0.59371623819E+03  0.15292238325E+04  0.12699999809E+01 0. -1.
       -4    1    3    3    0  502 -0.13389011349E+04 -0.43973707643E+03 -0.69657853430E+03  0.15720204238E+04  0.12699999809E+01 0.  1.
</event>
<event>
 5   0  0.5055900E-07  0.3096208E+04  0.7818609E-02  0.8216779E-01
        2   -1    0    0  501    0  0.00000000000E+00  0.00000000000E+00  0.10853448937E+04  0.10853448937E+04  0.25500000920E-02 0. -1.
       -2   -1    0    0    0  501  0.00000000000E+00  0.00000000000E+00 -0.22081692539E+04  0.22081692539E+04  0.25500000920E-02 0.  1.
    10030    2    1    2    0    0  0.00000000000E+00  0.00000000000E+00 -0.11228243601E+04  0.32935141476E+04  0.30962075022E+04 0.  0.
        2    1    3    3  502    0  0.23882362422E+03 -0.11082858605E+04 -0.16827677999E+04  0.20290494672E+04  0.25500000920E-02 0.  1.
       -2    1    3    3    0  502 -0.23882362422E+03  0.11082858605E+04  0.55994343975E+03  0.12644646804E+04  0.25500000920E-02 0. -1.
</event>
<event>
 5   0  0.5248309E-07  0.3099817E+04  0.7818609E-02  0.8215788E-01
        2   -1    0    0  501    0  0.00000000000E+00  0.00000000000E+00  0.15646976115E+04  0.15646976115E+04  0.25500000920E-02 0.  1.
       -2   -1    0    0    0  501  0.00000000000E+00  0.00000000000E+00 -0.15352591994E+04  0.15352591994E+04  0.25500000920E-02 0. -1.
    10030    2    1    2    0    0  0.00000000000E+00  0.00000000000E+00  0.29438412145E+02  0.30999568109E+04  0.30998170283E+04 0.  0.
        4    1    3    3  502    0  0.44238280004E+03  0.11937473419E+04  0.89877237906E+03  0.15583737229E+04  0.12699999809E+01 0.  1.
       -4    1    3    3    0  502 -0.44238280004E+03 -0.11937473419E+04 -0.86933396691E+03  0.15415830879E+04  0.12699999809E+01 0. -1.
</event>
<event>
 5   0  0.5376678E-07  0.3100561E+04  0.7818609E-02  0.8215584E-01
        2   -1    0    0  501    0  0.00000000000E+00  0.00000000000E+00  0.21257751260E+04  0.21257751260E+04  0.25500000920E-02 0.  1.
       -2   -1    0    0    0  501  0.00000000000E+00  0.00000000000E+00 -0.11305850976E+04  0.11305850976E+04  0.25500000920E-02 0. -1.
    10030    2    1    2    0    0  0.00000000000E+00  0.00000000000E+00  0.99519002840E+03  0.32563602235E+04  0.31005610319E+04 0.  0.
        5    1    3    3  502    0  0.42927157774E+03  0.77143751228E+03  0.18359752309E+04  0.20372081536E+04  0.46999998093E+01 0.  1.
       -5    1    3    3    0  502 -0.42927157774E+03 -0.77143751228E+03 -0.84078520249E+03  0.12191520699E+04  0.46999998093E+01 0. -1.
</event>
<event>
 5   0  0.1727000E-07  0.3101128E+04  0.7818609E-02  0.8215428E-01
        4   -1    0    0  501    0  0.00000000000E+00  0.00000000000E+00  0.15822960084E+04  0.15822965181E+04  0.12699999809E+01 0. -1.
       -4   -1    0    0    0  501  0.00000000000E+00  0.00000000000E+00 -0.15194678073E+04  0.15194683380E+04  0.12699999809E+01 0.  1.
    10030    2    1    2    0    0  0.00000000000E+00  0.00000000000E+00  0.62828201090E+02  0.31017648561E+04  0.31011284784E+04 0.  0.
        4    1    3    3  502    0 -0.11406961078E+04 -0.29322654622E+03 -0.97729591633E+03  0.15304503712E+04  0.12699999809E+01 0.  1.
       -4    1    3    3    0  502  0.11406961078E+04  0.29322654622E+03  0.10401241174E+04  0.15713144849E+04  0.12699999809E+01 0. -1.
</event>
<event>
 5   0  0.5342534E-07  0.3100007E+04  0.7818609E-02  0.8215736E-01
       -2   -1    0    0    0  501  0.00000000000E+00  0.00000000000E+00  0.18292419138E+04  0.18292419138E+04  0.25500000920E-02 0. -1.
        2   -1    0    0  501    0  0.00000000000E+00  0.00000000000E+00 -0.13133917162E+04  0.13133917162E+04  0.25500000920E-02 0.  1.
    10030    2    1    2    0    0  0.00000000000E+00  0.00000000000E+00  0.51585019755E+03  0.31426336300E+04  0.31000072106E+04 0.  0.
        3    1    3    3  502    0 -0.23684911891E+03 -0.23746154291E+03  0.17920164644E+04  0.18231315116E+04  0.10100000352E+00 0. -1.
       -3    1    3    3    0  502  0.23684911891E+03  0.23746154291E+03 -0.12761662669E+04  0.13195021184E+04  0.10100000352E+00 0.  1.
</event>
<event>
 5   0  0.1814075E-07  0.3102630E+04  0.7818609E-02  0.8215016E-01
        1   -1    0    0  501    0  0.00000000000E+00  0.00000000000E+00  0.11433236618E+04  0.11433236618E+04  0.50400001928E-02 0.  1.
       -1   -1    0    0    0  501  0.00000000000E+00  0.00000000000E+00 -0.21048968848E+04  0.21048968848E+04  0.50400001928E-02 0. -1.
    10030    2    1    2    0    0  0.00000000000E+00  0.00000000000E+00 -0.96157322300E+03  0.32482205467E+04  0.31026301192E+04 0.  0.
        5    1    3    3  502    0  0.96070310062E+03 -0.45502893783E+03 -0.16636516417E+04  0.19742747166E+04  0.46999998093E+01 0. -1.
       -5    1    3    3    0  502 -0.96070310062E+03  0.45502893783E+03  0.70207841871E+03  0.12739458300E+04  0.46999998093E+01 0.  1.
</event>
<event>
 5   0  0.1845123E-07  0.3105168E+04  0.7818609E-02  0.8214321E-01
       -1   -1    0    0    0  501  0.00000000000E+00  0.00000000000E+00  0.10333269706E+04  0.10333269706E+04  0.50400001928E-02 0.  1.
        1   -1    0    0  501    0  0.00000000000E+00  0.00000000000E+00 -0.23327732061E+04  0.23327732061E+04  0.50400001928E-02 0. -1.
    10030    2    1    2    0    0  0.00000000000E+00  0.00000000000E+00 -0.12994462354E+04  0.33661001767E+04  0.31051682532E+04 0.  0.
        2    1    3    3  502    0 -0.55873049783E+03  0.15938507784E+03 -0.22104778017E+04  0.22855623999E+04  0.25500000920E-02 0. -1.
       -2    1    3    3    0  502  0.55873049783E+03 -0.15938507784E+03  0.91103156628E+03  0.10805377768E+04  0.25500000920E-02 0.  1.
</event>
<event>
 5   0  0.5154105E-07  0.3102790E+04  0.7818609E-02  0.8214973E-01
       -2   -1    0    0    0  501  0.00000000000E+00  0.00000000000E+00  0.11077781519E+04  0.11077781519E+04  0.25500000920E-02 0. -1.
        2   -1    0    0  501    0  0.00000000000E+00  0.00000000000E+00 -0.21726604894E+04  0.21726604894E+04  0.25500000920E-02 0.  1.
    10030    2    1    2    0    0  0.00000000000E+00  0.00000000000E+00 -0.10648823376E+04  0.32804386413E+04  0.31027895975E+04 0.  0.
        1    1    3    3  502    0 -0.11887598544E+04  0.25845099604E+03 -0.15503083062E+04  0.19706351142E+04  0.50400001928E-02 0.  1.
       -1    1    3    3    0  502  0.11887598544E+04 -0.25845099604E+03  0.48542596867E+03  0.13098035272E+04  0.50400001928E-02 0. -1.
</event>
<event>
 5   0  0.1875284E-07  0.3106236E+04  0.7818609E-02  0.8214028E-01
        1   -1    0    0  501    0  0.00000000000E+00  0.00000000000E+00  0.16915923372E+04  0.16915923372E+04  0.50400001928E-02 0.  1.
       -1   -1    0    0    0  501  0.00000000000E+00  0.00000000000E+00 -0.14259796246E+04  0.14259796246E+04  0.50400001928E-02 0. -1.
    10030    2    1    2    0    0  0.00000000000E+00  0.00000000000E+00  0.26561271262E+03  0.31175719618E+04  0.31062364405E+04 0.  0.
        4    1    3    3  502    0  0.28401252720E+03 -0.62558659425E+03  0.15307831243E+04  0.16778916202E+04  0.12699999809E+01 0.  1.
       -4    1    3    3    0  502 -0.28401252720E+03  0.62558659425E+03 -0.12651704117E+04  0.14396803416E+04  0.12699999809E+01 0. -1.
</event>
<event>
 5   0  0.5342534E-07  0.3082683E+04  0.7818609E-02  0.8220507E-01
       -2   -1    0    0    0  501  0.00000000000E+00  0.00000000000E+00  0.15784212906E+04  0.15784212906E+04  0.25500000920E-02 0.  1.
        2   -1    0    0  501    0  0.00000000000E+00  0.00000000000E+00 -0.15051327157E+04  0.15051327157E+04  0.25500000920E-02 0. -1.
    10030    2    1    2    0    0  0.00000000000E+00  0.00000000000E+00  0.73288574823E+02  0.30835540063E+04  0.30826829377E+04 0.  0.
        3    1    3    3  502    0 -0.49384665513E+03  0.31922970566E+03 -0.13885184212E+04  0.15079043537E+04  0.10100000352E+00 0. -1.
       -3    1    3    3    0  502  0.49384665513E+03 -0.31922970566E+03  0.14618069960E+04  0.15756496526E+04  0.10100000352E+00 0.  1.
</event>
<event>
 5   0  0.1814075E-07  0.3101791E+04  0.7818609E-02  0.8215247E-01
        1   -1    0    0  501    0  0.00000000000E+00  0.00000000000E+00  0.17662619486E+04  0.17662619486E+04  0.50400001928E-02 0. -1.
       -1   -1    0    0    0  501  0.00000000000E+00  0.00000000000E+00 -0.13617890829E+04  0.13617890829E+04  0.50400001928E-02 0.  1.
    10030    2    1    2    0    0  0.00000000000E+00  0.00000000000E+00  0.40447286570E+03  0.31280510316E+04  0.31017906050E+04 0.  0.
        5    1    3    3  502    0 -0.15178831477E+02  0.15461842965E+04  0.81481821311E+02  0.15484113320E+04  0.46999998093E+01 0. -1.
       -5    1    3    3    0  502  0.15178831477E+02 -0.15461842965E+04  0.32299104439E+03  0.15796396996E+04  0.46999998093E+01 0.  1.
</event>
<event>
 5   0  0.1830902E-07  0.3108361E+04  0.7818609E-02  0.8213447E-01
        1   -1    0    0  501    0  0.00000000000E+00  0.00000000000E+00  0.10433102188E+04  0.10433102188E+04  0.50400001928E-02 0.  1.
       -1   -1    0    0    0  501  0.00000000000E+00  0.00000000000E+00 -0.23152049877E+04  0.23152049877E+04  0.50400001928E-02 0. -1.
    10030    2    1    2    0    0  0.00000000000E+00  0.00000000000E+00 -0.12718947690E+04  0.33585152065E+04  0.31083609972E+04 0.  0.
        3    1    3    3  502    0 -0.26143417061E+03 -0.63343988090E+03  0.87126426303E+03  0.11084653060E+04  0.10100000352E+00 0.  1.
       -3    1    3    3    0  502  0.26143417061E+03  0.63343988090E+03 -0.21431590320E+04  0.22500499005E+04  0.10100000352E+00 0. -1.
</event>
<event>
 5   0  0.1727000E-07  0.3096132E+04  0.7818609E-02  0.8216800E-01
        3   -1    0    0  501    0  0.00000000000E+00  0.00000000000E+00  0.21362803970E+04  0.21362803994E+04  0.10100000352E+00 0.  1.
       -3   -1    0    0    0  501  0.00000000000E+00  0.00000000000E+00 -0.11218133254E+04  0.11218133300E+04  0.10100000352E+00 0. -1.
    10030    2    1    2    0    0  0.00000000000E+00  0.00000000000E+00  0.10144670716E+04  0.32580937293E+04  0.30961316687E+04 0.  0.
        2    1    3    3  502    0 -0.17961718845E+03 -0.14792707670E+04  0.94870719196E+03  0.17665077619E+04  0.25500000920E-02 0.  1.
       -2    1    3    3    0  502  0.17961718845E+03  0.14792707670E+04  0.65759879635E+02  0.14915859675E+04  0.25500000920E-02 0. -1.
</event>
<event>
 5   0  0.5055900E-07  0.3100746E+04  0.7818609E-02  0.8215533E-01
       -2   -1    0    0    0  501  0.00000000000E+00  0.00000000000E+00  0.98612252637E+03  0.98612252637E+03  0.25500000920E-02 0. -1.
        2   -1    0    0  501    0  0.00000000000E+00  0.00000000000E+00 -0.24374819613E+04  0.24374819613E+04  0.25500000920E-02 0.  1.
    10030    2    1    2    0    0  0.00000000000E+00  0.00000000000E+00 -0.14513594349E+04  0.34236044877E+04  0.31007456327E+04 0.  0.
        2    1    3    3  502    0 -0.13724874908E+04  0.22356571432E+03 -0.14825899026E+04  0.20326771412E+04  0.25500000920E-02 0. -1.
       -2    1    3    3    0  502  0.13724874908E+04 -0.22356571432E+03  0.31230467707E+02  0.13909273465E+04  0.25500000920E-02 0.  1.
</event>
<event>
 5   0  0.5376678E-07  0.3100174E+04  0.7818609E-02  0.8215690E-01
       -2   -1    0    0    0  501  0.00000000000E+00  0.00000000000E+00  0.23400531462E+04  0.23400531462E+04  0.25500000920E-02 0. -1.
        2   -1    0    0  501    0  0.00000000000E+00  0.00000000000E+00 -0.10268012623E+04  0.10268012623E+04  0.25500000920E-02 0.  1.
    10030    2    1    2    0    0  0.00000000000E+00  0.00000000000E+00  0.13132518839E+04  0.33668544085E+04  0.31001738818E+04 0.  0.
        5    1    3    3  502    0  0.13752265181E+04 -0.70321425481E+03  0.51507121873E+03  0.16282133505E+04  0.46999998093E+01 0.  1.
       -5    1    3    3    0  502 -0.13752265181E+04  0.70321425481E+03  0.79818066522E+03  0.17386410580E+04  0.46999998093E+01 0. -1.
</event>
<event>
 5   0  0.1875284E-07  0.3096769E+04  0.7818609E-02  0.8216625E-01
        1   -1    0    0  501    0  0.00000000000E+00  0.00000000000E+00  0.19101742721E+04  0.19101742721E+04  0.50400001928E-02 0. -1.
       -1   -1    0    0    0  501  0.00000000000E+00  0.00000000000E+00 -0.12551178976E+04  0.12551178976E+04  0.50400001928E-02 0.  1.
    10030    2    1    2    0    0  0.00000000000E+00  0.00000000000E+00  0.65505637443E+03  0.31652921697E+04  0.30967685845E+04 0.  0.
        4    1    3    3  502    0 -0.84790593559E+02  0.12663023890E+04  0.12341622157E+04  0.17702737564E+04  0.12699999809E+01 0. -1.
       -4    1    3    3    0  502  0.84790593559E+02 -0.12663023890E+04 -0.57910584126E+03  0.13950184133E+04  0.12699999809E+01 0.  1.
</event>
<event>
 5   0  0.5248309E-07  0.3099764E+04  0.7818609E-02  0.8215803E-01
        2   -1    0    0  501    0  0.00000000000E+00  0.00000000000E+00  0.21201464233E+04  0.21201464233E+04  0.25500000920E-02 0.  1.
       -2   -1    0    0    0  501  0.00000000000E+00  0.00000000000E+00 -0.11330040114E+04  0.11330040114E+04  0.25500000920E-02 0. -1.
    10030    2    1    2    0    0  0.00000000000E+00  0.00000000000E+00  0.98714241188E+03  0.32531504346E+04  0.30997641215E+04 0.  0.
        4    1    3    3  502    0 -0.55981432072E+03  0.38977036830E+03 -0.96699115617E+03  0.11833792810E+04  0.12699999809E+01 0. -1.
       -4    1    3    3    0  502  0.55981432072E+03 -0.38977036830E+03  0.19541335681E+04  0.20697711536E+04  0.12699999809E+01 0.  1.
</event>
<event>
 5   0  0.1814075E-07  0.3087542E+04  0.7818609E-02  0.8219165E-01
       -1   -1    0    0    0  501  0.00000000000E+00  0.00000000000E+00  0.91390350808E+03  0.91390350809E+03  0.50400001928E-02 0. -1.
        1   -1    0    0  501    0  0.00000000000E+00  0.00000000000E+00 -0.26077471630E+04  0.26077471630E+04  0.50400001928E-02 0.  1.
    10030    2    1    2    0    0  0.00000000000E+00  0.00000000000E+00 -0.16938436549E+04  0.35216506711E+04  0.30875422462E+04 0.  0.
        5    1    3    3  502    0  0.87764414646E+03 -0.98771125620E+03  0.63684532615E+02  0.13228418587E+04  0.46999998093E+01 0. -1.
       -5    1    3    3    0  502 -0.87764414646E+03  0.98771125620E+03 -0.17575281875E+04  0.21988088124E+04  0.46999998093E+01 0.  1.
</event>
<event>
 5   0  0.5055900E-07  0.3100993E+04  0.7818609E-02  0.8215466E-01
        2   -1    0    0  501    0  0.00000000000E+00  0.00000000000E+00  0.13265683859E+04  0.13265683859E+04  0.25500000920E-02 0. -1.
       -2   -1    0    0    0  501  0.00000000000E+00  0.00000000000E+00 -0.18122236979E+04  0.18122236979E+04  0.25500000920E-02 0.  1.
    10030    2    1    2    0    0  0.00000000000E+00  0.00000000000E+00 -0.48565531195E+03  0.31387920838E+04  0.31009925287E+04 0.  0.
        2    1    3    3  502    0  0.86191019925E+03 -0.12866579625E+04 -0.31898280353E+03  0.15811792855E+04  0.25500000920E-02 0.  1.
       -2    1    3    3    0  502 -0.86191019925E+03  0.12866579625E+04 -0.16667250842E+03  0.15576127982E+04  0.25500000920E-02 0. -1.
</event>
<event>
 5   0  0.5342534E-07  0.3077698E+04  0.7818609E-02  0.8221885E-01
        2   -1    0    0  501    0  0.00000000000E+00  0.00000000000E+00  0.16281975782E+04  0.16281975782E+04  0.25500000920E-02 0. -1.
       -2   -1    0    0    0  501  0.00000000000E+00  0.00000000000E+00 -0.14544038744E+04  0.14544038744E+04  0.25500000920E-02 0.  1.
    10030    2    1    2    0    0  0.00000000000E+00  0.00000000000E+00  0.17379370375E+03  0.30826014526E+04  0.30776984037E+04 0.  0.
        3    1    3    3  502    0  0.15029606204E+04  0.22425014158E+03 -0.15613781418E+03  0.15275986972E+04  0.10100000352E+00 0. -1.
       -3    1    3    3    0  502 -0.15029606204E+04 -0.22425014158E+03  0.32993151793E+03  0.15550027554E+04  0.10100000352E+00 0.  1.
</event>
<event>
 5   0  0.1845123E-07  0.3134213E+04  0.7818609E-02  0.8206411E-01
        1   -1    0    0  501    0  0.00000000000E+00  0.00000000000E+00  0.23090560435E+04  0.23090560435E+04  0.50400001928E-02 0. -1.
       -1   -1    0    0    0  501  0.00000000000E+00  0.00000000000E+00 -0.10635616122E+04  0.10635616122E+04  0.50400001928E-02 0.  1.
    10030    2    1    2    0    0  0.00000000000E+00  0.00000000000E+00  0.12454944313E+04  0.33726176557E+04  0.31342133740E+04 0.  0.
        2    1    3    3  502    0 -0.54618704580E+03 -0.13722044291E+04  0.11865869367E+04  0.18945326185E+04  0.25500000920E-02 0.  1.
       -2    1    3    3    0  502  0.54618704580E+03  0.13722044291E+04  0.58907494588E+02  0.14780850372E+04  0.25500000920E-02 0. -1.
</event>
<event>
 5   0  0.1814075E-07  0.3097406E+04  0.7818609E-02  0.8216450E-01
        1   -1    0    0  501    0  0.00000000000E+00  0.00000000000E+00  0.19396271023E+04  0.19396271023E+04  0.50400001928E-02 0.  1.
       -1   -1    0    0    0  501  0.00000000000E+00  0.00000000000E+00 -0.12365679586E+04  0.12365679586E+04  0.50400001928E-02 0. -1.
    10030    2    1    2    0    0  0.00000000000E+00  0.00000000000E+00  0.70305914376E+03  0.31761950609E+04  0.30974058348E+04 0.  0.
        5    1    3    3  502    0  0.61785577160E+03 -0.89520920220E+02  0.18048670509E+04  0.19097976099E+04  0.46999998093E+01 0.  1.
       -5    1    3    3    0  502 -0.61785577160E+03  0.89520920220E+02 -0.11018079071E+04  0.12663974510E+04  0.46999998093E+01 0. -1.
</event>
<event>
 5   0  0.5342534E-07  0.3113314E+04  0.7818609E-02  0.8212094E-01
       -2   -1    0    0    0  501  0.00000000000E+00  0.00000000000E+00  0.83344197195E+03  0.83344197195E+03  0.25500000920E-02 0.  1.
        2   -1    0    0  501    0  0.00000000000E+00  0.00000000000E+00 -0.29074379719E+04  0.29074379719E+04  0.25500000920E-02 0. -1.
    10030    2    1    2    0    0  0.00000000000E+00  0.00000000000E+00 -0.20739960000E+04  0.37408799439E+04  0.31133138850E+04 0.  0.
        3    1    3    3  502    0  0.46439315013E+03 -0.34104566701E+03 -0.27745965472E+04  0.28337888339E+04  0.10100000352E+00 0. -1.
       -3    1    3    3    0  502 -0.46439315013E+03  0.34104566701E+03  0.70060054724E+03  0.90709111002E+03  0.10100000352E+00 0.  1.
</event>
<event>
 5   0  0.5342534E-07  0.3094214E+04  0.7818609E-02  0.8217327E-01
       -2   -1    0    0    0  501  0.00000000000E+00  0.00000000000E+00  0.10111191699E+04  0.10111191699E+04  0.25500000920E-02 0.  1.
        2   -1    0    0  501    0  0.00000000000E+00  0.00000000000E+00 -0.23672193148E+04  0.23672193148E+04  0.25500000920E-02 0. -1.
    10030    2    1    2    0    0  0.00000000000E+00  0.00000000000E+00 -0.13561001449E+04  0.33783384847E+04  0.30942144906E+04 0.  0.
        3    1    3    3  502    0 -0.12413574120E+04  0.34695289492E+02  0.32937236203E+03  0.12847794171E+04  0.10100000352E+00 0.  1.
       -3    1    3    3    0  502  0.12413574120E+04 -0.34695289492E+02 -0.16854725070E+04  0.20935590676E+04  0.10100000352E+00 0. -1.
</event>
<event>
 5   0  0.5055900E-07  0.3095397E+04  0.7818609E-02  0.8217002E-01
        2   -1    0    0  501    0  0.00000000000E+00  0.00000000000E+00  0.13541406362E+04  0.13541406362E+04  0.25500000920E-02 0.  1.
       -2   -1    0    0    0  501  0.00000000000E+00  0.00000000000E+00 -0.17689230044E+04  0.17689230044E+04  0.25500000920E-02 0. -1.
    10030    2    1    2    0    0  0.00000000000E+00  0.00000000000E+00 -0.41478236812E+03  0.31230636406E+04  0.30953969197E+04 0.  0.
        2    1    3    3  502    0 -0.10177018021E+04  0.11501198056E+04 -0.40114405793E+03  0.15872646535E+04  0.25500000920E-02 0. -1.
       -2    1    3    3    0  502  0.10177018021E+04 -0.11501198056E+04 -0.13638310189E+02  0.15357989871E+04  0.25500000920E-02 0.  1.
</event>
<event>
 5   0  0.1840359E-07  0.3107970E+04  0.7818609E-02  0.8213554E-01
       -1   -1    0    0    0  501  0.00000000000E+00  0.00000000000E+00  0.15819405161E+04  0.15819405161E+04  0.50400001928E-02 0.  1.
        1   -1    0    0  501    0  0.00000000000E+00  0.00000000000E+00 -0.15265234489E+04  0.15265234489E+04  0.50400001928E-02 0. -1.
    10030    2    1    2    0    0  0.00000000000E+00  0.00000000000E+00  0.55417067252E+02  0.31084639650E+04  0.31079699437E+04 0.  0.
        1    1    3    3  502    0  0.18741186289E+03 -0.13826367397E+04  0.71196765409E+03  0.15664308158E+04  0.50400001928E-02 0.  1.
       -1    1    3    3    0  502 -0.18741186289E+03  0.13826367397E+04 -0.65655058684E+03  0.15420331492E+04  0.50400001928E-02 0. -1.
</event>
<event>
 5   0  0.5248309E-07  0.3087209E+04  0.7818609E-02  0.8219257E-01
        2   -1    0    0  501    0  0.00000000000E+00  0.00000000000E+00  0.19579031104E+04  0.19579031104E+04  0.25500000920E-02 0. -1.
       -2   -1    0    0    0  501  0.00000000000E+00  0.00000000000E+00 -0.12169724509E+04  0.12169724509E+04  0.25500000920E-02 0.  1.
    10030    2    1    2    0    0  0.00000000000E+00  0.00000000000E+00  0.74093065948E+03  0.31748755612E+04  0.30872085429E+04 0.  0.
        4    1    3    3  502    0  0.12641905738E+04 -0.71145616789E+02 -0.53748331879E+03  0.13755469591E+04  0.12699999809E+01 0.  1.
       -4    1    3    3    0  502 -0.12641905738E+04  0.71145616789E+02  0.12784139783E+04  0.17993286021E+04  0.12699999809E+01 0. -1.
</event>
<event>
 5   0  0.5342534E-07  0.3095785E+04  0.7818609E-02  0.8216896E-01
        2   -1    0    0  501    0  0.00000000000E+00  0.00000000000E+00  0.17808095814E+04  0.17808095814E+04  0.25500000920E-02 0.  1.
       -2   -1    0    0    0  501  0.00000000000E+00  0.00000000000E+00 -0.13454395802E+04  0.13454395802E+04  0.25500000920E-02 0. -1.
    10030    2    1    2    0    0  0.00000000000E+00  0.00000000000E+00  0.43537000121E+03  0.31262491616E+04  0.30957853257E+04 0.  0.
        3    1    3    3  502    0  0.52028188081E+03 -0.23397830643E+03 -0.12354092605E+04  0.13607627032E+04  0.10100000352E+00 0. -1.
       -3    1    3    3    0  502 -0.52028188081E+03  0.23397830643E+03  0.16707792617E+04  0.17654864584E+04  0.10100000352E+00 0.  1.
</event>
<event>
 5   0  0.1845123E-07  0.3098963E+04  0.7818609E-02  0.8216022E-01
       -1   -1    0    0    0  501  0.00000000000E+00  0.00000000000E+00  0.20043108957E+04  0.20043108957E+04  0.50400001928E-02 0.  1.
        1   -1    0    0  501    0  0.00000000000E+00  0.00000000000E+00 -0.11978647547E+04  0.11978647547E+04  0.50400001928E-02 0. -1.
    10030    2    1    2    0    0  0.00000000000E+00  0.00000000000E+00  0.80644614100E+03  0.32021756504E+04  0.30989632972E+04 0.  0.
        2    1    3    3  502    0  0.44753264937E+03  0.13019241100E+04  0.11379617495E+04  0.17861267603E+04  0.25500000920E-02 0. -1.
       -2    1    3    3    0  502 -0.44753264937E+03 -0.13019241100E+04 -0.33151560853E+03  0.14160488901E+04  0.25500000920E-02 0.  1.
</event>
<event>
 5   0  0.1840359E-07  0.3087723E+04  0.7818609E-02  0.8219115E-01
        1   -1    0    0  501    0  0.00000000000E+00  0.00000000000E+00  0.25924771253E+04  0.25924771253E+04  0.50400001928E-02 0. -1.
       -1   -1    0    0    0  501  0.00000000000E+00  0.00000000000E+00 -0.91939441617E+03  0.91939441618E+03  0.50400001928E-02 0.  1.
    10030    2    1    2    0    0  0.00000000000E+00  0.00000000000E+00  0.16730827091E+04  0.35118715415E+04  0.30877234287E+04 0.  0.
        1    1    3    3  502    0 -0.77046347257E+02 -0.11767215967E+04 -0.29677927788E+03  0.12160130738E+04  0.50400001928E-02 0.  1.
       -1    1    3    3    0  502  0.77046347257E+02  0.11767215967E+04  0.19698619870E+04  0.22958584677E+04  0.50400001928E-02 0. -1.
</event>
<event>
 5   0  0.5154105E-07  0.3099315E+04  0.7818609E-02  0.8215926E-01
       -2   -1    0    0    0  501  0.00000000000E+00  0.00000000000E+00  0.16787373748E+04  0.16787373748E+04  0.25500000920E-02 0. -1.
        2   -1    0    0  501    0  0.00000000000E+00  0.00000000000E+00 -0.14305024856E+04  0.14305024856E+04  0.25500000920E-02 0.  1.
    10030    2    1    2    0    0  0.00000000000E+00  0.00000000000E+00  0.24823488925E+03  0.31092398604E+04  0.30993147548E+04 0.  0.
        1    1    3    3  502    0  0.83003678194E+03  0.78302101578E+03  0.11759764373E+04  0.16385980445E+04  0.50400001928E-02 0. -1.
       -1    1    3    3    0  502 -0.83003678194E+03 -0.78302101578E+03 -0.92774154803E+03  0.14706418158E+04  0.50400001928E-02 0.  1.
</event>
<event>
 5   0  0.1814075E-07  0.3125726E+04  0.7818609E-02  0.8208713E-01
       -1   -1    0    0    0  501  0.00000000000E+00  0.00000000000E+00  0.16787331488E+04  0.16787331488E+04  0.50400001928E-02 0. -1.
        1   -1    0    0  501    0  0.00000000000E+00  0.00000000000E+00 -0.14549904910E+04  0.14549904910E+04  0.50400001928E-02 0.  1.
    10030    2    1    2    0    0  0.00000000000E+00  0.00000000000E+00  0.22374265781E+03  0.31337236398E+04  0.31257260074E+04 0.  0.
        5    1    3    3  502    0  0.98563787714E+03  0.12082906594E+04  0.21735620305E+03  0.15743932645E+04  0.46999998093E+01 0. -1.
       -5    1    3    3    0  502 -0.98563787714E+03 -0.12082906594E+04  0.63864547630E+01  0.15593303752E+04  0.46999998093E+01 0.  1.
</event>
<event>
 5   0  0.1840359E-07  0.3084754E+04  0.7818609E-02  0.8219935E-01
       -1   -1    0    0    0  501  0.00000000000E+00  0.00000000000E+00  0.10902601226E+04  0.10902601226E+04  0.50400001928E-02 0.  1.
        1   -1    0    0  501    0  0.00000000000E+00  0.00000000000E+00 -0.21819809594E+04  0.21819809594E+04  0.50400001928E-02 0. -1.
    10030    2    1    2    0    0  0.00000000000E+00  0.00000000000E+00 -0.10917208368E+04  0.32722410820E+04  0.30847540117E+04 0.  0.
        1    1    3    3  502    0  0.69525124490E+03  0.69247491293E+03  0.71643539021E+03  0.12149796159E+04  0.50400001928E-02 0.  1.
       -1    1    3    3    0  502 -0.69525124490E+03 -0.69247491293E+03 -0.18081562270E+04  0.20572614661E+04  0.50400001928E-02 0. -1.
</event>
<event>
 5   0  0.5342534E-07  0.3104608E+04  0.7818609E-02  0.8214474E-01
       -2   -1    0    0    0  501  0.00000000000E+00  0.00000000000E+00  0.15783726371E+04  0.15783726371E+04  0.25500000920E-02 0. -1.
        2   -1    0    0  501    0  0.00000000000E+00  0.00000000000E+00 -0.15266660521E+04  0.15266660521E+04  0.25500000920E-02 0.  1.
    10030    2    1    2    0    0  0.00000000000E+00  0.00000000000E+00  0.51706585026E+02  0.31050386892E+04  0.31046081380E+04 0.  0.
        3    1    3    3  502    0 -0.30467809562E+03  0.75609991304E+03 -0.12953643883E+04  0.15305177977E+04  0.10100000352E+00 0.  1.
       -3    1    3    3    0  502  0.30467809562E+03 -0.75609991304E+03  0.13470709733E+04  0.15745208915E+04  0.10100000352E+00 0. -1.
</event>
<event>
 5   0  0.1840359E-07  0.3100962E+04  0.7818609E-02  0.8215474E-01
       -1   -1    0    0    0  501  0.00000000000E+00  0.00000000000E+00  0.13082320751E+04  0.13082320751E+04  0.50400001928E-02 0. -1.
        1   -1    0    0  501    0  0.00000000000E+00  0.00000000000E+00 -0.18375878996E+04  0.18375878996E+04  0.50400001928E-02 0.  1.
    10030    2    1    2    0    0  0.00000000000E+00  0.00000000000E+00 -0.52935582442E+03  0.31458199747E+04  0.31009620643E+04 0.  0.
        1    1    3    3  502    0 -0.89767674470E+03  0.57218344068E+03  0.87891531134E+03  0.13804743939E+04  0.50400001928E-02 0. -1.
       -1    1    3    3    0  502  0.89767674470E+03 -0.57218344068E+03 -0.14082711358E+04  0.17653455808E+04  0.50400001928E-02 0.  1.
</event>
<event>
 5   0  0.1840359E-07  0.3086870E+04  0.7818609E-02  0.8219351E-01
        1   -1    0    0  501    0  0.00000000000E+00  0.00000000000E+00  0.16542083751E+04  0.16542083751E+04  0.50400001928E-02 0.  1.
       -1   -1    0    0    0  501  0.00000000000E+00  0.00000000000E+00 -0.14400793974E+04  0.14400793974E+04  0.50400001928E-02 0. -1.
    10030    2    1    2    0    0  0.00000000000E+00  0.00000000000E+00  0.21412897775E+03  0.30942877725E+04  0.30868698709E+04 0.  0.
        1    1    3    3  502    0 -0.46558044011E+03 -0.74462992405E+03  0.13793475668E+04  0.16351876284E+04  0.50400001928E-02 0.  1.
       -1    1    3    3    0  502  0.46558044011E+03  0.74462992405E+03 -0.11652185891E+04  0.14591001440E+04  0.50400001928E-02 0. -1.
</event>
<event>
 5   0  0.1845123E-07  0.3104505E+04  0.7818609E-02  0.8214503E-01
       -1   -1    0    0    0  501  0.00000000000E+00  0.00000000000E+00  0.26033371726E+04  0.26033371726E+04  0.50400001928E-02 0. -1.
        1   -1    0    0  501    0  0.00000000000E+00  0.00000000000E+00 -0.92553819247E+03  0.92553819248E+03  0.50400001928E-02 0.  1.
    10030    2    1    2    0    0  0.00000000000E+00  0.00000000000E+00  0.16777989801E+04  0.35288753650E+04  0.31045051014E+04 0.  0.
        2    1    3    3  502    0  0.32052021322E+03  0.10101268156E+04  0.21281333997E+04  0.23774021868E+04  0.25500000920E-02 0. -1.
       -2    1    3    3    0  502 -0.32052021322E+03 -0.10101268156E+04 -0.45033441963E+03  0.11514731783E+04  0.25500000920E-02 0.  1.
</event>
<event>
 5   0  0.5154105E-07  0.3098546E+04  0.7818609E-02  0.8216137E-01
       -2   -1    0    0    0  501  0.00000000000E+00  0.00000000000E+00  0.31100682177E+04  0.31100682177E+04  0.25500000920E-02 0. -1.
        2   -1    0    0  501    0  0.00000000000E+00  0.00000000000E+00 -0.77176684191E+03  0.77176684192E+03  0.25500000920E-02 0.  1.
    10030    2    1    2    0    0  0.00000000000E+00  0.00000000000E+00  0.23383013758E+04  0.38818350596E+04  0.30985464505E+04 0.  0.
        1    1    3    3  502    0 -0.12000982262E+04  0.85578086005E+03  0.57140872311E+03  0.15808556423E+04  0.50400001928E-02 0.  1.
       -1    1    3    3    0  502  0.12000982262E+04 -0.85578086005E+03  0.17668926527E+04  0.23009794173E+04  0.50400001928E-02 0. -1.
</event>
<event>
 5   0  0.1727000E-07  0.3082464E+04  0.7818609E-02  0.8220567E-01
       -3   -1    0    0    0  501  0.00000000000E+00  0.00000000000E+00  0.20111477443E+04  0.20111477469E+04  0.10100000352E+00 0. -1.
        3   -1    0    0  501    0  0.00000000000E+00  0.00000000000E+00 -0.11811147374E+04  0.11811147417E+04  0.10100000352E+00 0.  1.
    10030    2    1    2    0    0  0.00000000000E+00  0.00000000000E+00  0.83003300695E+03  0.31922624885E+04  0.30824641122E+04 0.  0.
        2    1    3    3  502    0  0.78169792597E+03  0.12721967220E+04  0.81053684584E+03  0.16989720790E+04  0.25500000920E-02 0. -1.
       -2    1    3    3    0  502 -0.78169792597E+03 -0.12721967220E+04  0.19496161114E+02  0.14932904095E+04  0.25500000920E-02 0.  1.
</event>
<event>
 5   0  0.5342534E-07  0.3097737E+04  0.7818609E-02  0.8216359E-01
       -2   -1    0    0    0  501  0.00000000000E+00  0.00000000000E+00  0.13566927855E+04  0.13566927855E+04  0.25500000920E-02 0. -1.
        2   -1    0    0  501    0  0.00000000000E+00  0.00000000000E+00 -0.17682657058E+04  0.17682657058E+04  0.25500000920E-02 0.  1.
    10030    2    1    2    0    0  0.00000000000E+00  0.00000000000E+00 -0.41157292023E+03  0.31249584913E+04  0.30977368035E+04 0.  0.
        3    1    3    3  502    0  0.41706875451E+03 -0.69782929899E+03 -0.15357348052E+04  0.17376402040E+04  0.10100000352E+00 0.  1.
       -3    1    3    3    0  502 -0.41706875451E+03  0.69782929899E+03  0.11241618850E+04  0.13873182873E+04  0.10100000352E+00 0. -1.
</event>
<event>
 5   0  0.5055900E-07  0.3106954E+04  0.7818609E-02  0.8213832E-01
        2   -1    0    0  501    0  0.00000000000E+00  0.00000000000E+00  0.23347522183E+04  0.23347522183E+04  0.25500000920E-02 0. -1.
       -2   -1    0    0    0  501  0.00000000000E+00  0.00000000000E+00 -0.10336389028E+04  0.10336389028E+04  0.25500000920E-02 0.  1.
    10030    2    1    2    0    0  0.00000000000E+00  0.00000000000E+00  0.13011133155E+04  0.33683911211E+04  0.31069539560E+04 0.  0.
        2    1    3    3  502    0 -0.12634682757E+04 -0.89883064563E+03  0.54746523343E+03  0.16443742868E+04  0.25500000920E-02 0.  1.
       -2    1    3    3    0  502  0.12634682757E+04  0.89883064563E+03  0.75364808210E+03  0.17240168343E+04  0.25500000920E-02 0. -1.
</event>
<event>
 5   0  0.5248309E-07  0.3101676E+04  0.7818609E-02  0.8215278E-01
        2   -1    0    0  501    0  0.00000000000E+00  0.00000000000E+00  0.10295007592E+04  0.10295007592E+04  0.25500000920E-02 0.  1.
       -2   -1    0    0    0  501  0.00000000000E+00  0.00000000000E+00 -0.23361789567E+04  0.23361789567E+04  0.25500000920E-02 0. -1.
    10030    2    1    2    0    0  0.00000000000E+00  0.00000000000E+00 -0.13066781975E+04  0.33656797159E+04  0.31016756823E+04 0.  0.
        4    1    3    3  502    0 -0.89140375768E+03 -0.74664899865E+03  0.46016765712E+03  0.12505363937E+04  0.12699999809E+01 0.  1.
       -4    1    3    3    0  502  0.89140375768E+03  0.74664899865E+03 -0.17668458546E+04  0.21151433222E+04  0.12699999809E+01 0. -1.
</event>
<event>
 5   0  0.5342534E-07  0.3102026E+04  0.7818609E-02  0.8215182E-01
       -2   -1    0    0    0  501  0.00000000000E+00  0.00000000000E+00  0.14438219658E+04  0.14438219658E+04  0.25500000920E-02 0. -1.
        2   -1    0    0  501    0  0.00000000000E+00  0.00000000000E+00 -0.16661615548E+04  0.16661615548E+04  0.25500000920E-02 0.  1.
    10030    2    1    2    0    0  0.00000000000E+00  0.00000000000E+00 -0.22233958897E+03  0.31099835206E+04  0.31020255650E+04 0.  0.
        3    1    3    3  502    0  0.52886612536E+03  0.44528114607E+03  0.12807961328E+04  0.14554770426E+04  0.10100000352E+00 0. -1.
       -3    1    3    3    0  502 -0.52886612536E+03 -0.44528114607E+03 -0.15031357218E+04  0.16545064780E+04  0.10100000352E+00 0.  1.
</event>
<event>
 5   0  0.1840359E-07  0.3102568E+04  0.7818609E-02  0.8215033E-01
       -1   -1    0    0    0  501  0.00000000000E+00  0.00000000000E+00  0.14979755151E+04  0.14979755151E+04  0.50400001928E-02 0. -1.
        1   -1    0    0  501    0  0.00000000000E+00  0.00000000000E+00 -0.16064900583E+04  0.16064900583E+04  0.50400001928E-02 0.  1.
    10030    2    1    2    0    0  0.00000000000E+00  0.00000000000E+00 -0.10851454326E+03  0.31044655734E+04  0.31025684667E+04 0.  0.
        1    1    3    3  502    0 -0.51103279057E+03  0.10639174633E+04 -0.10615544438E+04  0.15874421939E+04  0.50400001928E-02 0.  1.
       -1    1    3    3    0  502  0.51103279057E+03 -0.10639174633E+04  0.95303990059E+03  0.15170233795E+04  0.50400001928E-02 0. -1.
</event>
<event>
 5   0  0.1814075E-07  0.3098340E+04  0.7818609E-02  0.8216194E-01
        1   -1    0    0  501    0  0.00000000000E+00  0.00000000000E+00  0.16667044112E+04  0.16667044112E+04  0.50400001928E-02 0.  1.
       -1   -1    0    0    0  501  0.00000000000E+00  0.00000000000E+00 -0.14399241506E+04  0.14399241506E+04  0.50400001928E-02 0. -1.
    10030    2    1    2    0    0  0.00000000000E+00  0.00000000000E+00  0.22678026061E+03  0.31066285619E+04  0.30983401580E+04 0.  0.
        5    1    3    3  502    0  0.80739963693E+03 -0.10135748368E+04 -0.73780823870E+03  0.14911777931E+04  0.46999998093E+01 0. -1.
       -5    1    3    3    0  502 -0.80739963693E+03  0.10135748368E+04  0.96458849931E+03  0.16154507688E+04  0.46999998093E+01 0.  1.
</event>
<event>
 5   0  0.1727000E-07  0.3102949E+04  0.7818609E-02  0.8214929E-01
       -3   -1    0    0    0  501  0.00000000000E+00  0.00000000000E+00  0.20042642157E+04  0.20042642183E+04  0.10100000352E+00 0.  1.
        3   -1    0    0  501    0  0.00000000000E+00  0.00000000000E+00 -0.12009761255E+04  0.12009761297E+04  0.10100000352E+00 0. -1.
    10030    2    1    2    0    0  0.00000000000E+00  0.00000000000E+00  0.80328809024E+03  0.32052403480E+04  0.31029492314E+04 0.  0.
        3    1    3    3  502    0  0.12533493520E+04  0.84939767849E+03  0.51786515753E+02  0.15149398892E+04  0.10100000352E+00 0. -1.
       -3    1    3    3    0  502 -0.12533493520E+04 -0.84939767849E+03  0.75150157449E+03  0.16903004588E+04  0.10100000352E+00 0.  1.
</event>
<event>
 5   0  0.5248309E-07  0.3086995E+04  0.7818609E-02  0.8219316E-01
        2   -1    0    0  501    0  0.00000000000E+00  0.00000000000E+00  0.15804235950E+04  0.15804235950E+04  0.25500000920E-02 0. -1.
       -2   -1    0    0    0  501  0.00000000000E+00  0.00000000000E+00 -0.15074339641E+04  0.15074339641E+04  0.25500000920E-02 0.  1.
    10030    2    1    2    0    0  0.00000000000E+00  0.00000000000E+00  0.72989630917E+02  0.30878575591E+04  0.30869947877E+04 0.  0.
        4    1    3    3  502    0 -0.11467680226E+04 -0.61151306895E+03  0.86940842565E+03  0.15636168823E+04  0.12699999809E+01 0. -1.
       -4    1    3    3    0  502  0.11467680226E+04  0.61151306895E+03 -0.79641879473E+03  0.15242406768E+04  0.12699999809E+01 0.  1.
</event>
<event>
 5   0  0.5055900E-07  0.3098866E+04  0.7818609E-02  0.8216049E-01
        2   -1    0    0  501    0  0.00000000000E+00  0.00000000000E+00  0.29032146027E+04  0.29032146027E+04  0.25500000920E-02 0. -1.
       -2   -1    0    0    0  501  0.00000000000E+00  0.00000000000E+00 -0.82692568271E+03  0.82692568271E+03  0.25500000920E-02 0.  1.
    10030    2    1    2    0    0  0.00000000000E+00  0.00000000000E+00  0.20762889200E+04  0.37301402854E+04  0.30988660619E+04 0.  0.
        2    1    3    3  502    0 -0.15137080098E+04 -0.12665483620E+03  0.67029426399E+03  0.16603155684E+04  0.25500000920E-02 0. -1.
       -2    1    3    3    0  502  0.15137080098E+04  0.12665483620E+03  0.14059946560E+04  0.20698247170E+04  0.25500000920E-02 0.  1.
</event>
<event>
 5   0  0.1845123E-07  0.3096782E+04  0.7818609E-02  0.8216622E-01
       -1   -1    0    0    0  501  0.00000000000E+00  0.00000000000E+00  0.11505532751E+04  0.11505532751E+04  0.50400001928E-02 0.  1.
        1   -1    0    0  501    0  0.00000000000E+00  0.00000000000E+00 -0.20837923565E+04  0.20837923565E+04  0.50400001928E-02 0. -1.
    10030    2    1    2    0    0  0.00000000000E+00  0.00000000000E+00 -0.93323908145E+03  0.32343456317E+04  0.30967816329E+04 0.  0.
        2    1    3    3  502    0 -0.11540240476E+04 -0.81956564005E+02 -0.15414231184E+04  0.19272969701E+04  0.25500000920E-02 0. -1.
       -2    1    3    3    0  502  0.11540240476E+04  0.81956564005E+02  0.60818403699E+03  0.13070486616E+04  0.25500000920E-02 0.  1.
</event>
<event>
 5   0  0.1727000E-07  0.3095046E+04  0.7818609E-02  0.8217099E-01
        4   -1    0    0  501    0  0.00000000000E+00  0.00000000000E+00  0.10537493768E+04  0.10537501422E+04  0.12699999809E+01 0.  1.
       -4   -1    0    0    0  501  0.00000000000E+00  0.00000000000E+00 -0.22726704771E+04  0.22726708319E+04  0.12699999809E+01 0. -1.
    10030    2    1    2    0    0  0.00000000000E+00  0.00000000000E+00 -0.12189211002E+04  0.33264209740E+04  0.30950456940E+04 0.  0.
        5    1    3    3  502    0  0.10369797798E+04 -0.87448353578E+03  0.19103936046E+03  0.13698783323E+04  0.46999998093E+01 0.  1.
       -5    1    3    3    0  502 -0.10369797798E+04  0.87448353578E+03 -0.14099604607E+04  0.19565426417E+04  0.46999998093E+01 0. -1.
</event>
<event>
 5   0  0.5154105E-07  0.3096421E+04  0.7818609E-02  0.8216721E-01
       -2   -1    0    0    0  501  0.00000000000E+00  0.00000000000E+00  0.13547998341E+04  0.13547998341E+04  0.25500000920E-02 0. -1.
        2   -1    0    0  501    0  0.00000000000E+00  0.00000000000E+00 -0.17692327581E+04  0.17692327581E+04  0.25500000920E-02 0.  1.
    10030    2    1    2    0    0  0.00000000000E+00  0.00000000000E+00 -0.41443292396E+03  0.31240325922E+04  0.30964213196E+04 0.  0.
        1    1    3    3  502    0 -0.32861268045E+03  0.59836621104E+03  0.11947529171E+04  0.13760315946E+04  0.50400001928E-02 0. -1.
       -1    1    3    3    0  502  0.32861268045E+03 -0.59836621104E+03 -0.16091858411E+04  0.17480009976E+04  0.50400001928E-02 0.  1.
</event>
<event>
 5   0  0.1840359E-07  0.3127663E+04  0.7818609E-02  0.8208187E-01
        1   -1    0    0  501    0  0.00000000000E+00  0.00000000000E+00  0.17894642162E+04  0.17894642163E+04  0.50400001928E-02 0.  1.
       -1   -1    0    0    0  501  0.00000000000E+00  0.00000000000E+00 -0.13666485465E+04  0.13666485466E+04  0.50400001928E-02 0. -1.
    10030    2    1    2    0    0  0.00000000000E+00  0.00000000000E+00  0.42281566971E+03  0.31561127628E+04  0.31276628145E+04 0.  0.
        1    1    3    3  502    0  0.12919225810E+04 -0.80139657195E+03 -0.15835158617E+03  0.15285207377E+04  0.50400001928E-02 0.  1.
       -1    1    3    3    0  502 -0.12919225810E+04  0.80139657195E+03  0.58116725588E+03  0.16275920251E+04  0.50400001928E-02 0. -1.
</event>
<event>
 5   0  0.1814075E-07  0.3103383E+04  0.7818609E-02  0.8214810E-01
        1   -1    0    0  501    0  0.00000000000E+00  0.00000000000E+00  0.88773736088E+03  0.88773736090E+03  0.50400001928E-02 0.  1.
       -1   -1    0    0    0  501  0.00000000000E+00  0.00000000000E+00 -0.27122291239E+04  0.27122291239E+04  0.50400001928E-02 0. -1.
    10030    2    1    2    0    0  0.00000000000E+00  0.00000000000E+00 -0.18244917630E+04  0.35999664848E+04  0.31033833953E+04 0.  0.
        5    1    3    3  502    0 -0.60494826262E+03 -0.27113731294E+03  0.71518609774E+03  0.97518771901E+03  0.46999998093E+01 0.  1.
       -5    1    3    3    0  502  0.60494826262E+03  0.27113731294E+03 -0.25396778607E+04  0.26247787658E+04  0.46999998093E+01 0. -1.
</event>
<event>
 5   0  0.1840359E-07  0.3100654E+04  0.7818609E-02  0.8215558E-01
        1   -1    0    0  501    0  0.00000000000E+00  0.00000000000E+00  0.11486911799E+04  0.11486911799E+04  0.50400001928E-02 0.  1.
       -1   -1    0    0    0  501  0.00000000000E+00  0.00000000000E+00 -0.20923934006E+04  0.20923934006E+04  0.50400001928E-02 0. -1.
    10030    2    1    2    0    0  0.00000000000E+00  0.00000000000E+00 -0.94370222069E+03  0.32410845806E+04  0.31006540241E+04 0.  0.
        1    1    3    3  502    0 -0.14254577981E+02  0.12651087399E+04 -0.14084283175E+04  0.18932442110E+04  0.50400001928E-02 0. -1.
       -1    1    3    3    0  502  0.14254577981E+02 -0.12651087399E+04  0.46472609681E+03  0.13478403696E+04  0.50400001928E-02 0.  1.
</event>
<event>
 5   0  0.1830902E-07  0.3098399E+04  0.7818609E-02  0.8216177E-01
        1   -1    0    0  501    0  0.00000000000E+00  0.00000000000E+00  0.16525052363E+04  0.16525052363E+04  0.50400001928E-02 0.  1.
       -1   -1    0    0    0  501  0.00000000000E+00  0.00000000000E+00 -0.14523519560E+04  0.14523519560E+04  0.50400001928E-02 0. -1.
    10030    2    1    2    0    0  0.00000000000E+00  0.00000000000E+00  0.20015328035E+03  0.31048571923E+04  0.30983990784E+04 0.  0.
        3    1    3    3  502    0 -0.11783040865E+04 -0.38079642359E+03  0.10329373801E+04  0.16125650616E+04  0.10100000352E+00 0.  1.
       -3    1    3    3    0  502  0.11783040865E+04  0.38079642359E+03 -0.83278409970E+03  0.14922921307E+04  0.10100000352E+00 0. -1.
</event>
<event>
 5   0  0.5154105E-07  0.3091982E+04  0.7818609E-02  0.8217942E-01
        2   -1    0    0  501    0  0.00000000000E+00  0.00000000000E+00  0.21485625970E+04  0.21485625970E+04  0.25500000920E-02 0.  1.
       -2   -1    0    0    0  501  0.00000000000E+00  0.00000000000E+00 -0.11124127720E+04  0.11124127720E+04  0.25500000920E-02 0. -1.
    10030    2    1    2    0    0  0.00000000000E+00  0.00000000000E+00  0.10361498250E+04  0.32609753690E+04  0.30919821955E+04 0.  0.
        1    1    3    3  502    0 -0.12209747811E+04 -0.93615072398E+03  0.67778078875E+03  0.16812329975E+04  0.50400001928E-02 0.  1.
       -1    1    3    3    0  502  0.12209747811E+04  0.93615072398E+03  0.35836903621E+03  0.15797423715E+04  0.50400001928E-02 0. -1.
</event>
<event>
 5   0  0.5154105E-07  0.3097335E+04  0.7818609E-02  0.8216470E-01
        2   -1    0    0  501    0  0.00000000000E+00  0.00000000000E+00  0.16152075747E+04  0.16152075747E+04  0.25500000920E-02 0. -1.
       -2   -1    0    0    0  501  0.00000000000E+00  0.00000000000E+00 -0.14848687550E+04  0.14848687550E+04  0.25500000920E-02 0.  1.
    10030    2    1    2    0    0  0.00000000000E+00  0.00000000000E+00  0.13033881965E+03  0.31000763297E+04  0.30973351518E+04 0.  0.
        1    1    3    3  502    0 -0.48703859279E+02 -0.13987973235E+04  0.72860235537E+03  0.15779313707E+04  0.50400001928E-02 0. -1.
       -1    1    3    3    0  502  0.48703859279E+02  0.13987973235E+04 -0.59826353572E+03  0.15221449591E+04  0.50400001928E-02 0.  1.
</event>
<event>
 5   0  0.1727000E-07  0.3105772E+04  0.7818609E-02  0.8214156E-01
        3   -1    0    0  501    0  0.00000000000E+00  0.00000000000E+00  0.11591742133E+04  0.11591742177E+04  0.10100000352E+00 0. -1.
       -3   -1    0    0    0  501  0.00000000000E+00  0.00000000000E+00 -0.20803215700E+04  0.20803215725E+04  0.10100000352E+00 0.  1.
    10030    2    1    2    0    0  0.00000000000E+00  0.00000000000E+00 -0.92114735676E+03  0.32394957902E+04  0.31057721297E+04 0.  0.
        4    1    3    3  502    0  0.73196996869E+03  0.63444073984E+03 -0.17265703362E+04  0.19797327664E+04  0.12699999809E+01 0.  1.
       -4    1    3    3    0  502 -0.73196996869E+03 -0.63444073984E+03  0.80542297945E+03  0.12597630238E+04  0.12699999809E+01 0. -1.
</event>
<event>
 5   0  0.5248309E-07  0.3100881E+04  0.7818609E-02  0.8215496E-01
       -2   -1    0    0    0  501  0.00000000000E+00  0.00000000000E+00  0.98124354964E+03  0.98124354964E+03  0.25500000920E-02 0. -1.
        2   -1    0    0  501    0  0.00000000000E+00  0.00000000000E+00 -0.24498151712E+04  0.24498151712E+04  0.25500000920E-02 0.  1.
    10030    2    1    2    0    0  0.00000000000E+00  0.00000000000E+00 -0.14685716215E+04  0.34310587208E+04  0.31008807359E+04 0.  0.
        4    1    3    3  502    0  0.91603496457E+03  0.80579548149E+03 -0.17929479740E+04  0.21686609843E+04  0.12699999809E+01 0.  1.
       -4    1    3    3    0  502 -0.91603496457E+03 -0.80579548149E+03  0.32437635247E+03  0.12623977365E+04  0.12699999809E+01 0. -1.
</event>
<event>
 5   0  0.1845123E-07  0.3099788E+04  0.7818609E-02  0.8215796E-01
        1   -1    0    0  501    0  0.00000000000E+00  0.00000000000E+00  0.18876057711E+04  0.18876057711E+04  0.50400001928E-02 0.  1.
       -1   -1    0    0    0  501  0.00000000000E+00  0.00000000000E+00 -0.12726021801E+04  0.12726021801E+04  0.50400001928E-02 0. -1.
    10030    2    1    2    0    0  0.00000000000E+00  0.00000000000E+00  0.61500359101E+03  0.31602079513E+04  0.30997878764E+04 0.  0.
        2    1    3    3  502    0  0.16515168054E+03  0.49611721805E+03 -0.11799655115E+04  0.12906300709E+04  0.25500000920E-02 0. -1.
       -2    1    3    3    0  502 -0.16515168054E+03 -0.49611721805E+03  0.17949691025E+04  0.18695778803E+04  0.25500000920E-02 0.  1.
</event>
<event>
 5   0  0.5376678E-07  0.3120939E+04  0.7818609E-02  0.8210015E-01
        2   -1    0    0  501    0  0.00000000000E+00  0.00000000000E+00  0.16115856509E+04  0.16115856509E+04  0.25500000920E-02 0.  1.
       -2   -1    0    0    0  501  0.00000000000E+00  0.00000000000E+00 -0.15109744627E+04  0.15109744627E+04  0.25500000920E-02 0. -1.
    10030    2    1    2    0    0  0.00000000000E+00  0.00000000000E+00  0.10061118821E+03  0.31225601136E+04  0.31209388094E+04 0.  0.
        5    1    3    3  502    0  0.33904277656E+03  0.13683835958E+04  0.71969650664E+03  0.15828483254E+04  0.46999998093E+01 0.  1.
       -5    1    3    3    0  502 -0.33904277656E+03 -0.13683835958E+04 -0.61908531843E+03  0.15397117883E+04  0.46999998093E+01 0. -1.
</event>
<event>
 5   0  0.5376678E-07  0.3095871E+04  0.7818609E-02  0.8216872E-01
       -2   -1    0    0    0  501  0.00000000000E+00  0.00000000000E+00  0.10374257775E+04  0.10374257775E+04  0.25500000920E-02 0. -1.
        2   -1    0    0  501    0  0.00000000000E+00  0.00000000000E+00 -0.23096635770E+04  0.23096635770E+04  0.25500000920E-02 0.  1.
    10030    2    1    2    0    0  0.00000000000E+00  0.00000000000E+00 -0.12722377996E+04  0.33470893545E+04  0.30958711421E+04 0.  0.
        5    1    3    3  502    0  0.13758100694E+04  0.50689256599E+03 -0.99572904846E+02  0.14696020801E+04  0.46999998093E+01 0. -1.
       -5    1    3    3    0  502 -0.13758100694E+04 -0.50689256599E+03 -0.11726648947E+04  0.18774872744E+04  0.46999998093E+01 0.  1.
</event>
<event>
 5   0  0.5342534E-07  0.3098689E+04  0.7818609E-02  0.8216098E-01
        2   -1    0    0  501    0  0.00000000000E+00  0.00000000000E+00  0.25999052535E+04  0.25999052535E+04  0.25500000920E-02 0. -1.
       -2   -1    0    0    0  501  0.00000000000E+00  0.00000000000E+00 -0.92329066100E+03  0.92329066100E+03  0.25500000920E-02 0.  1.
    10030    2    1    2    0    0  0.00000000000E+00  0.00000000000E+00  0.16766145925E+04  0.35231959145E+04  0.30986889099E+04 0.  0.
        3    1    3    3  502    0  0.24774680965E+03  0.13011677569E+03 -0.89431870371E+03  0.93707780414E+03  0.10100000352E+00 0.  1.
       -3    1    3    3    0  502 -0.24774680965E+03 -0.13011677569E+03  0.25709332962E+04  0.25861181104E+04  0.10100000352E+00 0. -1.
</event>
<event>
 5   0  0.5376678E-07  0.3076576E+04  0.7818609E-02  0.8222196E-01
       -2   -1    0    0    0  501  0.00000000000E+00  0.00000000000E+00  0.13966573534E+04  0.13966573534E+04  0.25500000920E-02 0.  1.
        2   -1    0    0  501    0  0.00000000000E+00  0.00000000000E+00 -0.16942804836E+04  0.16942804836E+04  0.25500000920E-02 0. -1.
    10030    2    1    2    0    0  0.00000000000E+00  0.00000000000E+00 -0.29762313029E+03  0.30909378370E+04  0.30765755613E+04 0.  0.
        5    1    3    3  502    0  0.44425439070E+03  0.49203968040E+03  0.12457759056E+04  0.14111855681E+04  0.46999998093E+01 0.  1.
       -5    1    3    3    0  502 -0.44425439070E+03 -0.49203968040E+03 -0.15433990359E+04  0.16797522689E+04  0.46999998093E+01 0. -1.
</event>
<event>
 5   0  0.5055900E-07  0.3105145E+04  0.7818609E-02  0.8214327E-01
        2   -1    0    0  501    0  0.00000000000E+00  0.00000000000E+00  0.17374425320E+04  0.17374425320E+04  0.25500000920E-02 0. -1.
       -2   -1    0    0    0  501  0.00000000000E+00  0.00000000000E+00 -0.13873734286E+04  0.13873734286E+04  0.25500000920E-02 0.  1.
    10030    2    1    2    0    0  0.00000000000E+00  0.00000000000E+00  0.35006910337E+03  0.31248159606E+04  0.31051451513E+04 0.  0.
        2    1    3    3  502    0 -0.13714428768E+04 -0.58888286844E+03 -0.25527572079E+03  0.15142008752E+04  0.25500000920E-02 0.  1.
       -2    1    3    3    0  502  0.13714428768E+04  0.58888286844E+03  0.60534482416E+03  0.16106150853E+04  0.25500000920E-02 0. -1.
</event>
<event>
 5   0  0.5376678E-07  0.3098804E+04  0.7818609E-02  0.8216066E-01
       -2   -1    0    0    0  501  0.00000000000E+00  0.00000000000E+00  0.85362720515E+03  0.85362720516E+03  0.25500000920E-02 0.  1.
        2   -1    0    0  501    0  0.00000000000E+00  0.00000000000E+00 -0.28122893507E+04  0.28122893507E+04  0.25500000920E-02 0. -1.
    10030    2    1    2    0    0  0.00000000000E+00  0.00000000000E+00 -0.19586621455E+04  0.36659165558E+04  0.30988040909E+04 0.  0.
        5    1    3    3  502    0 -0.53130680224E+03  0.14151558734E+04 -0.13816789567E+04  0.20479286837E+04  0.46999998093E+01 0. -1.
       -5    1    3    3    0  502  0.53130680224E+03 -0.14151558734E+04 -0.57698318883E+03  0.16179878721E+04  0.46999998093E+01 0.  1.
</event>
<event>
 5   0  0.5055900E-07  0.3052577E+04  0.7818609E-02  0.8228875E-01
       -2   -1    0    0    0  501  0.00000000000E+00  0.00000000000E+00  0.14789006491E+04  0.14789006491E+04  0.25500000920E-02 0. -1.
        2   -1    0    0  501    0  0.00000000000E+00  0.00000000000E+00 -0.15751949486E+04  0.15751949486E+04  0.25500000920E-02 0.  1.
    10030    2    1    2    0    0  0.00000000000E+00  0.00000000000E+00 -0.96294299523E+02  0.30540955977E+04  0.30525771616E+04 0.  0.
        2    1    3    3  502    0  0.59951131727E+03  0.72224861281E+03 -0.12522822583E+04  0.15650136526E+04  0.25500000920E-02 0.  1.
       -2    1    3    3    0  502 -0.59951131727E+03 -0.72224861281E+03  0.11559879588E+04  0.14890819451E+04  0.25500000920E-02 0. -1.
</event>
<event>
 5   0  0.5248309E-07  0.3124206E+04  0.7818609E-02  0.8209126E-01
        2   -1    0    0  501    0  0.00000000000E+00  0.00000000000E+00  0.24541693248E+04  0.24541693248E+04  0.25500000920E-02 0.  1.
       -2   -1    0    0    0  501  0.00000000000E+00  0.00000000000E+00 -0.99429367624E+03  0.99429367625E+03  0.25500000920E-02 0. -1.
    10030    2    1    2    0    0  0.00000000000E+00  0.00000000000E+00  0.14598756486E+04  0.34484630011E+04  0.31242055247E+04 0.  0.
        4    1    3    3  502    0 -0.65431433826E+03  0.20556467426E+03  0.22790924337E+04  0.23800521051E+04  0.12699999809E+01 0.  1.
       -4    1    3    3    0  502  0.65431433826E+03 -0.20556467426E+03 -0.81921678518E+03  0.10684108959E+04  0.12699999809E+01 0. -1.
</event>
<event>
 5   0  0.5154105E-07  0.3099286E+04  0.7818609E-02  0.8215934E-01
       -2   -1    0    0    0  501  0.00000000000E+00  0.00000000000E+00  0.10548785346E+04  0.10548785346E+04  0.25500000920E-02 0.  1.
        2   -1    0    0  501    0  0.00000000000E+00  0.00000000000E+00 -0.22764650380E+04  0.22764650380E+04  0.25500000920E-02 0. -1.
    10030    2    1    2    0    0  0.00000000000E+00  0.00000000000E+00 -0.12215865034E+04  0.33313435726E+04  0.30992864362E+04 0.  0.
        1    1    3    3  502    0 -0.12120571639E+04 -0.93232617651E+03 -0.34083189133E+03  0.15666783480E+04  0.50400001928E-02 0.  1.
       -1    1    3    3    0  502  0.12120571639E+04  0.93232617651E+03 -0.88075461208E+03  0.17646652246E+04  0.50400001928E-02 0. -1.
</event>
<event>
 5   0  0.1840359E-07  0.3103122E+04  0.7818609E-02  0.8214882E-01
       -1   -1    0    0    0  501  0.00000000000E+00  0.00000000000E+00  0.10864794702E+04  0.10864794702E+04  0.50400001928E-02 0.  1.
        1   -1    0    0  501    0  0.00000000000E+00  0.00000000000E+00 -0.22157260425E+04  0.22157260425E+04  0.50400001928E-02 0. -1.
    10030    2    1    2    0    0  0.00000000000E+00  0.00000000000E+00 -0.11292465723E+04  0.33022055127E+04  0.31031215618E+04 0.  0.
        1    1    3    3  502    0 -0.11509231197E+04 -0.10206338786E+04 -0.78015971667E+03  0.17248091851E+04  0.50400001928E-02 0.  1.
       -1    1    3    3    0  502  0.11509231197E+04  0.10206338786E+04 -0.34908685560E+03  0.15773963276E+04  0.50400001928E-02 0. -1.
</event>
<event>
 5   0  0.1814075E-07  0.3095737E+04  0.7818609E-02  0.8216909E-01
        1   -1    0    0  501    0  0.00000000000E+00  0.00000000000E+00  0.15716006569E+04  0.15716006569E+04  0.50400001928E-02 0.  1.
       -1   -1    0    0    0  501  0.00000000000E+00  0.00000000000E+00 -0.15244943109E+04  0.15244943109E+04  0.50400001928E-02 0. -1.
    10030    2    1    2    0    0  0.00000000000E+00  0.00000000000E+00  0.47106346057E+02  0.30960949678E+04  0.30957365912E+04 0.  0.
        5    1    3    3  502    0 -0.56368175224E+03 -0.12067474412E+03  0.14602342316E+04  0.15699062434E+04  0.46999998093E+01 0.  1.
       -5    1    3    3    0  502  0.56368175224E+03  0.12067474412E+03 -0.14131278856E+04  0.15261887245E+04  0.46999998093E+01 0. -1.
</event>
<event>
 5   0  0.1845123E-07  0.3099996E+04  0.7818609E-02  0.8215739E-01
        1   -1    0    0  501    0  0.00000000000E+00  0.00000000000E+00  0.22172200499E+04  0.22172200499E+04  0.50400001928E-02 0. -1.
       -1   -1    0    0    0  501  0.00000000000E+00  0.00000000000E+00 -0.10835611806E+04  0.10835611806E+04  0.50400001928E-02 0.  1.
    10030    2    1    2    0    0  0.00000000000E+00  0.00000000000E+00  0.11336588693E+04  0.33007812305E+04  0.30999958547E+04 0.  0.
        2    1    3    3  502    0  0.49055581436E+03  0.10648622918E+04  0.16463592069E+04  0.20211569325E+04  0.25500000920E-02 0. -1.
       -2    1    3    3    0  502 -0.49055581436E+03 -0.10648622918E+04 -0.51270033767E+03  0.12796242979E+04  0.25500000920E-02 0.  1.
</event>
<event>
 5   0  0.1814075E-07  0.3098431E+04  0.7818609E-02  0.8216169E-01
        1   -1    0    0  501    0  0.00000000000E+00  0.00000000000E+00  0.20246292155E+04  0.20246292155E+04  0.50400001928E-02 0.  1.
       -1   -1    0    0    0  501  0.00000000000E+00  0.00000000000E+00 -0.11854360336E+04  0.11854360336E+04  0.50400001928E-02 0. -1.
    10030    2    1    2    0    0  0.00000000000E+00  0.00000000000E+00  0.83919318187E+03  0.32100652491E+04  0.30984308460E+04 0.  0.
        5    1    3    3  502    0  0.13945918500E+04 -0.46991535298E+03  0.92112411715E+03  0.17361447509E+04  0.46999998093E+01 0.  1.
       -5    1    3    3    0  502 -0.13945918500E+04  0.46991535298E+03 -0.81930935279E+02  0.14739204982E+04  0.46999998093E+01 0. -1.
</event>
<event>
 5   0  0.5154105E-07  0.3044869E+04  0.7818609E-02  0.8231033E-01
       -2   -1    0    0    0  501  0.00000000000E+00  0.00000000000E+00  0.13102455503E+04  0.13102455503E+04  0.25500000920E-02 0.  1.
        2   -1    0    0  501    0  0.00000000000E+00  0.00000000000E+00 -0.17689868664E+04  0.17689868664E+04  0.25500000920E-02 0. -1.
    10030    2    1    2    0    0  0.00000000000E+00  0.00000000000E+00 -0.45874131614E+03  0.30792324167E+04  0.30448692387E+04 0.  0.
        1    1    3    3  502    0  0.21476480760E+03  0.14734703927E+04 -0.55007457810E+03  0.15873943941E+04  0.50400001928E-02 0.  1.
       -1    1    3    3    0  502 -0.21476480760E+03 -0.14734703927E+04  0.91333261957E+02  0.14918380226E+04  0.50400001928E-02 0. -1.
</event>
<event>
 5   0  0.5248309E-07  0.3095917E+04  0.7818609E-02  0.8216859E-01
       -2   -1    0    0    0  501  0.00000000000E+00  0.00000000000E+00  0.11895074988E+04  0.11895074988E+04  0.25500000920E-02 0. -1.
        2   -1    0    0  501    0  0.00000000000E+00  0.00000000000E+00 -0.20144268785E+04  0.20144268785E+04  0.25500000920E-02 0.  1.
    10030    2    1    2    0    0  0.00000000000E+00  0.00000000000E+00 -0.82491937971E+03  0.32039343773E+04  0.30959172326E+04 0.  0.
        4    1    3    3  502    0  0.99703085116E+03 -0.57483598204E+03 -0.14837921619E+04  0.18778039613E+04  0.12699999809E+01 0.  1.
       -4    1    3    3    0  502 -0.99703085116E+03  0.57483598204E+03  0.65887278217E+03  0.13261304161E+04  0.12699999809E+01 0. -1.
</event>
<event>
 5   0  0.1875284E-07  0.3102036E+04  0.7818609E-02  0.8215179E-01
       -1   -1    0    0    0  501  0.00000000000E+00  0.00000000000E+00  0.14514828165E+04  0.14514828165E+04  0.50400001928E-02 0.  1.
        1   -1    0    0  501    0  0.00000000000E+00  0.00000000000E+00 -0.16573786925E+04  0.16573786926E+04  0.50400001928E-02 0. -1.
    10030    2    1    2    0    0  0.00000000000E+00  0.00000000000E+00 -0.20589587609E+03  0.31088615090E+04  0.31020359073E+04 0.  0.
        4    1    3    3  502    0  0.53752583453E+02 -0.64311603483E+02  0.14492109061E+04  0.14516332821E+04  0.12699999809E+01 0.  1.
       -4    1    3    3    0  502 -0.53752583453E+02  0.64311603483E+02 -0.16551067822E+04  0.16572282269E+04  0.12699999809E+01 0. -1.
</event>
<event>
 5   0  0.1845123E-07  0.3116258E+04  0.7818609E-02  0.8211290E-01
       -1   -1    0    0    0  501  0.00000000000E+00  0.00000000000E+00  0.18691561285E+04  0.18691561285E+04  0.50400001928E-02 0.  1.
        1   -1    0    0  501    0  0.00000000000E+00  0.00000000000E+00 -0.12988567093E+04  0.12988567093E+04  0.50400001928E-02 0. -1.
    10030    2    1    2    0    0  0.00000000000E+00  0.00000000000E+00  0.57029941922E+03  0.31680128378E+04  0.31162579985E+04 0.  0.
        2    1    3    3  502    0  0.42000564420E+03 -0.32597721283E+03 -0.12037906684E+04  0.13159703104E+04  0.25500000920E-02 0. -1.
       -2    1    3    3    0  502 -0.42000564420E+03  0.32597721283E+03  0.17740900876E+04  0.18520425274E+04  0.25500000920E-02 0.  1.
</event>
<event>
 5   0  0.1845123E-07  0.3096567E+04  0.7818609E-02  0.8216681E-01
        1   -1    0    0  501    0  0.00000000000E+00  0.00000000000E+00  0.17760317304E+04  0.17760317304E+04  0.50400001928E-02 0.  1.
       -1   -1    0    0    0  501  0.00000000000E+00  0.00000000000E+00 -0.13497400527E+04  0.13497400527E+04  0.50400001928E-02 0. -1.
    10030    2    1    2    0    0  0.00000000000E+00  0.00000000000E+00  0.42629167769E+03  0.31257717831E+04  0.30965665899E+04 0.  0.
        2    1    3    3  502    0  0.48001310523E+03 -0.11175962520E+04 -0.75388066281E+03  0.14310031508E+04  0.25500000920E-02 0. -1.
       -2    1    3    3    0  502 -0.48001310523E+03  0.11175962520E+04  0.11801723405E+04  0.16947686323E+04  0.25500000920E-02 0.  1.
</event>
<event>
 5   0  0.5055900E-07  0.3103419E+04  0.7818609E-02  0.8214800E-01
        2   -1    0    0  501    0  0.00000000000E+00  0.00000000000E+00  0.32169521589E+04  0.32169521589E+04  0.25500000920E-02 0. -1.
       -2   -1    0    0    0  501  0.00000000000E+00  0.00000000000E+00 -0.74847336712E+03  0.74847336712E+03  0.25500000920E-02 0.  1.
    10030    2    1    2    0    0  0.00000000000E+00  0.00000000000E+00  0.24684787918E+04  0.39654255260E+04  0.31034194136E+04 0.  0.
        2    1    3    3  502    0  0.73725754573E+03  0.12975521975E+04  0.17772688318E+04  0.23207487789E+04  0.25500000920E-02 0. -1.
       -2    1    3    3    0  502 -0.73725754573E+03 -0.12975521975E+04  0.69120995996E+03  0.16446767472E+04  0.25500000920E-02 0.  1.
</event>
<event>
 5   0  0.1840359E-07  0.3116216E+04  0.7818609E-02  0.8211302E-01
       -1   -1    0    0    0  501  0.00000000000E+00  0.00000000000E+00  0.16037382464E+04  0.16037382464E+04  0.50400001928E-02 0.  1.
        1   -1    0    0  501    0  0.00000000000E+00  0.00000000000E+00 -0.15137757351E+04  0.15137757351E+04  0.50400001928E-02 0. -1.
    10030    2    1    2    0    0  0.00000000000E+00  0.00000000000E+00  0.89962511316E+02  0.31175139815E+04  0.31162156811E+04 0.  0.
        1    1    3    3  502    0  0.14977414258E+04 -0.15482971869E+03  0.44577070951E+03  0.15703226248E+04  0.50400001928E-02 0.  1.
       -1    1    3    3    0  502 -0.14977414258E+04  0.15482971869E+03 -0.35580819820E+03  0.15471913567E+04  0.50400001928E-02 0. -1.
</event>
<event>
 5   0  0.1845123E-07  0.3150408E+04  0.7818609E-02  0.8202039E-01
        1   -1    0    0  501    0  0.00000000000E+00  0.00000000000E+00  0.10813737919E+04  0.10813737919E+04  0.50400001928E-02 0. -1.
       -1   -1    0    0    0  501  0.00000000000E+00  0.00000000000E+00 -0.22945510078E+04  0.22945510078E+04  0.50400001928E-02 0.  1.
    10030    2    1    2    0    0  0.00000000000E+00  0.00000000000E+00 -0.12131772159E+04  0.33759247997E+04  0.31504077984E+04 0.  0.
        2    1    3    3  502    0  0.64720325327E+03  0.13846287903E+04 -0.10149144673E+04  0.18346989709E+04  0.25500000920E-02 0.  1.
       -2    1    3    3    0  502 -0.64720325327E+03 -0.13846287903E+04 -0.19826274857E+03  0.15412258288E+04  0.25500000920E-02 0. -1.
</event>
<event>
 5   0  0.1830902E-07  0.3105118E+04  0.7818609E-02  0.8214335E-01
        1   -1    0    0  501    0  0.00000000000E+00  0.00000000000E+00  0.16758190024E+04  0.16758190024E+04  0.50400001928E-02 0.  1.
       -1   -1    0    0    0  501  0.00000000000E+00  0.00000000000E+00 -0.14383649621E+04  0.14383649621E+04  0.50400001928E-02 0. -1.
    10030    2    1    2    0    0  0.00000000000E+00  0.00000000000E+00  0.23745404022E+03  0.31141839645E+04  0.31051179275E+04 0.  0.
        3    1    3    3  502    0 -0.37832147039E+03  0.14288282698E+04  0.59525845511E+03  0.15934271236E+04  0.10100000352E+00 0.  1.
       -3    1    3    3    0  502  0.37832147039E+03 -0.14288282698E+04 -0.35780441489E+03  0.15207568409E+04  0.10100000352E+00 0. -1.
</event>
<event>
 5   0  0.1875284E-07  0.3055117E+04  0.7818609E-02  0.8228165E-01
        1   -1    0    0  501    0  0.00000000000E+00  0.00000000000E+00  0.14374124219E+04  0.14374124219E+04  0.50400001928E-02 0.  1.
       -1   -1    0    0    0  501  0.00000000000E+00  0.00000000000E+00 -0.16233579060E+04  0.16233579060E+04  0.50400001928E-02 0. -1.
    10030    2    1    2    0    0  0.00000000000E+00  0.00000000000E+00 -0.18594548405E+03  0.30607703279E+04  0.30551169008E+04 0.  0.
        4    1    3    3  502    0 -0.80561171334E+03  0.12396742877E+04 -0.47791106711E+03  0.15537706309E+04  0.12699999809E+01 0. -1.
       -4    1    3    3    0  502  0.80561171334E+03 -0.12396742877E+04  0.29196558306E+03  0.15069996971E+04  0.12699999809E+01 0.  1.
</event>
<event>
 5   0  0.5248309E-07  0.3099678E+04  0.7818609E-02  0.8215826E-01
       -2   -1    0    0    0  501  0.00000000000E+00  0.00000000000E+00  0.11166039265E+04  0.11166039265E+04  0.25500000920E-02 0. -1.
        2   -1    0    0  501    0  0.00000000000E+00  0.00000000000E+00 -0.21511662687E+04  0.21511662687E+04  0.25500000920E-02 0.  1.
    10030    2    1    2    0    0  0.00000000000E+00  0.00000000000E+00 -0.10345623422E+04  0.32677701953E+04  0.30996778557E+04 0.  0.
        4    1    3    3  502    0  0.10748389629E+04  0.46791365310E+03  0.55148922676E+03  0.12955168710E+04  0.12699999809E+01 0. -1.
       -4    1    3    3    0  502 -0.10748389629E+04 -0.46791365310E+03 -0.15860515689E+04  0.19722533243E+04  0.12699999809E+01 0.  1.
</event>
<event>
 5   0  0.5055900E-07  0.3101787E+04  0.7818609E-02  0.8215248E-01
       -2   -1    0    0    0  501  0.00000000000E+00  0.00000000000E+00  0.20729795304E+04  0.20729795304E+04  0.25500000920E-02 0.  1.
        2   -1    0    0  501    0  0.00000000000E+00  0.00000000000E+00 -0.11602963574E+04  0.11602963574E+04  0.25500000920E-02 0. -1.
    10030    2    1    2    0    0  0.00000000000E+00  0.00000000000E+00  0.91268317301E+03  0.32332758879E+04  0.31017869677E+04 0.  0.
        2    1    3    3  502    0  0.11626616137E+04 -0.30039014393E+03 -0.56671883082E+03  0.13278503303E+04  0.25500000920E-02 0. -1.
       -2    1    3    3    0  502 -0.11626616137E+04  0.30039014393E+03  0.14794020038E+04  0.19054255576E+04  0.25500000920E-02 0.  1.
</event>
<event>
 5   0  0.5376678E-07  0.3094570E+04  0.7818609E-02  0.8217230E-01
        2   -1    0    0  501    0  0.00000000000E+00  0.00000000000E+00  0.10836661092E+04  0.10836661092E+04  0.25500000920E-02 0. -1.
       -2   -1    0    0    0  501  0.00000000000E+00  0.00000000000E+00 -0.22092515960E+04  0.22092515960E+04  0.25500000920E-02 0.  1.
    10030    2    1    2    0    0  0.00000000000E+00  0.00000000000E+00 -0.11255854868E+04  0.32929177052E+04  0.30945701358E+04 0.  0.
        5    1    3    3  502    0 -0.11990076144E+04 -0.47146889578E+02  0.47666389079E+03  0.12911516733E+04  0.46999998093E+01 0. -1.
       -5    1    3    3    0  502  0.11990076144E+04  0.47146889578E+02 -0.16022493776E+04  0.20017660319E+04  0.46999998093E+01 0.  1.
</event>
<event>
 5   0  0.5342534E-07  0.3076650E+04  0.7818609E-02  0.8222176E-01
        2   -1    0    0  501    0  0.00000000000E+00  0.00000000000E+00  0.21272932372E+04  0.21272932372E+04  0.25500000920E-02 0. -1.
       -2   -1    0    0    0  501  0.00000000000E+00  0.00000000000E+00 -0.11124198631E+04  0.11124198631E+04  0.25500000920E-02 0.  1.
    10030    2    1    2    0    0  0.00000000000E+00  0.00000000000E+00  0.10148733740E+04  0.32397131003E+04  0.30766496399E+04 0.  0.
        3    1    3    3  502    0  0.12582947374E+04  0.87175910074E+03  0.34713950878E+03  0.15696418141E+04  0.10100000352E+00 0.  1.
       -3    1    3    3    0  502 -0.12582947374E+04 -0.87175910074E+03  0.66773386526E+03  0.16700712862E+04  0.10100000352E+00 0. -1.
</event>
<event>
 5   0  0.5154105E-07  0.3101468E+04  0.7818609E-02  0.8215335E-01
        2   -1    0    0  501    0  0.00000000000E+00  0.00000000000E+00  0.21076834463E+04  0.21076834463E+04  0.25500000920E-02 0. -1.
       -2   -1    0    0    0  501  0.00000000000E+00  0.00000000000E+00 -0.11409570710E+04  0.11409570710E+04  0.25500000920E-02 0.  1.
    10030    2    1    2    0    0  0.00000000000E+00  0.00000000000E+00  0.96672637525E+03  0.32486405173E+04  0.31014682533E+04 0.  0.
        1    1    3    3  502    0 -0.49569409996E+03  0.95704197920E+02  0.20191958183E+04  0.20813514088E+04  0.50400001928E-02 0. -1.
       -1    1    3    3    0  502  0.49569409996E+03 -0.95704197920E+02 -0.10524694430E+04  0.11672891085E+04  0.50400001928E-02 0.  1.
</event>
<event>
 5   0  0.1830902E-07  0.3103118E+04  0.7818609E-02  0.8214883E-01
        1   -1    0    0  501    0  0.00000000000E+00  0.00000000000E+00  0.17757549615E+04  0.17757549615E+04  0.50400001928E-02 0.  1.
       -1   -1    0    0    0  501  0.00000000000E+00  0.00000000000E+00 -0.13556688741E+04  0.13556688741E+04  0.50400001928E-02 0. -1.
    10030    2    1    2    0    0  0.00000000000E+00  0.00000000000E+00  0.42008608747E+03  0.31314238356E+04  0.31031182571E+04 0.  0.
        3    1    3    3  502    0  0.36203046301E+02  0.36483976263E+03 -0.13113285937E+04  0.13616172017E+04  0.10100000352E+00 0. -1.
       -3    1    3    3    0  502 -0.36203046301E+02 -0.36483976263E+03  0.17314146812E+04  0.17698066339E+04  0.10100000352E+00 0.  1.
</event>
<event>
 5   0  0.1830902E-07  0.3095330E+04  0.7818609E-02  0.8217021E-01
        1   -1    0    0  501    0  0.00000000000E+00  0.00000000000E+00  0.18903231147E+04  0.18903231147E+04  0.50400001928E-02 0. -1.
       -1   -1    0    0    0  501  0.00000000000E+00  0.00000000000E+00 -0.12671200793E+04  0.12671200793E+04  0.50400001928E-02 0.  1.
    10030    2    1    2    0    0  0.00000000000E+00  0.00000000000E+00  0.62320303545E+03  0.31574431940E+04  0.30953296271E+04 0.  0.
        3    1    3    3  502    0 -0.12154420282E+04  0.93688610372E+03  0.51615346286E+03  0.16190952111E+04  0.10100000352E+00 0. -1.
       -3    1    3    3    0  502  0.12154420282E+04 -0.93688610372E+03  0.10704957259E+03  0.15383479829E+04  0.10100000352E+00 0.  1.
</event>
<event>
 5   0  0.5342534E-07  0.3099626E+04  0.7818609E-02  0.8215841E-01
       -2   -1    0    0    0  501  0.00000000000E+00  0.00000000000E+00  0.12620204946E+04  0.12620204946E+04  0.25500000920E-02 0.  1.
        2   -1    0    0  501    0  0.00000000000E+00  0.00000000000E+00 -0.19032337879E+04  0.19032337879E+04  0.25500000920E-02 0. -1.
    10030    2    1    2    0    0  0.00000000000E+00  0.00000000000E+00 -0.64121329329E+03  0.31652542826E+04  0.30996258139E+04 0.  0.
        3    1    3    3  502    0  0.92312734265E+03  0.12438745725E+03 -0.15854949379E+04  0.18388666451E+04  0.10100000352E+00 0. -1.
       -3    1    3    3    0  502 -0.92312734265E+03 -0.12438745725E+03  0.94428164460E+03  0.13263876375E+04  0.10100000352E+00 0.  1.
</event>
<event>
 5   0  0.1875284E-07  0.3097178E+04  0.7818609E-02  0.8216513E-01
       -1   -1    0    0    0  501  0.00000000000E+00  0.00000000000E+00  0.13646469469E+04  0.13646469469E+04  0.50400001928E-02 0.  1.
        1   -1    0    0  501    0  0.00000000000E+00  0.00000000000E+00 -0.17573251645E+04  0.17573251645E+04  0.50400001928E-02 0. -1.
    10030    2    1    2    0    0  0.00000000000E+00  0.00000000000E+00 -0.39267821759E+03  0.31219721114E+04  0.30971783419E+04 0.  0.
        4    1    3    3  502    0  0.12686569549E+04  0.85555390366E+03  0.43608191951E+02  0.15308057482E+04  0.12699999809E+01 0. -1.
       -4    1    3    3    0  502 -0.12686569549E+04 -0.85555390366E+03 -0.43628640954E+03  0.15911663632E+04  0.12699999809E+01 0.  1.
</event>
<event>
 5   0  0.5154105E-07  0.3097397E+04  0.7818609E-02  0.8216453E-01
        2   -1    0    0  501    0  0.00000000000E+00  0.00000000000E+00  0.16156705127E+04  0.16156705127E+04  0.25500000920E-02 0.  1.
       -2   -1    0    0    0  501  0.00000000000E+00  0.00000000000E+00 -0.14845030093E+04  0.14845030093E+04  0.25500000920E-02 0. -1.
    10030    2    1    2    0    0  0.00000000000E+00  0.00000000000E+00  0.13116750341E+03  0.31001735220E+04  0.30973974483E+04 0.  0.
        1    1    3    3  502    0  0.62550820553E+03  0.38212480547E+03  0.14310600671E+04  0.16078596947E+04  0.50400001928E-02 0.  1.
       -1    1    3    3    0  502 -0.62550820553E+03 -0.38212480547E+03 -0.12998925637E+04  0.14923138273E+04  0.50400001928E-02 0. -1.
</event>
<event>
 5   0  0.5342534E-07  0.3104602E+04  0.7818609E-02  0.8214476E-01
       -2   -1    0    0    0  501  0.00000000000E+00  0.00000000000E+00  0.10080696949E+04  0.10080696949E+04  0.25500000920E-02 0. -1.
        2   -1    0    0  501    0  0.00000000000E+00  0.00000000000E+00 -0.23903492776E+04  0.23903492777E+04  0.25500000920E-02 0.  1.
    10030    2    1    2    0    0  0.00000000000E+00  0.00000000000E+00 -0.13822795827E+04  0.33984189726E+04  0.31046021755E+04 0.  0.
        3    1    3    3  502    0  0.12842876435E+04 -0.15174687849E+03  0.24873190463E+03  0.13169242336E+04  0.10100000352E+00 0. -1.
       -3    1    3    3    0  502 -0.12842876435E+04  0.15174687849E+03 -0.16310114874E+04  0.20814947390E+04  0.10100000352E+00 0.  1.
</event>
<event>
 5   0  0.1840359E-07  0.3098241E+04  0.7818609E-02  0.8216221E-01
        1   -1    0    0  501    0  0.00000000000E+00  0.00000000000E+00  0.93259256841E+03  0.93259256843E+03  0.50400001928E-02 0. -1.
       -1   -1    0    0    0  501  0.00000000000E+00  0.00000000000E+00 -0.25732296151E+04  0.25732296151E+04  0.50400001928E-02 0.  1.
    10030    2    1    2    0    0  0.00000000000E+00  0.00000000000E+00 -0.16406370467E+04  0.35058221835E+04  0.30982413178E+04 0.  0.
        1    1    3    3  502    0 -0.10497706820E+04  0.15714088905E+03  0.45641306532E+03  0.11554326592E+04  0.50400001928E-02 0. -1.
       -1    1    3    3    0  502  0.10497706820E+04 -0.15714088905E+03 -0.20970501120E+04  0.23503895243E+04  0.50400001928E-02 0.  1.
</event>
<event>
 5   0  0.5342534E-07  0.3098414E+04  0.7818609E-02  0.8216173E-01
       -2   -1    0    0    0  501  0.00000000000E+00  0.00000000000E+00  0.24070975113E+04  0.24070975113E+04  0.25500000920E-02 0.  1.
        2   -1    0    0  501    0  0.00000000000E+00  0.00000000000E+00 -0.99706906968E+03  0.99706906968E+03  0.25500000920E-02 0. -1.
    10030    2    1    2    0    0  0.00000000000E+00  0.00000000000E+00  0.14100284416E+04  0.34041665810E+04  0.30984140951E+04 0.  0.
        3    1    3    3  502    0 -0.19031979395E+03 -0.63117850211E+03  0.22452976255E+04  0.23400789223E+04  0.10100000352E+00 0.  1.
       -3    1    3    3    0  502  0.19031979395E+03  0.63117850211E+03 -0.83526918389E+03  0.10640876586E+04  0.10100000352E+00 0. -1.
</event>
<event>
 5   0  0.5154105E-07  0.3094151E+04  0.7818609E-02  0.8217345E-01
        2   -1    0    0  501    0  0.00000000000E+00  0.00000000000E+00  0.31663252607E+04  0.31663252607E+04  0.25500000920E-02 0.  1.
       -2   -1    0    0    0  501  0.00000000000E+00  0.00000000000E+00 -0.75590550013E+03  0.75590550014E+03  0.25500000920E-02 0. -1.
    10030    2    1    2    0    0  0.00000000000E+00  0.00000000000E+00  0.24104197606E+04  0.39222307609E+04  0.30941510498E+04 0.  0.
        1    1    3    3  502    0  0.91612420580E+03  0.40014108448E+03  0.27018942341E+04  0.28809076522E+04  0.50400001928E-02 0.  1.
       -1    1    3    3    0  502 -0.91612420580E+03 -0.40014108448E+03 -0.29147447354E+03  0.10413231087E+04  0.50400001928E-02 0. -1.
</event>
<event>
 5   0  0.1845123E-07  0.3101879E+04  0.7818609E-02  0.8215222E-01
       -1   -1    0    0    0  501  0.00000000000E+00  0.00000000000E+00  0.11569301481E+04  0.11569301481E+04  0.50400001928E-02 0. -1.
        1   -1    0    0  501    0  0.00000000000E+00  0.00000000000E+00 -0.20791346271E+04  0.20791346271E+04  0.50400001928E-02 0.  1.
    10030    2    1    2    0    0  0.00000000000E+00  0.00000000000E+00 -0.92220447899E+03  0.32360647751E+04  0.31018791285E+04 0.  0.
        2    1    3    3  502    0  0.85304204212E+03 -0.12233533576E+04 -0.17086095919E+02  0.14914979376E+04  0.25500000920E-02 0. -1.
       -2    1    3    3    0  502 -0.85304204212E+03  0.12233533576E+04 -0.90511838307E+03  0.17445668375E+04  0.25500000920E-02 0.  1.
</event>
<event>
 5   0  0.5248309E-07  0.3100945E+04  0.7818609E-02  0.8215479E-01
        2   -1    0    0  501    0  0.00000000000E+00  0.00000000000E+00  0.18397403938E+04  0.18397403938E+04  0.25500000920E-02 0.  1.
       -2   -1    0    0    0  501  0.00000000000E+00  0.00000000000E+00 -0.13066869994E+04  0.13066869994E+04  0.25500000920E-02 0. -1.
    10030    2    1    2    0    0  0.00000000000E+00  0.00000000000E+00  0.53305339439E+03  0.31464273931E+04  0.31009449236E+04 0.  0.
        4    1    3    3  502    0 -0.79323737969E+03 -0.13320905958E+04  0.24978174061E+03  0.15703768423E+04  0.12699999809E+01 0. -1.
       -4    1    3    3    0  502  0.79323737969E+03  0.13320905958E+04  0.28327165377E+03  0.15760505508E+04  0.12699999809E+01 0.  1.
</event>
<event>
 5   0  0.5055900E-07  0.3107306E+04  0.7818609E-02  0.8213736E-01
       -2   -1    0    0    0  501  0.00000000000E+00  0.00000000000E+00  0.19540233911E+04  0.19540233911E+04  0.25500000920E-02 0.  1.
        2   -1    0    0  501    0  0.00000000000E+00  0.00000000000E+00 -0.12353167497E+04  0.12353167497E+04  0.25500000920E-02 0. -1.
    10030    2    1    2    0    0  0.00000000000E+00  0.00000000000E+00  0.71870664144E+03  0.31893401408E+04  0.31073061158E+04 0.  0.
        2    1    3    3  502    0 -0.70563897936E+03  0.29957923267E+03 -0.10276792408E+04  0.12821071358E+04  0.25500000920E-02 0. -1.
       -2    1    3    3    0  502  0.70563897936E+03 -0.29957923267E+03  0.17463858822E+04  0.19072330050E+04  0.25500000920E-02 0.  1.
</event>
<event>
 5   0  0.1830902E-07  0.3100284E+04  0.7818609E-02  0.8215660E-01
       -1   -1    0    0    0  501  0.00000000000E+00  0.00000000000E+00  0.12302522711E+04  0.12302522711E+04  0.50400001928E-02 0.  1.
        1   -1    0    0  501    0  0.00000000000E+00  0.00000000000E+00 -0.19532092934E+04  0.19532092934E+04  0.50400001928E-02 0. -1.
    10030    2    1    2    0    0  0.00000000000E+00  0.00000000000E+00 -0.72295702230E+03  0.31834615645E+04  0.31002839671E+04 0.  0.
        3    1    3    3  502    0  0.23716805931E+03  0.44952035370E+03 -0.18652214747E+04  0.19332274560E+04  0.10100000352E+00 0. -1.
       -3    1    3    3    0  502 -0.23716805931E+03 -0.44952035370E+03  0.11422644524E+04  0.12502341085E+04  0.10100000352E+00 0.  1.
</event>
<event>
 5   0  0.1875284E-07  0.3098637E+04  0.7818609E-02  0.8216112E-01
       -1   -1    0    0    0  501  0.00000000000E+00  0.00000000000E+00  0.14077710609E+04  0.14077710609E+04  0.50400001928E-02 0. -1.
        1   -1    0    0  501    0  0.00000000000E+00  0.00000000000E+00 -0.17050978487E+04  0.17050978487E+04  0.50400001928E-02 0.  1.
    10030    2    1    2    0    0  0.00000000000E+00  0.00000000000E+00 -0.29732678777E+03  0.31128689096E+04  0.30986367373E+04 0.  0.
        4    1    3    3  502    0 -0.48778053795E+03  0.11062272212E+04 -0.11219877065E+04  0.16494018748E+04  0.12699999809E+01 0.  1.
       -4    1    3    3    0  502  0.48778053795E+03 -0.11062272212E+04  0.82466091872E+03  0.14634670348E+04  0.12699999809E+01 0. -1.
</event>
<event>
 5   0  0.1814075E-07  0.3086241E+04  0.7818609E-02  0.8219524E-01
        1   -1    0    0  501    0  0.00000000000E+00  0.00000000000E+00  0.19942192541E+04  0.19942192541E+04  0.50400001928E-02 0.  1.
       -1   -1    0    0    0  501  0.00000000000E+00  0.00000000000E+00 -0.11940617200E+04  0.11940617201E+04  0.50400001928E-02 0. -1.
    10030    2    1    2    0    0  0.00000000000E+00  0.00000000000E+00  0.80015753408E+03  0.31882809742E+04  0.30862409969E+04 0.  0.
        5    1    3    3  502    0 -0.82763886723E+03 -0.11348118275E+04 -0.26012422704E+03  0.14284504478E+04  0.46999998093E+01 0. -1.
       -5    1    3    3    0  502  0.82763886723E+03  0.11348118275E+04  0.10602817611E+04  0.17598305263E+04  0.46999998093E+01 0.  1.
</event>
<event>
 5   0  0.1875284E-07  0.3044654E+04  0.7818609E-02  0.8231093E-01
       -1   -1    0    0    0  501  0.00000000000E+00  0.00000000000E+00  0.10204890278E+04  0.10204890278E+04  0.50400001928E-02 0.  1.
        1   -1    0    0  501    0  0.00000000000E+00  0.00000000000E+00 -0.22709494656E+04  0.22709494656E+04  0.50400001928E-02 0. -1.
    10030    2    1    2    0    0  0.00000000000E+00  0.00000000000E+00 -0.12504604378E+04  0.32914384934E+04  0.30446536830E+04 0.  0.
        4    1    3    3  502    0 -0.12809278825E+04  0.10435334482E+03 -0.15073417556E+04  0.19808449313E+04  0.12699999809E+01 0. -1.
       -4    1    3    3    0  502  0.12809278825E+04 -0.10435334482E+03  0.25688131783E+03  0.13105935621E+04  0.12699999809E+01 0.  1.
</event>
<event>
 5   0  0.1840359E-07  0.3102101E+04  0.7818609E-02  0.8215162E-01
        1   -1    0    0  501    0  0.00000000000E+00  0.00000000000E+00  0.23416771960E+04  0.23416771960E+04  0.50400001928E-02 0.  1.
       -1   -1    0    0    0  501  0.00000000000E+00  0.00000000000E+00 -0.10273649275E+04  0.10273649275E+04  0.50400001928E-02 0. -1.
    10030    2    1    2    0    0  0.00000000000E+00  0.00000000000E+00  0.13143122685E+04  0.33690421235E+04  0.31021005933E+04 0.  0.
        1    1    3    3  502    0 -0.13295729867E+04  0.77384266178E+03  0.87207432930E+03  0.17683637714E+04  0.50400001928E-02 0.  1.
       -1    1    3    3    0  502  0.13295729867E+04 -0.77384266178E+03  0.44223793920E+03  0.16006783521E+04  0.50400001928E-02 0. -1.
</event>
<event>
 5   0  0.5376678E-07  0.3098578E+04  0.7818609E-02  0.8216128E-01
        2   -1    0    0  501    0  0.00000000000E+00  0.00000000000E+00  0.22121163695E+04  0.22121163695E+04  0.25500000920E-02 0. -1.
       -2   -1    0    0    0  501  0.00000000000E+00  0.00000000000E+00 -0.10850679875E+04  0.10850679875E+04  0.25500000920E-02 0.  1.
    10030    2    1    2    0    0  0.00000000000E+00  0.00000000000E+00  0.11270483821E+04  0.32971843570E+04  0.30985781624E+04 0.  0.
        5    1    3    3  502    0  0.48421292077E+03 -0.75454882143E+03 -0.78097625480E+03  0.11890130685E+04  0.46999998093E+01 0.  1.
       -5    1    3    3    0  502 -0.48421292077E+03  0.75454882143E+03  0.19080246369E+04  0.21081712885E+04  0.46999998093E+01 0. -1.
</event>
<event>
 5   0  0.1875284E-07  0.3090805E+04  0.7818609E-02  0.8218266E-01
       -1   -1    0    0    0  501  0.00000000000E+00  0.00000000000E+00  0.14183699601E+04  0.14183699601E+04  0.50400001928E-02 0.  1.
        1   -1    0    0  501    0  0.00000000000E+00  0.00000000000E+00 -0.16838119195E+04  0.16838119196E+04  0.50400001928E-02 0. -1.
    10030    2    1    2    0    0  0.00000000000E+00  0.00000000000E+00 -0.26544195948E+03  0.31021818796E+04  0.30908045846E+04 0.  0.
        4    1    3    3  502    0  0.12787365454E+03 -0.15130501445E+04 -0.42117097716E+03  0.15757725141E+04  0.12699999809E+01 0. -1.
       -4    1    3    3    0  502 -0.12787365454E+03  0.15130501445E+04  0.15572901768E+03  0.15264093655E+04  0.12699999809E+01 0.  1.
</event>
<event>
 5   0  0.5376678E-07  0.3114266E+04  0.7818609E-02  0.8211834E-01
        2   -1    0    0  501    0  0.00000000000E+00  0.00000000000E+00  0.92826079232E+03  0.92826079233E+03  0.25500000920E-02 0.  1.
       -2   -1    0    0    0  501  0.00000000000E+00  0.00000000000E+00 -0.26120491967E+04  0.26120491967E+04  0.25500000920E-02 0. -1.
    10030    2    1    2    0    0  0.00000000000E+00  0.00000000000E+00 -0.16837884044E+04  0.35403099890E+04  0.31142657927E+04 0.  0.
        5    1    3    3  502    0 -0.13497023038E+04  0.72347750321E+03 -0.11624744789E+04  0.19226245111E+04  0.46999998093E+01 0.  1.
       -5    1    3    3    0  502  0.13497023038E+04 -0.72347750321E+03 -0.52131392549E+03  0.16176854779E+04  0.46999998093E+01 0. -1.
</event>
<event>
 5   0  0.5342534E-07  0.3093894E+04  0.7818609E-02  0.8217416E-01
       -2   -1    0    0    0  501  0.00000000000E+00  0.00000000000E+00  0.99039307869E+03  0.99039307869E+03  0.25500000920E-02 0. -1.
        2   -1    0    0  501    0  0.00000000000E+00  0.00000000000E+00 -0.24162572282E+04  0.24162572282E+04  0.25500000920E-02 0.  1.
    10030    2    1    2    0    0  0.00000000000E+00  0.00000000000E+00 -0.14258641496E+04  0.34066503069E+04  0.30938936214E+04 0.  0.
        3    1    3    3  502    0 -0.34013835663E+03 -0.73007899869E+03  0.74131139821E+03  0.10946469957E+04  0.10100000352E+00 0. -1.
       -3    1    3    3    0  502  0.34013835663E+03  0.73007899869E+03 -0.21671755478E+04  0.23120033112E+04  0.10100000352E+00 0.  1.
</event>
<event>
 5   0  0.5342534E-07  0.3097981E+04  0.7818609E-02  0.8216292E-01
       -2   -1    0    0    0  501  0.00000000000E+00  0.00000000000E+00  0.85097199092E+03  0.85097199093E+03  0.25500000920E-02 0. -1.
        2   -1    0    0  501    0  0.00000000000E+00  0.00000000000E+00 -0.28195662644E+04  0.28195662644E+04  0.25500000920E-02 0.  1.
    10030    2    1    2    0    0  0.00000000000E+00  0.00000000000E+00 -0.19685942734E+04  0.36705382553E+04  0.30979812249E+04 0.  0.
        3    1    3    3  502    0  0.61336081026E+03  0.22935347207E+03 -0.26475011306E+04  0.27272837670E+04  0.10100000352E+00 0.  1.
       -3    1    3    3    0  502 -0.61336081026E+03 -0.22935347207E+03  0.67890685722E+03  0.94325448829E+03  0.10100000352E+00 0. -1.
</event>
<event>
 5   0  0.1814075E-07  0.3093312E+04  0.7818609E-02  0.8217576E-01
        1   -1    0    0  501    0  0.00000000000E+00  0.00000000000E+00  0.18154997925E+04  0.18154997925E+04  0.50400001928E-02 0.  1.
       -1   -1    0    0    0  501  0.00000000000E+00  0.00000000000E+00 -0.13176229693E+04  0.13176229694E+04  0.50400001928E-02 0. -1.
    10030    2    1    2    0    0  0.00000000000E+00  0.00000000000E+00  0.49787682318E+03  0.31331227619E+04  0.30933116413E+04 0.  0.
        5    1    3    3  502    0 -0.13573026845E+04  0.23602725039E+03  0.96093830144E+03  0.16797035302E+04  0.46999998093E+01 0.  1.
       -5    1    3    3    0  502  0.13573026845E+04 -0.23602725039E+03 -0.46306147827E+03  0.14534192317E+04  0.46999998093E+01 0. -1.
</event>
<event>
 5   0  0.5376678E-07  0.3104231E+04  0.7818609E-02  0.8214578E-01
       -2   -1    0    0    0  501  0.00000000000E+00  0.00000000000E+00  0.13250865951E+04  0.13250865951E+04  0.25500000920E-02 0. -1.
        2   -1    0    0  501    0  0.00000000000E+00  0.00000000000E+00 -0.18180418348E+04  0.18180418348E+04  0.25500000920E-02 0.  1.
    10030    2    1    2    0    0  0.00000000000E+00  0.00000000000E+00 -0.49295523979E+03  0.31431284299E+04  0.31042312186E+04 0.  0.
        5    1    3    3  502    0 -0.35511504665E+03 -0.34972530260E+03 -0.17348030175E+04  0.18049870036E+04  0.46999998093E+01 0.  1.
       -5    1    3    3    0  502  0.35511504665E+03  0.34972530260E+03  0.12418477777E+04  0.13381414263E+04  0.46999998093E+01 0. -1.
</event>
<event>
 5   0  0.5342534E-07  0.3102102E+04  0.7818609E-02  0.8215161E-01
        2   -1    0    0  501    0  0.00000000000E+00  0.00000000000E+00  0.16162024325E+04  0.16162024325E+04  0.25500000920E-02 0. -1.
       -2   -1    0    0    0  501  0.00000000000E+00  0.00000000000E+00 -0.14885259435E+04  0.14885259435E+04  0.25500000920E-02 0.  1.
    10030    2    1    2    0    0  0.00000000000E+00  0.00000000000E+00  0.12767648904E+03  0.31047283760E+04  0.31021020298E+04 0.  0.
        3    1    3    3  502    0 -0.96447287449E+03 -0.88546896679E+03  0.89610467306E+03  0.15865896798E+04  0.10100000352E+00 0. -1.
       -3    1    3    3    0  502  0.96447287449E+03  0.88546896679E+03 -0.76842818402E+03  0.15181386962E+04  0.10100000352E+00 0.  1.
</event>
<event>
 5   0  0.1830902E-07  0.3101371E+04  0.7818609E-02  0.8215362E-01
        1   -1    0    0  501    0  0.00000000000E+00  0.00000000000E+00  0.18015612118E+04  0.18015612118E+04  0.50400001928E-02 0.  1.
       -1   -1    0    0    0  501  0.00000000000E+00  0.00000000000E+00 -0.13347454031E+04  0.13347454031E+04  0.50400001928E-02 0. -1.
    10030    2    1    2    0    0  0.00000000000E+00  0.00000000000E+00  0.46681580872E+03  0.31363066149E+04  0.31013710167E+04 0.  0.
        3    1    3    3  502    0  0.10630542855E+04 -0.82377840344E+03  0.10140689531E+04  0.16843488723E+04  0.10100000352E+00 0.  1.
       -3    1    3    3    0  502 -0.10630542855E+04  0.82377840344E+03 -0.54725314441E+03  0.14519577425E+04  0.10100000352E+00 0. -1.
</event>
<event>
 5   0  0.1830902E-07  0.3097563E+04  0.7818609E-02  0.8216407E-01
        1   -1    0    0  501    0  0.00000000000E+00  0.00000000000E+00  0.14976676255E+04  0.14976676255E+04  0.50400001928E-02 0. -1.
       -1   -1    0    0    0  501  0.00000000000E+00  0.00000000000E+00 -0.16016400731E+04  0.16016400731E+04  0.50400001928E-02 0.  1.
    10030    2    1    2    0    0  0.00000000000E+00  0.00000000000E+00 -0.10397244761E+03  0.30993076985E+04  0.30975632262E+04 0.  0.
        3    1    3    3  502    0 -0.82827448132E+03  0.17805654176E+03 -0.13492431897E+04  0.15931729171E+04  0.10100000352E+00 0.  1.
       -3    1    3    3    0  502  0.82827448132E+03 -0.17805654176E+03  0.12452707421E+04  0.15061347815E+04  0.10100000352E+00 0. -1.
</event>
<event>
 5   0  0.1875284E-07  0.3096243E+04  0.7818609E-02  0.8216770E-01
        1   -1    0    0  501    0  0.00000000000E+00  0.00000000000E+00  0.25204470691E+04  0.25204470691E+04  0.50400001928E-02 0. -1.
       -1   -1    0    0    0  501  0.00000000000E+00  0.00000000000E+00 -0.95089504882E+03  0.95089504883E+03  0.50400001928E-02 0.  1.
    10030    2    1    2    0    0  0.00000000000E+00  0.00000000000E+00  0.15695520203E+04  0.34713421180E+04  0.30962432972E+04 0.  0.
        4    1    3    3  502    0  0.12944798415E+04 -0.84782542288E+03  0.83727893108E+03  0.17594100230E+04  0.12699999809E+01 0. -1.
       -4    1    3    3    0  502 -0.12944798415E+04  0.84782542288E+03  0.73227308924E+03  0.17119320950E+04  0.12699999809E+01 0.  1.
</event>
<event>
 5   0  0.5154105E-07  0.3102734E+04  0.7818609E-02  0.8214988E-01
       -2   -1    0    0    0  501  0.00000000000E+00  0.00000000000E+00  0.10573175276E+04  0.10573175276E+04  0.25500000920E-02 0.  1.
        2   -1    0    0  501    0  0.00000000000E+00  0.00000000000E+00 -0.22762700143E+04  0.22762700143E+04  0.25500000920E-02 0. -1.
    10030    2    1    2    0    0  0.00000000000E+00  0.00000000000E+00 -0.12189524867E+04  0.33335875419E+04  0.31027343964E+04 0.  0.
        1    1    3    3  502    0  0.12929827579E+04 -0.81447651313E+03 -0.32205828283E+03  0.15616971346E+04  0.50400001928E-02 0.  1.
       -1    1    3    3    0  502 -0.12929827579E+04  0.81447651313E+03 -0.89689420385E+03  0.17718904073E+04  0.50400001928E-02 0. -1.
</event>
<event>
 5   0  0.5376678E-07  0.3094489E+04  0.7818609E-02  0.8217252E-01
       -2   -1    0    0    0  501  0.00000000000E+00  0.00000000000E+00  0.11645732939E+04  0.11645732939E+04  0.25500000920E-02 0.  1.
        2   -1    0    0  501    0  0.00000000000E+00  0.00000000000E+00 -0.20556595461E+04  0.20556595461E+04  0.25500000920E-02 0. -1.
    10030    2    1    2    0    0  0.00000000000E+00  0.00000000000E+00 -0.89108625214E+03  0.32202328400E+04  0.30944894304E+04 0.  0.
        5    1    3    3  502    0 -0.19342283203E+03  0.35276593124E+03 -0.20002693357E+04  0.20403322522E+04  0.46999998093E+01 0. -1.
       -5    1    3    3    0  502  0.19342283203E+03 -0.35276593124E+03  0.11091830836E+04  0.11799005878E+04  0.46999998093E+01 0.  1.
</event>
<event>
 5   0  0.5055900E-07  0.3090962E+04  0.7818609E-02  0.8218223E-01
        2   -1    0    0  501    0  0.00000000000E+00  0.00000000000E+00  0.22947266458E+04  0.22947266458E+04  0.25500000920E-02 0. -1.
       -2   -1    0    0    0  501  0.00000000000E+00  0.00000000000E+00 -0.10408695958E+04  0.10408695958E+04  0.25500000920E-02 0.  1.
    10030    2    1    2    0    0  0.00000000000E+00  0.00000000000E+00  0.12538570500E+04  0.33355962416E+04  0.30909617897E+04 0.  0.
        2    1    3    3  502    0 -0.10536220858E+03 -0.12659177073E+03  0.22852288882E+04  0.22911564204E+04  0.25500000920E-02 0. -1.
       -2    1    3    3    0  502  0.10536220858E+03  0.12659177073E+03 -0.10313718382E+04  0.10444398212E+04  0.25500000920E-02 0.  1.
</event>
<event>
 5   0  0.5342534E-07  0.3102456E+04  0.7818609E-02  0.8215064E-01
       -2   -1    0    0    0  501  0.00000000000E+00  0.00000000000E+00  0.10127324677E+04  0.10127324677E+04  0.25500000920E-02 0.  1.
        2   -1    0    0  501    0  0.00000000000E+00  0.00000000000E+00 -0.23760546390E+04  0.23760546390E+04  0.25500000920E-02 0. -1.
    10030    2    1    2    0    0  0.00000000000E+00  0.00000000000E+00 -0.13633221712E+04  0.33887871067E+04  0.31024555939E+04 0.  0.
        3    1    3    3  502    0 -0.73344622964E+03  0.13522074233E+03  0.80404849769E+03  0.10966868367E+04  0.10100000352E+00 0.  1.
       -3    1    3    3    0  502  0.73344622964E+03 -0.13522074233E+03 -0.21673706689E+04  0.22921002700E+04  0.10100000352E+00 0. -1.
</event>
<event>
 5   0  0.1845123E-07  0.3105724E+04  0.7818609E-02  0.8214169E-01
        1   -1    0    0  501    0  0.00000000000E+00  0.00000000000E+00  0.22816509066E+04  0.22816509066E+04  0.50400001928E-02 0. -1.
       -1   -1    0    0    0  501  0.00000000000E+00  0.00000000000E+00 -0.10568579633E+04  0.10568579633E+04  0.50400001928E-02 0.  1.
    10030    2    1    2    0    0  0.00000000000E+00  0.00000000000E+00  0.12247929433E+04  0.33385088699E+04  0.31057243471E+04 0.  0.
        2    1    3    3  502    0 -0.54598630537E+03  0.10816219070E+04 -0.43167820903E+03  0.12862165725E+04  0.25500000920E-02 0.  1.
       -2    1    3    3    0  502  0.54598630537E+03 -0.10816219070E+04  0.16564711523E+04  0.20522922974E+04  0.25500000920E-02 0. -1.
</event>
<event>
 5   0  0.1840359E-07  0.3102174E+04  0.7818609E-02  0.8215142E-01
       -1   -1    0    0    0  501  0.00000000000E+00  0.00000000000E+00  0.10430142759E+04  0.10430142759E+04  0.50400001928E-02 0.  1.
        1   -1    0    0  501    0  0.00000000000E+00  0.00000000000E+00 -0.23066512499E+04  0.23066512499E+04  0.50400001928E-02 0. -1.
    10030    2    1    2    0    0  0.00000000000E+00  0.00000000000E+00 -0.12636369740E+04  0.33496655258E+04  0.31021735498E+04 0.  0.
        1    1    3    3  502    0 -0.16671498697E+03  0.81588447425E+03 -0.20448084639E+04  0.22078729620E+04  0.50400001928E-02 0. -1.
       -1    1    3    3    0  502  0.16671498697E+03 -0.81588447425E+03  0.78117148993E+03  0.11417925639E+04  0.50400001928E-02 0.  1.
</event>
<event>
 5   0  0.5342534E-07  0.3094773E+04  0.7818609E-02  0.8217174E-01
        2   -1    0    0  501    0  0.00000000000E+00  0.00000000000E+00  0.13442915962E+04  0.13442915962E+04  0.25500000920E-02 0. -1.
       -2   -1    0    0    0  501  0.00000000000E+00  0.00000000000E+00 -0.17811653746E+04  0.17811653746E+04  0.25500000920E-02 0.  1.
    10030    2    1    2    0    0  0.00000000000E+00  0.00000000000E+00 -0.43687377835E+03  0.31254569708E+04  0.30947734292E+04 0.  0.
        3    1    3    3  502    0 -0.14655094832E+04  0.40669194002E+03  0.69502604042E+02  0.15224805423E+04  0.10100000352E+00 0. -1.
       -3    1    3    3    0  502  0.14655094832E+04 -0.40669194002E+03 -0.50637638240E+03  0.16029764285E+04  0.10100000352E+00 0.  1.
</event>
<event>
 5   0  0.5376678E-07  0.3096624E+04  0.7818609E-02  0.8216665E-01
        2   -1    0    0  501    0  0.00000000000E+00  0.00000000000E+00  0.16450092295E+04  0.16450092296E+04  0.25500000920E-02 0.  1.
       -2   -1    0    0    0  501  0.00000000000E+00  0.00000000000E+00 -0.14572984779E+04  0.14572984779E+04  0.25500000920E-02 0. -1.
    10030    2    1    2    0    0  0.00000000000E+00  0.00000000000E+00  0.18771075170E+03  0.31023077074E+04  0.30966236105E+04 0.  0.
        5    1    3    3  502    0  0.10338824678E+04  0.86237571691E+03 -0.67216734361E+03  0.15048042604E+04  0.46999998093E+01 0. -1.
       -5    1    3    3    0  502 -0.10338824678E+04 -0.86237571691E+03  0.85987809531E+03  0.15975034470E+04  0.46999998093E+01 0.  1.
</event>
<event>
 5   0  0.1830902E-07  0.3100965E+04  0.7818609E-02  0.8215473E-01
        1   -1    0    0  501    0  0.00000000000E+00  0.00000000000E+00  0.21121398065E+04  0.21121398065E+04  0.50400001928E-02 0. -1.
       -1   -1    0    0    0  501  0.00000000000E+00  0.00000000000E+00 -0.11381802194E+04  0.11381802194E+04  0.50400001928E-02 0.  1.
    10030    2    1    2    0    0  0.00000000000E+00  0.00000000000E+00  0.97395958714E+03  0.32503200259E+04  0.31009648488E+04 0.  0.
        3    1    3    3  502    0  0.11528135736E+04 -0.13843836999E+03 -0.59005735897E+03  0.13024254354E+04  0.10100000352E+00 0.  1.
       -3    1    3    3    0  502 -0.11528135736E+04  0.13843836999E+03  0.15640169461E+04  0.19478945905E+04  0.10100000352E+00 0. -1.
</event>
<event>
 5   0  0.1845123E-07  0.3111662E+04  0.7818609E-02  0.8212545E-01
        1   -1    0    0  501    0  0.00000000000E+00  0.00000000000E+00  0.20350908007E+04  0.20350908007E+04  0.50400001928E-02 0. -1.
       -1   -1    0    0    0  501  0.00000000000E+00  0.00000000000E+00 -0.11894357380E+04  0.11894357380E+04  0.50400001928E-02 0.  1.
    10030    2    1    2    0    0  0.00000000000E+00  0.00000000000E+00  0.84565506274E+03  0.32245265388E+04  0.31116617609E+04 0.  0.
        2    1    3    3  502    0  0.11547253440E+04 -0.10425619742E+04  0.40537509289E+03  0.16076862430E+04  0.25500000920E-02 0. -1.
       -2    1    3    3    0  502 -0.11547253440E+04  0.10425619742E+04  0.44027996985E+03  0.16168402957E+04  0.25500000920E-02 0.  1.
</event>
<event>
 5   0  0.1845123E-07  0.3098218E+04  0.7818609E-02  0.8216227E-01
        1   -1    0    0  501    0  0.00000000000E+00  0.00000000000E+00  0.25111741134E+04  0.25111741134E+04  0.50400001928E-02 0. -1.
       -1   -1    0    0    0  501  0.00000000000E+00  0.00000000000E+00 -0.95562403908E+03  0.95562403909E+03  0.50400001928E-02 0.  1.
    10030    2    1    2    0    0  0.00000000000E+00  0.00000000000E+00  0.15555500743E+04  0.34667981525E+04  0.30982177774E+04 0.  0.
        2    1    3    3  502    0  0.42848585618E+03 -0.10818347839E+04  0.19220622943E+04  0.22468400237E+04  0.25500000920E-02 0. -1.
       -2    1    3    3    0  502 -0.42848585618E+03  0.10818347839E+04 -0.36651222003E+03  0.12199581288E+04  0.25500000920E-02 0.  1.
</event>
<event>
 5   0  0.5248309E-07  0.3100022E+04  0.7818609E-02  0.8215732E-01
       -2   -1    0    0    0  501  0.00000000000E+00  0.00000000000E+00  0.15348176634E+04  0.15348176634E+04  0.25500000920E-02 0. -1.
        2   -1    0    0  501    0  0.00000000000E+00  0.00000000000E+00 -0.15653550845E+04  0.15653550845E+04  0.25500000920E-02 0.  1.
    10030    2    1    2    0    0  0.00000000000E+00  0.00000000000E+00 -0.30537421072E+02  0.31001727479E+04  0.31000223439E+04 0.  0.
        4    1    3    3  502    0  0.30991670558E+02  0.72181562278E+03  0.13561310217E+04  0.15365777683E+04  0.12699999809E+01 0. -1.
       -4    1    3    3    0  502 -0.30991670558E+02 -0.72181562278E+03 -0.13866684428E+04  0.15635949796E+04  0.12699999809E+01 0.  1.
</event>
<event>
 5   0  0.1814075E-07  0.3109701E+04  0.7818609E-02  0.8213080E-01
       -1   -1    0    0    0  501  0.00000000000E+00  0.00000000000E+00  0.12363908769E+04  0.12363908769E+04  0.50400001928E-02 0. -1.
        1   -1    0    0  501    0  0.00000000000E+00  0.00000000000E+00 -0.19553369405E+04  0.19553369405E+04  0.50400001928E-02 0.  1.
    10030    2    1    2    0    0  0.00000000000E+00  0.00000000000E+00 -0.71894606361E+03  0.31917278174E+04  0.31097014355E+04 0.  0.
        5    1    3    3  502    0 -0.11965280160E+04  0.97782046309E+03 -0.53643467431E+03  0.16357250383E+04  0.46999998093E+01 0.  1.
       -5    1    3    3    0  502  0.11965280160E+04 -0.97782046309E+03 -0.18251138930E+03  0.15560027791E+04  0.46999998093E+01 0. -1.
</event>
<event>
 5   0  0.5376678E-07  0.3101936E+04  0.7818609E-02  0.8215207E-01
       -2   -1    0    0    0  501  0.00000000000E+00  0.00000000000E+00  0.12659562380E+04  0.12659562380E+04  0.25500000920E-02 0. -1.
        2   -1    0    0  501    0  0.00000000000E+00  0.00000000000E+00 -0.19001465526E+04  0.19001465526E+04  0.25500000920E-02 0.  1.
    10030    2    1    2    0    0  0.00000000000E+00  0.00000000000E+00 -0.63419031457E+03  0.31661027906E+04  0.31019364155E+04 0.  0.
        5    1    3    3  502    0  0.13865630699E+04 -0.56080857734E+03 -0.73597063237E+03  0.16669547891E+04  0.46999998093E+01 0.  1.
       -5    1    3    3    0  502 -0.13865630699E+04  0.56080857734E+03  0.10178031781E+03  0.14991480015E+04  0.46999998093E+01 0. -1.
</event>
<event>
 5   0  0.1845123E-07  0.3094771E+04  0.7818609E-02  0.8217174E-01
       -1   -1    0    0    0  501  0.00000000000E+00  0.00000000000E+00  0.11200958033E+04  0.11200958033E+04  0.50400001928E-02 0. -1.
        1   -1    0    0  501    0  0.00000000000E+00  0.00000000000E+00 -0.21376765598E+04  0.21376765598E+04  0.50400001928E-02 0.  1.
    10030    2    1    2    0    0  0.00000000000E+00  0.00000000000E+00 -0.10175807566E+04  0.32577723631E+04  0.30947714251E+04 0.  0.
        2    1    3    3  502    0 -0.86035678196E+03  0.56040991881E+03 -0.17274026182E+04  0.20095255347E+04  0.25500000920E-02 0.  1.
       -2    1    3    3    0  502  0.86035678196E+03 -0.56040991881E+03  0.70982186160E+03  0.12482468284E+04  0.25500000920E-02 0. -1.
</event>
<event>
 5   0  0.5154105E-07  0.3101964E+04  0.7818609E-02  0.8215199E-01
       -2   -1    0    0    0  501  0.00000000000E+00  0.00000000000E+00  0.10864949959E+04  0.10864949959E+04  0.25500000920E-02 0.  1.
        2   -1    0    0  501    0  0.00000000000E+00  0.00000000000E+00 -0.22140417830E+04  0.22140417830E+04  0.25500000920E-02 0. -1.
    10030    2    1    2    0    0  0.00000000000E+00  0.00000000000E+00 -0.11275467871E+04  0.33005367789E+04  0.31019640990E+04 0.  0.
        1    1    3    3  502    0  0.12298627530E+04  0.10188931236E+03  0.43583556294E+03  0.13087767041E+04  0.50400001928E-02 0.  1.
       -1    1    3    3    0  502 -0.12298627530E+04 -0.10188931236E+03 -0.15633823501E+04  0.19917600748E+04  0.50400001928E-02 0. -1.
</event>
<event>
 5   0  0.1814075E-07  0.3089412E+04  0.7818609E-02  0.8218650E-01
        1   -1    0    0  501    0  0.00000000000E+00  0.00000000000E+00  0.98594944240E+03  0.98594944242E+03  0.50400001928E-02 0.  1.
       -1   -1    0    0    0  501  0.00000000000E+00  0.00000000000E+00 -0.24201202021E+04  0.24201202021E+04  0.50400001928E-02 0. -1.
    10030    2    1    2    0    0  0.00000000000E+00  0.00000000000E+00 -0.14341707597E+04  0.34060696446E+04  0.30894117006E+04 0.  0.
        5    1    3    3  502    0 -0.25274094819E+03  0.85398599867E+03 -0.21085599211E+04  0.22889336171E+04  0.46999998093E+01 0. -1.
       -5    1    3    3    0  502  0.25274094819E+03 -0.85398599867E+03  0.67438916136E+03  0.11171360274E+04  0.46999998093E+01 0.  1.
</event>
<event>
 5   0  0.1845123E-07  0.3097060E+04  0.7818609E-02  0.8216545E-01
       -1   -1    0    0    0  501  0.00000000000E+00  0.00000000000E+00  0.18948332642E+04  0.18948332642E+04  0.50400001928E-02 0.  1.
        1   -1    0    0  501    0  0.00000000000E+00  0.00000000000E+00 -0.12655180699E+04  0.12655180699E+04  0.50400001928E-02 0. -1.
    10030    2    1    2    0    0  0.00000000000E+00  0.00000000000E+00  0.62931519428E+03  0.31603513341E+04  0.30970603709E+04 0.  0.
        2    1    3    3  502    0 -0.49933559110E+03  0.12689075828E+04  0.10634678693E+04  0.17292849375E+04  0.25500000920E-02 0.  1.
       -2    1    3    3    0  502  0.49933559110E+03 -0.12689075828E+04 -0.43415267499E+03  0.14310663966E+04  0.25500000920E-02 0. -1.
</event>
<event>
 5   0  0.5055900E-07  0.3097774E+04  0.7818609E-02  0.8216349E-01
       -2   -1    0    0    0  501  0.00000000000E+00  0.00000000000E+00  0.91311364884E+03  0.91311364884E+03  0.25500000920E-02 0.  1.
        2   -1    0    0  501    0  0.00000000000E+00  0.00000000000E+00 -0.26273306316E+04  0.26273306316E+04  0.25500000920E-02 0. -1.
    10030    2    1    2    0    0  0.00000000000E+00  0.00000000000E+00 -0.17142169828E+04  0.35404442804E+04  0.30977743364E+04 0.  0.
        2    1    3    3  502    0 -0.92424315549E+03  0.26648593121E+03  0.53037852234E+03  0.10984268473E+04  0.25500000920E-02 0.  1.
       -2    1    3    3    0  502  0.92424315549E+03 -0.26648593121E+03 -0.22445955051E+04  0.24420174331E+04  0.25500000920E-02 0. -1.
</event>
<event>
 5   0  0.5055900E-07  0.3098565E+04  0.7818609E-02  0.8216132E-01
       -2   -1    0    0    0  501  0.00000000000E+00  0.00000000000E+00  0.15004969886E+04  0.15004969886E+04  0.25500000920E-02 0. -1.
        2   -1    0    0  501    0  0.00000000000E+00  0.00000000000E+00 -0.15996536585E+04  0.15996536585E+04  0.25500000920E-02 0.  1.
    10030    2    1    2    0    0  0.00000000000E+00  0.00000000000E+00 -0.99156669850E+02  0.31001506471E+04  0.30985645046E+04 0.  0.
        2    1    3    3  502    0  0.14469231276E+04  0.31411716695E+03  0.40674653671E+03  0.15354800152E+04  0.25500000920E-02 0. -1.
       -2    1    3    3    0  502 -0.14469231276E+04 -0.31411716695E+03 -0.50590320656E+03  0.15646706319E+04  0.25500000920E-02 0.  1.
</event>
<event>
 5   0  0.5248309E-07  0.3100837E+04  0.7818609E-02  0.8215508E-01
        2   -1    0    0  501    0  0.00000000000E+00  0.00000000000E+00  0.14994142478E+04  0.14994142478E+04  0.25500000920E-02 0.  1.
       -2   -1    0    0    0  501  0.00000000000E+00  0.00000000000E+00 -0.16031574421E+04  0.16031574421E+04  0.25500000920E-02 0. -1.
    10030    2    1    2    0    0  0.00000000000E+00  0.00000000000E+00 -0.10374319431E+03  0.31025716900E+04  0.31008367324E+04 0.  0.
        4    1    3    3  502    0 -0.22914777856E+02 -0.12181475616E+04 -0.10112547498E+04  0.15833655140E+04  0.12699999809E+01 0. -1.
       -4    1    3    3    0  502  0.22914777856E+02  0.12181475616E+04  0.90751155549E+03  0.15192061760E+04  0.12699999809E+01 0.  1.
</event>
<event>
 5   0  0.5055900E-07  0.3098919E+04  0.7818609E-02  0.8216035E-01
       -2   -1    0    0    0  501  0.00000000000E+00  0.00000000000E+00  0.28048282609E+04  0.28048282609E+04  0.25500000920E-02 0. -1.
        2   -1    0    0  501    0  0.00000000000E+00  0.00000000000E+00 -0.85596121591E+03  0.85596121592E+03  0.25500000920E-02 0.  1.
    10030    2    1    2    0    0  0.00000000000E+00  0.00000000000E+00  0.19488670450E+04  0.36607894768E+04  0.30989186557E+04 0.  0.
        2    1    3    3  502    0 -0.14193236845E+04 -0.48191282744E+03  0.14381710670E+04  0.20772712178E+04  0.25500000920E-02 0. -1.
       -2    1    3    3    0  502  0.14193236845E+04  0.48191282744E+03  0.51069597799E+03  0.15835182590E+04  0.25500000920E-02 0.  1.
</event>
<event>
 5   0  0.5055900E-07  0.3097166E+04  0.7818609E-02  0.8216516E-01
       -2   -1    0    0    0  501  0.00000000000E+00  0.00000000000E+00  0.14191345645E+04  0.14191345645E+04  0.25500000920E-02 0.  1.
        2   -1    0    0  501    0  0.00000000000E+00  0.00000000000E+00 -0.16898397439E+04  0.16898397439E+04  0.25500000920E-02 0. -1.
    10030    2    1    2    0    0  0.00000000000E+00  0.00000000000E+00 -0.27070517943E+03  0.31089743084E+04  0.30971664399E+04 0.  0.
        2    1    3    3  502    0 -0.14721525548E+04 -0.11109532238E+03  0.33390657735E+03  0.15136277342E+04  0.25500000920E-02 0.  1.
       -2    1    3    3    0  502  0.14721525548E+04  0.11109532238E+03 -0.60461175677E+03  0.15953465742E+04  0.25500000920E-02 0. -1.
</event>
<event>
 5   0  0.5342534E-07  0.3102287E+04  0.7818609E-02  0.8215111E-01
        2   -1    0    0  501    0  0.00000000000E+00  0.00000000000E+00  0.22012222924E+04  0.22012222924E+04  0.25500000920E-02 0. -1.
       -2   -1    0    0    0  501  0.00000000000E+00  0.00000000000E+00 -0.10930499379E+04  0.10930499380E+04  0.25500000920E-02 0.  1.
    10030    2    1    2    0    0  0.00000000000E+00  0.00000000000E+00  0.11081723544E+04  0.32942722303E+04  0.31022868275E+04 0.  0.
        3    1    3    3  502    0 -0.61141902867E+02 -0.75981432341E+03 -0.88043759743E+03  0.11645713853E+04  0.10100000352E+00 0.  1.
       -3    1    3    3    0  502  0.61141902867E+02  0.75981432341E+03  0.19886099518E+04  0.21297008450E+04  0.10100000352E+00 0. -1.
</event>
<event>
 5   0  0.1875284E-07  0.3095776E+04  0.7818609E-02  0.8216898E-01
        1   -1    0    0  501    0  0.00000000000E+00  0.00000000000E+00  0.11654094148E+04  0.11654094148E+04  0.50400001928E-02 0. -1.
       -1   -1    0    0    0  501  0.00000000000E+00  0.00000000000E+00 -0.20558935095E+04  0.20558935095E+04  0.50400001928E-02 0.  1.
    10030    2    1    2    0    0  0.00000000000E+00  0.00000000000E+00 -0.89048409475E+03  0.32213029243E+04  0.30957762528E+04 0.  0.
        4    1    3    3  502    0 -0.23541789857E+03 -0.13322598463E+04  0.33732881256E+03  0.13943207040E+04  0.12699999809E+01 0.  1.
       -4    1    3    3    0  502  0.23541789857E+03  0.13322598463E+04 -0.12278129073E+04  0.18269822203E+04  0.12699999809E+01 0. -1.
</event>
<event>
 5   0  0.1840359E-07  0.3099429E+04  0.7818609E-02  0.8215895E-01
        1   -1    0    0  501    0  0.00000000000E+00  0.00000000000E+00  0.24268457617E+04  0.24268457617E+04  0.50400001928E-02 0.  1.
       -1   -1    0    0    0  501  0.00000000000E+00  0.00000000000E+00 -0.98960366698E+03  0.98960366700E+03  0.50400001928E-02 0. -1.
    10030    2    1    2    0    0  0.00000000000E+00  0.00000000000E+00  0.14372420948E+04  0.34164494287E+04  0.30994292798E+04 0.  0.
        1    1    3    3  502    0  0.56934236994E+02 -0.12575370951E+04 -0.27769584186E+03  0.12890911657E+04  0.50400001928E-02 0. -1.
       -1    1    3    3    0  502 -0.56934236994E+02  0.12575370951E+04  0.17149379366E+04  0.21273582630E+04  0.50400001928E-02 0.  1.
</event>
<event>
 5   0  0.1830902E-07  0.3101041E+04  0.7818609E-02  0.8215452E-01
       -1   -1    0    0    0  501  0.00000000000E+00  0.00000000000E+00  0.17002953129E+04  0.17002953129E+04  0.50400001928E-02 0. -1.
        1   -1    0    0  501    0  0.00000000000E+00  0.00000000000E+00 -0.14139388424E+04  0.14139388424E+04  0.50400001928E-02 0.  1.
    10030    2    1    2    0    0  0.00000000000E+00  0.00000000000E+00  0.28635647047E+03  0.31142341553E+04  0.31010408488E+04 0.  0.
        3    1    3    3  502    0 -0.13520456692E+04  0.53020226971E+03  0.68860181087E+03  0.16072692378E+04  0.10100000352E+00 0. -1.
       -3    1    3    3    0  502  0.13520456692E+04 -0.53020226971E+03 -0.40224534040E+03  0.15069649175E+04  0.10100000352E+00 0.  1.
</event>
<event>
 5   0  0.1845123E-07  0.3097091E+04  0.7818609E-02  0.8216537E-01
        1   -1    0    0  501    0  0.00000000000E+00  0.00000000000E+00  0.16575799838E+04  0.16575799838E+04  0.50400001928E-02 0.  1.
       -1   -1    0    0    0  501  0.00000000000E+00  0.00000000000E+00 -0.14466832455E+04  0.14466832455E+04  0.50400001928E-02 0. -1.
    10030    2    1    2    0    0  0.00000000000E+00  0.00000000000E+00  0.21089673830E+03  0.31042632293E+04  0.30970910162E+04 0.  0.
        2    1    3    3  502    0  0.18826257898E+03  0.14377044236E+03  0.16393126457E+04  0.16563389415E+04  0.25500000920E-02 0.  1.
       -2    1    3    3    0  502 -0.18826257898E+03 -0.14377044236E+03 -0.14284159074E+04  0.14479242878E+04  0.25500000920E-02 0. -1.
</event>
<event>
 5   0  0.1840359E-07  0.3109110E+04  0.7818609E-02  0.8213242E-01
       -1   -1    0    0    0  501  0.00000000000E+00  0.00000000000E+00  0.11548441586E+04  0.11548441586E+04  0.50400001928E-02 0. -1.
        1   -1    0    0  501    0  0.00000000000E+00  0.00000000000E+00 -0.20926128782E+04  0.20926128782E+04  0.50400001928E-02 0.  1.
    10030    2    1    2    0    0  0.00000000000E+00  0.00000000000E+00 -0.93776871964E+03  0.32474570368E+04  0.31091103285E+04 0.  0.
        1    1    3    3  502    0 -0.71571147980E+03 -0.77988470726E+03 -0.16580427858E+04  0.19671219989E+04  0.50400001928E-02 0.  1.
       -1    1    3    3    0  502  0.71571147980E+03  0.77988470726E+03  0.72027406617E+03  0.12803350379E+04  0.50400001928E-02 0. -1.
</event>
<event>
 5   0  0.5248309E-07  0.3103517E+04  0.7818609E-02  0.8214773E-01
       -2   -1    0    0    0  501  0.00000000000E+00  0.00000000000E+00  0.10601224668E+04  0.10601224668E+04  0.25500000920E-02 0. -1.
        2   -1    0    0  501    0  0.00000000000E+00  0.00000000000E+00 -0.22713925882E+04  0.22713925882E+04  0.25500000920E-02 0.  1.
    10030    2    1    2    0    0  0.00000000000E+00  0.00000000000E+00 -0.12112701213E+04  0.33315150550E+04  0.31035169171E+04 0.  0.
        4    1    3    3  502    0 -0.21634487413E+03 -0.12645270194E+04  0.33149325715E+03  0.13250370107E+04  0.12699999809E+01 0. -1.
       -4    1    3    3    0  502  0.21634487413E+03  0.12645270194E+04 -0.15427633785E+04  0.20064780443E+04  0.12699999809E+01 0.  1.
</event>
<event>
 5   0  0.5248309E-07  0.3099556E+04  0.7818609E-02  0.8215860E-01
        2   -1    0    0  501    0  0.00000000000E+00  0.00000000000E+00  0.26289505055E+04  0.26289505055E+04  0.25500000920E-02 0.  1.
       -2   -1    0    0    0  501  0.00000000000E+00  0.00000000000E+00 -0.91360102961E+03  0.91360102961E+03  0.25500000920E-02 0. -1.
    10030    2    1    2    0    0  0.00000000000E+00  0.00000000000E+00  0.17153494759E+04  0.35425515351E+04  0.30995560254E+04 0.  0.
        4    1    3    3  502    0 -0.74290396829E+03 -0.13596564992E+04  0.81745793931E+03  0.17518022712E+04  0.12699999809E+01 0.  1.
       -4    1    3    3    0  502  0.74290396829E+03  0.13596564992E+04  0.89789153656E+03  0.17907492639E+04  0.12699999809E+01 0. -1.
</event>
<event>
 5   0  0.5055900E-07  0.3099458E+04  0.7818609E-02  0.8215887E-01
       -2   -1    0    0    0  501  0.00000000000E+00  0.00000000000E+00  0.13900627057E+04  0.13900627057E+04  0.25500000920E-02 0.  1.
        2   -1    0    0  501    0  0.00000000000E+00  0.00000000000E+00 -0.17277354422E+04  0.17277354422E+04  0.25500000920E-02 0. -1.
    10030    2    1    2    0    0  0.00000000000E+00  0.00000000000E+00 -0.33767273658E+03  0.31177981479E+04  0.30994584066E+04 0.  0.
        2    1    3    3  502    0 -0.77419512768E+03 -0.12666313406E+03 -0.15132470693E+04  0.17045053060E+04  0.25500000920E-02 0. -1.
       -2    1    3    3    0  502  0.77419512768E+03  0.12666313406E+03  0.11755743328E+04  0.14132928419E+04  0.25500000920E-02 0.  1.
</event>
<event>
 5   0  0.1814075E-07  0.3099502E+04  0.7818609E-02  0.8215875E-01
        1   -1    0    0  501    0  0.00000000000E+00  0.00000000000E+00  0.15022034621E+04  0.15022034621E+04  0.50400001928E-02 0.  1.
       -1   -1    0    0    0  501  0.00000000000E+00  0.00000000000E+00 -0.15988038445E+04  0.15988038445E+04  0.50400001928E-02 0. -1.
    10030    2    1    2    0    0  0.00000000000E+00  0.00000000000E+00 -0.96600382356E+02  0.31010073066E+04  0.30995023280E+04 0.  0.
        5    1    3    3  502    0 -0.36716739211E+03 -0.45757183518E+03 -0.14834034166E+04  0.15952089721E+04  0.46999998093E+01 0. -1.
       -5    1    3    3    0  502  0.36716739211E+03  0.45757183518E+03  0.13868030343E+04  0.15057983345E+04  0.46999998093E+01 0.  1.
</event>
<event>
 5   0  0.1875284E-07  0.3100093E+04  0.7818609E-02  0.8215713E-01
       -1   -1    0    0    0  501  0.00000000000E+00  0.00000000000E+00  0.14280912772E+04  0.14280912772E+04  0.50400001928E-02 0.  1.
        1   -1    0    0  501    0  0.00000000000E+00  0.00000000000E+00 -0.16824159071E+04  0.16824159071E+04  0.50400001928E-02 0. -1.
    10030    2    1    2    0    0  0.00000000000E+00  0.00000000000E+00 -0.25432462989E+03  0.31105071843E+04  0.31000925674E+04 0.  0.
        4    1    3    3  502    0 -0.76933911423E+03  0.57635975407E+03  0.10928867341E+04  0.14554986312E+04  0.12699999809E+01 0.  1.
       -4    1    3    3    0  502  0.76933911423E+03 -0.57635975407E+03 -0.13472113640E+04  0.16550085532E+04  0.12699999809E+01 0. -1.
</event>
<event>
 5   0  0.1830902E-07  0.3052001E+04  0.7818609E-02  0.8229036E-01
        1   -1    0    0  501    0  0.00000000000E+00  0.00000000000E+00  0.19610967137E+04  0.19610967137E+04  0.50400001928E-02 0.  1.
       -1   -1    0    0    0  501  0.00000000000E+00  0.00000000000E+00 -0.11874361981E+04  0.11874361981E+04  0.50400001928E-02 0. -1.
    10030    2    1    2    0    0  0.00000000000E+00  0.00000000000E+00  0.77366051557E+03  0.31485329118E+04  0.30520008033E+04 0.  0.
        3    1    3    3  502    0  0.13570760380E+04  0.34248299064E+03  0.10141144169E+04  0.17284033189E+04  0.10100000352E+00 0.  1.
       -3    1    3    3    0  502 -0.13570760380E+04 -0.34248299064E+03 -0.24045390135E+03  0.14201295929E+04  0.10100000352E+00 0. -1.
</event>
<event>
 5   0  0.1875284E-07  0.3095384E+04  0.7818609E-02  0.8217006E-01
       -1   -1    0    0    0  501  0.00000000000E+00  0.00000000000E+00  0.19698166382E+04  0.19698166382E+04  0.50400001928E-02 0.  1.
        1   -1    0    0  501    0  0.00000000000E+00  0.00000000000E+00 -0.12160273254E+04  0.12160273254E+04  0.50400001928E-02 0. -1.
    10030    2    1    2    0    0  0.00000000000E+00  0.00000000000E+00  0.75378931277E+03  0.31858439636E+04  0.30953842140E+04 0.  0.
        4    1    3    3  502    0 -0.68346292939E+03 -0.12430076206E+04 -0.26019398756E+03  0.14421830829E+04  0.12699999809E+01 0. -1.
       -4    1    3    3    0  502  0.68346292939E+03  0.12430076206E+04  0.10139833003E+04  0.17436608807E+04  0.12699999809E+01 0.  1.
</event>
<event>
 5   0  0.1875284E-07  0.3089304E+04  0.7818609E-02  0.8218679E-01
        1   -1    0    0  501    0  0.00000000000E+00  0.00000000000E+00  0.12475584024E+04  0.12475584024E+04  0.50400001928E-02 0. -1.
       -1   -1    0    0    0  501  0.00000000000E+00  0.00000000000E+00 -0.19124960097E+04  0.19124960097E+04  0.50400001928E-02 0.  1.
    10030    2    1    2    0    0  0.00000000000E+00  0.00000000000E+00 -0.66493760731E+03  0.31600544121E+04  0.30893044307E+04 0.  0.
        4    1    3    3  502    0 -0.11798345009E+04 -0.30044661227E+03 -0.13048556671E+04  0.17846365292E+04  0.12699999809E+01 0.  1.
       -4    1    3    3    0  502  0.11798345009E+04  0.30044661227E+03  0.63991805981E+03  0.13754178829E+04  0.12699999809E+01 0. -1.
</event>
<event>
 5   0  0.5154105E-07  0.3100002E+04  0.7818609E-02  0.8215737E-01
        2   -1    0    0  501    0  0.00000000000E+00  0.00000000000E+00  0.16503284568E+04  0.16503284568E+04  0.25500000920E-02 0.  1.
       -2   -1    0    0    0  501  0.00000000000E+00  0.00000000000E+00 -0.14557730814E+04  0.14557730814E+04  0.25500000920E-02 0. -1.
    10030    2    1    2    0    0  0.00000000000E+00  0.00000000000E+00  0.19455537537E+03  0.31061015382E+04  0.31000024148E+04 0.  0.
        1    1    3    3  502    0 -0.18127922045E+02 -0.12633070320E+04 -0.80239227050E+03  0.14966985783E+04  0.50400001928E-02 0. -1.
       -1    1    3    3    0  502  0.18127922045E+02  0.12633070320E+04  0.99694764587E+03  0.16094029599E+04  0.50400001928E-02 0.  1.
</event>
<event>
 5   0  0.5055900E-07  0.3118346E+04  0.7818609E-02  0.8210721E-01
       -2   -1    0    0    0  501  0.00000000000E+00  0.00000000000E+00  0.16514972560E+04  0.16514972560E+04  0.25500000920E-02 0. -1.
        2   -1    0    0  501    0  0.00000000000E+00  0.00000000000E+00 -0.14720096514E+04  0.14720096514E+04  0.25500000920E-02 0.  1.
    10030    2    1    2    0    0  0.00000000000E+00  0.00000000000E+00  0.17948760459E+03  0.31235069073E+04  0.31183456511E+04 0.  0.
        2    1    3    3  502    0 -0.35406254328E+03 -0.99250715991E+03 -0.10613271141E+04  0.14956089028E+04  0.25500000920E-02 0.  1.
       -2    1    3    3    0  502  0.35406254328E+03  0.99250715991E+03  0.12408147187E+04  0.16278980045E+04  0.25500000920E-02 0. -1.
</event>
<event>
 5   0  0.5342534E-07  0.3103814E+04  0.7818609E-02  0.8214692E-01
       -2   -1    0    0    0  501  0.00000000000E+00  0.00000000000E+00  0.12870876676E+04  0.12870876676E+04  0.25500000920E-02 0. -1.
        2   -1    0    0  501    0  0.00000000000E+00  0.00000000000E+00 -0.18712136126E+04  0.18712136126E+04  0.25500000920E-02 0.  1.
    10030    2    1    2    0    0  0.00000000000E+00  0.00000000000E+00 -0.58412594494E+03  0.31583012802E+04  0.31038144044E+04 0.  0.
        3    1    3    3  502    0  0.81923508692E+03  0.33181389918E+03  0.10059355297E+04  0.13390865885E+04  0.10100000352E+00 0. -1.
       -3    1    3    3    0  502 -0.81923508692E+03 -0.33181389918E+03 -0.15900614746E+04  0.18192146917E+04  0.10100000352E+00 0.  1.
</event>
<event>
 5   0  0.5376678E-07  0.3097780E+04  0.7818609E-02  0.8216347E-01
        2   -1    0    0  501    0  0.00000000000E+00  0.00000000000E+00  0.24735061131E+04  0.24735061131E+04  0.25500000920E-02 0. -1.
       -2   -1    0    0    0  501  0.00000000000E+00  0.00000000000E+00 -0.96990267690E+03  0.96990267690E+03  0.25500000920E-02 0.  1.
    10030    2    1    2    0    0  0.00000000000E+00  0.00000000000E+00  0.15036034362E+04  0.34434087900E+04  0.30977799795E+04 0.  0.
        5    1    3    3  502    0 -0.63076523937E+03 -0.44927595043E+03 -0.73925016310E+03  0.10706197086E+04  0.46999998093E+01 0.  1.
       -5    1    3    3    0  502  0.63076523937E+03  0.44927595043E+03  0.22428535993E+04  0.23727890813E+04  0.46999998093E+01 0. -1.
</event>
<event>
 5   0  0.1814075E-07  0.3098381E+04  0.7818609E-02  0.8216182E-01
       -1   -1    0    0    0  501  0.00000000000E+00  0.00000000000E+00  0.81735659513E+03  0.81735659515E+03  0.50400001928E-02 0.  1.
        1   -1    0    0  501    0  0.00000000000E+00  0.00000000000E+00 -0.29362841960E+04  0.29362841960E+04  0.50400001928E-02 0. -1.
    10030    2    1    2    0    0  0.00000000000E+00  0.00000000000E+00 -0.21189276009E+04  0.37536407911E+04  0.30983810307E+04 0.  0.
        5    1    3    3  502    0 -0.12989752987E+04  0.73152892853E+03 -0.15698681029E+04  0.21649432673E+04  0.46999998093E+01 0.  1.
       -5    1    3    3    0  502  0.12989752987E+04 -0.73152892853E+03 -0.54905949794E+03  0.15886975239E+04  0.46999998093E+01 0. -1.
</event>
<event>
 5   0  0.1845123E-07  0.3097117E+04  0.7818609E-02  0.8216530E-01
        1   -1    0    0  501    0  0.00000000000E+00  0.00000000000E+00  0.13313313773E+04  0.13313313773E+04  0.50400001928E-02 0.  1.
       -1   -1    0    0    0  501  0.00000000000E+00  0.00000000000E+00 -0.18012297123E+04  0.18012297123E+04  0.50400001928E-02 0. -1.
    10030    2    1    2    0    0  0.00000000000E+00  0.00000000000E+00 -0.46989833497E+03  0.31325610896E+04  0.30971171329E+04 0.  0.
        2    1    3    3  502    0 -0.60369476186E+03  0.10651416109E+04  0.72408960172E+03  0.14224203908E+04  0.25500000920E-02 0.  1.
       -2    1    3    3    0  502  0.60369476186E+03 -0.10651416109E+04 -0.11939879367E+04  0.17101406988E+04  0.25500000920E-02 0. -1.
</event>
<event>
 5   0  0.1814075E-07  0.3079774E+04  0.7818609E-02  0.8221311E-01
       -1   -1    0    0    0  501  0.00000000000E+00  0.00000000000E+00  0.22833067879E+04  0.22833067879E+04  0.50400001928E-02 0. -1.
        1   -1    0    0  501    0  0.00000000000E+00  0.00000000000E+00 -0.10385168667E+04  0.10385168667E+04  0.50400001928E-02 0.  1.
    10030    2    1    2    0    0  0.00000000000E+00  0.00000000000E+00  0.12447899212E+04  0.33218236546E+04  0.30797744145E+04 0.  0.
        5    1    3    3  502    0  0.72376583109E+03  0.24687757248E+02 -0.84337468954E+03  0.11116426677E+04  0.46999998093E+01 0.  1.
       -5    1    3    3    0  502 -0.72376583109E+03 -0.24687757248E+02  0.20881646107E+04  0.22101809870E+04  0.46999998093E+01 0. -1.
</event>
<event>
 5   0  0.5055900E-07  0.3104535E+04  0.7818609E-02  0.8214494E-01
        2   -1    0    0  501    0  0.00000000000E+00  0.00000000000E+00  0.32946614736E+04  0.32946614736E+04  0.25500000920E-02 0. -1.
       -2   -1    0    0    0  501  0.00000000000E+00  0.00000000000E+00 -0.73134499548E+03  0.73134499549E+03  0.25500000920E-02 0.  1.
    10030    2    1    2    0    0  0.00000000000E+00  0.00000000000E+00  0.25633164781E+04  0.40260064691E+04  0.31045348641E+04 0.  0.
        2    1    3    3  502    0 -0.93527531168E+03  0.29159463530E+03 -0.27978789999E+03  0.10188467053E+04  0.25500000920E-02 0.  1.
       -2    1    3    3    0  502  0.93527531168E+03 -0.29159463530E+03  0.28431043781E+04  0.30071597638E+04  0.25500000920E-02 0. -1.
</event>
<event>
 5   0  0.5154105E-07  0.3104924E+04  0.7818609E-02  0.8214388E-01
        2   -1    0    0  501    0  0.00000000000E+00  0.00000000000E+00  0.12607838177E+04  0.12607838177E+04  0.25500000920E-02 0. -1.
       -2   -1    0    0    0  501  0.00000000000E+00  0.00000000000E+00 -0.19116188991E+04  0.19116188991E+04  0.25500000920E-02 0.  1.
    10030    2    1    2    0    0  0.00000000000E+00  0.00000000000E+00 -0.65083508143E+03  0.31724027168E+04  0.31049239434E+04 0.  0.
        1    1    3    3  502    0  0.70578752326E+03  0.13795040730E+04 -0.42218949241E+03  0.16060546326E+04  0.50400001928E-02 0.  1.
       -1    1    3    3    0  502 -0.70578752326E+03 -0.13795040730E+04 -0.22864558902E+03  0.15663480842E+04  0.50400001928E-02 0. -1.
</event>
<event>
 5   0  0.5154105E-07  0.3102357E+04  0.7818609E-02  0.8215091E-01
        2   -1    0    0  501    0  0.00000000000E+00  0.00000000000E+00  0.16380922264E+04  0.16380922264E+04  0.25500000920E-02 0. -1.
       -2   -1    0    0    0  501  0.00000000000E+00  0.00000000000E+00 -0.14688762082E+04  0.14688762082E+04  0.25500000920E-02 0.  1.
    10030    2    1    2    0    0  0.00000000000E+00  0.00000000000E+00  0.16921601818E+03  0.31069684347E+04  0.31023569738E+04 0.  0.
        1    1    3    3  502    0 -0.65477544576E+03 -0.86489553251E+03  0.11950300192E+04  0.16139615588E+04  0.50400001928E-02 0. -1.
       -1    1    3    3    0  502  0.65477544576E+03  0.86489553251E+03 -0.10258140010E+04  0.14930068758E+04  0.50400001928E-02 0.  1.
</event>
<event>
 5   0  0.5342534E-07  0.3099163E+04  0.7818609E-02  0.8215968E-01
        2   -1    0    0  501    0  0.00000000000E+00  0.00000000000E+00  0.15439020062E+04  0.15439020062E+04  0.25500000920E-02 0.  1.
       -2   -1    0    0    0  501  0.00000000000E+00  0.00000000000E+00 -0.15552821150E+04  0.15552821150E+04  0.25500000920E-02 0. -1.
    10030    2    1    2    0    0  0.00000000000E+00  0.00000000000E+00 -0.11380108829E+02  0.30991841212E+04  0.30991632274E+04 0.  0.
        3    1    3    3  502    0  0.14698297147E+04 -0.21061963793E+03 -0.44891211399E+03  0.15512195584E+04  0.10100000352E+00 0. -1.
       -3    1    3    3    0  502 -0.14698297147E+04  0.21061963793E+03  0.43753200516E+03  0.15479645628E+04  0.10100000352E+00 0.  1.
</event>
<event>
 5   0  0.1875284E-07  0.3098309E+04  0.7818609E-02  0.8216202E-01
       -1   -1    0    0    0  501  0.00000000000E+00  0.00000000000E+00  0.15467441406E+04  0.15467441406E+04  0.50400001928E-02 0.  1.
        1   -1    0    0  501    0  0.00000000000E+00  0.00000000000E+00 -0.15515688041E+04  0.15515688041E+04  0.50400001928E-02 0. -1.
    10030    2    1    2    0    0  0.00000000000E+00  0.00000000000E+00 -0.48246634905E+01  0.30983129447E+04  0.30983091882E+04 0.  0.
        4    1    3    3  502    0 -0.60064501355E+03  0.12057392317E+04 -0.76746019666E+03  0.15503477976E+04  0.12699999809E+01 0. -1.
       -4    1    3    3    0  502  0.60064501355E+03 -0.12057392317E+04  0.76263553317E+03  0.15479651471E+04  0.12699999809E+01 0.  1.
</event>
<event>
 5   0  0.5154105E-07  0.3100063E+04  0.7818609E-02  0.8215721E-01
        2   -1    0    0  501    0  0.00000000000E+00  0.00000000000E+00  0.20204331334E+04  0.20204331334E+04  0.25500000920E-02 0.  1.
       -2   -1    0    0    0  501  0.00000000000E+00  0.00000000000E+00 -0.11891495096E+04  0.11891495096E+04  0.25500000920E-02 0. -1.
    10030    2    1    2    0    0  0.00000000000E+00  0.00000000000E+00  0.83128362384E+03  0.32095826431E+04  0.31000626251E+04 0.  0.
        1    1    3    3  502    0 -0.68507643235E+03  0.68367195495E+03  0.16691418284E+04  0.19294484973E+04  0.50400001928E-02 0.  1.
       -1    1    3    3    0  502  0.68507643235E+03 -0.68367195495E+03 -0.83785820461E+03  0.12801341458E+04  0.50400001928E-02 0. -1.
</event>
<event>
 5   0  0.1845123E-07  0.3096550E+04  0.7818609E-02  0.8216686E-01
       -1   -1    0    0    0  501  0.00000000000E+00  0.00000000000E+00  0.12122767567E+04  0.12122767567E+04  0.50400001928E-02 0. -1.
        1   -1    0    0  501    0  0.00000000000E+00  0.00000000000E+00 -0.19773988975E+04  0.19773988975E+04  0.50400001928E-02 0.  1.
    10030    2    1    2    0    0  0.00000000000E+00  0.00000000000E+00 -0.76512214080E+03  0.31896756542E+04  0.30965495134E+04 0.  0.
        2    1    3    3  502    0  0.76108804605E+03 -0.68143049475E+03  0.81585051179E+03  0.13073693398E+04  0.25500000920E-02 0. -1.
       -2    1    3    3    0  502 -0.76108804605E+03  0.68143049475E+03 -0.15809726526E+04  0.18823063144E+04  0.25500000920E-02 0.  1.
</event>
<event>
 5   0  0.5376678E-07  0.3091495E+04  0.7818609E-02  0.8218076E-01
       -2   -1    0    0    0  501  0.00000000000E+00  0.00000000000E+00  0.11842580529E+04  0.11842580529E+04  0.25500000920E-02 0. -1.
        2   -1    0    0  501    0  0.00000000000E+00  0.00000000000E+00 -0.20175797693E+04  0.20175797693E+04  0.25500000920E-02 0.  1.
    10030    2    1    2    0    0  0.00000000000E+00  0.00000000000E+00 -0.83332171636E+03  0.32018378222E+04  0.30914948417E+04 0.  0.
        5    1    3    3  502    0  0.15192558069E+04  0.12312387100E+02 -0.71146629821E+03  0.16776460250E+04  0.46999998093E+01 0. -1.
       -5    1    3    3    0  502 -0.15192558069E+04 -0.12312387100E+02 -0.12185541815E+03  0.15241917972E+04  0.46999998093E+01 0.  1.
</event>
<event>
 5   0  0.5342534E-07  0.3101292E+04  0.7818609E-02  0.8215383E-01
       -2   -1    0    0    0  501  0.00000000000E+00  0.00000000000E+00  0.71262638970E+03  0.71262638970E+03  0.25500000920E-02 0.  1.
        2   -1    0    0  501    0  0.00000000000E+00  0.00000000000E+00 -0.33741426634E+04  0.33741426634E+04  0.25500000920E-02 0. -1.
    10030    2    1    2    0    0  0.00000000000E+00  0.00000000000E+00 -0.26615162737E+04  0.40867690531E+04  0.31012920563E+04 0.  0.
        3    1    3    3  502    0 -0.53725457475E+03 -0.10446689285E+04  0.30680141143E+01  0.11747276583E+04  0.10100000352E+00 0.  1.
       -3    1    3    3    0  502  0.53725457475E+03  0.10446689285E+04 -0.26645842878E+04  0.29120413949E+04  0.10100000352E+00 0. -1.
</event>
<event>
 5   0  0.1845123E-07  0.3101518E+04  0.7818609E-02  0.8215321E-01
        1   -1    0    0  501    0  0.00000000000E+00  0.00000000000E+00  0.14605893816E+04  0.14605893816E+04  0.50400001928E-02 0. -1.
       -1   -1    0    0    0  501  0.00000000000E+00  0.00000000000E+00 -0.16464951931E+04  0.16464951931E+04  0.50400001928E-02 0.  1.
    10030    2    1    2    0    0  0.00000000000E+00  0.00000000000E+00 -0.18590581149E+03  0.31070845747E+04  0.31015179483E+04 0.  0.
        2    1    3    3  502    0  0.90023710397E+03 -0.73827611625E+03 -0.11191815159E+04  0.16149444983E+04  0.25500000920E-02 0.  1.
       -2    1    3    3    0  502 -0.90023710397E+03  0.73827611625E+03  0.93327570438E+03  0.14921400764E+04  0.25500000920E-02 0. -1.
</event>
<event>
 5   0  0.1845123E-07  0.3100868E+04  0.7818609E-02  0.8215500E-01
        1   -1    0    0  501    0  0.00000000000E+00  0.00000000000E+00  0.19598110133E+04  0.19598110133E+04  0.50400001928E-02 0. -1.
       -1   -1    0    0    0  501  0.00000000000E+00  0.00000000000E+00 -0.12265702260E+04  0.12265702260E+04  0.50400001928E-02 0.  1.
    10030    2    1    2    0    0  0.00000000000E+00  0.00000000000E+00  0.73324078731E+03  0.31863812393E+04  0.31008681607E+04 0.  0.
        2    1    3    3  502    0  0.82815427334E+03  0.14805908806E+03 -0.97163259278E+03  0.12852357330E+04  0.25500000920E-02 0.  1.
       -2    1    3    3    0  502 -0.82815427334E+03 -0.14805908806E+03  0.17048733801E+04  0.19011455063E+04  0.25500000920E-02 0. -1.
</event>
<event>
 5   0  0.1814075E-07  0.3102028E+04  0.7818609E-02  0.8215182E-01
       -1   -1    0    0    0  501  0.00000000000E+00  0.00000000000E+00  0.25431795624E+04  0.25431795624E+04  0.50400001928E-02 0.  1.
        1   -1    0    0  501    0  0.00000000000E+00  0.00000000000E+00 -0.94592000166E+03  0.94592000167E+03  0.50400001928E-02 0. -1.
    10030    2    1    2    0    0  0.00000000000E+00  0.00000000000E+00  0.15972595608E+04  0.34890995641E+04  0.31020279921E+04 0.  0.
        5    1    3    3  502    0  0.15452465535E+04  0.11715389948E+03  0.87074195111E+03  0.17775616959E+04  0.46999998093E+01 0.  1.
       -5    1    3    3    0  502 -0.15452465535E+04 -0.11715389948E+03  0.72651760967E+03  0.17115378682E+04  0.46999998093E+01 0. -1.
</event>
<event>
 5   0  0.5055900E-07  0.3094358E+04  0.7818609E-02  0.8217288E-01
        2   -1    0    0  501    0  0.00000000000E+00  0.00000000000E+00  0.23045492456E+04  0.23045492456E+04  0.25500000920E-02 0. -1.
       -2   -1    0    0    0  501  0.00000000000E+00  0.00000000000E+00 -0.10387117644E+04  0.10387117644E+04  0.25500000920E-02 0.  1.
    10030    2    1    2    0    0  0.00000000000E+00  0.00000000000E+00  0.12658374812E+04  0.33432610100E+04  0.30943577123E+04 0.  0.
        2    1    3    3  502    0 -0.30820978711E+03  0.51785750973E+03 -0.90669288101E+03  0.10886972278E+04  0.25500000920E-02 0.  1.
       -2    1    3    3    0  502  0.30820978711E+03 -0.51785750973E+03  0.21725303622E+04  0.22545637822E+04  0.25500000920E-02 0. -1.
</event>
<event>
 5   0  0.5055900E-07  0.3096969E+04  0.7818609E-02  0.8216570E-01
       -2   -1    0    0    0  501  0.00000000000E+00  0.00000000000E+00  0.11887151088E+04  0.11887151088E+04  0.25500000920E-02 0. -1.
        2   -1    0    0  501    0  0.00000000000E+00  0.00000000000E+00 -0.20171389944E+04  0.20171389944E+04  0.25500000920E-02 0.  1.
    10030    2    1    2    0    0  0.00000000000E+00  0.00000000000E+00 -0.82842388558E+03  0.32058541032E+04  0.30969685818E+04 0.  0.
        2    1    3    3  502    0  0.81212445142E+02 -0.14780719397E+04  0.56200773279E+02  0.14813678298E+04  0.25500000920E-02 0. -1.
       -2    1    3    3    0  502 -0.81212445142E+02  0.14780719397E+04 -0.88462465886E+03  0.17244862734E+04  0.25500000920E-02 0.  1.
</event>
<event>
 5   0  0.1830902E-07  0.3101316E+04  0.7818609E-02  0.8215377E-01
       -1   -1    0    0    0  501  0.00000000000E+00  0.00000000000E+00  0.12842053180E+04  0.12842053180E+04  0.50400001928E-02 0. -1.
        1   -1    0    0  501    0  0.00000000000E+00  0.00000000000E+00 -0.18723959506E+04  0.18723959506E+04  0.50400001928E-02 0.  1.
    10030    2    1    2    0    0  0.00000000000E+00  0.00000000000E+00 -0.58819063262E+03  0.31566012685E+04  0.31013163896E+04 0.  0.
        3    1    3    3  502    0  0.47883060095E+03 -0.12491339995E+03  0.12016794986E+04  0.12995829060E+04  0.10100000352E+00 0. -1.
       -3    1    3    3    0  502 -0.47883060095E+03  0.12491339995E+03 -0.17898701313E+04  0.18570183626E+04  0.10100000352E+00 0.  1.
</event>
<event>
 5   0  0.5248309E-07  0.3099210E+04  0.7818609E-02  0.8215955E-01
       -2   -1    0    0    0  501  0.00000000000E+00  0.00000000000E+00  0.21081314204E+04  0.21081314204E+04  0.25500000920E-02 0.  1.
        2   -1    0    0  501    0  0.00000000000E+00  0.00000000000E+00 -0.11390537366E+04  0.11390537366E+04  0.25500000920E-02 0. -1.
    10030    2    1    2    0    0  0.00000000000E+00  0.00000000000E+00  0.96907768384E+03  0.32471851571E+04  0.30992095584E+04 0.  0.
        4    1    3    3  502    0  0.10275492936E+04  0.37299374488E+03  0.16352921698E+04  0.19670190589E+04  0.12699999809E+01 0.  1.
       -4    1    3    3    0  502 -0.10275492936E+04 -0.37299374488E+03 -0.66621448600E+03  0.12801660981E+04  0.12699999809E+01 0. -1.
</event>
<event>
 5   0  0.1840359E-07  0.3102718E+04  0.7818609E-02  0.8214992E-01
        1   -1    0    0  501    0  0.00000000000E+00  0.00000000000E+00  0.13878513774E+04  0.13878513774E+04  0.50400001928E-02 0.  1.
       -1   -1    0    0    0  501  0.00000000000E+00  0.00000000000E+00 -0.17341301284E+04  0.17341301284E+04  0.50400001928E-02 0. -1.
    10030    2    1    2    0    0  0.00000000000E+00  0.00000000000E+00 -0.34627875095E+03  0.31219815058E+04  0.31027180905E+04 0.  0.
        1    1    3    3  502    0 -0.11073759381E+04  0.52221149781E+03  0.78552372324E+03  0.14546593541E+04  0.50400001928E-02 0.  1.
       -1    1    3    3    0  502  0.11073759381E+04 -0.52221149781E+03 -0.11318024742E+04  0.16673221517E+04  0.50400001928E-02 0. -1.
</event>
<event>
 5   0  0.5055900E-07  0.3094368E+04  0.7818609E-02  0.8217285E-01
       -2   -1    0    0    0  501  0.00000000000E+00  0.00000000000E+00  0.11068386704E+04  0.11068386704E+04  0.25500000920E-02 0.  1.
        2   -1    0    0  501    0  0.00000000000E+00  0.00000000000E+00 -0.21627171874E+04  0.21627171874E+04  0.25500000920E-02 0. -1.
    10030    2    1    2    0    0  0.00000000000E+00  0.00000000000E+00 -0.10558785169E+04  0.32695558578E+04  0.30943684436E+04 0.  0.
        2    1    3    3  502    0  0.71633127633E+03  0.13171811900E+04 -0.12464686530E+03  0.15045376784E+04  0.25500000920E-02 0.  1.
       -2    1    3    3    0  502 -0.71633127633E+03 -0.13171811900E+04 -0.93123165164E+03  0.17650181794E+04  0.25500000920E-02 0. -1.
</event>
<event>
 5   0  0.1830902E-07  0.3085039E+04  0.7818609E-02  0.8219856E-01
       -1   -1    0    0    0  501  0.00000000000E+00  0.00000000000E+00  0.16423416673E+04  0.16423416673E+04  0.50400001928E-02 0. -1.
        1   -1    0    0  501    0  0.00000000000E+00  0.00000000000E+00 -0.14487643127E+04  0.14487643127E+04  0.50400001928E-02 0.  1.
    10030    2    1    2    0    0  0.00000000000E+00  0.00000000000E+00  0.19357735456E+03  0.30911059800E+04  0.30850387336E+04 0.  0.
        3    1    3    3  502    0 -0.15413729673E+04 -0.35298462965E+02  0.48847103331E+02  0.15425506979E+04  0.10100000352E+00 0.  1.
       -3    1    3    3    0  502  0.15413729673E+04  0.35298462965E+02  0.14473025123E+03  0.15485552821E+04  0.10100000352E+00 0. -1.
</event>
<event>
 5   0  0.5154105E-07  0.3099464E+04  0.7818609E-02  0.8215885E-01
       -2   -1    0    0    0  501  0.00000000000E+00  0.00000000000E+00  0.18660539000E+04  0.18660539000E+04  0.25500000920E-02 0.  1.
        2   -1    0    0  501    0  0.00000000000E+00  0.00000000000E+00 -0.12870313041E+04  0.12870313041E+04  0.25500000920E-02 0. -1.
    10030    2    1    2    0    0  0.00000000000E+00  0.00000000000E+00  0.57902259592E+03  0.31530852042E+04  0.30994643308E+04 0.  0.
        1    1    3    3  502    0  0.15322333227E+04  0.21597789331E+03  0.20268619145E+03  0.15605983141E+04  0.50400001928E-02 0. -1.
       -1    1    3    3    0  502 -0.15322333227E+04 -0.21597789331E+03  0.37633640447E+03  0.15924868901E+04  0.50400001928E-02 0.  1.
</event>
<event>
 5   0  0.5376678E-07  0.3107856E+04  0.7818609E-02  0.8213585E-01
        2   -1    0    0  501    0  0.00000000000E+00  0.00000000000E+00  0.15506290570E+04  0.15506290570E+04  0.25500000920E-02 0.  1.
       -2   -1    0    0    0  501  0.00000000000E+00  0.00000000000E+00 -0.15572340526E+04  0.15572340526E+04  0.25500000920E-02 0. -1.
    10030    2    1    2    0    0  0.00000000000E+00  0.00000000000E+00 -0.66049956670E+01  0.31078631096E+04  0.31078560909E+04 0.  0.
        5    1    3    3  502    0  0.43123422126E+03 -0.11054137252E+04  0.10000779736E+04  0.15517991173E+04  0.46999998093E+01 0.  1.
       -5    1    3    3    0  502 -0.43123422126E+03  0.11054137252E+04 -0.10066829692E+04  0.15560639922E+04  0.46999998093E+01 0. -1.
</event>
<event>
 5   0  0.1840359E-07  0.3154299E+04  0.7818609E-02  0.8200992E-01
        1   -1    0    0  501    0  0.00000000000E+00  0.00000000000E+00  0.16131544661E+04  0.16131544661E+04  0.50400001928E-02 0.  1.
       -1   -1    0    0    0  501  0.00000000000E+00  0.00000000000E+00 -0.15419479270E+04  0.15419479270E+04  0.50400001928E-02 0. -1.
    10030    2    1    2    0    0  0.00000000000E+00  0.00000000000E+00  0.71206539138E+02  0.31551023932E+04  0.31542987715E+04 0.  0.
        1    1    3    3  502    0 -0.65569385379E+03 -0.60414951532E+03 -0.12656774879E+04  0.15481829899E+04  0.50400001928E-02 0. -1.
       -1    1    3    3    0  502  0.65569385379E+03  0.60414951532E+03  0.13368840271E+04  0.16069194033E+04  0.50400001928E-02 0.  1.
</event>
<event>
 5   0  0.1875284E-07  0.3099261E+04  0.7818609E-02  0.8215941E-01
        1   -1    0    0  501    0  0.00000000000E+00  0.00000000000E+00  0.21917981539E+04  0.21917981539E+04  0.50400001928E-02 0. -1.
       -1   -1    0    0    0  501  0.00000000000E+00  0.00000000000E+00 -0.10956095563E+04  0.10956095563E+04  0.50400001928E-02 0.  1.
    10030    2    1    2    0    0  0.00000000000E+00  0.00000000000E+00  0.10961885976E+04  0.32874077102E+04  0.30992612041E+04 0.  0.
        4    1    3    3  502    0 -0.14429651130E+04  0.46650585824E+03  0.88615434248E+03  0.17564302334E+04  0.12699999809E+01 0. -1.
       -4    1    3    3    0  502  0.14429651130E+04 -0.46650585824E+03  0.21003425514E+03  0.15309774768E+04  0.12699999809E+01 0.  1.
</event>
<event>
 5   0  0.1875284E-07  0.3132329E+04  0.7818609E-02  0.8206921E-01
       -1   -1    0    0    0  501  0.00000000000E+00  0.00000000000E+00  0.15609675454E+04  0.15609675454E+04  0.50400001928E-02 0.  1.
        1   -1    0    0  501    0  0.00000000000E+00  0.00000000000E+00 -0.15713783033E+04  0.15713783033E+04  0.50400001928E-02 0. -1.
    10030    2    1    2    0    0  0.00000000000E+00  0.00000000000E+00 -0.10410757982E+02  0.31323458487E+04  0.31323285479E+04 0.  0.
        4    1    3    3  502    0 -0.10471783454E+04  0.10659904617E+04  0.46378630351E+03  0.15646141696E+04  0.12699999809E+01 0.  1.
       -4    1    3    3    0  502  0.10471783454E+04 -0.10659904617E+04 -0.47419706149E+03  0.15677316791E+04  0.12699999809E+01 0. -1.
</event>
<event>
 5   0  0.5055900E-07  0.3098748E+04  0.7818609E-02  0.8216082E-01
       -2   -1    0    0    0  501  0.00000000000E+00  0.00000000000E+00  0.11052321476E+04  0.11052321476E+04  0.25500000920E-02 0.  1.
        2   -1    0    0  501    0  0.00000000000E+00  0.00000000000E+00 -0.21719957148E+04  0.21719957148E+04  0.25500000920E-02 0. -1.
    10030    2    1    2    0    0  0.00000000000E+00  0.00000000000E+00 -0.10667635672E+04  0.32772278624E+04  0.30987478041E+04 0.  0.
        2    1    3    3  502    0  0.17319839178E+03  0.12175969642E+03 -0.21566255773E+04  0.21669926136E+04  0.25500000920E-02 0. -1.
       -2    1    3    3    0  502 -0.17319839178E+03 -0.12175969642E+03  0.10898620101E+04  0.11102352488E+04  0.25500000920E-02 0.  1.
</event>
<event>
 5   0  0.5055900E-07  0.3108128E+04  0.7818609E-02  0.8213511E-01
        2   -1    0    0  501    0  0.00000000000E+00  0.00000000000E+00  0.19261058721E+04  0.19261058721E+04  0.25500000920E-02 0. -1.
       -2   -1    0    0    0  501  0.00000000000E+00  0.00000000000E+00 -0.12538845979E+04  0.12538845979E+04  0.25500000920E-02 0.  1.
    10030    2    1    2    0    0  0.00000000000E+00  0.00000000000E+00  0.67222127416E+03  0.31799904700E+04  0.31081277239E+04 0.  0.
        2    1    3    3  502    0  0.55976786493E+03  0.26958208596E+03  0.17935103462E+04  0.18980763751E+04  0.25500000920E-02 0. -1.
       -2    1    3    3    0  502 -0.55976786493E+03 -0.26958208596E+03 -0.11212890721E+04  0.12819140949E+04  0.25500000920E-02 0.  1.
</event>
<event>
 5   0  0.5248309E-07  0.3091499E+04  0.7818609E-02  0.8218075E-01
        2   -1    0    0  501    0  0.00000000000E+00  0.00000000000E+00  0.13051619446E+04  0.13051619446E+04  0.25500000920E-02 0. -1.
       -2   -1    0    0    0  501  0.00000000000E+00  0.00000000000E+00 -0.18306863146E+04  0.18306863146E+04  0.25500000920E-02 0.  1.
    10030    2    1    2    0    0  0.00000000000E+00  0.00000000000E+00 -0.52552436999E+03  0.31358482592E+04  0.30914993840E+04 0.  0.
        4    1    3    3  502    0  0.52509835490E+03 -0.88675430317E+03  0.90584079672E+03  0.13720825917E+04  0.12699999809E+01 0. -1.
       -4    1    3    3    0  502 -0.52509835490E+03  0.88675430317E+03 -0.14313651667E+04  0.17637656675E+04  0.12699999809E+01 0.  1.
</event>
<event>
 5   0  0.5376678E-07  0.3098395E+04  0.7818609E-02  0.8216179E-01
       -2   -1    0    0    0  501  0.00000000000E+00  0.00000000000E+00  0.11137544290E+04  0.11137544290E+04  0.25500000920E-02 0.  1.
        2   -1    0    0  501    0  0.00000000000E+00  0.00000000000E+00 -0.21548845596E+04  0.21548845596E+04  0.25500000920E-02 0. -1.
    10030    2    1    2    0    0  0.00000000000E+00  0.00000000000E+00 -0.10411301305E+04  0.32686389886E+04  0.30983945664E+04 0.  0.
        5    1    3    3  502    0  0.84471164318E+03 -0.12877373878E+04 -0.34345727962E+03  0.15779069469E+04  0.46999998093E+01 0.  1.
       -5    1    3    3    0  502 -0.84471164318E+03  0.12877373878E+04 -0.69767285091E+03  0.16907320417E+04  0.46999998093E+01 0. -1.
</event>
<event>
 5   0  0.5055900E-07  0.3082206E+04  0.7818609E-02  0.8220638E-01
        2   -1    0    0  501    0  0.00000000000E+00  0.00000000000E+00  0.19636079881E+04  0.19636079881E+04  0.25500000920E-02 0.  1.
       -2   -1    0    0    0  501  0.00000000000E+00  0.00000000000E+00 -0.12095074033E+04  0.12095074033E+04  0.25500000920E-02 0. -1.
    10030    2    1    2    0    0  0.00000000000E+00  0.00000000000E+00  0.75410058478E+03  0.31731153913E+04  0.30822059624E+04 0.  0.
        2    1    3    3  502    0 -0.10127059491E+04  0.45451404945E+03 -0.72351880178E+03  0.13250040819E+04  0.25500000920E-02 0. -1.
       -2    1    3    3    0  502  0.10127059491E+04 -0.45451404945E+03  0.14776193866E+04  0.18481113094E+04  0.25500000920E-02 0.  1.
</event>
<event>
 5   0  0.5154105E-07  0.3099869E+04  0.7818609E-02  0.8215774E-01
       -2   -1    0    0    0  501  0.00000000000E+00  0.00000000000E+00  0.17773103962E+04  0.17773103962E+04  0.25500000920E-02 0. -1.
        2   -1    0    0  501    0  0.00000000000E+00  0.00000000000E+00 -0.13516472682E+04  0.13516472682E+04  0.25500000920E-02 0.  1.
    10030    2    1    2    0    0  0.00000000000E+00  0.00000000000E+00  0.42566312793E+03  0.31289576644E+04  0.30998688629E+04 0.  0.
        1    1    3    3  502    0  0.10687095646E+04  0.11019351954E+04  0.42907408915E+03  0.15938964465E+04  0.50400001928E-02 0. -1.
       -1    1    3    3    0  502 -0.10687095646E+04 -0.11019351954E+04 -0.34109612268E+01  0.15350612179E+04  0.50400001928E-02 0.  1.
</event>
<event>
 5   0  0.5248309E-07  0.3101989E+04  0.7818609E-02  0.8215192E-01
        2   -1    0    0  501    0  0.00000000000E+00  0.00000000000E+00  0.78657145162E+03  0.78657145163E+03  0.25500000920E-02 0. -1.
       -2   -1    0    0    0  501  0.00000000000E+00  0.00000000000E+00 -0.30583156099E+04  0.30583156099E+04  0.25500000920E-02 0.  1.
    10030    2    1    2    0    0  0.00000000000E+00  0.00000000000E+00 -0.22717441582E+04  0.38448870615E+04  0.31019888773E+04 0.  0.
        4    1    3    3  502    0  0.11693483318E+04  0.95610747967E+03 -0.69928772309E+03  0.16644884999E+04  0.12699999809E+01 0. -1.
       -4    1    3    3    0  502 -0.11693483318E+04 -0.95610747967E+03 -0.15724564352E+04  0.21803985616E+04  0.12699999809E+01 0.  1.
</event>
<event>
 5   0  0.5248309E-07  0.3098299E+04  0.7818609E-02  0.8216205E-01
       -2   -1    0    0    0  501  0.00000000000E+00  0.00000000000E+00  0.17183354451E+04  0.17183354451E+04  0.25500000920E-02 0. -1.
        2   -1    0    0  501    0  0.00000000000E+00  0.00000000000E+00 -0.13966218927E+04  0.13966218927E+04  0.25500000920E-02 0.  1.
    10030    2    1    2    0    0  0.00000000000E+00  0.00000000000E+00  0.32171355245E+03  0.31149573378E+04  0.30982994701E+04 0.  0.
        4    1    3    3  502    0 -0.13376214010E+04  0.43598645229E+03  0.81284018246E+03  0.16248156739E+04  0.12699999809E+01 0. -1.
       -4    1    3    3    0  502  0.13376214010E+04 -0.43598645229E+03 -0.49112663001E+03  0.14901416639E+04  0.12699999809E+01 0.  1.
</event>
<event>
 5   0  0.5376678E-07  0.3093512E+04  0.7818609E-02  0.8217521E-01
        2   -1    0    0  501    0  0.00000000000E+00  0.00000000000E+00  0.20113942022E+04  0.20113942023E+04  0.25500000920E-02 0. -1.
       -2   -1    0    0    0  501  0.00000000000E+00  0.00000000000E+00 -0.11894504392E+04  0.11894504392E+04  0.25500000920E-02 0.  1.
    10030    2    1    2    0    0  0.00000000000E+00  0.00000000000E+00  0.82194376307E+03  0.32008446414E+04  0.30935117373E+04 0.  0.
        5    1    3    3  502    0  0.65911958417E+03  0.10942884616E+04  0.13133110152E+04  0.18321336676E+04  0.46999998093E+01 0. -1.
       -5    1    3    3    0  502 -0.65911958417E+03 -0.10942884616E+04 -0.49136725210E+03  0.13687109738E+04  0.46999998093E+01 0.  1.
</event>
<event>
 5   0  0.1875284E-07  0.3099041E+04  0.7818609E-02  0.8216001E-01
        1   -1    0    0  501    0  0.00000000000E+00  0.00000000000E+00  0.24095523443E+04  0.24095523443E+04  0.50400001928E-02 0.  1.
       -1   -1    0    0    0  501  0.00000000000E+00  0.00000000000E+00 -0.99645641218E+03  0.99645641219E+03  0.50400001928E-02 0. -1.
    10030    2    1    2    0    0  0.00000000000E+00  0.00000000000E+00  0.14130959322E+04  0.34060087565E+04  0.30990410672E+04 0.  0.
        4    1    3    3  502    0 -0.15126372932E+04  0.12185859101E+03  0.10507658222E+04  0.18458145961E+04  0.12699999809E+01 0.  1.
       -4    1    3    3    0  502  0.15126372932E+04 -0.12185859101E+03  0.36233010991E+03  0.15601941605E+04  0.12699999809E+01 0. -1.
</event>
<event>
 5   0  0.5376678E-07  0.3108349E+04  0.7818609E-02  0.8213450E-01
        2   -1    0    0  501    0  0.00000000000E+00  0.00000000000E+00  0.14687111805E+04  0.14687111805E+04  0.25500000920E-02 0.  1.
       -2   -1    0    0    0  501  0.00000000000E+00  0.00000000000E+00 -0.16446106239E+04  0.16446106239E+04  0.25500000920E-02 0. -1.
    10030    2    1    2    0    0  0.00000000000E+00  0.00000000000E+00 -0.17589944337E+03  0.31133218044E+04  0.31083487648E+04 0.  0.
        5    1    3    3  502    0  0.12575309491E+04  0.31417554991E+03  0.77094514620E+03  0.15081342356E+04  0.46999998093E+01 0. -1.
       -5    1    3    3    0  502 -0.12575309491E+04 -0.31417554991E+03 -0.94684458956E+03  0.16051875688E+04  0.46999998093E+01 0.  1.
</event>
<event>
 5   0  0.5342534E-07  0.3099255E+04  0.7818609E-02  0.8215943E-01
       -2   -1    0    0    0  501  0.00000000000E+00  0.00000000000E+00  0.14879933195E+04  0.14879933195E+04  0.25500000920E-02 0.  1.
        2   -1    0    0  501    0  0.00000000000E+00  0.00000000000E+00 -0.16138141738E+04  0.16138141738E+04  0.25500000920E-02 0. -1.
    10030    2    1    2    0    0  0.00000000000E+00  0.00000000000E+00 -0.12582085432E+03  0.31018074933E+04  0.30992545617E+04 0.  0.
        3    1    3    3  502    0  0.13743338874E+04 -0.29547046588E+03 -0.71555821298E+03  0.15773775695E+04  0.10100000352E+00 0. -1.
       -3    1    3    3    0  502 -0.13743338874E+04  0.29547046588E+03  0.58973735867E+03  0.15244299238E+04  0.10100000352E+00 0.  1.
</event>
<event>
 5   0  0.5376678E-07  0.3086621E+04  0.7818609E-02  0.8219419E-01
        2   -1    0    0  501    0  0.00000000000E+00  0.00000000000E+00  0.19542128743E+04  0.19542128743E+04  0.25500000920E-02 0. -1.
       -2   -1    0    0    0  501  0.00000000000E+00  0.00000000000E+00 -0.12188061841E+04  0.12188061841E+04  0.25500000920E-02 0.  1.
    10030    2    1    2    0    0  0.00000000000E+00  0.00000000000E+00  0.73540669018E+03  0.31730190584E+04  0.30866206351E+04 0.  0.
        5    1    3    3  502    0 -0.44070859688E+03  0.40131876906E+03 -0.10956969532E+04  0.12473390578E+04  0.46999998093E+01 0.  1.
       -5    1    3    3    0  502  0.44070859688E+03 -0.40131876906E+03  0.18311036434E+04  0.19256800006E+04  0.46999998093E+01 0. -1.
</event>
<event>
 5   0  0.1840359E-07  0.3099225E+04  0.7818609E-02  0.8215951E-01
       -1   -1    0    0    0  501  0.00000000000E+00  0.00000000000E+00  0.93875528288E+03  0.93875528289E+03  0.50400001928E-02 0.  1.
        1   -1    0    0  501    0  0.00000000000E+00  0.00000000000E+00 -0.25579601954E+04  0.25579601954E+04  0.50400001928E-02 0. -1.
    10030    2    1    2    0    0  0.00000000000E+00  0.00000000000E+00 -0.16192049125E+04  0.34967154783E+04  0.30992248366E+04 0.  0.
        1    1    3    3  502    0  0.90281718438E+03 -0.83725805981E+03 -0.18711330297E+04  0.22399148961E+04  0.50400001928E-02 0. -1.
       -1    1    3    3    0  502 -0.90281718438E+03  0.83725805981E+03  0.25192811715E+03  0.12568005822E+04  0.50400001928E-02 0.  1.
</event>
<event>
 5   0  0.1814075E-07  0.3096042E+04  0.7818609E-02  0.8216825E-01
       -1   -1    0    0    0  501  0.00000000000E+00  0.00000000000E+00  0.13532063609E+04  0.13532063609E+04  0.50400001928E-02 0.  1.
        1   -1    0    0  501    0  0.00000000000E+00  0.00000000000E+00 -0.17708823244E+04  0.17708823244E+04  0.50400001928E-02 0. -1.
    10030    2    1    2    0    0  0.00000000000E+00  0.00000000000E+00 -0.41767596350E+03  0.31240886854E+04  0.30960421353E+04 0.  0.
        5    1    3    3  502    0  0.55335082661E+03  0.22570550047E+02 -0.16674919808E+04  0.17570595218E+04  0.46999998093E+01 0. -1.
       -5    1    3    3    0  502 -0.55335082661E+03 -0.22570550047E+02  0.12498160173E+04  0.13670291636E+04  0.46999998093E+01 0.  1.
</event>
<event>
 5   0  0.1814075E-07  0.3101260E+04  0.7818609E-02  0.8215392E-01
        1   -1    0    0  501    0  0.00000000000E+00  0.00000000000E+00  0.24652903276E+04  0.24652903276E+04  0.50400001928E-02 0. -1.
       -1   -1    0    0    0  501  0.00000000000E+00  0.00000000000E+00 -0.97532271887E+03  0.97532271888E+03  0.50400001928E-02 0.  1.
    10030    2    1    2    0    0  0.00000000000E+00  0.00000000000E+00  0.14899676087E+04  0.34406130464E+04  0.31012601730E+04 0.  0.
        5    1    3    3  502    0 -0.48302622695E+03  0.30066350260E+03  0.23452945256E+04  0.24133257923E+04  0.46999998093E+01 0. -1.
       -5    1    3    3    0  502  0.48302622695E+03 -0.30066350260E+03 -0.85532691695E+03  0.10272872542E+04  0.46999998093E+01 0.  1.
</event>
<event>
 5   0  0.5154105E-07  0.3100112E+04  0.7818609E-02  0.8215707E-01
       -2   -1    0    0    0  501  0.00000000000E+00  0.00000000000E+00  0.15506686254E+04  0.15506686254E+04  0.25500000920E-02 0. -1.
        2   -1    0    0  501    0  0.00000000000E+00  0.00000000000E+00 -0.15494439398E+04  0.15494439398E+04  0.25500000920E-02 0.  1.
    10030    2    1    2    0    0  0.00000000000E+00  0.00000000000E+00  0.12246856553E+01  0.31001125652E+04  0.31001123233E+04 0.  0.
        1    1    3    3  502    0 -0.22587587890E+01 -0.12007513106E+04  0.98084978459E+03  0.15504435211E+04  0.50400001928E-02 0. -1.
       -1    1    3    3    0  502  0.22587587890E+01  0.12007513106E+04 -0.97962509894E+03  0.15496690442E+04  0.50400001928E-02 0.  1.
</event>
<event>
 5   0  0.5154105E-07  0.3094908E+04  0.7818609E-02  0.8217137E-01
       -2   -1    0    0    0  501  0.00000000000E+00  0.00000000000E+00  0.11495868801E+04  0.11495868801E+04  0.25500000920E-02 0.  1.
        2   -1    0    0  501    0  0.00000000000E+00  0.00000000000E+00 -0.20830207632E+04  0.20830207632E+04  0.25500000920E-02 0. -1.
    10030    2    1    2    0    0  0.00000000000E+00  0.00000000000E+00 -0.93343388308E+03  0.32326076434E+04  0.30949076500E+04 0.  0.
        1    1    3    3  502    0 -0.81415727305E+03 -0.12019147309E+03 -0.18354864394E+04  0.20115438163E+04  0.50400001928E-02 0. -1.
       -1    1    3    3    0  502  0.81415727305E+03  0.12019147309E+03  0.90205255632E+03  0.12210638271E+04  0.50400001928E-02 0.  1.
</event>
<event>
 5   0  0.1875284E-07  0.3101901E+04  0.7818609E-02  0.8215216E-01
       -1   -1    0    0    0  501  0.00000000000E+00  0.00000000000E+00  0.14675129417E+04  0.14675129417E+04  0.50400001928E-02 0.  1.
        1   -1    0    0  501    0  0.00000000000E+00  0.00000000000E+00 -0.16391319482E+04  0.16391319482E+04  0.50400001928E-02 0. -1.
    10030    2    1    2    0    0  0.00000000000E+00  0.00000000000E+00 -0.17161900648E+03  0.31066448899E+04  0.31019009314E+04 0.  0.
        4    1    3    3  502    0  0.18371199115E+03  0.15302642417E+04 -0.25924185782E+03  0.15629032916E+04  0.12699999809E+01 0.  1.
       -4    1    3    3    0  502 -0.18371199115E+03 -0.15302642417E+04  0.87622851344E+02  0.15437415983E+04  0.12699999809E+01 0. -1.
</event>
<event>
 5   0  0.5055900E-07  0.3115244E+04  0.7818609E-02  0.8211567E-01
       -2   -1    0    0    0  501  0.00000000000E+00  0.00000000000E+00  0.25963081756E+04  0.25963081756E+04  0.25500000920E-02 0. -1.
        2   -1    0    0  501    0  0.00000000000E+00  0.00000000000E+00 -0.93447533300E+03  0.93447533301E+03  0.25500000920E-02 0.  1.
    10030    2    1    2    0    0  0.00000000000E+00  0.00000000000E+00  0.16618328426E+04  0.35307835086E+04  0.31152437766E+04 0.  0.
        2    1    3    3  502    0  0.91499834881E+03  0.90387463898E+03 -0.16490292550E+03  0.12966897532E+04  0.25500000920E-02 0. -1.
       -2    1    3    3    0  502 -0.91499834881E+03 -0.90387463898E+03  0.18267357681E+04  0.22340937554E+04  0.25500000920E-02 0.  1.
</event>
<event>
 5   0  0.1727000E-07  0.3106127E+04  0.7818609E-02  0.8214058E-01
        3   -1    0    0  501    0  0.00000000000E+00  0.00000000000E+00  0.12386019272E+04  0.12386019313E+04  0.10100000352E+00 0. -1.
       -3   -1    0    0    0  501  0.00000000000E+00  0.00000000000E+00 -0.19473622449E+04  0.19473622475E+04  0.10100000352E+00 0.  1.
    10030    2    1    2    0    0  0.00000000000E+00  0.00000000000E+00 -0.70876031770E+03  0.31859641788E+04  0.31061272608E+04 0.  0.
        4    1    3    3  502    0  0.10259872809E+04 -0.30681293162E+03 -0.15081118732E+04  0.18496451309E+04  0.12699999809E+01 0.  1.
       -4    1    3    3    0  502 -0.10259872809E+04  0.30681293162E+03  0.79935155548E+03  0.13363190478E+04  0.12699999809E+01 0. -1.
</event>
<event>
 5   0  0.5376678E-07  0.3099152E+04  0.7818609E-02  0.8215971E-01
       -2   -1    0    0    0  501  0.00000000000E+00  0.00000000000E+00  0.16114112938E+04  0.16114112938E+04  0.25500000920E-02 0. -1.
        2   -1    0    0  501    0  0.00000000000E+00  0.00000000000E+00 -0.14901132801E+04  0.14901132801E+04  0.25500000920E-02 0.  1.
    10030    2    1    2    0    0  0.00000000000E+00  0.00000000000E+00  0.12129801369E+03  0.31015245739E+04  0.30991517346E+04 0.  0.
        5    1    3    3  502    0 -0.10711741790E+04  0.80740380596E+03  0.83703177572E+03  0.15811259631E+04  0.46999998093E+01 0. -1.
       -5    1    3    3    0  502  0.10711741790E+04 -0.80740380596E+03 -0.71573376203E+03  0.15203986108E+04  0.46999998093E+01 0.  1.
</event>
<event>
 5   0  0.5376678E-07  0.3089934E+04  0.7818609E-02  0.8218506E-01
       -2   -1    0    0    0  501  0.00000000000E+00  0.00000000000E+00  0.12253300799E+04  0.12253300799E+04  0.25500000920E-02 0.  1.
        2   -1    0    0  501    0  0.00000000000E+00  0.00000000000E+00 -0.19479835328E+04  0.19479835328E+04  0.25500000920E-02 0. -1.
    10030    2    1    2    0    0  0.00000000000E+00  0.00000000000E+00 -0.72265345288E+03  0.31733136127E+04  0.30899338620E+04 0.  0.
        5    1    3    3  502    0  0.14461526000E+04 -0.25460910989E+03 -0.85461882731E+03  0.16989933994E+04  0.46999998093E+01 0. -1.
       -5    1    3    3    0  502 -0.14461526000E+04  0.25460910989E+03  0.13196537444E+03  0.14743202133E+04  0.46999998093E+01 0.  1.
</event>
<event>
 5   0  0.1840359E-07  0.3031331E+04  0.7818609E-02  0.8234840E-01
       -1   -1    0    0    0  501  0.00000000000E+00  0.00000000000E+00  0.26344786333E+04  0.26344786333E+04  0.50400001928E-02 0. -1.
        1   -1    0    0  501    0  0.00000000000E+00  0.00000000000E+00 -0.87199105063E+03  0.87199105065E+03  0.50400001928E-02 0.  1.
    10030    2    1    2    0    0  0.00000000000E+00  0.00000000000E+00  0.17624875827E+04  0.35064696840E+04  0.30313309231E+04 0.  0.
        1    1    3    3  502    0 -0.11746646948E+04 -0.16688412946E+03  0.19722393395E+04  0.23016114942E+04  0.50400001928E-02 0.  1.
       -1    1    3    3    0  502  0.11746646948E+04  0.16688412946E+03 -0.20975175683E+03  0.12048581898E+04  0.50400001928E-02 0. -1.
</event>
<event>
 5   0  0.1875284E-07  0.3101974E+04  0.7818609E-02  0.8215196E-01
        1   -1    0    0  501    0  0.00000000000E+00  0.00000000000E+00  0.21377306685E+04  0.21377306685E+04  0.50400001928E-02 0.  1.
       -1   -1    0    0    0  501  0.00000000000E+00  0.00000000000E+00 -0.11252874057E+04  0.11252874057E+04  0.50400001928E-02 0. -1.
    10030    2    1    2    0    0  0.00000000000E+00  0.00000000000E+00  0.10124432628E+04  0.32630180742E+04  0.31019744668E+04 0.  0.
        4    1    3    3  502    0  0.12706441178E+04  0.35262756303E+03 -0.35267131023E+03  0.13650133106E+04  0.12699999809E+01 0. -1.
       -4    1    3    3    0  502 -0.12706441178E+04 -0.35262756303E+03  0.13651145730E+04  0.18980047636E+04  0.12699999809E+01 0.  1.
</event>
<event>
 5   0  0.5342534E-07  0.3101142E+04  0.7818609E-02  0.8215425E-01
       -2   -1    0    0    0  501  0.00000000000E+00  0.00000000000E+00  0.11101388402E+04  0.11101388402E+04  0.25500000920E-02 0.  1.
        2   -1    0    0  501    0  0.00000000000E+00  0.00000000000E+00 -0.21657387405E+04  0.21657387405E+04  0.25500000920E-02 0. -1.
    10030    2    1    2    0    0  0.00000000000E+00  0.00000000000E+00 -0.10555999002E+04  0.32758775807E+04  0.31011421725E+04 0.  0.
        3    1    3    3  502    0 -0.12962440405E+03  0.17085359714E+03 -0.21499962898E+04  0.21606659839E+04  0.10100000352E+00 0. -1.
       -3    1    3    3    0  502  0.12962440405E+03 -0.17085359714E+03  0.10943963896E+04  0.11152115967E+04  0.10100000352E+00 0.  1.
</event>
<event>
 5   0  0.5154105E-07  0.3096455E+04  0.7818609E-02  0.8216712E-01
        2   -1    0    0  501    0  0.00000000000E+00  0.00000000000E+00  0.17474127424E+04  0.17474127424E+04  0.25500000920E-02 0.  1.
       -2   -1    0    0    0  501  0.00000000000E+00  0.00000000000E+00 -0.13717467094E+04  0.13717467094E+04  0.25500000920E-02 0. -1.
    10030    2    1    2    0    0  0.00000000000E+00  0.00000000000E+00  0.37566603307E+03  0.31191594518E+04  0.30964545399E+04 0.  0.
        1    1    3    3  502    0  0.24413064142E+03  0.36229517584E+03 -0.13083695598E+04  0.13793797409E+04  0.50400001928E-02 0. -1.
       -1    1    3    3    0  502 -0.24413064142E+03 -0.36229517584E+03  0.16840355929E+04  0.17397797109E+04  0.50400001928E-02 0.  1.
</event>
<event>
 5   0  0.5376678E-07  0.3099613E+04  0.7818609E-02  0.8215844E-01
        2   -1    0    0  501    0  0.00000000000E+00  0.00000000000E+00  0.23847983648E+04  0.23847983648E+04  0.25500000920E-02 0. -1.
       -2   -1    0    0    0  501  0.00000000000E+00  0.00000000000E+00 -0.10071713934E+04  0.10071713934E+04  0.25500000920E-02 0.  1.
    10030    2    1    2    0    0  0.00000000000E+00  0.00000000000E+00  0.13776269715E+04  0.33919697582E+04  0.30996133256E+04 0.  0.
        5    1    3    3  502    0  0.12361054862E+04  0.90073693626E+03  0.41502600715E+03  0.15847878338E+04  0.46999998093E+01 0. -1.
       -5    1    3    3    0  502 -0.12361054862E+04 -0.90073693626E+03  0.96260096431E+03  0.18071819244E+04  0.46999998093E+01 0.  1.
</event>
<event>
 5   0  0.5376678E-07  0.3106031E+04  0.7818609E-02  0.8214085E-01
        2   -1    0    0  501    0  0.00000000000E+00  0.00000000000E+00  0.25162703382E+04  0.25162703382E+04  0.25500000920E-02 0.  1.
       -2   -1    0    0    0  501  0.00000000000E+00  0.00000000000E+00 -0.95850453789E+03  0.95850453789E+03  0.25500000920E-02 0. -1.
    10030    2    1    2    0    0  0.00000000000E+00  0.00000000000E+00  0.15577658003E+04  0.34747748761E+04  0.31060306101E+04 0.  0.
        5    1    3    3  502    0 -0.10419110323E+04 -0.90400095635E+03  0.15770541754E+04  0.20952131850E+04  0.46999998093E+01 0.  1.
       -5    1    3    3    0  502  0.10419110323E+04  0.90400095635E+03 -0.19288375053E+02  0.13795616912E+04  0.46999998093E+01 0. -1.
</event>
<event>
 5   0  0.5342534E-07  0.3097724E+04  0.7818609E-02  0.8216363E-01
       -2   -1    0    0    0  501  0.00000000000E+00  0.00000000000E+00  0.12117255763E+04  0.12117255763E+04  0.25500000920E-02 0.  1.
        2   -1    0    0  501    0  0.00000000000E+00  0.00000000000E+00 -0.19797998975E+04  0.19797998975E+04  0.25500000920E-02 0. -1.
    10030    2    1    2    0    0  0.00000000000E+00  0.00000000000E+00 -0.76807432119E+03  0.31915254738E+04  0.30977244369E+04 0.  0.
        3    1    3    3  502    0  0.54544996787E+03  0.13909834789E+04  0.36518615177E+02  0.14945515466E+04  0.10100000352E+00 0. -1.
       -3    1    3    3    0  502 -0.54544996787E+03 -0.13909834789E+04 -0.80459293637E+03  0.16969739272E+04  0.10100000352E+00 0.  1.
</event>
<event>
 5   0  0.5248309E-07  0.3102322E+04  0.7818609E-02  0.8215101E-01
       -2   -1    0    0    0  501  0.00000000000E+00  0.00000000000E+00  0.11190932630E+04  0.11190932630E+04  0.25500000920E-02 0. -1.
        2   -1    0    0  501    0  0.00000000000E+00  0.00000000000E+00 -0.21500441752E+04  0.21500441752E+04  0.25500000920E-02 0.  1.
    10030    2    1    2    0    0  0.00000000000E+00  0.00000000000E+00 -0.10309509122E+04  0.32691374382E+04  0.31023216800E+04 0.  0.
        4    1    3    3  502    0 -0.94723314704E+03 -0.86660960588E+02 -0.18066517072E+04  0.20417523750E+04  0.12699999809E+01 0.  1.
       -4    1    3    3    0  502  0.94723314704E+03  0.86660960588E+02  0.77570079501E+03  0.12273850631E+04  0.12699999809E+01 0. -1.
</event>
<event>
 5   0  0.1814075E-07  0.3108978E+04  0.7818609E-02  0.8213278E-01
        1   -1    0    0  501    0  0.00000000000E+00  0.00000000000E+00  0.87279990862E+03  0.87279990864E+03  0.50400001928E-02 0. -1.
       -1   -1    0    0    0  501  0.00000000000E+00  0.00000000000E+00 -0.27686018493E+04  0.27686018493E+04  0.50400001928E-02 0.  1.
    10030    2    1    2    0    0  0.00000000000E+00  0.00000000000E+00 -0.18958019406E+04  0.36414017579E+04  0.31089776076E+04 0.  0.
        5    1    3    3  502    0 -0.64436356215E+02 -0.12523322849E+04  0.12807598417E+03  0.12605212190E+04  0.46999998093E+01 0. -1.
       -5    1    3    3    0  502  0.64436356215E+02  0.12523322849E+04 -0.20238779248E+04  0.23808805389E+04  0.46999998093E+01 0.  1.
</event>
<event>
 5   0  0.5342534E-07  0.3100426E+04  0.7818609E-02  0.8215621E-01
       -2   -1    0    0    0  501  0.00000000000E+00  0.00000000000E+00  0.18435132217E+04  0.18435132217E+04  0.25500000920E-02 0. -1.
        2   -1    0    0  501    0  0.00000000000E+00  0.00000000000E+00 -0.13035761790E+04  0.13035761790E+04  0.25500000920E-02 0.  1.
    10030    2    1    2    0    0  0.00000000000E+00  0.00000000000E+00  0.53993704265E+03  0.31470894007E+04  0.31004257266E+04 0.  0.
        3    1    3    3  502    0 -0.99783364659E+03 -0.62710760920E+03  0.12922127890E+04  0.17489281981E+04  0.10100000352E+00 0. -1.
       -3    1    3    3    0  502  0.99783364659E+03  0.62710760920E+03 -0.75227574636E+03  0.13981612026E+04  0.10100000352E+00 0.  1.
</event>
<event>
 5   0  0.5248309E-07  0.3102743E+04  0.7818609E-02  0.8214985E-01
        2   -1    0    0  501    0  0.00000000000E+00  0.00000000000E+00  0.19017823426E+04  0.19017823426E+04  0.25500000920E-02 0. -1.
       -2   -1    0    0    0  501  0.00000000000E+00  0.00000000000E+00 -0.12655255203E+04  0.12655255203E+04  0.25500000920E-02 0.  1.
    10030    2    1    2    0    0  0.00000000000E+00  0.00000000000E+00  0.63625682234E+03  0.31673078629E+04  0.31027433594E+04 0.  0.
        4    1    3    3  502    0 -0.12832955135E+04  0.59105830985E+03  0.97220738653E+03  0.17150469720E+04  0.12699999809E+01 0. -1.
       -4    1    3    3    0  502  0.12832955135E+04 -0.59105830985E+03 -0.33595056419E+03  0.14522608909E+04  0.12699999809E+01 0.  1.
</event>
<event>
 5   0  0.5154105E-07  0.3097714E+04  0.7818609E-02  0.8216366E-01
       -2   -1    0    0    0  501  0.00000000000E+00  0.00000000000E+00  0.11691618265E+04  0.11691618265E+04  0.25500000920E-02 0.  1.
        2   -1    0    0  501    0  0.00000000000E+00  0.00000000000E+00 -0.20518615898E+04  0.20518615898E+04  0.25500000920E-02 0. -1.
    10030    2    1    2    0    0  0.00000000000E+00  0.00000000000E+00 -0.88269976324E+03  0.32210234163E+04  0.30977141534E+04 0.  0.
        1    1    3    3  502    0  0.19382196246E+03  0.15015428461E+04 -0.78109840812E+03  0.17036175025E+04  0.50400001928E-02 0. -1.
       -1    1    3    3    0  502 -0.19382196246E+03 -0.15015428461E+04 -0.10160135512E+03  0.15174059138E+04  0.50400001928E-02 0.  1.
</event>
<event>
 5   0  0.1875284E-07  0.3071757E+04  0.7818609E-02  0.8223532E-01
       -1   -1    0    0    0  501  0.00000000000E+00  0.00000000000E+00  0.11379055198E+04  0.11379055198E+04  0.50400001928E-02 0. -1.
        1   -1    0    0  501    0  0.00000000000E+00  0.00000000000E+00 -0.20730398674E+04  0.20730398674E+04  0.50400001928E-02 0.  1.
    10030    2    1    2    0    0  0.00000000000E+00  0.00000000000E+00 -0.93513434754E+03  0.32109453872E+04  0.30717574826E+04 0.  0.
        4    1    3    3  502    0 -0.11150075811E+04  0.92331975556E+03 -0.10038037617E+04  0.17616426658E+04  0.12699999809E+01 0.  1.
       -4    1    3    3    0  502  0.11150075811E+04 -0.92331975556E+03  0.68669414123E+02  0.14493027214E+04  0.12699999809E+01 0. -1.
</event>
<event>
 5   0  0.5342534E-07  0.3100103E+04  0.7818609E-02  0.8215710E-01
       -2   -1    0    0    0  501  0.00000000000E+00  0.00000000000E+00  0.92801162544E+03  0.92801162544E+03  0.25500000920E-02 0.  1.
        2   -1    0    0  501    0  0.00000000000E+00  0.00000000000E+00 -0.25890399307E+04  0.25890399307E+04  0.25500000920E-02 0. -1.
    10030    2    1    2    0    0  0.00000000000E+00  0.00000000000E+00 -0.16610283053E+04  0.35170515561E+04  0.31001026786E+04 0.  0.
        3    1    3    3  502    0 -0.50677225649E+03 -0.14638623516E+04 -0.89211253682E+03  0.17876173788E+04  0.10100000352E+00 0. -1.
       -3    1    3    3    0  502  0.50677225649E+03  0.14638623516E+04 -0.76891576844E+03  0.17294341773E+04  0.10100000352E+00 0.  1.
</event>
<event>
 5   0  0.5376678E-07  0.3098675E+04  0.7818609E-02  0.8216102E-01
        2   -1    0    0  501    0  0.00000000000E+00  0.00000000000E+00  0.24767539085E+04  0.24767539085E+04  0.25500000920E-02 0.  1.
       -2   -1    0    0    0  501  0.00000000000E+00  0.00000000000E+00 -0.96919056448E+03  0.96919056448E+03  0.25500000920E-02 0. -1.
    10030    2    1    2    0    0  0.00000000000E+00  0.00000000000E+00  0.15075633440E+04  0.34459444730E+04  0.30986748901E+04 0.  0.
        5    1    3    3  502    0  0.13326721959E+04 -0.77301785692E+02 -0.12075661825E+03  0.13403712167E+04  0.46999998093E+01 0. -1.
       -5    1    3    3    0  502 -0.13326721959E+04  0.77301785692E+02  0.16283199623E+04  0.21055732562E+04  0.46999998093E+01 0.  1.
</event>
<event>
 5   0  0.1830902E-07  0.3101867E+04  0.7818609E-02  0.8215226E-01
        1   -1    0    0  501    0  0.00000000000E+00  0.00000000000E+00  0.14840777320E+04  0.14840777320E+04  0.50400001928E-02 0.  1.
       -1   -1    0    0    0  501  0.00000000000E+00  0.00000000000E+00 -0.16208006008E+04  0.16208006008E+04  0.50400001928E-02 0. -1.
    10030    2    1    2    0    0  0.00000000000E+00  0.00000000000E+00 -0.13672286883E+03  0.31048783328E+04  0.31018665862E+04 0.  0.
        3    1    3    3  502    0  0.10826676817E+04 -0.10617293759E+04 -0.39418553871E+03  0.15667867838E+04  0.10100000352E+00 0.  1.
       -3    1    3    3    0  502 -0.10826676817E+04  0.10617293759E+04  0.25746266988E+03  0.15380915490E+04  0.10100000352E+00 0. -1.
</event>
<event>
 5   0  0.1875284E-07  0.3086858E+04  0.7818609E-02  0.8219354E-01
        1   -1    0    0  501    0  0.00000000000E+00  0.00000000000E+00  0.16391901233E+04  0.16391901233E+04  0.50400001928E-02 0.  1.
       -1   -1    0    0    0  501  0.00000000000E+00  0.00000000000E+00 -0.14532625834E+04  0.14532625834E+04  0.50400001928E-02 0. -1.
    10030    2    1    2    0    0  0.00000000000E+00  0.00000000000E+00  0.18592753988E+03  0.30924527067E+04  0.30868583856E+04 0.  0.
        4    1    3    3  502    0 -0.18445178710E+03  0.66528905988E+03  0.14758785012E+04  0.16293713383E+04  0.12699999809E+01 0.  1.
       -4    1    3    3    0  502  0.18445178710E+03 -0.66528905988E+03 -0.12899509613E+04  0.14630813684E+04  0.12699999809E+01 0. -1.
</event>
<event>
 5   0  0.5248309E-07  0.3098551E+04  0.7818609E-02  0.8216136E-01
       -2   -1    0    0    0  501  0.00000000000E+00  0.00000000000E+00  0.89618044556E+03  0.89618044557E+03  0.25500000920E-02 0.  1.
        2   -1    0    0  501    0  0.00000000000E+00  0.00000000000E+00 -0.26783164600E+04  0.26783164600E+04  0.25500000920E-02 0. -1.
    10030    2    1    2    0    0  0.00000000000E+00  0.00000000000E+00 -0.17821360144E+04  0.35744969055E+04  0.30985511701E+04 0.  0.
        4    1    3    3  502    0 -0.10594284702E+04  0.91438782926E+03 -0.16578098638E+04  0.21695227455E+04  0.12699999809E+01 0. -1.
       -4    1    3    3    0  502  0.10594284702E+04 -0.91438782926E+03 -0.12432615063E+03  0.14049741601E+04  0.12699999809E+01 0.  1.
</event>
<event>
 5   0  0.1830902E-07  0.3085262E+04  0.7818609E-02  0.8219794E-01
        1   -1    0    0  501    0  0.00000000000E+00  0.00000000000E+00  0.23646603715E+04  0.23646603715E+04  0.50400001928E-02 0.  1.
       -1   -1    0    0    0  501  0.00000000000E+00  0.00000000000E+00 -0.10063648731E+04  0.10063648731E+04  0.50400001928E-02 0. -1.
    10030    2    1    2    0    0  0.00000000000E+00  0.00000000000E+00  0.13582954984E+04  0.33710252446E+04  0.30852624749E+04 0.  0.
        3    1    3    3  502    0  0.19009153628E+03  0.52548343931E+03 -0.89189032890E+03  0.10524903829E+04  0.10100000352E+00 0. -1.
       -3    1    3    3    0  502 -0.19009153628E+03 -0.52548343931E+03  0.22501858273E+04  0.23185348617E+04  0.10100000352E+00 0.  1.
</event>
<event>
 5   0  0.5376678E-07  0.3109930E+04  0.7818609E-02  0.8213018E-01
        2   -1    0    0  501    0  0.00000000000E+00  0.00000000000E+00  0.19470556964E+04  0.19470556965E+04  0.25500000920E-02 0. -1.
       -2   -1    0    0    0  501  0.00000000000E+00  0.00000000000E+00 -0.12418317191E+04  0.12418317191E+04  0.25500000920E-02 0.  1.
    10030    2    1    2    0    0  0.00000000000E+00  0.00000000000E+00  0.70522397732E+03  0.31888874156E+04  0.31099295958E+04 0.  0.
        5    1    3    3  502    0 -0.40051267918E+03  0.45332948673E+03  0.18214527114E+04  0.19192785362E+04  0.46999998093E+01 0. -1.
       -5    1    3    3    0  502  0.40051267918E+03 -0.45332948673E+03 -0.11162287341E+04  0.12696088794E+04  0.46999998093E+01 0.  1.
</event>
<event>
 5   0  0.5055900E-07  0.3087344E+04  0.7818609E-02  0.8219220E-01
        2   -1    0    0  501    0  0.00000000000E+00  0.00000000000E+00  0.16759590401E+04  0.16759590401E+04  0.25500000920E-02 0.  1.
       -2   -1    0    0    0  501  0.00000000000E+00  0.00000000000E+00 -0.14218265514E+04  0.14218265514E+04  0.25500000920E-02 0. -1.
    10030    2    1    2    0    0  0.00000000000E+00  0.00000000000E+00  0.25413248874E+03  0.30977855915E+04  0.30873438826E+04 0.  0.
        2    1    3    3  502    0 -0.78726288011E+03  0.25648815056E+03  0.14342979414E+04  0.16561339313E+04  0.25500000920E-02 0.  1.
       -2    1    3    3    0  502  0.78726288011E+03 -0.25648815056E+03 -0.11801654526E+04  0.14416516602E+04  0.25500000920E-02 0. -1.
</event>
<event>
 5   0  0.5376678E-07  0.3103695E+04  0.7818609E-02  0.8214724E-01
        2   -1    0    0  501    0  0.00000000000E+00  0.00000000000E+00  0.19829145558E+04  0.19829145558E+04  0.25500000920E-02 0.  1.
       -2   -1    0    0    0  501  0.00000000000E+00  0.00000000000E+00 -0.12144906836E+04  0.12144906836E+04  0.25500000920E-02 0. -1.
    10030    2    1    2    0    0  0.00000000000E+00  0.00000000000E+00  0.76842387226E+03  0.31974052394E+04  0.31036953809E+04 0.  0.
        5    1    3    3  502    0 -0.36691299552E+03 -0.21417213748E+03 -0.11534056591E+04  0.12291710846E+04  0.46999998093E+01 0. -1.
       -5    1    3    3    0  502  0.36691299552E+03  0.21417213748E+03  0.19218295313E+04  0.19682341548E+04  0.46999998093E+01 0.  1.
</event>
<event>
 5   0  0.1814075E-07  0.3108096E+04  0.7818609E-02  0.8213520E-01
        1   -1    0    0  501    0  0.00000000000E+00  0.00000000000E+00  0.16496495044E+04  0.16496495044E+04  0.50400001928E-02 0. -1.
       -1   -1    0    0    0  501  0.00000000000E+00  0.00000000000E+00 -0.14639866259E+04  0.14639866259E+04  0.50400001928E-02 0.  1.
    10030    2    1    2    0    0  0.00000000000E+00  0.00000000000E+00  0.18566287849E+03  0.31136361303E+04  0.31080957590E+04 0.  0.
        5    1    3    3  502    0 -0.14752045358E+04  0.28212951644E+03  0.49256306182E+03  0.15806536453E+04  0.46999998093E+01 0. -1.
       -5    1    3    3    0  502  0.14752045358E+04 -0.28212951644E+03 -0.30690018333E+03  0.15329824849E+04  0.46999998093E+01 0.  1.
</event>
<event>
 5   0  0.1875284E-07  0.3093057E+04  0.7818609E-02  0.8217646E-01
       -1   -1    0    0    0  501  0.00000000000E+00  0.00000000000E+00  0.16280018463E+04  0.16280018463E+04  0.50400001928E-02 0.  1.
        1   -1    0    0  501    0  0.00000000000E+00  0.00000000000E+00 -0.14691325985E+04  0.14691325985E+04  0.50400001928E-02 0. -1.
    10030    2    1    2    0    0  0.00000000000E+00  0.00000000000E+00  0.15886924782E+03  0.30971344449E+04  0.30930571174E+04 0.  0.
        4    1    3    3  502    0 -0.11656250792E+04  0.83641386138E+03  0.65767226844E+03  0.15782282466E+04  0.12699999809E+01 0.  1.
       -4    1    3    3    0  502  0.11656250792E+04 -0.83641386138E+03 -0.49880302062E+03  0.15189061983E+04  0.12699999809E+01 0. -1.
</event>
<event>
 5   0  0.5342534E-07  0.3097893E+04  0.7818609E-02  0.8216317E-01
       -2   -1    0    0    0  501  0.00000000000E+00  0.00000000000E+00  0.11266400198E+04  0.11266400198E+04  0.25500000920E-02 0. -1.
        2   -1    0    0  501    0  0.00000000000E+00  0.00000000000E+00 -0.21295485824E+04  0.21295485824E+04  0.25500000920E-02 0.  1.
    10030    2    1    2    0    0  0.00000000000E+00  0.00000000000E+00 -0.10029085626E+04  0.32561886022E+04  0.30978926108E+04 0.  0.
        3    1    3    3  502    0 -0.14135117697E+04  0.61442212006E+03 -0.33962416500E+03  0.15782505024E+04  0.10100000352E+00 0. -1.
       -3    1    3    3    0  502  0.14135117697E+04 -0.61442212006E+03 -0.66328439756E+03  0.16779380998E+04  0.10100000352E+00 0.  1.
</event>
<event>
 5   0  0.1845123E-07  0.3104703E+04  0.7818609E-02  0.8214448E-01
        1   -1    0    0  501    0  0.00000000000E+00  0.00000000000E+00  0.25793633400E+04  0.25793633400E+04  0.50400001928E-02 0. -1.
       -1   -1    0    0    0  501  0.00000000000E+00  0.00000000000E+00 -0.93425969901E+03  0.93425969902E+03  0.50400001928E-02 0.  1.
    10030    2    1    2    0    0  0.00000000000E+00  0.00000000000E+00  0.16451036410E+04  0.35136230390E+04  0.31047030246E+04 0.  0.
        2    1    3    3  502    0 -0.12505986864E+04 -0.80853341131E+03  0.32656860565E+03  0.15245886022E+04  0.25500000920E-02 0.  1.
       -2    1    3    3    0  502  0.12505986864E+04  0.80853341131E+03  0.13185350354E+04  0.19890344369E+04  0.25500000920E-02 0. -1.
</event>
<event>
 5   0  0.5248309E-07  0.3106468E+04  0.7818609E-02  0.8213965E-01
        2   -1    0    0  501    0  0.00000000000E+00  0.00000000000E+00  0.26217506922E+04  0.26217506922E+04  0.25500000920E-02 0.  1.
       -2   -1    0    0    0  501  0.00000000000E+00  0.00000000000E+00 -0.92020012115E+03  0.92020012116E+03  0.25500000920E-02 0. -1.
    10030    2    1    2    0    0  0.00000000000E+00  0.00000000000E+00  0.17015505710E+04  0.35419508133E+04  0.31064676432E+04 0.  0.
        4    1    3    3  502    0 -0.17857732563E+03 -0.14701383621E+04  0.31678707631E+03  0.15144478629E+04  0.12699999809E+01 0. -1.
       -4    1    3    3    0  502  0.17857732563E+03  0.14701383621E+04  0.13847634947E+04  0.20275029504E+04  0.12699999809E+01 0.  1.
</event>
<event>
 5   0  0.1875284E-07  0.3099772E+04  0.7818609E-02  0.8215800E-01
       -1   -1    0    0    0  501  0.00000000000E+00  0.00000000000E+00  0.11847631124E+04  0.11847631124E+04  0.50400001928E-02 0. -1.
        1   -1    0    0  501    0  0.00000000000E+00  0.00000000000E+00 -0.20275333119E+04  0.20275333119E+04  0.50400001928E-02 0.  1.
    10030    2    1    2    0    0  0.00000000000E+00  0.00000000000E+00 -0.84277019946E+03  0.32122964243E+04  0.30997720414E+04 0.  0.
        4    1    3    3  502    0  0.38657269114E+03 -0.25843396656E+03  0.11107703867E+04  0.12041756622E+04  0.12699999809E+01 0. -1.
       -4    1    3    3    0  502 -0.38657269114E+03  0.25843396656E+03 -0.19535405862E+04  0.20081207621E+04  0.12699999809E+01 0.  1.
</event>
<event>
 5   0  0.1840359E-07  0.3100536E+04  0.7818609E-02  0.8215591E-01
       -1   -1    0    0    0  501  0.00000000000E+00  0.00000000000E+00  0.86516326067E+03  0.86516326068E+03  0.50400001928E-02 0.  1.
        1   -1    0    0  501    0  0.00000000000E+00  0.00000000000E+00 -0.27778923680E+04  0.27778923680E+04  0.50400001928E-02 0. -1.
    10030    2    1    2    0    0  0.00000000000E+00  0.00000000000E+00 -0.19127291073E+04  0.36430556287E+04  0.31005357078E+04 0.  0.
        1    1    3    3  502    0  0.10373361891E+04  0.11337979956E+04 -0.71623737803E+03  0.16954528144E+04  0.50400001928E-02 0.  1.
       -1    1    3    3    0  502 -0.10373361891E+04 -0.11337979956E+04 -0.11964917293E+04  0.19476028143E+04  0.50400001928E-02 0. -1.
</event>
<event>
 5   0  0.1814075E-07  0.3096339E+04  0.7818609E-02  0.8216743E-01
        1   -1    0    0  501    0  0.00000000000E+00  0.00000000000E+00  0.20095749172E+04  0.20095749172E+04  0.50400001928E-02 0. -1.
       -1   -1    0    0    0  501  0.00000000000E+00  0.00000000000E+00 -0.11927047031E+04  0.11927047031E+04  0.50400001928E-02 0.  1.
    10030    2    1    2    0    0  0.00000000000E+00  0.00000000000E+00  0.81687021415E+03  0.32022796203E+04  0.30963394226E+04 0.  0.
        5    1    3    3  502    0 -0.12815703683E+04 -0.31462943872E+03 -0.42882733968E+03  0.13875623481E+04  0.46999998093E+01 0.  1.
       -5    1    3    3    0  502  0.12815703683E+04  0.31462943872E+03  0.12456975538E+04  0.18147172722E+04  0.46999998093E+01 0. -1.
</event>
<event>
 5   0  0.1830902E-07  0.3098774E+04  0.7818609E-02  0.8216074E-01
       -1   -1    0    0    0  501  0.00000000000E+00  0.00000000000E+00  0.13277297164E+04  0.13277297164E+04  0.50400001928E-02 0.  1.
        1   -1    0    0  501    0  0.00000000000E+00  0.00000000000E+00 -0.18080492830E+04  0.18080492830E+04  0.50400001928E-02 0. -1.
    10030    2    1    2    0    0  0.00000000000E+00  0.00000000000E+00 -0.48031956668E+03  0.31357789994E+04  0.30987744427E+04 0.  0.
        3    1    3    3  502    0  0.25557680705E+03 -0.40947952145E+03  0.12497014892E+04  0.13396816059E+04  0.10100000352E+00 0.  1.
       -3    1    3    3    0  502 -0.25557680705E+03  0.40947952145E+03 -0.17300210559E+04  0.17960973935E+04  0.10100000352E+00 0. -1.
</event>
<event>
 5   0  0.5055900E-07  0.3090180E+04  0.7818609E-02  0.8218438E-01
       -2   -1    0    0    0  501  0.00000000000E+00  0.00000000000E+00  0.11950514103E+04  0.11950514103E+04  0.25500000920E-02 0. -1.
        2   -1    0    0  501    0  0.00000000000E+00  0.00000000000E+00 -0.19976577206E+04  0.19976577206E+04  0.25500000920E-02 0.  1.
    10030    2    1    2    0    0  0.00000000000E+00  0.00000000000E+00 -0.80260631033E+03  0.31927091309E+04  0.30901803678E+04 0.  0.
        2    1    3    3  502    0  0.81813242567E+03 -0.13001738310E+04 -0.22993549470E+03  0.15532749237E+04  0.25500000920E-02 0.  1.
       -2    1    3    3    0  502 -0.81813242567E+03  0.13001738310E+04 -0.57267081563E+03  0.16394342072E+04  0.25500000920E-02 0. -1.
</event>
<event>
 5   0  0.1875284E-07  0.3098951E+04  0.7818609E-02  0.8216026E-01
       -1   -1    0    0    0  501  0.00000000000E+00  0.00000000000E+00  0.31464651015E+04  0.31464651015E+04  0.50400001928E-02 0. -1.
        1   -1    0    0  501    0  0.00000000000E+00  0.00000000000E+00 -0.76303869591E+03  0.76303869592E+03  0.50400001928E-02 0.  1.
    10030    2    1    2    0    0  0.00000000000E+00  0.00000000000E+00  0.23834264056E+04  0.39095037974E+04  0.30989511954E+04 0.  0.
        4    1    3    3  502    0 -0.67979788035E+02 -0.15357572596E+04  0.14366678363E+04  0.21040883291E+04  0.12699999809E+01 0. -1.
       -4    1    3    3    0  502  0.67979788035E+02  0.15357572596E+04  0.94675856930E+03  0.18054154683E+04  0.12699999809E+01 0.  1.
</event>
<event>
 5   0  0.5342534E-07  0.3097988E+04  0.7818609E-02  0.8216290E-01
        2   -1    0    0  501    0  0.00000000000E+00  0.00000000000E+00  0.13787709973E+04  0.13787709973E+04  0.25500000920E-02 0.  1.
       -2   -1    0    0    0  501  0.00000000000E+00  0.00000000000E+00 -0.17402328825E+04  0.17402328825E+04  0.25500000920E-02 0. -1.
    10030    2    1    2    0    0  0.00000000000E+00  0.00000000000E+00 -0.36146188515E+03  0.31190038798E+04  0.30979881388E+04 0.  0.
        3    1    3    3  502    0  0.76716490249E+03 -0.15615488374E+03 -0.15263817013E+04  0.17154496331E+04  0.10100000352E+00 0. -1.
       -3    1    3    3    0  502 -0.76716490249E+03  0.15615488374E+03  0.11649198161E+04  0.14035542468E+04  0.10100000352E+00 0.  1.
</event>
<event>
 5   0  0.5248309E-07  0.3096309E+04  0.7818609E-02  0.8216752E-01
        2   -1    0    0  501    0  0.00000000000E+00  0.00000000000E+00  0.24384590429E+04  0.24384590429E+04  0.25500000920E-02 0.  1.
       -2   -1    0    0    0  501  0.00000000000E+00  0.00000000000E+00 -0.98290828312E+03  0.98290828313E+03  0.25500000920E-02 0. -1.
    10030    2    1    2    0    0  0.00000000000E+00  0.00000000000E+00  0.14555507598E+04  0.34213673260E+04  0.30963085062E+04 0.  0.
        4    1    3    3  502    0 -0.13246060273E+04  0.65844916416E+03  0.12325040313E+04  0.19254101457E+04  0.12699999809E+01 0.  1.
       -4    1    3    3    0  502  0.13246060273E+04 -0.65844916416E+03  0.22304672847E+03  0.14959571803E+04  0.12699999809E+01 0. -1.
</event>
<event>
 5   0  0.1840359E-07  0.3115260E+04  0.7818609E-02  0.8211562E-01
       -1   -1    0    0    0  501  0.00000000000E+00  0.00000000000E+00  0.17855811745E+04  0.17855811745E+04  0.50400001928E-02 0.  1.
        1   -1    0    0  501    0  0.00000000000E+00  0.00000000000E+00 -0.13587795010E+04  0.13587795010E+04  0.50400001928E-02 0. -1.
    10030    2    1    2    0    0  0.00000000000E+00  0.00000000000E+00  0.42680167346E+03  0.31443606755E+04  0.31152599232E+04 0.  0.
        1    1    3    3  502    0  0.12357321179E+04 -0.91967986831E+03  0.44656998428E+03  0.16038296912E+04  0.50400001928E-02 0. -1.
       -1    1    3    3    0  502 -0.12357321179E+04  0.91967986831E+03 -0.19768310820E+02  0.15405309843E+04  0.50400001928E-02 0.  1.
</event>
<event>
 5   0  0.5376678E-07  0.3102932E+04  0.7818609E-02  0.8214934E-01
        2   -1    0    0  501    0  0.00000000000E+00  0.00000000000E+00  0.21764012760E+04  0.21764012760E+04  0.25500000920E-02 0. -1.
       -2   -1    0    0    0  501  0.00000000000E+00  0.00000000000E+00 -0.11059755815E+04  0.11059755815E+04  0.25500000920E-02 0.  1.
    10030    2    1    2    0    0  0.00000000000E+00  0.00000000000E+00  0.10704256945E+04  0.32823768574E+04  0.31029319468E+04 0.  0.
        5    1    3    3  502    0 -0.10044214678E+04  0.10714081573E+04  0.60366158228E+01  0.14686171916E+04  0.46999998093E+01 0.  1.
       -5    1    3    3    0  502  0.10044214678E+04 -0.10714081573E+04  0.10643890787E+04  0.18137596658E+04  0.46999998093E+01 0. -1.
</event>
<event>
 5   0  0.5154105E-07  0.3102771E+04  0.7818609E-02  0.8214978E-01
       -2   -1    0    0    0  501  0.00000000000E+00  0.00000000000E+00  0.13557499642E+04  0.13557499642E+04  0.25500000920E-02 0.  1.
        2   -1    0    0  501    0  0.00000000000E+00  0.00000000000E+00 -0.17752515524E+04  0.17752515524E+04  0.25500000920E-02 0. -1.
    10030    2    1    2    0    0  0.00000000000E+00  0.00000000000E+00 -0.41950158816E+03  0.31310015166E+04  0.31027711670E+04 0.  0.
        1    1    3    3  502    0  0.75617806296E+03  0.39440809683E+03  0.10979700010E+04  0.13902881474E+04  0.50400001928E-02 0.  1.
       -1    1    3    3    0  502 -0.75617806296E+03 -0.39440809683E+03 -0.15174715892E+04  0.17407133692E+04  0.50400001928E-02 0. -1.
</event>
<event>
 5   0  0.5342534E-07  0.3095744E+04  0.7818609E-02  0.8216907E-01
        2   -1    0    0  501    0  0.00000000000E+00  0.00000000000E+00  0.10964985876E+04  0.10964985876E+04  0.25500000920E-02 0. -1.
       -2   -1    0    0    0  501  0.00000000000E+00  0.00000000000E+00 -0.21850526994E+04  0.21850526994E+04  0.25500000920E-02 0.  1.
    10030    2    1    2    0    0  0.00000000000E+00  0.00000000000E+00 -0.10885541117E+04  0.32815512870E+04  0.30957436578E+04 0.  0.
        3    1    3    3  502    0  0.12793493651E+04 -0.79439629378E+03 -0.16487428585E+03  0.15149203973E+04  0.10100000352E+00 0.  1.
       -3    1    3    3    0  502 -0.12793493651E+04  0.79439629378E+03 -0.92367982588E+03  0.17666308898E+04  0.10100000352E+00 0. -1.
</event>
<event>
 5   0  0.1840359E-07  0.3092941E+04  0.7818609E-02  0.8217678E-01
       -1   -1    0    0    0  501  0.00000000000E+00  0.00000000000E+00  0.95788542154E+03  0.95788542156E+03  0.50400001928E-02 0.  1.
        1   -1    0    0  501    0  0.00000000000E+00  0.00000000000E+00 -0.24967186754E+04  0.24967186754E+04  0.50400001928E-02 0. -1.
    10030    2    1    2    0    0  0.00000000000E+00  0.00000000000E+00 -0.15388332539E+04  0.34546040970E+04  0.30929406208E+04 0.  0.
        1    1    3    3  502    0  0.25823103507E+03  0.15170794989E+04 -0.94011710691E+03  0.18033395821E+04  0.50400001928E-02 0. -1.
       -1    1    3    3    0  502 -0.25823103507E+03 -0.15170794989E+04 -0.59871614698E+03  0.16512645149E+04  0.50400001928E-02 0.  1.
</event>
<event>
 5   0  0.1845123E-07  0.3100765E+04  0.7818609E-02  0.8215528E-01
       -1   -1    0    0    0  501  0.00000000000E+00  0.00000000000E+00  0.11905613679E+04  0.11905613679E+04  0.50400001928E-02 0.  1.
        1   -1    0    0  501    0  0.00000000000E+00  0.00000000000E+00 -0.20189521036E+04  0.20189521036E+04  0.50400001928E-02 0. -1.
    10030    2    1    2    0    0  0.00000000000E+00  0.00000000000E+00 -0.82839073568E+03  0.32095134715E+04  0.31007653108E+04 0.  0.
        2    1    3    3  502    0  0.62095398687E+03  0.69010155430E+03 -0.16994616391E+04  0.19364900908E+04  0.25500000920E-02 0. -1.
       -2    1    3    3    0  502 -0.62095398687E+03 -0.69010155430E+03  0.87107090340E+03  0.12730233807E+04  0.25500000920E-02 0.  1.
</event>
<event>
 5   0  0.5154105E-07  0.3097789E+04  0.7818609E-02  0.8216345E-01
        2   -1    0    0  501    0  0.00000000000E+00  0.00000000000E+00  0.18904982203E+04  0.18904982203E+04  0.25500000920E-02 0. -1.
       -2   -1    0    0    0  501  0.00000000000E+00  0.00000000000E+00 -0.12690168101E+04  0.12690168101E+04  0.25500000920E-02 0.  1.
    10030    2    1    2    0    0  0.00000000000E+00  0.00000000000E+00  0.62148141013E+03  0.31595150304E+04  0.30977889025E+04 0.  0.
        1    1    3    3  502    0 -0.53020498421E+03  0.79032035872E+03 -0.93563642435E+03  0.13345932389E+04  0.50400001928E-02 0.  1.
       -1    1    3    3    0  502  0.53020498421E+03 -0.79032035872E+03  0.15571178345E+04  0.18249217915E+04  0.50400001928E-02 0. -1.
</event>
<event>
 5   0  0.5342534E-07  0.3069313E+04  0.7818609E-02  0.8224210E-01
       -2   -1    0    0    0  501  0.00000000000E+00  0.00000000000E+00  0.14803958284E+04  0.14803958284E+04  0.25500000920E-02 0.  1.
        2   -1    0    0  501    0  0.00000000000E+00  0.00000000000E+00 -0.15909062673E+04  0.15909062673E+04  0.25500000920E-02 0. -1.
    10030    2    1    2    0    0  0.00000000000E+00  0.00000000000E+00 -0.11051043890E+03  0.30713020957E+04  0.30693132792E+04 0.  0.
        3    1    3    3  502    0  0.22945794027E+03 -0.15167470142E+04 -0.10521219080E+02  0.15340414458E+04  0.10100000352E+00 0. -1.
       -3    1    3    3    0  502 -0.22945794027E+03  0.15167470142E+04 -0.99989219818E+02  0.15372606498E+04  0.10100000352E+00 0.  1.
</event>
<event>
 5   0  0.1814075E-07  0.3101544E+04  0.7818609E-02  0.8215314E-01
       -1   -1    0    0    0  501  0.00000000000E+00  0.00000000000E+00  0.13927097130E+04  0.13927097131E+04  0.50400001928E-02 0.  1.
        1   -1    0    0  501    0  0.00000000000E+00  0.00000000000E+00 -0.17267726792E+04  0.17267726792E+04  0.50400001928E-02 0. -1.
    10030    2    1    2    0    0  0.00000000000E+00  0.00000000000E+00 -0.33406296612E+03  0.31194823922E+04  0.31015435399E+04 0.  0.
        5    1    3    3  502    0 -0.41006171063E+03 -0.14657471748E+04 -0.46591281684E+03  0.15917481679E+04  0.46999998093E+01 0. -1.
       -5    1    3    3    0  502  0.41006171063E+03  0.14657471748E+04  0.13184985071E+03  0.15277342243E+04  0.46999998093E+01 0.  1.
</event>
<event>
 5   0  0.5342534E-07  0.3099638E+04  0.7818609E-02  0.8215837E-01
       -2   -1    0    0    0  501  0.00000000000E+00  0.00000000000E+00  0.94632930445E+03  0.94632930445E+03  0.25500000920E-02 0.  1.
        2   -1    0    0  501    0  0.00000000000E+00  0.00000000000E+00 -0.25381634769E+04  0.25381634769E+04  0.25500000920E-02 0. -1.
    10030    2    1    2    0    0  0.00000000000E+00  0.00000000000E+00 -0.15918341725E+04  0.34844927814E+04  0.30996377064E+04 0.  0.
        3    1    3    3  502    0  0.42831694287E+01  0.92083802247E+03  0.60544702532E+03  0.11020558606E+04  0.10100000352E+00 0.  1.
       -3    1    3    3    0  502 -0.42831694287E+01 -0.92083802247E+03 -0.21972811978E+04  0.23824369208E+04  0.10100000352E+00 0. -1.
</event>
<event>
 5   0  0.1875284E-07  0.3095305E+04  0.7818609E-02  0.8217028E-01
        1   -1    0    0  501    0  0.00000000000E+00  0.00000000000E+00  0.24832644640E+04  0.24832644640E+04  0.50400001928E-02 0. -1.
       -1   -1    0    0    0  501  0.00000000000E+00  0.00000000000E+00 -0.96454830361E+03  0.96454830362E+03  0.50400001928E-02 0.  1.
    10030    2    1    2    0    0  0.00000000000E+00  0.00000000000E+00  0.15187161604E+04  0.34478127676E+04  0.30953051715E+04 0.  0.
        4    1    3    3  502    0  0.81158231123E+03 -0.11027461749E+04 -0.44270822754E+02  0.13699184256E+04  0.12699999809E+01 0. -1.
       -4    1    3    3    0  502 -0.81158231123E+03  0.11027461749E+04  0.15629869832E+04  0.20778943420E+04  0.12699999809E+01 0.  1.
</event>
<event>
 5   0  0.1875284E-07  0.3086368E+04  0.7818609E-02  0.8219489E-01
        1   -1    0    0  501    0  0.00000000000E+00  0.00000000000E+00  0.13706156636E+04  0.13706156636E+04  0.50400001928E-02 0.  1.
       -1   -1    0    0    0  501  0.00000000000E+00  0.00000000000E+00 -0.17374799604E+04  0.17374799604E+04  0.50400001928E-02 0. -1.
    10030    2    1    2    0    0  0.00000000000E+00  0.00000000000E+00 -0.36686429680E+03  0.31080956240E+04  0.30863682534E+04 0.  0.
        4    1    3    3  502    0 -0.73204953490E+03  0.85495226927E+03  0.87973468553E+03  0.14285568362E+04  0.12699999809E+01 0.  1.
       -4    1    3    3    0  502  0.73204953490E+03 -0.85495226927E+03 -0.12465989823E+04  0.16795387879E+04  0.12699999809E+01 0. -1.
</event>
<event>
 5   0  0.5342534E-07  0.3098425E+04  0.7818609E-02  0.8216170E-01
        2   -1    0    0  501    0  0.00000000000E+00  0.00000000000E+00  0.19845758710E+04  0.19845758710E+04  0.25500000920E-02 0. -1.
       -2   -1    0    0    0  501  0.00000000000E+00  0.00000000000E+00 -0.12093564794E+04  0.12093564794E+04  0.25500000920E-02 0.  1.
    10030    2    1    2    0    0  0.00000000000E+00  0.00000000000E+00  0.77521939165E+03  0.31939323504E+04  0.30984252055E+04 0.  0.
        3    1    3    3  502    0 -0.14677274494E+04  0.41204131190E+03  0.10332303035E+03  0.15279651722E+04  0.10100000352E+00 0.  1.
       -3    1    3    3    0  502  0.14677274494E+04 -0.41204131190E+03  0.67189636130E+03  0.16659671783E+04  0.10100000352E+00 0. -1.
</event>
<event>
 5   0  0.1830902E-07  0.3096709E+04  0.7818609E-02  0.8216642E-01
       -1   -1    0    0    0  501  0.00000000000E+00  0.00000000000E+00  0.80500131643E+03  0.80500131645E+03  0.50400001928E-02 0.  1.
        1   -1    0    0  501    0  0.00000000000E+00  0.00000000000E+00 -0.29781337841E+04  0.29781337841E+04  0.50400001928E-02 0. -1.
    10030    2    1    2    0    0  0.00000000000E+00  0.00000000000E+00 -0.21731324677E+04  0.37831351006E+04  0.30967089736E+04 0.  0.
        3    1    3    3  502    0  0.40874817756E+03  0.82219625540E+03  0.43651004784E+03  0.10166724090E+04  0.10100000352E+00 0.  1.
       -3    1    3    3    0  502 -0.40874817756E+03 -0.82219625540E+03 -0.26096425155E+04  0.27664626916E+04  0.10100000352E+00 0. -1.
</event>
<event>
 5   0  0.1840359E-07  0.3124942E+04  0.7818609E-02  0.8208926E-01
        1   -1    0    0  501    0  0.00000000000E+00  0.00000000000E+00  0.14651926635E+04  0.14651926635E+04  0.50400001928E-02 0. -1.
       -1   -1    0    0    0  501  0.00000000000E+00  0.00000000000E+00 -0.16662084524E+04  0.16662084524E+04  0.50400001928E-02 0.  1.
    10030    2    1    2    0    0  0.00000000000E+00  0.00000000000E+00 -0.20101578887E+03  0.31314011159E+04  0.31249424957E+04 0.  0.
        1    1    3    3  502    0  0.12968348926E+04 -0.11840896535E+03 -0.96572452543E+03  0.16212418946E+04  0.50400001928E-02 0.  1.
       -1    1    3    3    0  502 -0.12968348926E+04  0.11840896535E+03  0.76470873656E+03  0.15101592213E+04  0.50400001928E-02 0. -1.
</event>
<event>
 5   0  0.1875284E-07  0.3102894E+04  0.7818609E-02  0.8214944E-01
       -1   -1    0    0    0  501  0.00000000000E+00  0.00000000000E+00  0.17694000605E+04  0.17694000605E+04  0.50400001928E-02 0.  1.
        1   -1    0    0  501    0  0.00000000000E+00  0.00000000000E+00 -0.13603411899E+04  0.13603411900E+04  0.50400001928E-02 0. -1.
    10030    2    1    2    0    0  0.00000000000E+00  0.00000000000E+00  0.40905887054E+03  0.31297412504E+04  0.31028939935E+04 0.  0.
        4    1    3    3  502    0 -0.13690910655E+03  0.59617287271E+03  0.16426356228E+04  0.17528318801E+04  0.12699999809E+01 0.  1.
       -4    1    3    3    0  502  0.13690910655E+03 -0.59617287271E+03 -0.12335767523E+04  0.13769093704E+04  0.12699999809E+01 0. -1.
</event>
<event>
 5   0  0.5055900E-07  0.3098437E+04  0.7818609E-02  0.8216167E-01
        2   -1    0    0  501    0  0.00000000000E+00  0.00000000000E+00  0.11532670855E+04  0.11532670855E+04  0.25500000920E-02 0.  1.
       -2   -1    0    0    0  501  0.00000000000E+00  0.00000000000E+00 -0.20811118741E+04  0.20811118741E+04  0.25500000920E-02 0. -1.
    10030    2    1    2    0    0  0.00000000000E+00  0.00000000000E+00 -0.92784478856E+03  0.32343789596E+04  0.30984369128E+04 0.  0.
        2    1    3    3  502    0 -0.50309014519E+03 -0.94079820773E+03 -0.16365408740E+04  0.19535779980E+04  0.25500000920E-02 0. -1.
       -2    1    3    3    0  502  0.50309014519E+03  0.94079820773E+03  0.70869608545E+03  0.12808009617E+04  0.25500000920E-02 0.  1.
</event>
<event>
 5   0  0.5055900E-07  0.3105544E+04  0.7818609E-02  0.8214218E-01
        2   -1    0    0  501    0  0.00000000000E+00  0.00000000000E+00  0.14330911293E+04  0.14330911293E+04  0.25500000920E-02 0.  1.
       -2   -1    0    0    0  501  0.00000000000E+00  0.00000000000E+00 -0.16824481716E+04  0.16824481716E+04  0.25500000920E-02 0. -1.
    10030    2    1    2    0    0  0.00000000000E+00  0.00000000000E+00 -0.24935704230E+03  0.31155393008E+04  0.31055444290E+04 0.  0.
        2    1    3    3  502    0 -0.10564344114E+04  0.44723479978E+03 -0.11744826620E+04  0.16417923605E+04  0.25500000920E-02 0. -1.
       -2    1    3    3    0  502  0.10564344114E+04 -0.44723479978E+03  0.92512561970E+03  0.14737469403E+04  0.25500000920E-02 0.  1.
</event>
<event>
 5   0  0.5055900E-07  0.3098611E+04  0.7818609E-02  0.8216119E-01
        2   -1    0    0  501    0  0.00000000000E+00  0.00000000000E+00  0.19387622897E+04  0.19387622897E+04  0.25500000920E-02 0.  1.
       -2   -1    0    0    0  501  0.00000000000E+00  0.00000000000E+00 -0.12380820394E+04  0.12380820394E+04  0.25500000920E-02 0. -1.
    10030    2    1    2    0    0  0.00000000000E+00  0.00000000000E+00  0.70068025031E+03  0.31768443291E+04  0.30986105077E+04 0.  0.
        2    1    3    3  502    0 -0.87536456923E+03 -0.49573006154E+03 -0.85768546791E+03  0.13219817642E+04  0.25500000920E-02 0. -1.
       -2    1    3    3    0  502  0.87536456923E+03  0.49573006154E+03  0.15583657182E+04  0.18548625649E+04  0.25500000920E-02 0.  1.
</event>
<event>
 5   0  0.1845123E-07  0.3100948E+04  0.7818609E-02  0.8215478E-01
        1   -1    0    0  501    0  0.00000000000E+00  0.00000000000E+00  0.26111156237E+04  0.26111156237E+04  0.50400001928E-02 0.  1.
       -1   -1    0    0    0  501  0.00000000000E+00  0.00000000000E+00 -0.92066774037E+03  0.92066774039E+03  0.50400001928E-02 0. -1.
    10030    2    1    2    0    0  0.00000000000E+00  0.00000000000E+00  0.16904478833E+04  0.35317833641E+04  0.31009481912E+04 0.  0.
        2    1    3    3  502    0 -0.97226903500E+03 -0.12015347672E+04  0.70584002699E+03  0.16991771588E+04  0.25500000920E-02 0. -1.
       -2    1    3    3    0  502  0.97226903500E+03  0.12015347672E+04  0.98460785635E+03  0.18326062054E+04  0.25500000920E-02 0.  1.
</event>
<event>
 5   0  0.1875284E-07  0.3099174E+04  0.7818609E-02  0.8215965E-01
        1   -1    0    0  501    0  0.00000000000E+00  0.00000000000E+00  0.24491624528E+04  0.24491624528E+04  0.50400001928E-02 0.  1.
       -1   -1    0    0    0  501  0.00000000000E+00  0.00000000000E+00 -0.98042520020E+03  0.98042520021E+03  0.50400001928E-02 0. -1.
    10030    2    1    2    0    0  0.00000000000E+00  0.00000000000E+00  0.14687372526E+04  0.34295876530E+04  0.30991744631E+04 0.  0.
        4    1    3    3  502    0  0.35473854027E+03  0.29322657054E+03 -0.90304429438E+03  0.10135639418E+04  0.12699999809E+01 0. -1.
       -4    1    3    3    0  502 -0.35473854027E+03 -0.29322657054E+03  0.23717815470E+04  0.24160237112E+04  0.12699999809E+01 0.  1.
</event>
<event>
 5   0  0.1830902E-07  0.3098583E+04  0.7818609E-02  0.8216127E-01
        1   -1    0    0  501    0  0.00000000000E+00  0.00000000000E+00  0.25908227552E+04  0.25908227552E+04  0.50400001928E-02 0. -1.
       -1   -1    0    0    0  501  0.00000000000E+00  0.00000000000E+00 -0.92646393816E+03  0.92646393817E+03  0.50400001928E-02 0.  1.
    10030    2    1    2    0    0  0.00000000000E+00  0.00000000000E+00  0.16643588170E+04  0.35172866933E+04  0.30985828069E+04 0.  0.
        3    1    3    3  502    0  0.71748785673E+03  0.63557856601E+03  0.22138468938E+04  0.24124400547E+04  0.10100000352E+00 0. -1.
       -3    1    3    3    0  502 -0.71748785673E+03 -0.63557856601E+03 -0.54948807681E+03  0.11048466386E+04  0.10100000352E+00 0.  1.
</event>
<event>
 5   0  0.5376678E-07  0.3096505E+04  0.7818609E-02  0.8216698E-01
       -2   -1    0    0    0  501  0.00000000000E+00  0.00000000000E+00  0.82322901775E+03  0.82322901775E+03  0.25500000920E-02 0.  1.
        2   -1    0    0  501    0  0.00000000000E+00  0.00000000000E+00 -0.29118091817E+04  0.29118091817E+04  0.25500000920E-02 0. -1.
    10030    2    1    2    0    0  0.00000000000E+00  0.00000000000E+00 -0.20885801640E+04  0.37350381995E+04  0.30965050057E+04 0.  0.
        5    1    3    3  502    0  0.79536299951E+03  0.71438227177E+01 -0.26465134605E+04  0.27634595930E+04  0.46999998093E+01 0. -1.
       -5    1    3    3    0  502 -0.79536299951E+03 -0.71438227177E+01  0.55793329657E+03  0.97157860650E+03  0.46999998093E+01 0.  1.
</event>
<event>
 5   0  0.1875284E-07  0.3103124E+04  0.7818609E-02  0.8214881E-01
        1   -1    0    0  501    0  0.00000000000E+00  0.00000000000E+00  0.24125769340E+04  0.24125769340E+04  0.50400001928E-02 0. -1.
       -1   -1    0    0    0  501  0.00000000000E+00  0.00000000000E+00 -0.99783151572E+03  0.99783151573E+03  0.50400001928E-02 0.  1.
    10030    2    1    2    0    0  0.00000000000E+00  0.00000000000E+00  0.14147454183E+04  0.34104084497E+04  0.31031244248E+04 0.  0.
        4    1    3    3  502    0  0.70705396994E+03  0.80516589078E+03 -0.52585094553E+03  0.11936240019E+04  0.12699999809E+01 0.  1.
       -4    1    3    3    0  502 -0.70705396994E+03 -0.80516589078E+03  0.19405963638E+04  0.22167844478E+04  0.12699999809E+01 0. -1.
</event>
<event>
 5   0  0.5376678E-07  0.3108608E+04  0.7818609E-02  0.8213380E-01
        2   -1    0    0  501    0  0.00000000000E+00  0.00000000000E+00  0.21814139451E+04  0.21814139451E+04  0.25500000920E-02 0. -1.
       -2   -1    0    0    0  501  0.00000000000E+00  0.00000000000E+00 -0.11074746837E+04  0.11074746837E+04  0.25500000920E-02 0.  1.
    10030    2    1    2    0    0  0.00000000000E+00  0.00000000000E+00  0.10739392615E+04  0.32888886288E+04  0.31086078677E+04 0.  0.
        5    1    3    3  502    0  0.73668295332E+03 -0.61906383010E+03  0.18283712404E+04  0.20661329295E+04  0.46999998093E+01 0. -1.
       -5    1    3    3    0  502 -0.73668295332E+03  0.61906383010E+03 -0.75443197892E+03  0.12227556993E+04  0.46999998093E+01 0.  1.
</event>
<event>
 5   0  0.1875284E-07  0.3098206E+04  0.7818609E-02  0.8216230E-01
        1   -1    0    0  501    0  0.00000000000E+00  0.00000000000E+00  0.16862629148E+04  0.16862629148E+04  0.50400001928E-02 0. -1.
       -1   -1    0    0    0  501  0.00000000000E+00  0.00000000000E+00 -0.14231000411E+04  0.14231000411E+04  0.50400001928E-02 0.  1.
    10030    2    1    2    0    0  0.00000000000E+00  0.00000000000E+00  0.26316287367E+03  0.31093629558E+04  0.30982064639E+04 0.  0.
        4    1    3    3  502    0 -0.12475958608E+02 -0.77013744811E+03 -0.12173015039E+04  0.14405179287E+04  0.12699999809E+01 0.  1.
       -4    1    3    3    0  502  0.12475958608E+02  0.77013744811E+03  0.14804643776E+04  0.16688450272E+04  0.12699999809E+01 0. -1.
</event>
<event>
 5   0  0.1814075E-07  0.3099328E+04  0.7818609E-02  0.8215922E-01
       -1   -1    0    0    0  501  0.00000000000E+00  0.00000000000E+00  0.12126716336E+04  0.12126716336E+04  0.50400001928E-02 0. -1.
        1   -1    0    0  501    0  0.00000000000E+00  0.00000000000E+00 -0.19803043650E+04  0.19803043650E+04  0.50400001928E-02 0.  1.
    10030    2    1    2    0    0  0.00000000000E+00  0.00000000000E+00 -0.76763273142E+03  0.31929759986E+04  0.30993282687E+04 0.  0.
        5    1    3    3  502    0  0.11169898937E+04  0.76795370658E+02 -0.14875771900E+04  0.18618463787E+04  0.46999998093E+01 0.  1.
       -5    1    3    3    0  502 -0.11169898937E+04 -0.76795370658E+02  0.71994445862E+03  0.13311296199E+04  0.46999998093E+01 0. -1.
</event>
<event>
 5   0  0.1830902E-07  0.3099243E+04  0.7818609E-02  0.8215946E-01
        1   -1    0    0  501    0  0.00000000000E+00  0.00000000000E+00  0.15818744275E+04  0.15818744275E+04  0.50400001928E-02 0. -1.
       -1   -1    0    0    0  501  0.00000000000E+00  0.00000000000E+00 -0.15180259905E+04  0.15180259906E+04  0.50400001928E-02 0.  1.
    10030    2    1    2    0    0  0.00000000000E+00  0.00000000000E+00  0.63848436968E+02  0.30999004181E+04  0.30992428074E+04 0.  0.
        3    1    3    3  502    0 -0.25478945929E+03  0.61529416475E+03  0.14314430048E+04  0.15787760018E+04  0.10100000352E+00 0. -1.
       -3    1    3    3    0  502  0.25478945929E+03 -0.61529416475E+03 -0.13675945678E+04  0.15211244163E+04  0.10100000352E+00 0.  1.
</event>
<event>
 5   0  0.1840359E-07  0.3099755E+04  0.7818609E-02  0.8215805E-01
       -1   -1    0    0    0  501  0.00000000000E+00  0.00000000000E+00  0.14041590252E+04  0.14041590252E+04  0.50400001928E-02 0. -1.
        1   -1    0    0  501    0  0.00000000000E+00  0.00000000000E+00 -0.17107184797E+04  0.17107184797E+04  0.50400001928E-02 0.  1.
    10030    2    1    2    0    0  0.00000000000E+00  0.00000000000E+00 -0.30655945455E+03  0.31148775049E+04  0.30997553406E+04 0.  0.
        1    1    3    3  502    0  0.81320902124E+03  0.15820394817E+03 -0.14695491275E+04  0.16869831178E+04  0.50400001928E-02 0.  1.
       -1    1    3    3    0  502 -0.81320902124E+03 -0.15820394817E+03  0.11629896729E+04  0.14278943871E+04  0.50400001928E-02 0. -1.
</event>
<event>
 5   0  0.5248309E-07  0.3102564E+04  0.7818609E-02  0.8215035E-01
        2   -1    0    0  501    0  0.00000000000E+00  0.00000000000E+00  0.14297531692E+04  0.14297531692E+04  0.25500000920E-02 0.  1.
       -2   -1    0    0    0  501  0.00000000000E+00  0.00000000000E+00 -0.16831404661E+04  0.16831404661E+04  0.25500000920E-02 0. -1.
    10030    2    1    2    0    0  0.00000000000E+00  0.00000000000E+00 -0.25338729690E+03  0.31128936353E+04  0.31025637242E+04 0.  0.
        4    1    3    3  502    0  0.88561002629E+03 -0.73632809971E+03  0.91599191515E+03  0.14715729648E+04  0.12699999809E+01 0.  1.
       -4    1    3    3    0  502 -0.88561002629E+03  0.73632809971E+03 -0.11693792120E+04  0.16413206705E+04  0.12699999809E+01 0. -1.
</event>
<event>
 5   0  0.5055900E-07  0.3106993E+04  0.7818609E-02  0.8213821E-01
       -2   -1    0    0    0  501  0.00000000000E+00  0.00000000000E+00  0.14125655353E+04  0.14125655353E+04  0.25500000920E-02 0. -1.
        2   -1    0    0  501    0  0.00000000000E+00  0.00000000000E+00 -0.17084885096E+04  0.17084885096E+04  0.25500000920E-02 0.  1.
    10030    2    1    2    0    0  0.00000000000E+00  0.00000000000E+00 -0.29592297438E+03  0.31210540449E+04  0.31069933931E+04 0.  0.
        2    1    3    3  502    0  0.21736692695E+02  0.83840426594E+03 -0.14615327969E+04  0.16850733851E+04  0.25500000920E-02 0.  1.
       -2    1    3    3    0  502 -0.21736692695E+02 -0.83840426594E+03  0.11656098225E+04  0.14359806598E+04  0.25500000920E-02 0. -1.
</event>
<event>
 5   0  0.1830902E-07  0.3099784E+04  0.7818609E-02  0.8215797E-01
       -1   -1    0    0    0  501  0.00000000000E+00  0.00000000000E+00  0.15522770767E+04  0.15522770767E+04  0.50400001928E-02 0.  1.
        1   -1    0    0  501    0  0.00000000000E+00  0.00000000000E+00 -0.15475110679E+04  0.15475110679E+04  0.50400001928E-02 0. -1.
    10030    2    1    2    0    0  0.00000000000E+00  0.00000000000E+00  0.47660087853E+01  0.30997881446E+04  0.30997844806E+04 0.  0.
        3    1    3    3  502    0  0.67988078034E+03 -0.10822702146E+04 -0.87432736429E+03  0.15485461062E+04  0.10100000352E+00 0. -1.
       -3    1    3    3    0  502 -0.67988078034E+03  0.10822702146E+04  0.87909337308E+03  0.15512420384E+04  0.10100000352E+00 0.  1.
</event>
<event>
 5   0  0.5342534E-07  0.3097547E+04  0.7818609E-02  0.8216411E-01
       -2   -1    0    0    0  501  0.00000000000E+00  0.00000000000E+00  0.15265516028E+04  0.15265516028E+04  0.25500000920E-02 0. -1.
        2   -1    0    0  501    0  0.00000000000E+00  0.00000000000E+00 -0.15713188113E+04  0.15713188113E+04  0.25500000920E-02 0.  1.
    10030    2    1    2    0    0  0.00000000000E+00  0.00000000000E+00 -0.44767208444E+02  0.30978704141E+04  0.30975469326E+04 0.  0.
        3    1    3    3  502    0  0.16209289921E+02  0.56136640878E+03 -0.14658999365E+04  0.15697954071E+04  0.10100000352E+00 0.  1.
       -3    1    3    3    0  502 -0.16209289921E+02 -0.56136640878E+03  0.14211327281E+04  0.15280750070E+04  0.10100000352E+00 0. -1.
</event>
<event>
 5   0  0.1840359E-07  0.3070392E+04  0.7818609E-02  0.8223911E-01
        1   -1    0    0  501    0  0.00000000000E+00  0.00000000000E+00  0.18476006226E+04  0.18476006226E+04  0.50400001928E-02 0.  1.
       -1   -1    0    0    0  501  0.00000000000E+00  0.00000000000E+00 -0.12756151892E+04  0.12756151892E+04  0.50400001928E-02 0. -1.
    10030    2    1    2    0    0  0.00000000000E+00  0.00000000000E+00  0.57198543340E+03  0.31232158118E+04  0.30703924295E+04 0.  0.
        1    1    3    3  502    0 -0.92839018724E+03 -0.79640061983E+02 -0.95506989717E+03  0.13343198221E+04  0.50400001928E-02 0. -1.
       -1    1    3    3    0  502  0.92839018724E+03  0.79640061983E+02  0.15270553306E+04  0.17888959897E+04  0.50400001928E-02 0.  1.
</event>
<event>
 5   0  0.1875284E-07  0.3110587E+04  0.7818609E-02  0.8212838E-01
       -1   -1    0    0    0  501  0.00000000000E+00  0.00000000000E+00  0.18383226985E+04  0.18383226985E+04  0.50400001928E-02 0.  1.
        1   -1    0    0  501    0  0.00000000000E+00  0.00000000000E+00 -0.13158394590E+04  0.13158394590E+04  0.50400001928E-02 0. -1.
    10030    2    1    2    0    0  0.00000000000E+00  0.00000000000E+00  0.52248323951E+03  0.31541621575E+04  0.31105867903E+04 0.  0.
        4    1    3    3  502    0 -0.21529191817E+03 -0.66137796472E+03 -0.11493478547E+04  0.13434185968E+04  0.12699999809E+01 0. -1.
       -4    1    3    3    0  502  0.21529191817E+03  0.66137796472E+03  0.16718310942E+04  0.18107435607E+04  0.12699999809E+01 0.  1.
</event>
<event>
 5   0  0.1814075E-07  0.3098662E+04  0.7818609E-02  0.8216105E-01
        1   -1    0    0  501    0  0.00000000000E+00  0.00000000000E+00  0.16674741481E+04  0.16674741481E+04  0.50400001928E-02 0.  1.
       -1   -1    0    0    0  501  0.00000000000E+00  0.00000000000E+00 -0.14395580555E+04  0.14395580555E+04  0.50400001928E-02 0. -1.
    10030    2    1    2    0    0  0.00000000000E+00  0.00000000000E+00  0.22791609254E+03  0.31070322036E+04  0.30986615448E+04 0.  0.
        5    1    3    3  502    0  0.28895870300E+03  0.11557148178E+04 -0.87928834211E+03  0.14806565944E+04  0.46999998093E+01 0. -1.
       -5    1    3    3    0  502 -0.28895870300E+03 -0.11557148178E+04  0.11072044346E+04  0.16263756092E+04  0.46999998093E+01 0.  1.
</event>
<event>
 5   0  0.5342534E-07  0.3100513E+04  0.7818609E-02  0.8215597E-01
       -2   -1    0    0    0  501  0.00000000000E+00  0.00000000000E+00  0.13330678126E+04  0.13330678126E+04  0.25500000920E-02 0.  1.
        2   -1    0    0  501    0  0.00000000000E+00  0.00000000000E+00 -0.18028308260E+04  0.18028308260E+04  0.25500000920E-02 0. -1.
    10030    2    1    2    0    0  0.00000000000E+00  0.00000000000E+00 -0.46976301342E+03  0.31358986385E+04  0.31005133417E+04 0.  0.
        3    1    3    3  502    0 -0.78933964025E+03 -0.27526955588E+03 -0.15553331432E+04  0.17657552471E+04  0.10100000352E+00 0. -1.
       -3    1    3    3    0  502  0.78933964025E+03  0.27526955588E+03  0.10855701298E+04  0.13701433914E+04  0.10100000352E+00 0.  1.
</event>
<event>
 5   0  0.1840359E-07  0.3073914E+04  0.7818609E-02  0.8222934E-01
       -1   -1    0    0    0  501  0.00000000000E+00  0.00000000000E+00  0.12674117143E+04  0.12674117143E+04  0.50400001928E-02 0.  1.
        1   -1    0    0  501    0  0.00000000000E+00  0.00000000000E+00 -0.18638276870E+04  0.18638276870E+04  0.50400001928E-02 0. -1.
    10030    2    1    2    0    0  0.00000000000E+00  0.00000000000E+00 -0.59641597267E+03  0.31312394013E+04  0.30739141458E+04 0.  0.
        1    1    3    3  502    0  0.53187293765E+03  0.13542752240E+04  0.20629258636E+03  0.14695260581E+04  0.50400001928E-02 0.  1.
       -1    1    3    3    0  502 -0.53187293765E+03 -0.13542752240E+04 -0.80270855904E+03  0.16617133432E+04  0.50400001928E-02 0. -1.
</event>
<event>
 5   0  0.5154105E-07  0.3093509E+04  0.7818609E-02  0.8217522E-01
        2   -1    0    0  501    0  0.00000000000E+00  0.00000000000E+00  0.18247344234E+04  0.18247344234E+04  0.25500000920E-02 0.  1.
       -2   -1    0    0    0  501  0.00000000000E+00  0.00000000000E+00 -0.13111216273E+04  0.13111216273E+04  0.25500000920E-02 0. -1.
    10030    2    1    2    0    0  0.00000000000E+00  0.00000000000E+00  0.51361279613E+03  0.31358560508E+04  0.30935085367E+04 0.  0.
        1    1    3    3  502    0 -0.12668647417E+04 -0.33148040172E+03  0.10912537573E+04  0.17045997458E+04  0.50400001928E-02 0. -1.
       -1    1    3    3    0  502  0.12668647417E+04  0.33148040172E+03 -0.57764096115E+03  0.14312563050E+04  0.50400001928E-02 0.  1.
</event>
<event>
 5   0  0.1875284E-07  0.3103040E+04  0.7818609E-02  0.8214904E-01
        1   -1    0    0  501    0  0.00000000000E+00  0.00000000000E+00  0.80729813840E+03  0.80729813842E+03  0.50400001928E-02 0.  1.
       -1   -1    0    0    0  501  0.00000000000E+00  0.00000000000E+00 -0.29818149022E+04  0.29818149022E+04  0.50400001928E-02 0. -1.
    10030    2    1    2    0    0  0.00000000000E+00  0.00000000000E+00 -0.21745167638E+04  0.37891130407E+04  0.31030395548E+04 0.  0.
        4    1    3    3  502    0 -0.11616813022E+04 -0.40461020280E+03 -0.22418244809E+04  0.25571451816E+04  0.12699999809E+01 0. -1.
       -4    1    3    3    0  502  0.11616813022E+04  0.40461020280E+03  0.67307717023E+02  0.12319678590E+04  0.12699999809E+01 0.  1.
</event>
<event>
 5   0  0.1814075E-07  0.3098619E+04  0.7818609E-02  0.8216117E-01
       -1   -1    0    0    0  501  0.00000000000E+00  0.00000000000E+00  0.96741035541E+03  0.96741035542E+03  0.50400001928E-02 0.  1.
        1   -1    0    0  501    0  0.00000000000E+00  0.00000000000E+00 -0.24812218436E+04  0.24812218437E+04  0.50400001928E-02 0. -1.
    10030    2    1    2    0    0  0.00000000000E+00  0.00000000000E+00 -0.15138114882E+04  0.34486321991E+04  0.30986188573E+04 0.  0.
        5    1    3    3  502    0  0.30570157444E+03  0.10074626397E+03  0.92977972102E+03  0.98392869759E+03  0.46999998093E+01 0.  1.
       -5    1    3    3    0  502 -0.30570157444E+03 -0.10074626397E+03 -0.24435912093E+04  0.24647035015E+04  0.46999998093E+01 0. -1.
</event>
<event>
 5   0  0.1845123E-07  0.3090772E+04  0.7818609E-02  0.8218275E-01
        1   -1    0    0  501    0  0.00000000000E+00  0.00000000000E+00  0.15767023359E+04  0.15767023359E+04  0.50400001928E-02 0.  1.
       -1   -1    0    0    0  501  0.00000000000E+00  0.00000000000E+00 -0.15146913034E+04  0.15146913034E+04  0.50400001928E-02 0. -1.
    10030    2    1    2    0    0  0.00000000000E+00  0.00000000000E+00  0.62011032428E+02  0.30913936393E+04  0.30907716294E+04 0.  0.
        2    1    3    3  502    0  0.22597882012E+03  0.92928060980E+03 -0.11831532909E+04  0.15213417067E+04  0.25500000920E-02 0. -1.
       -2    1    3    3    0  502 -0.22597882012E+03 -0.92928060980E+03  0.12451643233E+04  0.15700519326E+04  0.25500000920E-02 0.  1.
</event>
<event>
 5   0  0.1845123E-07  0.3098226E+04  0.7818609E-02  0.8216225E-01
        1   -1    0    0  501    0  0.00000000000E+00  0.00000000000E+00  0.16735518423E+04  0.16735518424E+04  0.50400001928E-02 0.  1.
       -1   -1    0    0    0  501  0.00000000000E+00  0.00000000000E+00 -0.14339267878E+04  0.14339267878E+04  0.50400001928E-02 0. -1.
    10030    2    1    2    0    0  0.00000000000E+00  0.00000000000E+00  0.23962505454E+03  0.31074786302E+04  0.30982258262E+04 0.  0.
        2    1    3    3  502    0 -0.15680659503E+02 -0.23543274183E+03 -0.14157975671E+04  0.14353247751E+04  0.25500000920E-02 0. -1.
       -2    1    3    3    0  502  0.15680659503E+02  0.23543274183E+03  0.16554226216E+04  0.16721538551E+04  0.25500000920E-02 0.  1.
</event>
<event>
 5   0  0.1814075E-07  0.3103601E+04  0.7818609E-02  0.8214750E-01
       -1   -1    0    0    0  501  0.00000000000E+00  0.00000000000E+00  0.11283703395E+04  0.11283703395E+04  0.50400001928E-02 0. -1.
        1   -1    0    0  501    0  0.00000000000E+00  0.00000000000E+00 -0.21341260588E+04  0.21341260588E+04  0.50400001928E-02 0.  1.
    10030    2    1    2    0    0  0.00000000000E+00  0.00000000000E+00 -0.10057557194E+04  0.32624963983E+04  0.31036008413E+04 0.  0.
        5    1    3    3  502    0 -0.25485849754E+03 -0.12583315428E+04 -0.14191162436E+04  0.19137042949E+04  0.46999998093E+01 0.  1.
       -5    1    3    3    0  502  0.25485849754E+03  0.12583315428E+04  0.41336052420E+03  0.13487921034E+04  0.46999998093E+01 0. -1.
</event>
<event>
 5   0  0.5055900E-07  0.3098009E+04  0.7818609E-02  0.8216285E-01
        2   -1    0    0  501    0  0.00000000000E+00  0.00000000000E+00  0.18397693230E+04  0.18397693230E+04  0.25500000920E-02 0. -1.
       -2   -1    0    0    0  501  0.00000000000E+00  0.00000000000E+00 -0.13041930676E+04  0.13041930676E+04  0.25500000920E-02 0.  1.
    10030    2    1    2    0    0  0.00000000000E+00  0.00000000000E+00  0.53557625538E+03  0.31439623905E+04  0.30980086488E+04 0.  0.
        2    1    3    3  502    0  0.12399188189E+04 -0.14012505834E+03 -0.66363907413E+03  0.14133119013E+04  0.25500000920E-02 0.  1.
       -2    1    3    3    0  502 -0.12399188189E+04  0.14012505834E+03  0.11992153295E+04  0.17306504893E+04  0.25500000920E-02 0. -1.
</event>
<event>
 5   0  0.1840359E-07  0.3100141E+04  0.7818609E-02  0.8215699E-01
        1   -1    0    0  501    0  0.00000000000E+00  0.00000000000E+00  0.18466977821E+04  0.18466977821E+04  0.50400001928E-02 0. -1.
       -1   -1    0    0    0  501  0.00000000000E+00  0.00000000000E+00 -0.13010895231E+04  0.13010895232E+04  0.50400001928E-02 0.  1.
    10030    2    1    2    0    0  0.00000000000E+00  0.00000000000E+00  0.54560825894E+03  0.31477873052E+04  0.31001413753E+04 0.  0.
        1    1    3    3  502    0  0.70254673850E+03 -0.13816922004E+04  0.26407665879E+03  0.15723809138E+04  0.50400001928E-02 0. -1.
       -1    1    3    3    0  502 -0.70254673850E+03  0.13816922004E+04  0.28153160015E+03  0.15754063915E+04  0.50400001928E-02 0.  1.
</event>
<event>
 5   0  0.1840359E-07  0.3084118E+04  0.7818609E-02  0.8220110E-01
       -1   -1    0    0    0  501  0.00000000000E+00  0.00000000000E+00  0.15082934795E+04  0.15082934795E+04  0.50400001928E-02 0. -1.
        1   -1    0    0  501    0  0.00000000000E+00  0.00000000000E+00 -0.15765800735E+04  0.15765800735E+04  0.50400001928E-02 0.  1.
    10030    2    1    2    0    0  0.00000000000E+00  0.00000000000E+00 -0.68286594018E+02  0.30848735530E+04  0.30841176662E+04 0.  0.
        1    1    3    3  502    0  0.41891660587E+03 -0.13967128265E+04  0.46762454776E+03  0.15313296706E+04  0.50400001928E-02 0. -1.
       -1    1    3    3    0  502 -0.41891660587E+03  0.13967128265E+04 -0.53591114178E+03  0.15535438824E+04  0.50400001928E-02 0.  1.
</event>
<event>
 5   0  0.1840359E-07  0.3091626E+04  0.7818609E-02  0.8218040E-01
        1   -1    0    0  501    0  0.00000000000E+00  0.00000000000E+00  0.15092569297E+04  0.15092569297E+04  0.50400001928E-02 0. -1.
       -1   -1    0    0    0  501  0.00000000000E+00  0.00000000000E+00 -0.15832542607E+04  0.15832542607E+04  0.50400001928E-02 0.  1.
    10030    2    1    2    0    0  0.00000000000E+00  0.00000000000E+00 -0.73997331026E+02  0.30925111904E+04  0.30916257629E+04 0.  0.
        1    1    3    3  502    0  0.13873342385E+04 -0.39412507745E+03  0.51949383780E+03  0.15329398924E+04  0.50400001928E-02 0. -1.
       -1    1    3    3    0  502 -0.13873342385E+04  0.39412507745E+03 -0.59349116882E+03  0.15595712980E+04  0.50400001928E-02 0.  1.
</event>
<event>
 5   0  0.5248309E-07  0.3099513E+04  0.7818609E-02  0.8215872E-01
        2   -1    0    0  501    0  0.00000000000E+00  0.00000000000E+00  0.24637961704E+04  0.24637961704E+04  0.25500000920E-02 0. -1.
       -2   -1    0    0    0  501  0.00000000000E+00  0.00000000000E+00 -0.97481499131E+03  0.97481499132E+03  0.25500000920E-02 0.  1.
    10030    2    1    2    0    0  0.00000000000E+00  0.00000000000E+00  0.14889811791E+04  0.34386111617E+04  0.30995131504E+04 0.  0.
        4    1    3    3  502    0 -0.15853023708E+03  0.36138658029E+03 -0.91813934570E+03  0.99935657676E+03  0.12699999809E+01 0.  1.
       -4    1    3    3    0  502  0.15853023708E+03 -0.36138658029E+03  0.24071205248E+04  0.24392545849E+04  0.12699999809E+01 0. -1.
</event>
<event>
 5   0  0.1830902E-07  0.3092280E+04  0.7818609E-02  0.8217860E-01
        1   -1    0    0  501    0  0.00000000000E+00  0.00000000000E+00  0.17109935422E+04  0.17109935422E+04  0.50400001928E-02 0.  1.
       -1   -1    0    0    0  501  0.00000000000E+00  0.00000000000E+00 -0.13971703019E+04  0.13971703019E+04  0.50400001928E-02 0. -1.
    10030    2    1    2    0    0  0.00000000000E+00  0.00000000000E+00  0.31382324031E+03  0.31081638442E+04  0.30922803004E+04 0.  0.
        3    1    3    3  502    0 -0.29696347383E+03 -0.69165189073E+03 -0.12005734193E+04  0.14170201792E+04  0.10100000352E+00 0. -1.
       -3    1    3    3    0  502  0.29696347383E+03  0.69165189073E+03  0.15143966596E+04  0.16911436650E+04  0.10100000352E+00 0.  1.
</event>
<event>
 5   0  0.5248309E-07  0.3099628E+04  0.7818609E-02  0.8215840E-01
        2   -1    0    0  501    0  0.00000000000E+00  0.00000000000E+00  0.20496017853E+04  0.20496017853E+04  0.25500000920E-02 0.  1.
       -2   -1    0    0    0  501  0.00000000000E+00  0.00000000000E+00 -0.11718977546E+04  0.11718977546E+04  0.25500000920E-02 0. -1.
    10030    2    1    2    0    0  0.00000000000E+00  0.00000000000E+00  0.87770403073E+03  0.32214995399E+04  0.30996281906E+04 0.  0.
        4    1    3    3  502    0 -0.51815904663E+03 -0.14243467780E+04  0.10260479494E+03  0.15191385383E+04  0.12699999809E+01 0. -1.
       -4    1    3    3    0  502  0.51815904663E+03  0.14243467780E+04  0.77509923580E+03  0.17023610016E+04  0.12699999809E+01 0.  1.
</event>
<event>
 5   0  0.5342534E-07  0.3094680E+04  0.7818609E-02  0.8217200E-01
       -2   -1    0    0    0  501  0.00000000000E+00  0.00000000000E+00  0.14131382510E+04  0.14131382510E+04  0.25500000920E-02 0. -1.
        2   -1    0    0  501    0  0.00000000000E+00  0.00000000000E+00 -0.16942859640E+04  0.16942859640E+04  0.25500000920E-02 0.  1.
    10030    2    1    2    0    0  0.00000000000E+00  0.00000000000E+00 -0.28114771299E+03  0.31074242150E+04  0.30946795012E+04 0.  0.
        3    1    3    3  502    0  0.13308474201E+04  0.34720696813E+03  0.57125517822E+03  0.14893085722E+04  0.10100000352E+00 0. -1.
       -3    1    3    3    0  502 -0.13308474201E+04 -0.34720696813E+03 -0.85240289121E+03  0.16181156428E+04  0.10100000352E+00 0.  1.
</event>
<event>
 5   0  0.5154105E-07  0.3096638E+04  0.7818609E-02  0.8216661E-01
        2   -1    0    0  501    0  0.00000000000E+00  0.00000000000E+00  0.16928248665E+04  0.16928248665E+04  0.25500000920E-02 0.  1.
       -2   -1    0    0    0  501  0.00000000000E+00  0.00000000000E+00 -0.14161488125E+04  0.14161488125E+04  0.25500000920E-02 0. -1.
    10030    2    1    2    0    0  0.00000000000E+00  0.00000000000E+00  0.27667605401E+03  0.31089736789E+04  0.30966381283E+04 0.  0.
        1    1    3    3  502    0  0.13880375625E+04  0.67486560737E+03  0.14558374764E+02  0.15434713503E+04  0.50400001928E-02 0. -1.
       -1    1    3    3    0  502 -0.13880375625E+04 -0.67486560737E+03  0.26211767925E+03  0.15655023286E+04  0.50400001928E-02 0.  1.
</event>
<event>
 5   0  0.5248309E-07  0.3097218E+04  0.7818609E-02  0.8216502E-01
       -2   -1    0    0    0  501  0.00000000000E+00  0.00000000000E+00  0.18369662448E+04  0.18369662448E+04  0.25500000920E-02 0. -1.
        2   -1    0    0  501    0  0.00000000000E+00  0.00000000000E+00 -0.13055165758E+04  0.13055165759E+04  0.25500000920E-02 0.  1.
    10030    2    1    2    0    0  0.00000000000E+00  0.00000000000E+00  0.53144966895E+03  0.31424828206E+04  0.30972180303E+04 0.  0.
        4    1    3    3  502    0  0.52398205559E+03  0.10262748259E+04 -0.78399250037E+03  0.13937155615E+04  0.12699999809E+01 0.  1.
       -4    1    3    3    0  502 -0.52398205559E+03 -0.10262748259E+04  0.13154421693E+04  0.17487672591E+04  0.12699999809E+01 0. -1.
</event>
<event>
 5   0  0.1830902E-07  0.3071444E+04  0.7818609E-02  0.8223619E-01
        1   -1    0    0  501    0  0.00000000000E+00  0.00000000000E+00  0.11533984719E+04  0.11533984719E+04  0.50400001928E-02 0.  1.
       -1   -1    0    0    0  501  0.00000000000E+00  0.00000000000E+00 -0.20447765846E+04  0.20447765847E+04  0.50400001928E-02 0. -1.
    10030    2    1    2    0    0  0.00000000000E+00  0.00000000000E+00 -0.89137811279E+03  0.31981750565E+04  0.30714440825E+04 0.  0.
        3    1    3    3  502    0 -0.33240612714E+03  0.67023111308E+03 -0.18421977570E+04  0.19883149058E+04  0.10100000352E+00 0. -1.
       -3    1    3    3    0  502  0.33240612714E+03 -0.67023111308E+03  0.95081964423E+03  0.12098601507E+04  0.10100000352E+00 0.  1.
</event>
<event>
 5   0  0.5342534E-07  0.3101615E+04  0.7818609E-02  0.8215295E-01
        2   -1    0    0  501    0  0.00000000000E+00  0.00000000000E+00  0.22288187333E+04  0.22288187333E+04  0.25500000920E-02 0.  1.
       -2   -1    0    0    0  501  0.00000000000E+00  0.00000000000E+00 -0.10790483873E+04  0.10790483873E+04  0.25500000920E-02 0. -1.
    10030    2    1    2    0    0  0.00000000000E+00  0.00000000000E+00  0.11497703460E+04  0.33078671206E+04  0.31016145859E+04 0.  0.
        3    1    3    3  502    0  0.95313717816E+03  0.12173433153E+04  0.70378606796E+03  0.16987377865E+04  0.10100000352E+00 0.  1.
       -3    1    3    3    0  502 -0.95313717816E+03 -0.12173433153E+04  0.44598427800E+03  0.16091293342E+04  0.10100000352E+00 0. -1.
</event>
<event>
 5   0  0.1830902E-07  0.3100872E+04  0.7818609E-02  0.8215499E-01
       -1   -1    0    0    0  501  0.00000000000E+00  0.00000000000E+00  0.11216219069E+04  0.11216219069E+04  0.50400001928E-02 0. -1.
        1   -1    0    0  501    0  0.00000000000E+00  0.00000000000E+00 -0.21431931160E+04  0.21431931161E+04  0.50400001928E-02 0.  1.
    10030    2    1    2    0    0  0.00000000000E+00  0.00000000000E+00 -0.10215712091E+04  0.32648150230E+04  0.31008723610E+04 0.  0.
        3    1    3    3  502    0 -0.89128743633E+03  0.66379061194E+03  0.62750308742E+03  0.12762332881E+04  0.10100000352E+00 0. -1.
       -3    1    3    3    0  502  0.89128743633E+03 -0.66379061194E+03 -0.16490742966E+04  0.19885817349E+04  0.10100000352E+00 0.  1.
</event>
<event>
 5   0  0.5248309E-07  0.3102813E+04  0.7818609E-02  0.8214966E-01
        2   -1    0    0  501    0  0.00000000000E+00  0.00000000000E+00  0.27035635588E+04  0.27035635588E+04  0.25500000920E-02 0.  1.
       -2   -1    0    0    0  501  0.00000000000E+00  0.00000000000E+00 -0.89025540531E+03  0.89025540531E+03  0.25500000920E-02 0. -1.
    10030    2    1    2    0    0  0.00000000000E+00  0.00000000000E+00  0.18133081535E+04  0.35938189641E+04  0.31028129636E+04 0.  0.
        4    1    3    3  502    0 -0.13020144873E+03 -0.19587220943E+03  0.26827931965E+04  0.26930836020E+04  0.12699999809E+01 0.  1.
       -4    1    3    3    0  502  0.13020144873E+03  0.19587220943E+03 -0.86948504296E+03  0.90073536209E+03  0.12699999809E+01 0. -1.
</event>
<event>
 5   0  0.5055900E-07  0.3098579E+04  0.7818609E-02  0.8216128E-01
        2   -1    0    0  501    0  0.00000000000E+00  0.00000000000E+00  0.13976253957E+04  0.13976253957E+04  0.25500000920E-02 0. -1.
       -2   -1    0    0    0  501  0.00000000000E+00  0.00000000000E+00 -0.17174119695E+04  0.17174119695E+04  0.25500000920E-02 0.  1.
    10030    2    1    2    0    0  0.00000000000E+00  0.00000000000E+00 -0.31978657378E+03  0.31150373652E+04  0.30985794058E+04 0.  0.
        2    1    3    3  502    0 -0.60892921788E+03  0.13146307738E+04  0.39188417364E+03  0.15008737686E+04  0.25500000920E-02 0. -1.
       -2    1    3    3    0  502  0.60892921788E+03 -0.13146307738E+04 -0.71167074742E+03  0.16141635966E+04  0.25500000920E-02 0.  1.
</event>
<event>
 5   0  0.5154105E-07  0.3104780E+04  0.7818609E-02  0.8214427E-01
        2   -1    0    0  501    0  0.00000000000E+00  0.00000000000E+00  0.20946501621E+04  0.20946501621E+04  0.25500000920E-02 0. -1.
       -2   -1    0    0    0  501  0.00000000000E+00  0.00000000000E+00 -0.11505091929E+04  0.11505091929E+04  0.25500000920E-02 0.  1.
    10030    2    1    2    0    0  0.00000000000E+00  0.00000000000E+00  0.94414096912E+03  0.32451593550E+04  0.31047797136E+04 0.  0.
        1    1    3    3  502    0  0.10340104800E+04  0.29012006844E+03  0.16437208992E+04  0.19634575935E+04  0.50400001928E-02 0. -1.
       -1    1    3    3    0  502 -0.10340104800E+04 -0.29012006844E+03 -0.69957993007E+03  0.12817017615E+04  0.50400001928E-02 0.  1.
</event>
<event>
 5   0  0.5154105E-07  0.3100271E+04  0.7818609E-02  0.8215663E-01
       -2   -1    0    0    0  501  0.00000000000E+00  0.00000000000E+00  0.18423195131E+04  0.18423195131E+04  0.25500000920E-02 0. -1.
        2   -1    0    0  501    0  0.00000000000E+00  0.00000000000E+00 -0.13042908160E+04  0.13042908160E+04  0.25500000920E-02 0.  1.
    10030    2    1    2    0    0  0.00000000000E+00  0.00000000000E+00  0.53802869717E+03  0.31466103291E+04  0.31002712275E+04 0.  0.
        1    1    3    3  502    0  0.66824269628E+03 -0.63948097464E+03  0.15315674432E+04  0.17891850243E+04  0.50400001928E-02 0. -1.
       -1    1    3    3    0  502 -0.66824269628E+03  0.63948097464E+03 -0.99353874607E+03  0.13574253048E+04  0.50400001928E-02 0.  1.
</event>
<event>
 5   0  0.5055900E-07  0.3120661E+04  0.7818609E-02  0.8210091E-01
       -2   -1    0    0    0  501  0.00000000000E+00  0.00000000000E+00  0.11712541476E+04  0.11712541476E+04  0.25500000920E-02 0.  1.
        2   -1    0    0  501    0  0.00000000000E+00  0.00000000000E+00 -0.20786528620E+04  0.20786528620E+04  0.25500000920E-02 0. -1.
    10030    2    1    2    0    0  0.00000000000E+00  0.00000000000E+00 -0.90739871435E+03  0.32499070096E+04  0.31206606904E+04 0.  0.
        2    1    3    3  502    0 -0.10649702654E+04 -0.84440330293E+03  0.34449866034E+03  0.14020905574E+04  0.25500000920E-02 0.  1.
       -2    1    3    3    0  502  0.10649702654E+04  0.84440330293E+03 -0.12518973747E+04  0.18478164522E+04  0.25500000920E-02 0. -1.
</event>
<event>
 5   0  0.1845123E-07  0.3102773E+04  0.7818609E-02  0.8214977E-01
       -1   -1    0    0    0  501  0.00000000000E+00  0.00000000000E+00  0.17472078828E+04  0.17472078828E+04  0.50400001928E-02 0.  1.
        1   -1    0    0  501    0  0.00000000000E+00  0.00000000000E+00 -0.13775120222E+04  0.13775120222E+04  0.50400001928E-02 0. -1.
    10030    2    1    2    0    0  0.00000000000E+00  0.00000000000E+00  0.36969586061E+03  0.31247199050E+04  0.31027728656E+04 0.  0.
        2    1    3    3  502    0 -0.35283877070E+03  0.26830154098E+03 -0.13123822838E+04  0.13852177352E+04  0.25500000920E-02 0. -1.
       -2    1    3    3    0  502  0.35283877070E+03 -0.26830154098E+03  0.16820781444E+04  0.17395021699E+04  0.25500000920E-02 0.  1.
</event>
<event>
 5   0  0.1845123E-07  0.3099663E+04  0.7818609E-02  0.8215830E-01
       -1   -1    0    0    0  501  0.00000000000E+00  0.00000000000E+00  0.15317292658E+04  0.15317292658E+04  0.50400001928E-02 0.  1.
        1   -1    0    0  501    0  0.00000000000E+00  0.00000000000E+00 -0.15681481697E+04  0.15681481697E+04  0.50400001928E-02 0. -1.
    10030    2    1    2    0    0  0.00000000000E+00  0.00000000000E+00 -0.36418903877E+02  0.30998774354E+04  0.30996634944E+04 0.  0.
        2    1    3    3  502    0  0.74484005447E+03  0.78827703969E+03  0.10890304792E+04  0.15369303116E+04  0.25500000920E-02 0.  1.
       -2    1    3    3    0  502 -0.74484005447E+03 -0.78827703969E+03 -0.11254493831E+04  0.15629471238E+04  0.25500000920E-02 0. -1.
</event>
<event>
 5   0  0.1875284E-07  0.3128410E+04  0.7818609E-02  0.8207984E-01
       -1   -1    0    0    0  501  0.00000000000E+00  0.00000000000E+00  0.17319266842E+04  0.17319266842E+04  0.50400001928E-02 0. -1.
        1   -1    0    0  501    0  0.00000000000E+00  0.00000000000E+00 -0.14127257947E+04  0.14127257947E+04  0.50400001928E-02 0.  1.
    10030    2    1    2    0    0  0.00000000000E+00  0.00000000000E+00  0.31920088943E+03  0.31446524789E+04  0.31284101402E+04 0.  0.
        4    1    3    3  502    0  0.94118434312E+03 -0.72960381469E+03 -0.85985750850E+03  0.14688452069E+04  0.12699999809E+01 0.  1.
       -4    1    3    3    0  502 -0.94118434312E+03  0.72960381469E+03  0.11790583979E+04  0.16758072720E+04  0.12699999809E+01 0. -1.
</event>
<event>
 5   0  0.1814075E-07  0.3102072E+04  0.7818609E-02  0.8215170E-01
       -1   -1    0    0    0  501  0.00000000000E+00  0.00000000000E+00  0.15559002505E+04  0.15559002505E+04  0.50400001928E-02 0.  1.
        1   -1    0    0  501    0  0.00000000000E+00  0.00000000000E+00 -0.15461868110E+04  0.15461868110E+04  0.50400001928E-02 0. -1.
    10030    2    1    2    0    0  0.00000000000E+00  0.00000000000E+00  0.97134394685E+01  0.31020870615E+04  0.31020718538E+04 0.  0.
        5    1    3    3  502    0 -0.79326090083E+03 -0.97354588389E+03 -0.90544215228E+03  0.15481931488E+04  0.46999998093E+01 0. -1.
       -5    1    3    3    0  502  0.79326090083E+03  0.97354588389E+03  0.91515559175E+03  0.15538939127E+04  0.46999998093E+01 0.  1.
</event>
<event>
 5   0  0.1814075E-07  0.3101829E+04  0.7818609E-02  0.8215236E-01
        1   -1    0    0  501    0  0.00000000000E+00  0.00000000000E+00  0.13103924996E+04  0.13103924996E+04  0.50400001928E-02 0. -1.
       -1   -1    0    0    0  501  0.00000000000E+00  0.00000000000E+00 -0.18355842349E+04  0.18355842349E+04  0.50400001928E-02 0.  1.
    10030    2    1    2    0    0  0.00000000000E+00  0.00000000000E+00 -0.52519173532E+03  0.31459767345E+04  0.31018290178E+04 0.  0.
        5    1    3    3  502    0  0.11664115782E+04  0.41587367682E+02 -0.12984390550E+04  0.17459128124E+04  0.46999998093E+01 0.  1.
       -5    1    3    3    0  502 -0.11664115782E+04 -0.41587367682E+02  0.77324731964E+03  0.14000639222E+04  0.46999998093E+01 0. -1.
</event>
<event>
 5   0  0.5342534E-07  0.3100993E+04  0.7818609E-02  0.8215465E-01
        2   -1    0    0  501    0  0.00000000000E+00  0.00000000000E+00  0.11576432963E+04  0.11576432963E+04  0.25500000920E-02 0.  1.
       -2   -1    0    0    0  501  0.00000000000E+00  0.00000000000E+00 -0.20766674320E+04  0.20766674320E+04  0.25500000920E-02 0. -1.
    10030    2    1    2    0    0  0.00000000000E+00  0.00000000000E+00 -0.91902413574E+03  0.32343107283E+04  0.31009934739E+04 0.  0.
        3    1    3    3  502    0  0.53963464081E+03  0.11103421444E+04 -0.14379111372E+04  0.18951658692E+04  0.10100000352E+00 0. -1.
       -3    1    3    3    0  502 -0.53963464081E+03 -0.11103421444E+04  0.51888700147E+03  0.13391448591E+04  0.10100000352E+00 0.  1.
</event>
<event>
 5   0  0.5342534E-07  0.3101776E+04  0.7818609E-02  0.8215251E-01
        2   -1    0    0  501    0  0.00000000000E+00  0.00000000000E+00  0.15568874362E+04  0.15568874362E+04  0.25500000920E-02 0. -1.
       -2   -1    0    0    0  501  0.00000000000E+00  0.00000000000E+00 -0.15449121372E+04  0.15449121372E+04  0.25500000920E-02 0.  1.
    10030    2    1    2    0    0  0.00000000000E+00  0.00000000000E+00  0.11975299017E+02  0.31017995734E+04  0.31017764564E+04 0.  0.
        3    1    3    3  502    0  0.42149684693E+03 -0.28637330991E+03 -0.14588048283E+04  0.15452445767E+04  0.10100000352E+00 0.  1.
       -3    1    3    3    0  502 -0.42149684693E+03  0.28637330991E+03  0.14707801273E+04  0.15565549967E+04  0.10100000352E+00 0. -1.
</event>
<event>
 5   0  0.1814075E-07  0.3097738E+04  0.7818609E-02  0.8216359E-01
        1   -1    0    0  501    0  0.00000000000E+00  0.00000000000E+00  0.19670774741E+04  0.19670774742E+04  0.50400001928E-02 0.  1.
       -1   -1    0    0    0  501  0.00000000000E+00  0.00000000000E+00 -0.12195729531E+04  0.12195729531E+04  0.50400001928E-02 0. -1.
    10030    2    1    2    0    0  0.00000000000E+00  0.00000000000E+00  0.74750452107E+03  0.31866504272E+04  0.30977375512E+04 0.  0.
        5    1    3    3  502    0  0.97514483364E+03 -0.11837575070E+04  0.59625448543E+03  0.16455183935E+04  0.46999998093E+01 0.  1.
       -5    1    3    3    0  502 -0.97514483364E+03  0.11837575070E+04  0.15125003564E+03  0.15411320337E+04  0.46999998093E+01 0. -1.
</event>
<event>
 5   0  0.5154105E-07  0.3097187E+04  0.7818609E-02  0.8216510E-01
       -2   -1    0    0    0  501  0.00000000000E+00  0.00000000000E+00  0.21158356703E+04  0.21158356703E+04  0.25500000920E-02 0. -1.
        2   -1    0    0  501    0  0.00000000000E+00  0.00000000000E+00 -0.11334254654E+04  0.11334254654E+04  0.25500000920E-02 0.  1.
    10030    2    1    2    0    0  0.00000000000E+00  0.00000000000E+00  0.98241020491E+03  0.32492611357E+04  0.30971871298E+04 0.  0.
        1    1    3    3  502    0 -0.17203881831E+03 -0.84944364758E+03 -0.85515946230E+03  0.12175588575E+04  0.50400001928E-02 0.  1.
       -1    1    3    3    0  502  0.17203881831E+03  0.84944364758E+03  0.18375696672E+04  0.20317022782E+04  0.50400001928E-02 0. -1.
</event>
<event>
 5   0  0.1845123E-07  0.3097139E+04  0.7818609E-02  0.8216523E-01
        1   -1    0    0  501    0  0.00000000000E+00  0.00000000000E+00  0.13079893445E+04  0.13079893445E+04  0.50400001928E-02 0.  1.
       -1   -1    0    0    0  501  0.00000000000E+00  0.00000000000E+00 -0.18334004574E+04  0.18334004574E+04  0.50400001928E-02 0. -1.
    10030    2    1    2    0    0  0.00000000000E+00  0.00000000000E+00 -0.52541111287E+03  0.31413898019E+04  0.30971394948E+04 0.  0.
        2    1    3    3  502    0 -0.11211091591E+04 -0.10014310693E+04  0.11451984602E+03  0.15076023111E+04  0.25500000920E-02 0.  1.
       -2    1    3    3    0  502  0.11211091591E+04  0.10014310693E+04 -0.63993095889E+03  0.16337874909E+04  0.25500000920E-02 0. -1.
</event>
<event>
 5   0  0.5342534E-07  0.3050376E+04  0.7818609E-02  0.8229490E-01
        2   -1    0    0  501    0  0.00000000000E+00  0.00000000000E+00  0.21752111970E+04  0.21752111970E+04  0.25500000920E-02 0.  1.
       -2   -1    0    0    0  501  0.00000000000E+00  0.00000000000E+00 -0.10694129993E+04  0.10694129993E+04  0.25500000920E-02 0. -1.
    10030    2    1    2    0    0  0.00000000000E+00  0.00000000000E+00  0.11057981977E+04  0.32446241963E+04  0.30503764557E+04 0.  0.
        3    1    3    3  502    0  0.13238567322E+04 -0.30686832430E+03 -0.18360558816E+03  0.13713044294E+04  0.10100000352E+00 0.  1.
       -3    1    3    3    0  502 -0.13238567322E+04  0.30686832430E+03  0.12894037858E+04  0.18733197669E+04  0.10100000352E+00 0. -1.
</event>
<event>
 5   0  0.5248309E-07  0.3099496E+04  0.7818609E-02  0.8215876E-01
       -2   -1    0    0    0  501  0.00000000000E+00  0.00000000000E+00  0.13905499027E+04  0.13905499027E+04  0.25500000920E-02 0.  1.
        2   -1    0    0  501    0  0.00000000000E+00  0.00000000000E+00 -0.17271722074E+04  0.17271722074E+04  0.25500000920E-02 0. -1.
    10030    2    1    2    0    0  0.00000000000E+00  0.00000000000E+00 -0.33662230466E+03  0.31177221101E+04  0.30994961816E+04 0.  0.
        4    1    3    3  502    0  0.14620750657E+04  0.33085000522E+03  0.22718315623E+03  0.15161593001E+04  0.12699999809E+01 0.  1.
       -4    1    3    3    0  502 -0.14620750657E+04 -0.33085000522E+03 -0.56380546090E+03  0.16015628100E+04  0.12699999809E+01 0. -1.
</event>
<event>
 5   0  0.5376678E-07  0.3103340E+04  0.7818609E-02  0.8214822E-01
       -2   -1    0    0    0  501  0.00000000000E+00  0.00000000000E+00  0.95963047012E+03  0.95963047012E+03  0.25500000920E-02 0. -1.
        2   -1    0    0  501    0  0.00000000000E+00  0.00000000000E+00 -0.25089658448E+04  0.25089658448E+04  0.25500000920E-02 0.  1.
    10030    2    1    2    0    0  0.00000000000E+00  0.00000000000E+00 -0.15493353747E+04  0.34685963149E+04  0.31033401832E+04 0.  0.
        5    1    3    3  502    0  0.58689697582E+03 -0.36275142724E+03 -0.23280750855E+04  0.24281664588E+04  0.46999998093E+01 0.  1.
       -5    1    3    3    0  502 -0.58689697582E+03  0.36275142724E+03  0.77873971082E+03  0.10404298561E+04  0.46999998093E+01 0. -1.
</event>
<event>
 5   0  0.1840359E-07  0.3092762E+04  0.7818609E-02  0.8217727E-01
       -1   -1    0    0    0  501  0.00000000000E+00  0.00000000000E+00  0.11282055336E+04  0.11282055336E+04  0.50400001928E-02 0. -1.
        1   -1    0    0  501    0  0.00000000000E+00  0.00000000000E+00 -0.21195560890E+04  0.21195560890E+04  0.50400001928E-02 0.  1.
    10030    2    1    2    0    0  0.00000000000E+00  0.00000000000E+00 -0.99135055539E+03  0.32477616226E+04  0.30927624599E+04 0.  0.
        1    1    3    3  502    0  0.10027662980E+04 -0.43290769323E+03  0.65387672195E+03  0.12729902147E+04  0.50400001928E-02 0. -1.
       -1    1    3    3    0  502 -0.10027662980E+04  0.43290769323E+03 -0.16452272773E+04  0.19747714079E+04  0.50400001928E-02 0.  1.
</event>
<event>
 5   0  0.1830902E-07  0.3112758E+04  0.7818609E-02  0.8212245E-01
        1   -1    0    0  501    0  0.00000000000E+00  0.00000000000E+00  0.19077007681E+04  0.19077007681E+04  0.50400001928E-02 0. -1.
       -1   -1    0    0    0  501  0.00000000000E+00  0.00000000000E+00 -0.12697563500E+04  0.12697563500E+04  0.50400001928E-02 0.  1.
    10030    2    1    2    0    0  0.00000000000E+00  0.00000000000E+00  0.63794441810E+03  0.31774571181E+04  0.31127577254E+04 0.  0.
        3    1    3    3  502    0  0.10749709091E+04  0.11167979125E+04  0.46157236707E+03  0.16173586779E+04  0.10100000352E+00 0. -1.
       -3    1    3    3    0  502 -0.10749709091E+04 -0.11167979125E+04  0.17637205103E+03  0.15600984402E+04  0.10100000352E+00 0.  1.
</event>
<event>
 5   0  0.1875284E-07  0.3101295E+04  0.7818609E-02  0.8215383E-01
        1   -1    0    0  501    0  0.00000000000E+00  0.00000000000E+00  0.15344678910E+04  0.15344678910E+04  0.50400001928E-02 0. -1.
       -1   -1    0    0    0  501  0.00000000000E+00  0.00000000000E+00 -0.15669976186E+04  0.15669976186E+04  0.50400001928E-02 0.  1.
    10030    2    1    2    0    0  0.00000000000E+00  0.00000000000E+00 -0.32529727671E+02  0.31014655096E+04  0.31012949108E+04 0.  0.
        4    1    3    3  502    0  0.11678176256E+04  0.10094206777E+04  0.13131630992E+03  0.15491848493E+04  0.12699999809E+01 0.  1.
       -4    1    3    3    0  502 -0.11678176256E+04 -0.10094206777E+04 -0.16384603759E+03  0.15522806603E+04  0.12699999809E+01 0. -1.
</event>
<event>
 5   0  0.1814075E-07  0.3096800E+04  0.7818609E-02  0.8216617E-01
       -1   -1    0    0    0  501  0.00000000000E+00  0.00000000000E+00  0.12391641598E+04  0.12391641598E+04  0.50400001928E-02 0. -1.
        1   -1    0    0  501    0  0.00000000000E+00  0.00000000000E+00 -0.19348061707E+04  0.19348061707E+04  0.50400001928E-02 0.  1.
    10030    2    1    2    0    0  0.00000000000E+00  0.00000000000E+00 -0.69564201088E+03  0.31739703305E+04  0.30967999373E+04 0.  0.
        5    1    3    3  502    0 -0.70673584152E+03 -0.12551651731E+04 -0.92995827246E+03  0.17145727281E+04  0.46999998093E+01 0.  1.
       -5    1    3    3    0  502  0.70673584152E+03  0.12551651731E+04  0.23431626158E+03  0.14593976024E+04  0.46999998093E+01 0. -1.
</event>
<event>
 5   0  0.5342534E-07  0.3097807E+04  0.7818609E-02  0.8216340E-01
       -2   -1    0    0    0  501  0.00000000000E+00  0.00000000000E+00  0.86769823744E+03  0.86769823744E+03  0.25500000920E-02 0. -1.
        2   -1    0    0  501    0  0.00000000000E+00  0.00000000000E+00 -0.27649034433E+04  0.27649034433E+04  0.25500000920E-02 0.  1.
    10030    2    1    2    0    0  0.00000000000E+00  0.00000000000E+00 -0.18972052059E+04  0.36326016807E+04  0.30978068658E+04 0.  0.
        3    1    3    3  502    0 -0.19577163414E+03 -0.80902309563E+03 -0.24803447272E+04  0.26162864671E+04  0.10100000352E+00 0.  1.
       -3    1    3    3    0  502  0.19577163414E+03  0.80902309563E+03  0.58313952131E+03  0.10163152137E+04  0.10100000352E+00 0. -1.
</event>
<event>
 5   0  0.1845123E-07  0.3106018E+04  0.7818609E-02  0.8214088E-01
       -1   -1    0    0    0  501  0.00000000000E+00  0.00000000000E+00  0.16468921407E+04  0.16468921407E+04  0.50400001928E-02 0. -1.
        1   -1    0    0  501    0  0.00000000000E+00  0.00000000000E+00 -0.14644775336E+04  0.14644775336E+04  0.50400001928E-02 0.  1.
    10030    2    1    2    0    0  0.00000000000E+00  0.00000000000E+00  0.18241460714E+03  0.31113696743E+04  0.31060177336E+04 0.  0.
        2    1    3    3  502    0 -0.16359929028E+03  0.91258641648E+03  0.13392504944E+04  0.16288556051E+04  0.25500000920E-02 0. -1.
       -2    1    3    3    0  502  0.16359929028E+03 -0.91258641648E+03 -0.11568358873E+04  0.14825140692E+04  0.25500000920E-02 0.  1.
</event>
<event>
 5   0  0.1875284E-07  0.3102697E+04  0.7818609E-02  0.8214998E-01
       -1   -1    0    0    0  501  0.00000000000E+00  0.00000000000E+00  0.80973532367E+03  0.80973532369E+03  0.50400001928E-02 0. -1.
        1   -1    0    0  501    0  0.00000000000E+00  0.00000000000E+00 -0.29721843631E+04  0.29721843631E+04  0.50400001928E-02 0.  1.
    10030    2    1    2    0    0  0.00000000000E+00  0.00000000000E+00 -0.21624490394E+04  0.37819196868E+04  0.31026973215E+04 0.  0.
        4    1    3    3  502    0 -0.11319498755E+04 -0.80731814439E+03 -0.24237824173E+03  0.14113192169E+04  0.12699999809E+01 0. -1.
       -4    1    3    3    0  502  0.11319498755E+04  0.80731814439E+03 -0.19200707977E+04  0.23706004699E+04  0.12699999809E+01 0.  1.
</event>
<event>
 5   0  0.1830902E-07  0.3097807E+04  0.7818609E-02  0.8216340E-01
        1   -1    0    0  501    0  0.00000000000E+00  0.00000000000E+00  0.22279386082E+04  0.22279386083E+04  0.50400001928E-02 0.  1.
       -1   -1    0    0    0  501  0.00000000000E+00  0.00000000000E+00 -0.10768255975E+04  0.10768255975E+04  0.50400001928E-02 0. -1.
    10030    2    1    2    0    0  0.00000000000E+00  0.00000000000E+00  0.11511130108E+04  0.33047642058E+04  0.30978065292E+04 0.  0.
        3    1    3    3  502    0  0.86384622159E+03 -0.10100835065E+03 -0.79173504393E+03  0.11761281271E+04  0.10100000352E+00 0. -1.
       -3    1    3    3    0  502 -0.86384622159E+03  0.10100835065E+03  0.19428480547E+04  0.21286360786E+04  0.10100000352E+00 0.  1.
</event>
<event>
 5   0  0.1875284E-07  0.3099563E+04  0.7818609E-02  0.8215858E-01
       -1   -1    0    0    0  501  0.00000000000E+00  0.00000000000E+00  0.18025558375E+04  0.18025558375E+04  0.50400001928E-02 0. -1.
        1   -1    0    0  501    0  0.00000000000E+00  0.00000000000E+00 -0.13324542209E+04  0.13324542209E+04  0.50400001928E-02 0.  1.
    10030    2    1    2    0    0  0.00000000000E+00  0.00000000000E+00  0.47010161661E+03  0.31350100584E+04  0.30995632815E+04 0.  0.
        4    1    3    3  502    0  0.66052687076E+03  0.12868047274E+04  0.79788509054E+03  0.16519032611E+04  0.12699999809E+01 0. -1.
       -4    1    3    3    0  502 -0.66052687076E+03 -0.12868047274E+04 -0.32778347392E+03  0.14831067973E+04  0.12699999809E+01 0.  1.
</event>
<event>
 5   0  0.5055900E-07  0.3103274E+04  0.7818609E-02  0.8214840E-01
        2   -1    0    0  501    0  0.00000000000E+00  0.00000000000E+00  0.21610099551E+04  0.21610099552E+04  0.25500000920E-02 0. -1.
       -2   -1    0    0    0  501  0.00000000000E+00  0.00000000000E+00 -0.11140978791E+04  0.11140978791E+04  0.25500000920E-02 0.  1.
    10030    2    1    2    0    0  0.00000000000E+00  0.00000000000E+00  0.10469120761E+04  0.32751078342E+04  0.31032735024E+04 0.  0.
        2    1    3    3  502    0 -0.53104266249E+03 -0.81052443209E+03  0.18024259725E+04  0.20463859731E+04  0.25500000920E-02 0. -1.
       -2    1    3    3    0  502  0.53104266249E+03  0.81052443209E+03 -0.75551389645E+03  0.12287218612E+04  0.25500000920E-02 0.  1.
</event>
<event>
 5   0  0.5376678E-07  0.3098492E+04  0.7818609E-02  0.8216152E-01
       -2   -1    0    0    0  501  0.00000000000E+00  0.00000000000E+00  0.30047215099E+04  0.30047215099E+04  0.25500000920E-02 0.  1.
        2   -1    0    0  501    0  0.00000000000E+00  0.00000000000E+00 -0.79879740445E+03  0.79879740446E+03  0.25500000920E-02 0. -1.
    10030    2    1    2    0    0  0.00000000000E+00  0.00000000000E+00  0.22059241055E+04  0.38035189144E+04  0.30984923710E+04 0.  0.
        5    1    3    3  502    0 -0.91305417590E+02 -0.13884697075E+04  0.19390923155E+04  0.23866893191E+04  0.46999998093E+01 0.  1.
       -5    1    3    3    0  502  0.91305417590E+02  0.13884697075E+04  0.26683179002E+03  0.14168295953E+04  0.46999998093E+01 0. -1.
</event>
<event>
 5   0  0.5342534E-07  0.3097391E+04  0.7818609E-02  0.8216454E-01
       -2   -1    0    0    0  501  0.00000000000E+00  0.00000000000E+00  0.14864540106E+04  0.14864540106E+04  0.25500000920E-02 0. -1.
        2   -1    0    0  501    0  0.00000000000E+00  0.00000000000E+00 -0.16135432068E+04  0.16135432068E+04  0.25500000920E-02 0.  1.
    10030    2    1    2    0    0  0.00000000000E+00  0.00000000000E+00 -0.12708919616E+03  0.30999972173E+04  0.30973910124E+04 0.  0.
        3    1    3    3  502    0  0.13574010671E+04 -0.66050231539E+03  0.28266089439E+03  0.15358053773E+04  0.10100000352E+00 0.  1.
       -3    1    3    3    0  502 -0.13574010671E+04  0.66050231539E+03 -0.40975009054E+03  0.15641918400E+04  0.10100000352E+00 0. -1.
</event>
<event>
 5   0  0.5376678E-07  0.3090081E+04  0.7818609E-02  0.8218465E-01
        2   -1    0    0  501    0  0.00000000000E+00  0.00000000000E+00  0.18245038715E+04  0.18245038715E+04  0.25500000920E-02 0. -1.
       -2   -1    0    0    0  501  0.00000000000E+00  0.00000000000E+00 -0.13083830563E+04  0.13083830563E+04  0.25500000920E-02 0.  1.
    10030    2    1    2    0    0  0.00000000000E+00  0.00000000000E+00  0.51612081518E+03  0.31328869278E+04  0.30900808737E+04 0.  0.
        5    1    3    3  502    0 -0.12466969311E+04  0.51479903631E+03  0.10220618954E+04  0.16923072693E+04  0.46999998093E+01 0. -1.
       -5    1    3    3    0  502  0.12466969311E+04 -0.51479903631E+03 -0.50594108022E+03  0.14405796585E+04  0.46999998093E+01 0.  1.
</event>
<event>
 5   0  0.1875284E-07  0.3096995E+04  0.7818609E-02  0.8216563E-01
       -1   -1    0    0    0  501  0.00000000000E+00  0.00000000000E+00  0.10280658062E+04  0.10280658062E+04  0.50400001928E-02 0. -1.
        1   -1    0    0  501    0  0.00000000000E+00  0.00000000000E+00 -0.23323839687E+04  0.23323839687E+04  0.50400001928E-02 0.  1.
    10030    2    1    2    0    0  0.00000000000E+00  0.00000000000E+00 -0.13043181625E+04  0.33604497749E+04  0.30969948047E+04 0.  0.
        4    1    3    3  502    0  0.50166026775E+03 -0.66451559806E+03 -0.20688267880E+04  0.22300874189E+04  0.12699999809E+01 0.  1.
       -4    1    3    3    0  502 -0.50166026775E+03  0.66451559806E+03  0.76450862555E+03  0.11303623559E+04  0.12699999809E+01 0. -1.
</event>
<event>
 5   0  0.1830902E-07  0.3098441E+04  0.7818609E-02  0.8216166E-01
        1   -1    0    0  501    0  0.00000000000E+00  0.00000000000E+00  0.27206554300E+04  0.27206554300E+04  0.50400001928E-02 0.  1.
       -1   -1    0    0    0  501  0.00000000000E+00  0.00000000000E+00 -0.88217132000E+03  0.88217132001E+03  0.50400001928E-02 0. -1.
    10030    2    1    2    0    0  0.00000000000E+00  0.00000000000E+00  0.18384841100E+04  0.36028267500E+04  0.30984410222E+04 0.  0.
        3    1    3    3  502    0 -0.12398556351E+04 -0.82450076003E+02  0.19950834037E+04  0.23504037544E+04  0.10100000352E+00 0.  1.
       -3    1    3    3    0  502  0.12398556351E+04  0.82450076003E+02 -0.15659929367E+03  0.12524229956E+04  0.10100000352E+00 0. -1.
</event>
<event>
 5   0  0.1830902E-07  0.3097582E+04  0.7818609E-02  0.8216402E-01
        1   -1    0    0  501    0  0.00000000000E+00  0.00000000000E+00  0.19097246964E+04  0.19097246964E+04  0.50400001928E-02 0. -1.
       -1   -1    0    0    0  501  0.00000000000E+00  0.00000000000E+00 -0.12560727900E+04  0.12560727900E+04  0.50400001928E-02 0.  1.
    10030    2    1    2    0    0  0.00000000000E+00  0.00000000000E+00  0.65365190642E+03  0.31657974864E+04  0.30975817842E+04 0.  0.
        3    1    3    3  502    0 -0.13252655976E+04  0.35949085817E+03 -0.40532344528E+03  0.14317296137E+04  0.10100000352E+00 0.  1.
       -3    1    3    3    0  502  0.13252655976E+04 -0.35949085817E+03  0.10589753517E+04  0.17340678727E+04  0.10100000352E+00 0. -1.
</event>
<event>
 5   0  0.1814075E-07  0.3096011E+04  0.7818609E-02  0.8216834E-01
       -1   -1    0    0    0  501  0.00000000000E+00  0.00000000000E+00  0.10981624601E+04  0.10981624601E+04  0.50400001928E-02 0.  1.
        1   -1    0    0  501    0  0.00000000000E+00  0.00000000000E+00 -0.21821187776E+04  0.21821187776E+04  0.50400001928E-02 0. -1.
    10030    2    1    2    0    0  0.00000000000E+00  0.00000000000E+00 -0.10839563175E+04  0.32802812378E+04  0.30960109335E+04 0.  0.
        5    1    3    3  502    0  0.15045843305E+04 -0.33089049041E+03 -0.70278890264E+03  0.16932799106E+04  0.46999998093E+01 0. -1.
       -5    1    3    3    0  502 -0.15045843305E+04  0.33089049041E+03 -0.38116741483E+03  0.15870013271E+04  0.46999998093E+01 0.  1.
</event>
<event>
 5   0  0.5055900E-07  0.3100128E+04  0.7818609E-02  0.8215703E-01
        2   -1    0    0  501    0  0.00000000000E+00  0.00000000000E+00  0.21471723589E+04  0.21471723589E+04  0.25500000920E-02 0.  1.
       -2   -1    0    0    0  501  0.00000000000E+00  0.00000000000E+00 -0.11190058448E+04  0.11190058448E+04  0.25500000920E-02 0. -1.
    10030    2    1    2    0    0  0.00000000000E+00  0.00000000000E+00  0.10281665141E+04  0.32661782036E+04  0.31001280098E+04 0.  0.
        2    1    3    3  502    0  0.37354948229E+03  0.14818292947E+04  0.24068200628E+03  0.15470245966E+04  0.25500000920E-02 0. -1.
       -2    1    3    3    0  502 -0.37354948229E+03 -0.14818292947E+04  0.78748450784E+03  0.17191536070E+04  0.25500000920E-02 0.  1.
</event>
<event>
 5   0  0.5342534E-07  0.3102153E+04  0.7818609E-02  0.8215147E-01
        2   -1    0    0  501    0  0.00000000000E+00  0.00000000000E+00  0.15059645779E+04  0.15059645779E+04  0.25500000920E-02 0.  1.
       -2   -1    0    0    0  501  0.00000000000E+00  0.00000000000E+00 -0.15975402753E+04  0.15975402753E+04  0.25500000920E-02 0. -1.
    10030    2    1    2    0    0  0.00000000000E+00  0.00000000000E+00 -0.91575697335E+02  0.31035048532E+04  0.31021534884E+04 0.  0.
        3    1    3    3  502    0  0.68228078563E+03 -0.58610698138E+02  0.13465428043E+04  0.15106686660E+04  0.10100000352E+00 0.  1.
       -3    1    3    3    0  502 -0.68228078563E+03  0.58610698138E+02 -0.14381185016E+04  0.15928361872E+04  0.10100000352E+00 0. -1.
</event>
<event>
 5   0  0.5342534E-07  0.3106677E+04  0.7818609E-02  0.8213908E-01
        2   -1    0    0  501    0  0.00000000000E+00  0.00000000000E+00  0.22446062603E+04  0.22446062603E+04  0.25500000920E-02 0. -1.
       -2   -1    0    0    0  501  0.00000000000E+00  0.00000000000E+00 -0.10749596930E+04  0.10749596930E+04  0.25500000920E-02 0.  1.
    10030    2    1    2    0    0  0.00000000000E+00  0.00000000000E+00  0.11696465672E+04  0.33195659533E+04  0.31066774899E+04 0.  0.
        3    1    3    3  502    0  0.23527356157E+03  0.87102544843E+03  0.19359162244E+04  0.21358395583E+04  0.10100000352E+00 0. -1.
       -3    1    3    3    0  502 -0.23527356157E+03 -0.87102544843E+03 -0.76626965717E+03  0.11837263950E+04  0.10100000352E+00 0.  1.
</event>
<event>
 5   0  0.1845123E-07  0.3100914E+04  0.7818609E-02  0.8215487E-01
       -1   -1    0    0    0  501  0.00000000000E+00  0.00000000000E+00  0.14106011253E+04  0.14106011253E+04  0.50400001928E-02 0. -1.
        1   -1    0    0  501    0  0.00000000000E+00  0.00000000000E+00 -0.17041792478E+04  0.17041792478E+04  0.50400001928E-02 0.  1.
    10030    2    1    2    0    0  0.00000000000E+00  0.00000000000E+00 -0.29357812253E+03  0.31147803731E+04  0.31009141650E+04 0.  0.
        2    1    3    3  502    0 -0.23811022143E+03 -0.37082647148E+03 -0.16399450118E+04  0.16981249634E+04  0.25500000920E-02 0.  1.
       -2    1    3    3    0  502  0.23811022143E+03  0.37082647148E+03  0.13463668893E+04  0.14166554098E+04  0.25500000920E-02 0. -1.
</event>
<event>
 5   0  0.5248309E-07  0.3102153E+04  0.7818609E-02  0.8215147E-01
        2   -1    0    0  501    0  0.00000000000E+00  0.00000000000E+00  0.22361146877E+04  0.22361146877E+04  0.25500000920E-02 0. -1.
       -2   -1    0    0    0  501  0.00000000000E+00  0.00000000000E+00 -0.10759007997E+04  0.10759007997E+04  0.25500000920E-02 0.  1.
    10030    2    1    2    0    0  0.00000000000E+00  0.00000000000E+00  0.11602138880E+04  0.33120154874E+04  0.31021525306E+04 0.  0.
        4    1    3    3  502    0  0.51332419630E+03 -0.35239072746E+03 -0.93661675054E+03  0.11246926272E+04  0.12699999809E+01 0.  1.
       -4    1    3    3    0  502 -0.51332419630E+03  0.35239072746E+03  0.20968306385E+04  0.21873228602E+04  0.12699999809E+01 0. -1.
</event>
<event>
 5   0  0.5154105E-07  0.3067789E+04  0.7818609E-02  0.8224634E-01
       -2   -1    0    0    0  501  0.00000000000E+00  0.00000000000E+00  0.11196899048E+04  0.11196899049E+04  0.25500000920E-02 0.  1.
        2   -1    0    0  501    0  0.00000000000E+00  0.00000000000E+00 -0.21013247935E+04  0.21013247935E+04  0.25500000920E-02 0. -1.
    10030    2    1    2    0    0  0.00000000000E+00  0.00000000000E+00 -0.98163488864E+03  0.32210146983E+04  0.30677888833E+04 0.  0.
        1    1    3    3  502    0 -0.47020009146E+03 -0.14597768843E+04 -0.46120448086E+03  0.16014825167E+04  0.50400001928E-02 0.  1.
       -1    1    3    3    0  502  0.47020009146E+03  0.14597768843E+04 -0.52043040778E+03  0.16195321817E+04  0.50400001928E-02 0. -1.
</event>
<event>
 5   0  0.5342534E-07  0.3099557E+04  0.7818609E-02  0.8215859E-01
       -2   -1    0    0    0  501  0.00000000000E+00  0.00000000000E+00  0.23719016726E+04  0.23719016726E+04  0.25500000920E-02 0.  1.
        2   -1    0    0  501    0  0.00000000000E+00  0.00000000000E+00 -0.10126108869E+04  0.10126108869E+04  0.25500000920E-02 0. -1.
    10030    2    1    2    0    0  0.00000000000E+00  0.00000000000E+00  0.13592907858E+04  0.33845125595E+04  0.30995570370E+04 0.  0.
        3    1    3    3  502    0  0.49512320058E+03  0.19674219519E+03 -0.90946939433E+03  0.10540346600E+04  0.10100000352E+00 0. -1.
       -3    1    3    3    0  502 -0.49512320058E+03 -0.19674219519E+03  0.22687601801E+04  0.23304778995E+04  0.10100000352E+00 0.  1.
</event>
<event>
 5   0  0.5342534E-07  0.3096543E+04  0.7818609E-02  0.8216687E-01
        2   -1    0    0  501    0  0.00000000000E+00  0.00000000000E+00  0.11090554787E+04  0.11090554787E+04  0.25500000920E-02 0.  1.
       -2   -1    0    0    0  501  0.00000000000E+00  0.00000000000E+00 -0.21614288298E+04  0.21614288298E+04  0.25500000920E-02 0. -1.
    10030    2    1    2    0    0  0.00000000000E+00  0.00000000000E+00 -0.10523733511E+04  0.32704843085E+04  0.30965429016E+04 0.  0.
        3    1    3    3  502    0 -0.76480396074E+03 -0.12661459261E+04 -0.10091405110E+04  0.17906465831E+04  0.10100000352E+00 0. -1.
       -3    1    3    3    0  502  0.76480396074E+03  0.12661459261E+04 -0.43232840161E+02  0.14798377253E+04  0.10100000352E+00 0.  1.
</event>
<event>
 5   0  0.5376678E-07  0.3104445E+04  0.7818609E-02  0.8214519E-01
        2   -1    0    0  501    0  0.00000000000E+00  0.00000000000E+00  0.19314770902E+04  0.19314770902E+04  0.25500000920E-02 0. -1.
       -2   -1    0    0    0  501  0.00000000000E+00  0.00000000000E+00 -0.12474359630E+04  0.12474359630E+04  0.25500000920E-02 0.  1.
    10030    2    1    2    0    0  0.00000000000E+00  0.00000000000E+00  0.68404112719E+03  0.31789130532E+04  0.31044445455E+04 0.  0.
        5    1    3    3  502    0  0.23737394516E+03 -0.67339327164E+03  0.17533293715E+04  0.18931431175E+04  0.46999998093E+01 0. -1.
       -5    1    3    3    0  502 -0.23737394516E+03  0.67339327164E+03 -0.10692882443E+04  0.12857699357E+04  0.46999998093E+01 0.  1.
</event>
<event>
 5   0  0.1830902E-07  0.3098344E+04  0.7818609E-02  0.8216192E-01
        1   -1    0    0  501    0  0.00000000000E+00  0.00000000000E+00  0.19833685193E+04  0.19833685193E+04  0.50400001928E-02 0. -1.
       -1   -1    0    0    0  501  0.00000000000E+00  0.00000000000E+00 -0.12100294998E+04  0.12100294998E+04  0.50400001928E-02 0.  1.
    10030    2    1    2    0    0  0.00000000000E+00  0.00000000000E+00  0.77333901943E+03  0.31933980191E+04  0.30983443433E+04 0.  0.
        3    1    3    3  502    0 -0.12797350937E+04 -0.16951664379E+03  0.12693763700E+04  0.18104624220E+04  0.10100000352E+00 0. -1.
       -3    1    3    3    0  502  0.12797350937E+04  0.16951664379E+03 -0.49603735053E+03  0.13829355971E+04  0.10100000352E+00 0.  1.
</event>
<event>
 5   0  0.1845123E-07  0.3103351E+04  0.7818609E-02  0.8214819E-01
        1   -1    0    0  501    0  0.00000000000E+00  0.00000000000E+00  0.11793620022E+04  0.11793620022E+04  0.50400001928E-02 0.  1.
       -1   -1    0    0    0  501  0.00000000000E+00  0.00000000000E+00 -0.20415251402E+04  0.20415251402E+04  0.50400001928E-02 0. -1.
    10030    2    1    2    0    0  0.00000000000E+00  0.00000000000E+00 -0.86216313806E+03  0.32208871424E+04  0.31033512059E+04 0.  0.
        2    1    3    3  502    0 -0.77342506172E+03 -0.27240802158E+03 -0.17982828430E+04  0.19764143391E+04  0.25500000920E-02 0. -1.
       -2    1    3    3    0  502  0.77342506172E+03  0.27240802158E+03  0.93611970491E+03  0.12444728033E+04  0.25500000920E-02 0.  1.
</event>
<event>
 5   0  0.1875284E-07  0.3103642E+04  0.7818609E-02  0.8214739E-01
        1   -1    0    0  501    0  0.00000000000E+00  0.00000000000E+00  0.18441162434E+04  0.18441162434E+04  0.50400001928E-02 0. -1.
       -1   -1    0    0    0  501  0.00000000000E+00  0.00000000000E+00 -0.13058551079E+04  0.13058551079E+04  0.50400001928E-02 0.  1.
    10030    2    1    2    0    0  0.00000000000E+00  0.00000000000E+00  0.53826113549E+03  0.31499713514E+04  0.31036421289E+04 0.  0.
        4    1    3    3  502    0 -0.14076091353E+04  0.64572323114E+03  0.36973149847E+03  0.15921761721E+04  0.12699999809E+01 0. -1.
       -4    1    3    3    0  502  0.14076091353E+04 -0.64572323114E+03  0.16852963702E+03  0.15577951793E+04  0.12699999809E+01 0.  1.
</event>
<event>
 5   0  0.5342534E-07  0.3042761E+04  0.7818609E-02  0.8231625E-01
       -2   -1    0    0    0  501  0.00000000000E+00  0.00000000000E+00  0.13852638439E+04  0.13852638439E+04  0.25500000920E-02 0. -1.
        2   -1    0    0  501    0  0.00000000000E+00  0.00000000000E+00 -0.16708720467E+04  0.16708720467E+04  0.25500000920E-02 0.  1.
    10030    2    1    2    0    0  0.00000000000E+00  0.00000000000E+00 -0.28560820275E+03  0.30561358906E+04  0.30427610055E+04 0.  0.
        3    1    3    3  502    0 -0.23131580314E+03  0.10107831039E+04 -0.12609852507E+04  0.16325664754E+04  0.10100000352E+00 0.  1.
       -3    1    3    3    0  502  0.23131580314E+03 -0.10107831039E+04  0.97537704797E+03  0.14235694152E+04  0.10100000352E+00 0. -1.
</event>
<event>
 5   0  0.5342534E-07  0.3103300E+04  0.7818609E-02  0.8214833E-01
        2   -1    0    0  501    0  0.00000000000E+00  0.00000000000E+00  0.15688898944E+04  0.15688898944E+04  0.25500000920E-02 0. -1.
       -2   -1    0    0    0  501  0.00000000000E+00  0.00000000000E+00 -0.15345993490E+04  0.15345993490E+04  0.25500000920E-02 0.  1.
    10030    2    1    2    0    0  0.00000000000E+00  0.00000000000E+00  0.34290545386E+02  0.31034892434E+04  0.31032997990E+04 0.  0.
        3    1    3    3  502    0 -0.35183770500E+03  0.11355481010E+04  0.10143812263E+04  0.15627631115E+04  0.10100000352E+00 0. -1.
       -3    1    3    3    0  502  0.35183770500E+03 -0.11355481010E+04 -0.98009068093E+03  0.15407261318E+04  0.10100000352E+00 0.  1.
</event>
<event>
 5   0  0.5154105E-07  0.3100406E+04  0.7818609E-02  0.8215626E-01
        2   -1    0    0  501    0  0.00000000000E+00  0.00000000000E+00  0.15892859049E+04  0.15892859049E+04  0.25500000920E-02 0.  1.
       -2   -1    0    0    0  501  0.00000000000E+00  0.00000000000E+00 -0.15120815596E+04  0.15120815596E+04  0.25500000920E-02 0. -1.
    10030    2    1    2    0    0  0.00000000000E+00  0.00000000000E+00  0.77204345360E+02  0.31013674645E+04  0.31004063667E+04 0.  0.
        1    1    3    3  502    0  0.14983568855E+04 -0.29683728257E+02 -0.35797428990E+03  0.15408114980E+04  0.50400001928E-02 0.  1.
       -1    1    3    3    0  502 -0.14983568855E+04  0.29683728257E+02  0.43517863526E+03  0.15605559665E+04  0.50400001928E-02 0. -1.
</event>
<event>
 5   0  0.1840359E-07  0.3117501E+04  0.7818609E-02  0.8210951E-01
        1   -1    0    0  501    0  0.00000000000E+00  0.00000000000E+00  0.25659537889E+04  0.25659537889E+04  0.50400001928E-02 0.  1.
       -1   -1    0    0    0  501  0.00000000000E+00  0.00000000000E+00 -0.94690052075E+03  0.94690052076E+03  0.50400001928E-02 0. -1.
    10030    2    1    2    0    0  0.00000000000E+00  0.00000000000E+00  0.16190532681E+04  0.35128543097E+04  0.31175009087E+04 0.  0.
        1    1    3    3  502    0  0.15552438353E+04  0.35228736269E+02  0.92038237781E+03  0.18075198955E+04  0.50400001928E-02 0.  1.
       -1    1    3    3    0  502 -0.15552438353E+04 -0.35228736269E+02  0.69867089034E+03  0.17053344142E+04  0.50400001928E-02 0. -1.
</event>
<event>
 5   0  0.5055900E-07  0.3096467E+04  0.7818609E-02  0.8216708E-01
        2   -1    0    0  501    0  0.00000000000E+00  0.00000000000E+00  0.15082593516E+04  0.15082593516E+04  0.25500000920E-02 0. -1.
       -2   -1    0    0    0  501  0.00000000000E+00  0.00000000000E+00 -0.15892671152E+04  0.15892671152E+04  0.25500000920E-02 0.  1.
    10030    2    1    2    0    0  0.00000000000E+00  0.00000000000E+00 -0.81007763681E+02  0.30975264668E+04  0.30964670117E+04 0.  0.
        2    1    3    3  502    0 -0.44545514832E+03  0.13617130164E+04 -0.62750475801E+03  0.15641147175E+04  0.25500000920E-02 0.  1.
       -2    1    3    3    0  502  0.44545514832E+03 -0.13617130164E+04  0.54649699433E+03  0.15334117493E+04  0.25500000920E-02 0. -1.
</event>
<event>
 5   0  0.5342534E-07  0.3106460E+04  0.7818609E-02  0.8213967E-01
       -2   -1    0    0    0  501  0.00000000000E+00  0.00000000000E+00  0.11872604719E+04  0.11872604719E+04  0.25500000920E-02 0. -1.
        2   -1    0    0  501    0  0.00000000000E+00  0.00000000000E+00 -0.20320087572E+04  0.20320087572E+04  0.25500000920E-02 0.  1.
    10030    2    1    2    0    0  0.00000000000E+00  0.00000000000E+00 -0.84474828538E+03  0.32192692291E+04  0.31064601565E+04 0.  0.
        3    1    3    3  502    0 -0.52844948400E+03  0.14603311284E+04 -0.39499888191E+03  0.16024512437E+04  0.10100000352E+00 0. -1.
       -3    1    3    3    0  502  0.52844948400E+03 -0.14603311284E+04 -0.44974940347E+03  0.16168179854E+04  0.10100000352E+00 0.  1.
</event>
<event>
 5   0  0.1840359E-07  0.3100950E+04  0.7818609E-02  0.8215477E-01
       -1   -1    0    0    0  501  0.00000000000E+00  0.00000000000E+00  0.11108691799E+04  0.11108691799E+04  0.50400001928E-02 0. -1.
        1   -1    0    0  501    0  0.00000000000E+00  0.00000000000E+00 -0.21640466470E+04  0.21640466470E+04  0.50400001928E-02 0.  1.
    10030    2    1    2    0    0  0.00000000000E+00  0.00000000000E+00 -0.10531774671E+04  0.32749158270E+04  0.31009499990E+04 0.  0.
        1    1    3    3  502    0 -0.28610856330E+02 -0.80443479637E+03 -0.19260872178E+04  0.20875214714E+04  0.50400001928E-02 0.  1.
       -1    1    3    3    0  502  0.28610856330E+02  0.80443479637E+03  0.87290975075E+03  0.11873943556E+04  0.50400001928E-02 0. -1.
</event>
<event>
 5   0  0.5248309E-07  0.3101149E+04  0.7818609E-02  0.8215423E-01
       -2   -1    0    0    0  501  0.00000000000E+00  0.00000000000E+00  0.16306225021E+04  0.16306225021E+04  0.25500000920E-02 0.  1.
        2   -1    0    0  501    0  0.00000000000E+00  0.00000000000E+00 -0.14744559033E+04  0.14744559033E+04  0.25500000920E-02 0. -1.
    10030    2    1    2    0    0  0.00000000000E+00  0.00000000000E+00  0.15616659875E+03  0.31050784054E+04  0.31011488028E+04 0.  0.
        4    1    3    3  502    0 -0.49904811565E+02 -0.14705138266E+04 -0.41179933350E+03  0.15279010794E+04  0.12699999809E+01 0. -1.
       -4    1    3    3    0  502  0.49904811565E+02  0.14705138266E+04  0.56796593224E+03  0.15771773260E+04  0.12699999809E+01 0.  1.
</event>
<event>
 5   0  0.1814075E-07  0.3101737E+04  0.7818609E-02  0.8215261E-01
       -1   -1    0    0    0  501  0.00000000000E+00  0.00000000000E+00  0.13892984348E+04  0.13892984348E+04  0.50400001928E-02 0.  1.
        1   -1    0    0  501    0  0.00000000000E+00  0.00000000000E+00 -0.17312284559E+04  0.17312284559E+04  0.50400001928E-02 0. -1.
    10030    2    1    2    0    0  0.00000000000E+00  0.00000000000E+00 -0.34193002115E+03  0.31205268907E+04  0.31017369225E+04 0.  0.
        5    1    3    3  502    0  0.11959631444E+04  0.95653012702E+03  0.75248347007E+02  0.15332847519E+04  0.46999998093E+01 0.  1.
       -5    1    3    3    0  502 -0.11959631444E+04 -0.95653012702E+03 -0.41717836816E+03  0.15872421389E+04  0.46999998093E+01 0. -1.
</event>
<event>
 5   0  0.5376678E-07  0.3100720E+04  0.7818609E-02  0.8215540E-01
       -2   -1    0    0    0  501  0.00000000000E+00  0.00000000000E+00  0.22360833572E+04  0.22360833572E+04  0.25500000920E-02 0.  1.
        2   -1    0    0  501    0  0.00000000000E+00  0.00000000000E+00 -0.10749225745E+04  0.10749225745E+04  0.25500000920E-02 0. -1.
    10030    2    1    2    0    0  0.00000000000E+00  0.00000000000E+00  0.11611607827E+04  0.33110059317E+04  0.31007202254E+04 0.  0.
        5    1    3    3  502    0 -0.99746834287E+03 -0.15074960120E+03 -0.67651251176E+03  0.12146439008E+04  0.46999998093E+01 0. -1.
       -5    1    3    3    0  502  0.99746834287E+03  0.15074960120E+03  0.18376732944E+04  0.20963620308E+04  0.46999998093E+01 0.  1.
</event>
<event>
 5   0  0.5248309E-07  0.3100091E+04  0.7818609E-02  0.8215713E-01
        2   -1    0    0  501    0  0.00000000000E+00  0.00000000000E+00  0.16984210978E+04  0.16984210978E+04  0.25500000920E-02 0. -1.
       -2   -1    0    0    0  501  0.00000000000E+00  0.00000000000E+00 -0.14146320171E+04  0.14146320171E+04  0.25500000920E-02 0.  1.
    10030    2    1    2    0    0  0.00000000000E+00  0.00000000000E+00  0.28378908071E+03  0.31130531149E+04  0.31000908783E+04 0.  0.
        4    1    3    3  502    0 -0.49693808990E+03 -0.13847797151E+04 -0.34807689120E+03  0.15118602646E+04  0.12699999809E+01 0.  1.
       -4    1    3    3    0  502  0.49693808990E+03  0.13847797151E+04  0.63186597191E+03  0.16011928503E+04  0.12699999809E+01 0. -1.
</event>
<event>
 5   0  0.5342534E-07  0.3118109E+04  0.7818609E-02  0.8210786E-01
        2   -1    0    0  501    0  0.00000000000E+00  0.00000000000E+00  0.23939462857E+04  0.23939462857E+04  0.25500000920E-02 0.  1.
       -2   -1    0    0    0  501  0.00000000000E+00  0.00000000000E+00 -0.10153319623E+04  0.10153319623E+04  0.25500000920E-02 0. -1.
    10030    2    1    2    0    0  0.00000000000E+00  0.00000000000E+00  0.13786143234E+04  0.34092782480E+04  0.31181085164E+04 0.  0.
        3    1    3    3  502    0  0.64471884848E+03 -0.72626071265E+03  0.20228425621E+04  0.22438825856E+04  0.10100000352E+00 0.  1.
       -3    1    3    3    0  502 -0.64471884848E+03  0.72626071265E+03 -0.64422823878E+03  0.11653956625E+04  0.10100000352E+00 0. -1.
</event>
<event>
 5   0  0.5342534E-07  0.3117649E+04  0.7818609E-02  0.8210911E-01
        2   -1    0    0  501    0  0.00000000000E+00  0.00000000000E+00  0.17522176247E+04  0.17522176247E+04  0.25500000920E-02 0.  1.
       -2   -1    0    0    0  501  0.00000000000E+00  0.00000000000E+00 -0.13867760095E+04  0.13867760095E+04  0.25500000920E-02 0. -1.
    10030    2    1    2    0    0  0.00000000000E+00  0.00000000000E+00  0.36544161522E+03  0.31389936341E+04  0.31176487071E+04 0.  0.
        3    1    3    3  502    0 -0.14683868319E+04 -0.51673881544E+03  0.26546903327E+03  0.15791303649E+04  0.10100000352E+00 0.  1.
       -3    1    3    3    0  502  0.14683868319E+04  0.51673881544E+03  0.99972581950E+02  0.15598632693E+04  0.10100000352E+00 0. -1.
</event>
<event>
 5   0  0.5055900E-07  0.3098844E+04  0.7818609E-02  0.8216055E-01
       -2   -1    0    0    0  501  0.00000000000E+00  0.00000000000E+00  0.83586678911E+03  0.83586678911E+03  0.25500000920E-02 0. -1.
        2   -1    0    0  501    0  0.00000000000E+00  0.00000000000E+00 -0.28721190467E+04  0.28721190467E+04  0.25500000920E-02 0.  1.
    10030    2    1    2    0    0  0.00000000000E+00  0.00000000000E+00 -0.20362522576E+04  0.37079858358E+04  0.30988442526E+04 0.  0.
        2    1    3    3  502    0  0.61029312345E+03 -0.14186750151E+04 -0.86861498041E+03  0.17718883935E+04  0.25500000920E-02 0. -1.
       -2    1    3    3    0  502 -0.61029312345E+03  0.14186750151E+04 -0.11676372772E+04  0.19360974423E+04  0.25500000920E-02 0.  1.
</event>
<event>
 5   0  0.5342534E-07  0.3108879E+04  0.7818609E-02  0.8213305E-01
        2   -1    0    0  501    0  0.00000000000E+00  0.00000000000E+00  0.18900066016E+04  0.18900066016E+04  0.25500000920E-02 0.  1.
       -2   -1    0    0    0  501  0.00000000000E+00  0.00000000000E+00 -0.12784514714E+04  0.12784514714E+04  0.25500000920E-02 0. -1.
    10030    2    1    2    0    0  0.00000000000E+00  0.00000000000E+00  0.61155513021E+03  0.31684580730E+04  0.31088787180E+04 0.  0.
        3    1    3    3  502    0 -0.78484091571E+03 -0.12580242577E+04  0.78128231594E+03  0.16760078649E+04  0.10100000352E+00 0.  1.
       -3    1    3    3    0  502  0.78484091571E+03  0.12580242577E+04 -0.16972718573E+03  0.14924502081E+04  0.10100000352E+00 0. -1.
</event>
<event>
 5   0  0.1814075E-07  0.3096521E+04  0.7818609E-02  0.8216693E-01
        1   -1    0    0  501    0  0.00000000000E+00  0.00000000000E+00  0.14472253357E+04  0.14472253358E+04  0.50400001928E-02 0. -1.
       -1   -1    0    0    0  501  0.00000000000E+00  0.00000000000E+00 -0.16563491532E+04  0.16563491532E+04  0.50400001928E-02 0.  1.
    10030    2    1    2    0    0  0.00000000000E+00  0.00000000000E+00 -0.20912381746E+03  0.31035744890E+04  0.30965209248E+04 0.  0.
        5    1    3    3  502    0  0.13245144398E+04 -0.33627839565E+03  0.62487795337E+03  0.15026364188E+04  0.46999998093E+01 0. -1.
       -5    1    3    3    0  502 -0.13245144398E+04  0.33627839565E+03 -0.83400177083E+03  0.16009380701E+04  0.46999998093E+01 0.  1.
</event>
<event>
 5   0  0.5154105E-07  0.3100113E+04  0.7818609E-02  0.8215707E-01
        2   -1    0    0  501    0  0.00000000000E+00  0.00000000000E+00  0.15549291664E+04  0.15549291664E+04  0.25500000920E-02 0. -1.
       -2   -1    0    0    0  501  0.00000000000E+00  0.00000000000E+00 -0.15451986105E+04  0.15451986105E+04  0.25500000920E-02 0.  1.
    10030    2    1    2    0    0  0.00000000000E+00  0.00000000000E+00  0.97305558654E+01  0.31001277770E+04  0.31001125060E+04 0.  0.
        1    1    3    3  502    0 -0.40164999430E+03  0.14092732026E+04 -0.50041011740E+03  0.15484779505E+04  0.50400001928E-02 0.  1.
       -1    1    3    3    0  502  0.40164999430E+03 -0.14092732026E+04  0.51014067326E+03  0.15516498265E+04  0.50400001928E-02 0. -1.
</event>
<event>
 5   0  0.1830902E-07  0.3098810E+04  0.7818609E-02  0.8216065E-01
        1   -1    0    0  501    0  0.00000000000E+00  0.00000000000E+00  0.23082877178E+04  0.23082877178E+04  0.50400001928E-02 0. -1.
       -1   -1    0    0    0  501  0.00000000000E+00  0.00000000000E+00 -0.10400155470E+04  0.10400155470E+04  0.50400001928E-02 0.  1.
    10030    2    1    2    0    0  0.00000000000E+00  0.00000000000E+00  0.12682721709E+04  0.33483032648E+04  0.30988095220E+04 0.  0.
        3    1    3    3  502    0 -0.69236330911E+03  0.12052878371E+04  0.13737700695E+04  0.19543106038E+04  0.10100000352E+00 0. -1.
       -3    1    3    3    0  502  0.69236330911E+03 -0.12052878371E+04 -0.10549789861E+03  0.13939926610E+04  0.10100000352E+00 0.  1.
</event>
<event>
 5   0  0.5248309E-07  0.3120262E+04  0.7818609E-02  0.8210199E-01
       -2   -1    0    0    0  501  0.00000000000E+00  0.00000000000E+00  0.24061412883E+04  0.24061412883E+04  0.25500000920E-02 0. -1.
        2   -1    0    0  501    0  0.00000000000E+00  0.00000000000E+00 -0.10115820482E+04  0.10115820482E+04  0.25500000920E-02 0.  1.
    10030    2    1    2    0    0  0.00000000000E+00  0.00000000000E+00  0.13945592400E+04  0.34177233365E+04  0.31202623817E+04 0.  0.
        4    1    3    3  502    0  0.48628589300E+03 -0.97306030159E+03  0.19222347359E+04  0.22086892749E+04  0.12699999809E+01 0. -1.
       -4    1    3    3    0  502 -0.48628589300E+03  0.97306030159E+03 -0.52767549585E+03  0.12090340616E+04  0.12699999809E+01 0.  1.
</event>
<event>
 5   0  0.5248309E-07  0.3102678E+04  0.7818609E-02  0.8215003E-01
       -2   -1    0    0    0  501  0.00000000000E+00  0.00000000000E+00  0.11887936798E+04  0.11887936798E+04  0.25500000920E-02 0.  1.
        2   -1    0    0  501    0  0.00000000000E+00  0.00000000000E+00 -0.20244497642E+04  0.20244497642E+04  0.25500000920E-02 0. -1.
    10030    2    1    2    0    0  0.00000000000E+00  0.00000000000E+00 -0.83565608437E+03  0.32132434440E+04  0.31026782526E+04 0.  0.
        4    1    3    3  502    0  0.49131512103E+03  0.46751727846E+03 -0.18627857040E+04  0.19824064028E+04  0.12699999809E+01 0. -1.
       -4    1    3    3    0  502 -0.49131512103E+03 -0.46751727846E+03  0.10271296196E+04  0.12308370413E+04  0.12699999809E+01 0.  1.
</event>
<event>
 5   0  0.1727000E-07  0.3091933E+04  0.7818609E-02  0.8217955E-01
        3   -1    0    0  501    0  0.00000000000E+00  0.00000000000E+00  0.14172022531E+04  0.14172022567E+04  0.10100000352E+00 0.  1.
       -3   -1    0    0    0  501  0.00000000000E+00  0.00000000000E+00 -0.16864302292E+04  0.16864302322E+04  0.10100000352E+00 0. -1.
    10030    2    1    2    0    0  0.00000000000E+00  0.00000000000E+00 -0.26922797613E+03  0.31036324889E+04  0.30919332016E+04 0.  0.
        1    1    3    3  502    0 -0.82833221720E+03  0.75656900742E+03  0.93312222908E+03  0.14591943049E+04  0.50400001928E-02 0.  1.
       -1    1    3    3    0  502  0.82833221720E+03 -0.75656900742E+03 -0.12023502052E+04  0.16444381840E+04  0.50400001928E-02 0. -1.
</event>
<event>
 5   0  0.5248309E-07  0.3097382E+04  0.7818609E-02  0.8216457E-01
       -2   -1    0    0    0  501  0.00000000000E+00  0.00000000000E+00  0.12961129429E+04  0.12961129429E+04  0.25500000920E-02 0.  1.
        2   -1    0    0  501    0  0.00000000000E+00  0.00000000000E+00 -0.18504899961E+04  0.18504899961E+04  0.25500000920E-02 0. -1.
    10030    2    1    2    0    0  0.00000000000E+00  0.00000000000E+00 -0.55437705317E+03  0.31466029390E+04  0.30973821428E+04 0.  0.
        4    1    3    3  502    0 -0.41817197519E+03 -0.12557253661E+04  0.53978527271E+03  0.14293648063E+04  0.12699999809E+01 0.  1.
       -4    1    3    3    0  502  0.41817197519E+03  0.12557253661E+04 -0.10941623259E+04  0.17172381327E+04  0.12699999809E+01 0. -1.
</event>
<event>
 5   0  0.5154105E-07  0.3099874E+04  0.7818609E-02  0.8215773E-01
       -2   -1    0    0    0  501  0.00000000000E+00  0.00000000000E+00  0.21184903805E+04  0.21184903806E+04  0.25500000920E-02 0. -1.
        2   -1    0    0  501    0  0.00000000000E+00  0.00000000000E+00 -0.11339698545E+04  0.11339698545E+04  0.25500000920E-02 0.  1.
    10030    2    1    2    0    0  0.00000000000E+00  0.00000000000E+00  0.98452052603E+03  0.32524602351E+04  0.30998736933E+04 0.  0.
        1    1    3    3  502    0  0.14338737804E+04 -0.39964272615E+03  0.39029846862E+02  0.14890371573E+04  0.50400001928E-02 0.  1.
       -1    1    3    3    0  502 -0.14338737804E+04  0.39964272615E+03  0.94549067917E+03  0.17634230778E+04  0.50400001928E-02 0. -1.
</event>
<event>
 5   0  0.1875284E-07  0.3099947E+04  0.7818609E-02  0.8215752E-01
        1   -1    0    0  501    0  0.00000000000E+00  0.00000000000E+00  0.19664434019E+04  0.19664434019E+04  0.50400001928E-02 0.  1.
       -1   -1    0    0    0  501  0.00000000000E+00  0.00000000000E+00 -0.12217072970E+04  0.12217072970E+04  0.50400001928E-02 0. -1.
    10030    2    1    2    0    0  0.00000000000E+00  0.00000000000E+00  0.74473610489E+03  0.31881506989E+04  0.30999472597E+04 0.  0.
        4    1    3    3  502    0  0.40158400259E+03 -0.70308007021E+02  0.19103109779E+04  0.19533311476E+04  0.12699999809E+01 0.  1.
       -4    1    3    3    0  502 -0.40158400259E+03  0.70308007021E+02 -0.11655748730E+04  0.12348195514E+04  0.12699999809E+01 0. -1.
</event>
<event>
 5   0  0.1727000E-07  0.3100282E+04  0.7818609E-02  0.8215661E-01
       -3   -1    0    0    0  501  0.00000000000E+00  0.00000000000E+00  0.19658772444E+04  0.19658772470E+04  0.10100000352E+00 0.  1.
        3   -1    0    0  501    0  0.00000000000E+00  0.00000000000E+00 -0.12223228393E+04  0.12223228435E+04  0.10100000352E+00 0. -1.
    10030    2    1    2    0    0  0.00000000000E+00  0.00000000000E+00  0.74355440509E+03  0.31882000905E+04  0.31002817072E+04 0.  0.
        3    1    3    3  502    0 -0.85894002356E+03  0.90467652436E+03  0.13180450518E+04  0.18147893395E+04  0.10100000352E+00 0.  1.
       -3    1    3    3    0  502  0.85894002356E+03 -0.90467652436E+03 -0.57449064671E+03  0.13734107511E+04  0.10100000352E+00 0. -1.
</event>
<event>
 5   0  0.1814075E-07  0.3102213E+04  0.7818609E-02  0.8215131E-01
       -1   -1    0    0    0  501  0.00000000000E+00  0.00000000000E+00  0.15104010783E+04  0.15104010783E+04  0.50400001928E-02 0.  1.
        1   -1    0    0  501    0  0.00000000000E+00  0.00000000000E+00 -0.15929092121E+04  0.15929092121E+04  0.50400001928E-02 0. -1.
    10030    2    1    2    0    0  0.00000000000E+00  0.00000000000E+00 -0.82508133820E+02  0.31033102904E+04  0.31022132690E+04 0.  0.
        5    1    3    3  502    0 -0.88004532310E+03  0.44477512136E+03  0.11565018013E+04  0.15198102466E+04  0.46999998093E+01 0.  1.
       -5    1    3    3    0  502  0.88004532310E+03 -0.44477512136E+03 -0.12390099351E+04  0.15835000438E+04  0.46999998093E+01 0. -1.
</event>
<event>
 5   0  0.5248309E-07  0.3105197E+04  0.7818609E-02  0.8214313E-01
       -2   -1    0    0    0  501  0.00000000000E+00  0.00000000000E+00  0.16416917156E+04  0.16416917156E+04  0.25500000920E-02 0.  1.
        2   -1    0    0  501    0  0.00000000000E+00  0.00000000000E+00 -0.14683402808E+04  0.14683402808E+04  0.25500000920E-02 0. -1.
    10030    2    1    2    0    0  0.00000000000E+00  0.00000000000E+00  0.17335143482E+03  0.31100319964E+04  0.31051969823E+04 0.  0.
        4    1    3    3  502    0  0.18949814842E+03  0.21230309426E+02 -0.14565674725E+04  0.14689964905E+04  0.12699999809E+01 0. -1.
       -4    1    3    3    0  502 -0.18949814842E+03 -0.21230309426E+02  0.16299189073E+04  0.16410355059E+04  0.12699999809E+01 0.  1.
</event>
<event>
 5   0  0.5154105E-07  0.3098065E+04  0.7818609E-02  0.8216269E-01
       -2   -1    0    0    0  501  0.00000000000E+00  0.00000000000E+00  0.14866160823E+04  0.14866160823E+04  0.25500000920E-02 0.  1.
        2   -1    0    0  501    0  0.00000000000E+00  0.00000000000E+00 -0.16140691143E+04  0.16140691143E+04  0.25500000920E-02 0. -1.
    10030    2    1    2    0    0  0.00000000000E+00  0.00000000000E+00 -0.12745303200E+03  0.31006851966E+04  0.30980646238E+04 0.  0.
        1    1    3    3  502    0  0.59770031410E+02  0.11434456580E+04 -0.11079021976E+04  0.15932632265E+04  0.50400001928E-02 0. -1.
       -1    1    3    3    0  502 -0.59770031410E+02 -0.11434456580E+04  0.98044916565E+03  0.15074219701E+04  0.50400001928E-02 0.  1.
</event>
<event>
 5   0  0.5055900E-07  0.3091426E+04  0.7818609E-02  0.8218095E-01
        2   -1    0    0  501    0  0.00000000000E+00  0.00000000000E+00  0.24064037714E+04  0.24064037714E+04  0.25500000920E-02 0.  1.
       -2   -1    0    0    0  501  0.00000000000E+00  0.00000000000E+00 -0.99286288053E+03  0.99286288053E+03  0.25500000920E-02 0. -1.
    10030    2    1    2    0    0  0.00000000000E+00  0.00000000000E+00  0.14135408909E+04  0.33992666519E+04  0.30914261953E+04 0.  0.
        2    1    3    3  502    0  0.96834374133E+02  0.67262857288E+03 -0.81979299379E+03  0.10648317453E+04  0.25500000920E-02 0. -1.
       -2    1    3    3    0  502 -0.96834374133E+02 -0.67262857288E+03  0.22333338846E+04  0.23344349066E+04  0.25500000920E-02 0.  1.
</event>
<event>
 5   0  0.5376678E-07  0.3095228E+04  0.7818609E-02  0.8217049E-01
        2   -1    0    0  501    0  0.00000000000E+00  0.00000000000E+00  0.18996602586E+04  0.18996602586E+04  0.25500000920E-02 0. -1.
       -2   -1    0    0    0  501  0.00000000000E+00  0.00000000000E+00 -0.12608092195E+04  0.12608092195E+04  0.25500000920E-02 0.  1.
    10030    2    1    2    0    0  0.00000000000E+00  0.00000000000E+00  0.63885103903E+03  0.31604694781E+04  0.30952280485E+04 0.  0.
        5    1    3    3  502    0 -0.14737133547E+04 -0.31107062222E+03  0.68257792325E+03  0.16536416465E+04  0.46999998093E+01 0. -1.
       -5    1    3    3    0  502  0.14737133547E+04  0.31107062222E+03 -0.43726884219E+02  0.15068278316E+04  0.46999998093E+01 0.  1.
</event>
<event>
 5   0  0.5055900E-07  0.3104271E+04  0.7818609E-02  0.8214567E-01
       -2   -1    0    0    0  501  0.00000000000E+00  0.00000000000E+00  0.14053113063E+04  0.14053113063E+04  0.25500000920E-02 0.  1.
        2   -1    0    0  501    0  0.00000000000E+00  0.00000000000E+00 -0.17142997712E+04  0.17142997712E+04  0.25500000920E-02 0. -1.
    10030    2    1    2    0    0  0.00000000000E+00  0.00000000000E+00 -0.30898846493E+03  0.31196110775E+04  0.31042711549E+04 0.  0.
        2    1    3    3  502    0 -0.57613513418E+03 -0.27367951188E+03 -0.15765105651E+04  0.17006521484E+04  0.25500000920E-02 0. -1.
       -2    1    3    3    0  502  0.57613513418E+03  0.27367951188E+03  0.12675221001E+04  0.14189589291E+04  0.25500000920E-02 0.  1.
</event>
<event>
 5   0  0.1830902E-07  0.3113166E+04  0.7818609E-02  0.8212134E-01
       -1   -1    0    0    0  501  0.00000000000E+00  0.00000000000E+00  0.19378398049E+04  0.19378398049E+04  0.50400001928E-02 0. -1.
        1   -1    0    0  501    0  0.00000000000E+00  0.00000000000E+00 -0.12503356382E+04  0.12503356382E+04  0.50400001928E-02 0.  1.
    10030    2    1    2    0    0  0.00000000000E+00  0.00000000000E+00  0.68750416667E+03  0.31881754431E+04  0.31131657002E+04 0.  0.
        3    1    3    3  502    0 -0.49116481672E+01 -0.11574043305E+04 -0.72216301889E+03  0.13642317782E+04  0.10100000352E+00 0.  1.
       -3    1    3    3    0  502  0.49116481672E+01  0.11574043305E+04  0.14096671856E+04  0.18239436649E+04  0.10100000352E+00 0. -1.
</event>
<event>
 5   0  0.5154105E-07  0.3098460E+04  0.7818609E-02  0.8216161E-01
       -2   -1    0    0    0  501  0.00000000000E+00  0.00000000000E+00  0.11571508019E+04  0.11571508019E+04  0.25500000920E-02 0. -1.
        2   -1    0    0  501    0  0.00000000000E+00  0.00000000000E+00 -0.20741578677E+04  0.20741578677E+04  0.25500000920E-02 0.  1.
    10030    2    1    2    0    0  0.00000000000E+00  0.00000000000E+00 -0.91700706586E+03  0.32313086696E+04  0.30984599012E+04 0.  0.
        1    1    3    3  502    0 -0.32625335722E+03  0.74386710981E+03  0.91727603994E+03  0.12252244136E+04  0.50400001928E-02 0. -1.
       -1    1    3    3    0  502  0.32625335722E+03 -0.74386710981E+03 -0.18342831058E+04  0.20060842561E+04  0.50400001928E-02 0.  1.
</event>
<event>
 5   0  0.1845123E-07  0.3097613E+04  0.7818609E-02  0.8216393E-01
       -1   -1    0    0    0  501  0.00000000000E+00  0.00000000000E+00  0.17071805778E+04  0.17071805778E+04  0.50400001928E-02 0. -1.
        1   -1    0    0  501    0  0.00000000000E+00  0.00000000000E+00 -0.14051250607E+04  0.14051250607E+04  0.50400001928E-02 0.  1.
    10030    2    1    2    0    0  0.00000000000E+00  0.00000000000E+00  0.30205551709E+03  0.31123056386E+04  0.30976134124E+04 0.  0.
        2    1    3    3  502    0 -0.33276501338E+02 -0.11836104412E+04 -0.85208692581E+03  0.14587985232E+04  0.25500000920E-02 0.  1.
       -2    1    3    3    0  502  0.33276501338E+02  0.11836104412E+04  0.11541424429E+04  0.16535071154E+04  0.25500000920E-02 0. -1.
</event>
<event>
 5   0  0.1875284E-07  0.3106825E+04  0.7818609E-02  0.8213867E-01
        1   -1    0    0  501    0  0.00000000000E+00  0.00000000000E+00  0.18099479843E+04  0.18099479843E+04  0.50400001928E-02 0. -1.
       -1   -1    0    0    0  501  0.00000000000E+00  0.00000000000E+00 -0.13332373141E+04  0.13332373141E+04  0.50400001928E-02 0.  1.
    10030    2    1    2    0    0  0.00000000000E+00  0.00000000000E+00  0.47671067015E+03  0.31431852984E+04  0.31068248674E+04 0.  0.
        4    1    3    3  502    0  0.20532406058E+03 -0.49768343963E+03 -0.12358328956E+04  0.13480101389E+04  0.12699999809E+01 0.  1.
       -4    1    3    3    0  502 -0.20532406058E+03  0.49768343963E+03  0.17125435657E+04  0.17951751595E+04  0.12699999809E+01 0. -1.
</event>
<event>
 5   0  0.5342534E-07  0.3105334E+04  0.7818609E-02  0.8214276E-01
        2   -1    0    0  501    0  0.00000000000E+00  0.00000000000E+00  0.17397142450E+04  0.17397142450E+04  0.25500000920E-02 0. -1.
       -2   -1    0    0    0  501  0.00000000000E+00  0.00000000000E+00 -0.13857300558E+04  0.13857300558E+04  0.25500000920E-02 0.  1.
    10030    2    1    2    0    0  0.00000000000E+00  0.00000000000E+00  0.35398418917E+03  0.31254443008E+04  0.31053336811E+04 0.  0.
        3    1    3    3  502    0 -0.11495368048E+04  0.13932037284E+03 -0.86408052681E+03  0.14448114752E+04  0.10100000352E+00 0.  1.
       -3    1    3    3    0  502  0.11495368048E+04 -0.13932037284E+03  0.12180647160E+04  0.16806328256E+04  0.10100000352E+00 0. -1.
</event>
<event>
 5   0  0.5376678E-07  0.3100371E+04  0.7818609E-02  0.8215636E-01
        2   -1    0    0  501    0  0.00000000000E+00  0.00000000000E+00  0.22126358245E+04  0.22126358245E+04  0.25500000920E-02 0.  1.
       -2   -1    0    0    0  501  0.00000000000E+00  0.00000000000E+00 -0.10860690870E+04  0.10860690870E+04  0.25500000920E-02 0. -1.
    10030    2    1    2    0    0  0.00000000000E+00  0.00000000000E+00  0.11265667375E+04  0.32987049115E+04  0.31003711840E+04 0.  0.
        5    1    3    3  502    0 -0.13052575827E+04 -0.61889941515E+03  0.11616849253E+04  0.18537172921E+04  0.46999998093E+01 0.  1.
       -5    1    3    3    0  502  0.13052575827E+04  0.61889941515E+03 -0.35118187783E+02  0.14449876194E+04  0.46999998093E+01 0. -1.
</event>
<event>
 5   0  0.1727000E-07  0.3101117E+04  0.7818609E-02  0.8215432E-01
       -3   -1    0    0    0  501  0.00000000000E+00  0.00000000000E+00  0.12273210831E+04  0.12273210873E+04  0.10100000352E+00 0. -1.
        3   -1    0    0  501    0  0.00000000000E+00  0.00000000000E+00 -0.19589259365E+04  0.19589259391E+04  0.10100000352E+00 0.  1.
    10030    2    1    2    0    0  0.00000000000E+00  0.00000000000E+00 -0.73160485336E+03  0.31862470264E+04  0.31011166459E+04 0.  0.
        3    1    3    3  502    0 -0.79681038562E+03 -0.12835348631E+04 -0.72447362405E+03  0.16754792083E+04  0.10100000352E+00 0.  1.
       -3    1    3    3    0  502  0.79681038562E+03  0.12835348631E+04 -0.71312293100E+01  0.15107678180E+04  0.10100000352E+00 0. -1.
</event>
<event>
 5   0  0.5376678E-07  0.3093497E+04  0.7818609E-02  0.8217525E-01
        2   -1    0    0  501    0  0.00000000000E+00  0.00000000000E+00  0.15256824576E+04  0.15256824576E+04  0.25500000920E-02 0.  1.
       -2   -1    0    0    0  501  0.00000000000E+00  0.00000000000E+00 -0.15681056476E+04  0.15681056476E+04  0.25500000920E-02 0. -1.
    10030    2    1    2    0    0  0.00000000000E+00  0.00000000000E+00 -0.42423190071E+02  0.30937881052E+04  0.30934972302E+04 0.  0.
        5    1    3    3  502    0 -0.10542735047E+04  0.11310974534E+04 -0.60395840548E+02  0.15474313618E+04  0.46999998093E+01 0. -1.
       -5    1    3    3    0  502  0.10542735047E+04 -0.11310974534E+04  0.17972650477E+02  0.15463567435E+04  0.46999998093E+01 0.  1.
</event>
<event>
 5   0  0.5154105E-07  0.3104442E+04  0.7818609E-02  0.8214520E-01
        2   -1    0    0  501    0  0.00000000000E+00  0.00000000000E+00  0.16107692149E+04  0.16107692149E+04  0.25500000920E-02 0. -1.
       -2   -1    0    0    0  501  0.00000000000E+00  0.00000000000E+00 -0.14958006901E+04  0.14958006901E+04  0.25500000920E-02 0.  1.
    10030    2    1    2    0    0  0.00000000000E+00  0.00000000000E+00  0.11496852481E+03  0.31065699050E+04  0.31044417876E+04 0.  0.
        1    1    3    3  502    0 -0.14628177639E+04  0.49095489844E+03  0.22647033055E+03  0.15595388207E+04  0.50400001928E-02 0. -1.
       -1    1    3    3    0  502  0.14628177639E+04 -0.49095489844E+03 -0.11150180575E+03  0.15470310842E+04  0.50400001928E-02 0.  1.
</event>
<event>
 5   0  0.1875284E-07  0.3092895E+04  0.7818609E-02  0.8217690E-01
        1   -1    0    0  501    0  0.00000000000E+00  0.00000000000E+00  0.98242565954E+03  0.98242565955E+03  0.50400001928E-02 0.  1.
       -1   -1    0    0    0  501  0.00000000000E+00  0.00000000000E+00 -0.24342813722E+04  0.24342813722E+04  0.50400001928E-02 0. -1.
    10030    2    1    2    0    0  0.00000000000E+00  0.00000000000E+00 -0.14518557127E+04  0.34167070318E+04  0.30928953960E+04 0.  0.
        4    1    3    3  502    0 -0.15028972712E+04  0.92188878195E+02 -0.11154013007E+04  0.18738518275E+04  0.12699999809E+01 0. -1.
       -4    1    3    3    0  502  0.15028972712E+04 -0.92188878195E+02 -0.33645441191E+03  0.15428552042E+04  0.12699999809E+01 0.  1.
</event>
<event>
 5   0  0.1814075E-07  0.3115934E+04  0.7818609E-02  0.8211379E-01
        1   -1    0    0  501    0  0.00000000000E+00  0.00000000000E+00  0.23707646368E+04  0.23707646368E+04  0.50400001928E-02 0.  1.
       -1   -1    0    0    0  501  0.00000000000E+00  0.00000000000E+00 -0.10238302507E+04  0.10238302507E+04  0.50400001928E-02 0. -1.
    10030    2    1    2    0    0  0.00000000000E+00  0.00000000000E+00  0.13469343861E+04  0.33945948875E+04  0.31159336016E+04 0.  0.
        5    1    3    3  502    0 -0.11036645800E+04  0.46720070564E+03  0.17579226158E+04  0.21275963005E+04  0.46999998093E+01 0.  1.
       -5    1    3    3    0  502  0.11036645800E+04 -0.46720070564E+03 -0.41098822975E+03  0.12669985870E+04  0.46999998093E+01 0. -1.
</event>
<event>
 5   0  0.5376678E-07  0.3097777E+04  0.7818609E-02  0.8216348E-01
        2   -1    0    0  501    0  0.00000000000E+00  0.00000000000E+00  0.18353781068E+04  0.18353781068E+04  0.25500000920E-02 0.  1.
       -2   -1    0    0    0  501  0.00000000000E+00  0.00000000000E+00 -0.13071180390E+04  0.13071180390E+04  0.25500000920E-02 0. -1.
    10030    2    1    2    0    0  0.00000000000E+00  0.00000000000E+00  0.52826006776E+03  0.31424961458E+04  0.30977771590E+04 0.  0.
        5    1    3    3  502    0 -0.22148534008E+03  0.51990969565E+03 -0.11987947306E+04  0.13253274100E+04  0.46999998093E+01 0. -1.
       -5    1    3    3    0  502  0.22148534008E+03 -0.51990969565E+03  0.17270547984E+04  0.18171687358E+04  0.46999998093E+01 0.  1.
</event>
<event>
 5   0  0.5055900E-07  0.3094658E+04  0.7818609E-02  0.8217205E-01
       -2   -1    0    0    0  501  0.00000000000E+00  0.00000000000E+00  0.17220235213E+04  0.17220235213E+04  0.25500000920E-02 0. -1.
        2   -1    0    0  501    0  0.00000000000E+00  0.00000000000E+00 -0.13903570341E+04  0.13903570341E+04  0.25500000920E-02 0.  1.
    10030    2    1    2    0    0  0.00000000000E+00  0.00000000000E+00  0.33166648723E+03  0.31123805555E+04  0.30946583112E+04 0.  0.
        2    1    3    3  502    0  0.24733737464E+03 -0.48446575415E+03  0.16226951987E+04  0.17114387374E+04  0.25500000920E-02 0. -1.
       -2    1    3    3    0  502 -0.24733737464E+03  0.48446575415E+03 -0.12910287115E+04  0.14009418181E+04  0.25500000920E-02 0.  1.
</event>
<event>
 5   0  0.5342534E-07  0.3098338E+04  0.7818609E-02  0.8216194E-01
       -2   -1    0    0    0  501  0.00000000000E+00  0.00000000000E+00  0.18976527629E+04  0.18976527629E+04  0.25500000920E-02 0.  1.
        2   -1    0    0  501    0  0.00000000000E+00  0.00000000000E+00 -0.12646802278E+04  0.12646802278E+04  0.25500000920E-02 0. -1.
    10030    2    1    2    0    0  0.00000000000E+00  0.00000000000E+00  0.63297253516E+03  0.31623329907E+04  0.30983375726E+04 0.  0.
        3    1    3    3  502    0 -0.84917581737E+03 -0.84160468652E+03 -0.68901455514E+03  0.13799054622E+04  0.10100000352E+00 0. -1.
       -3    1    3    3    0  502  0.84917581737E+03  0.84160468652E+03  0.13219870903E+04  0.17824275285E+04  0.10100000352E+00 0.  1.
</event>
<event>
 5   0  0.1840359E-07  0.3106225E+04  0.7818609E-02  0.8214032E-01
        1   -1    0    0  501    0  0.00000000000E+00  0.00000000000E+00  0.23514821313E+04  0.23514821313E+04  0.50400001928E-02 0.  1.
       -1   -1    0    0    0  501  0.00000000000E+00  0.00000000000E+00 -0.10258033030E+04  0.10258033030E+04  0.50400001928E-02 0. -1.
    10030    2    1    2    0    0  0.00000000000E+00  0.00000000000E+00  0.13256788283E+04  0.33772854343E+04  0.31062248066E+04 0.  0.
        1    1    3    3  502    0  0.28714052826E+03  0.14235640466E+04  0.12615001283E+04  0.19236337623E+04  0.50400001928E-02 0. -1.
       -1    1    3    3    0  502 -0.28714052826E+03 -0.14235640466E+04  0.64178699957E+02  0.14536516720E+04  0.50400001928E-02 0.  1.
</event>
<event>
 5   0  0.5342534E-07  0.3192707E+04  0.7818609E-02  0.8190746E-01
        2   -1    0    0  501    0  0.00000000000E+00  0.00000000000E+00  0.14632877095E+04  0.14632877095E+04  0.25500000920E-02 0. -1.
       -2   -1    0    0    0  501  0.00000000000E+00  0.00000000000E+00 -0.17415199339E+04  0.17415199339E+04  0.25500000920E-02 0.  1.
    10030    2    1    2    0    0  0.00000000000E+00  0.00000000000E+00 -0.27823222436E+03  0.32048076434E+04  0.31927071367E+04 0.  0.
        3    1    3    3  502    0 -0.84855486455E+02 -0.10365210777E+04  0.10765761247E+04  0.14968609022E+04  0.10100000352E+00 0. -1.
       -3    1    3    3    0  502  0.84855486455E+02  0.10365210777E+04 -0.13548083490E+04  0.17079467412E+04  0.10100000352E+00 0.  1.
</event>
<event>
 5   0  0.5376678E-07  0.3094986E+04  0.7818609E-02  0.8217115E-01
       -2   -1    0    0    0  501  0.00000000000E+00  0.00000000000E+00  0.12235633527E+04  0.12235633527E+04  0.25500000920E-02 0.  1.
        2   -1    0    0  501    0  0.00000000000E+00  0.00000000000E+00 -0.19571805229E+04  0.19571805229E+04  0.25500000920E-02 0. -1.
    10030    2    1    2    0    0  0.00000000000E+00  0.00000000000E+00 -0.73361717019E+03  0.31807438756E+04  0.30949858562E+04 0.  0.
        5    1    3    3  502    0 -0.49005181800E+03  0.21951779696E+03 -0.18583582347E+04  0.19343878272E+04  0.46999998093E+01 0. -1.
       -5    1    3    3    0  502  0.49005181800E+03 -0.21951779696E+03  0.11247410645E+04  0.12463560485E+04  0.46999998093E+01 0.  1.
</event>
<event>
 5   0  0.1840359E-07  0.3117727E+04  0.7818609E-02  0.8210890E-01
        1   -1    0    0  501    0  0.00000000000E+00  0.00000000000E+00  0.18206670911E+04  0.18206670911E+04  0.50400001928E-02 0.  1.
       -1   -1    0    0    0  501  0.00000000000E+00  0.00000000000E+00 -0.13347058515E+04  0.13347058515E+04  0.50400001928E-02 0. -1.
    10030    2    1    2    0    0  0.00000000000E+00  0.00000000000E+00  0.48596123957E+03  0.31553729427E+04  0.31177267489E+04 0.  0.
        1    1    3    3  502    0  0.12448770092E+04 -0.79226204956E+03 -0.26573889642E+03  0.14993382155E+04  0.50400001928E-02 0. -1.
       -1    1    3    3    0  502 -0.12448770092E+04  0.79226204956E+03  0.75170013599E+03  0.16560347272E+04  0.50400001928E-02 0.  1.
</event>
<event>
 5   0  0.1845123E-07  0.3078889E+04  0.7818609E-02  0.8221556E-01
       -1   -1    0    0    0  501  0.00000000000E+00  0.00000000000E+00  0.18661751824E+04  0.18661751824E+04  0.50400001928E-02 0.  1.
        1   -1    0    0  501    0  0.00000000000E+00  0.00000000000E+00 -0.12699179604E+04  0.12699179604E+04  0.50400001928E-02 0. -1.
    10030    2    1    2    0    0  0.00000000000E+00  0.00000000000E+00  0.59625722198E+03  0.31360931428E+04  0.30788890083E+04 0.  0.
        2    1    3    3  502    0  0.24937595211E+03  0.34412182671E+03 -0.12089839586E+04  0.12815031835E+04  0.25500000920E-02 0. -1.
       -2    1    3    3    0  502 -0.24937595211E+03 -0.34412182671E+03  0.18052411806E+04  0.18545899593E+04  0.25500000920E-02 0.  1.
</event>
<event>
 5   0  0.5248309E-07  0.3103174E+04  0.7818609E-02  0.8214867E-01
       -2   -1    0    0    0  501  0.00000000000E+00  0.00000000000E+00  0.14456688196E+04  0.14456688196E+04  0.25500000920E-02 0. -1.
        2   -1    0    0  501    0  0.00000000000E+00  0.00000000000E+00 -0.16652649818E+04  0.16652649818E+04  0.25500000920E-02 0.  1.
    10030    2    1    2    0    0  0.00000000000E+00  0.00000000000E+00 -0.21959616226E+03  0.31109338014E+04  0.31031736403E+04 0.  0.
        4    1    3    3  502    0  0.25312060272E+03  0.36661737597E+03  0.13801695026E+04  0.14502923183E+04  0.12699999809E+01 0. -1.
       -4    1    3    3    0  502 -0.25312060272E+03 -0.36661737597E+03 -0.15997656648E+04  0.16606414830E+04  0.12699999809E+01 0.  1.
</event>
<event>
 5   0  0.5248309E-07  0.3101912E+04  0.7818609E-02  0.8215213E-01
       -2   -1    0    0    0  501  0.00000000000E+00  0.00000000000E+00  0.15615244557E+04  0.15615244557E+04  0.25500000920E-02 0.  1.
        2   -1    0    0  501    0  0.00000000000E+00  0.00000000000E+00 -0.15404586492E+04  0.15404586492E+04  0.25500000920E-02 0. -1.
    10030    2    1    2    0    0  0.00000000000E+00  0.00000000000E+00  0.21065806530E+02  0.31019831049E+04  0.31019115743E+04 0.  0.
        4    1    3    3  502    0  0.10284250832E+03 -0.13878253967E+04 -0.67419182269E+03  0.15463415340E+04  0.12699999809E+01 0. -1.
       -4    1    3    3    0  502 -0.10284250832E+03  0.13878253967E+04  0.69525762922E+03  0.15556415709E+04  0.12699999809E+01 0.  1.
</event>
<event>
 5   0  0.5055900E-07  0.3072720E+04  0.7818609E-02  0.8223265E-01
       -2   -1    0    0    0  501  0.00000000000E+00  0.00000000000E+00  0.12653391635E+04  0.12653391635E+04  0.25500000920E-02 0. -1.
        2   -1    0    0  501    0  0.00000000000E+00  0.00000000000E+00 -0.18654298774E+04  0.18654298774E+04  0.25500000920E-02 0.  1.
    10030    2    1    2    0    0  0.00000000000E+00  0.00000000000E+00 -0.60009071385E+03  0.31307690409E+04  0.30727196297E+04 0.  0.
        2    1    3    3  502    0 -0.37102567172E+03 -0.51544929153E+01 -0.18190880237E+04  0.18565472943E+04  0.25500000920E-02 0.  1.
       -2    1    3    3    0  502  0.37102567172E+03  0.51544929153E+01  0.12189973099E+04  0.12742217466E+04  0.25500000920E-02 0. -1.
</event>
<event>
 5   0  0.5154105E-07  0.3096937E+04  0.7818609E-02  0.8216579E-01
        2   -1    0    0  501    0  0.00000000000E+00  0.00000000000E+00  0.19502873089E+04  0.19502873089E+04  0.25500000920E-02 0.  1.
       -2   -1    0    0    0  501  0.00000000000E+00  0.00000000000E+00 -0.12294365518E+04  0.12294365518E+04  0.25500000920E-02 0. -1.
    10030    2    1    2    0    0  0.00000000000E+00  0.00000000000E+00  0.72085075707E+03  0.31797238607E+04  0.30969368764E+04 0.  0.
        1    1    3    3  502    0  0.85099506080E+03 -0.12817034076E+04  0.54061107891E+03  0.16307104456E+04  0.50400001928E-02 0.  1.
       -1    1    3    3    0  502 -0.85099506080E+03  0.12817034076E+04  0.18023967816E+03  0.15490134151E+04  0.50400001928E-02 0. -1.
</event>
<event>
 5   0  0.5248309E-07  0.3099619E+04  0.7818609E-02  0.8215842E-01
        2   -1    0    0  501    0  0.00000000000E+00  0.00000000000E+00  0.14646244933E+04  0.14646244933E+04  0.25500000920E-02 0.  1.
       -2   -1    0    0    0  501  0.00000000000E+00  0.00000000000E+00 -0.16399494535E+04  0.16399494535E+04  0.25500000920E-02 0. -1.
    10030    2    1    2    0    0  0.00000000000E+00  0.00000000000E+00 -0.17532496026E+03  0.31045739468E+04  0.30996194201E+04 0.  0.
        4    1    3    3  502    0 -0.39857581580E+03  0.61536729131E+03  0.12799390088E+04  0.14750542578E+04  0.12699999809E+01 0.  1.
       -4    1    3    3    0  502  0.39857581580E+03 -0.61536729131E+03 -0.14552639691E+04  0.16295196890E+04  0.12699999809E+01 0. -1.
</event>
<event>
 5   0  0.5342534E-07  0.3016457E+04  0.7818609E-02  0.8239047E-01
        2   -1    0    0  501    0  0.00000000000E+00  0.00000000000E+00  0.16375899058E+04  0.16375899058E+04  0.25500000920E-02 0. -1.
       -2   -1    0    0    0  501  0.00000000000E+00  0.00000000000E+00 -0.13890856229E+04  0.13890856229E+04  0.25500000920E-02 0.  1.
    10030    2    1    2    0    0  0.00000000000E+00  0.00000000000E+00  0.24850428285E+03  0.30266755287E+04  0.30164565930E+04 0.  0.
        3    1    3    3  502    0 -0.48536139995E+03  0.69378461091E+03  0.13766150140E+04  0.16161626409E+04  0.10100000352E+00 0. -1.
       -3    1    3    3    0  502  0.48536139995E+03 -0.69378461091E+03 -0.11281107311E+04  0.14105128878E+04  0.10100000352E+00 0.  1.
</event>
<event>
 5   0  0.1830902E-07  0.3099529E+04  0.7818609E-02  0.8215867E-01
        1   -1    0    0  501    0  0.00000000000E+00  0.00000000000E+00  0.12173348569E+04  0.12173348569E+04  0.50400001928E-02 0. -1.
       -1   -1    0    0    0  501  0.00000000000E+00  0.00000000000E+00 -0.19729745436E+04  0.19729745436E+04  0.50400001928E-02 0.  1.
    10030    2    1    2    0    0  0.00000000000E+00  0.00000000000E+00 -0.75563968671E+03  0.31903094006E+04  0.30995294377E+04 0.  0.
        3    1    3    3  502    0 -0.11657765722E+04  0.89931644024E+03 -0.87568649820E+03  0.17130767435E+04  0.10100000352E+00 0.  1.
       -3    1    3    3    0  502  0.11657765722E+04 -0.89931644024E+03  0.12004681150E+03  0.14772326571E+04  0.10100000352E+00 0. -1.
</event>
<event>
 5   0  0.1830902E-07  0.3103686E+04  0.7818609E-02  0.8214727E-01
       -1   -1    0    0    0  501  0.00000000000E+00  0.00000000000E+00  0.13521895848E+04  0.13521895848E+04  0.50400001928E-02 0. -1.
        1   -1    0    0  501    0  0.00000000000E+00  0.00000000000E+00 -0.17809753818E+04  0.17809753819E+04  0.50400001928E-02 0.  1.
    10030    2    1    2    0    0  0.00000000000E+00  0.00000000000E+00 -0.42878579704E+03  0.31331649667E+04  0.31036857844E+04 0.  0.
        3    1    3    3  502    0 -0.28504242220E+03  0.87858206293E+03  0.10444721959E+04  0.13943019049E+04  0.10100000352E+00 0. -1.
       -3    1    3    3    0  502  0.28504242220E+03 -0.87858206293E+03 -0.14732579929E+04  0.17388630618E+04  0.10100000352E+00 0.  1.
</event>
<event>
 5   0  0.1875284E-07  0.3101836E+04  0.7818609E-02  0.8215234E-01
       -1   -1    0    0    0  501  0.00000000000E+00  0.00000000000E+00  0.11700362731E+04  0.11700362731E+04  0.50400001928E-02 0.  1.
        1   -1    0    0  501    0  0.00000000000E+00  0.00000000000E+00 -0.20557879429E+04  0.20557879429E+04  0.50400001928E-02 0. -1.
    10030    2    1    2    0    0  0.00000000000E+00  0.00000000000E+00 -0.88575166977E+03  0.32258242161E+04  0.31018358842E+04 0.  0.
        4    1    3    3  502    0  0.56703326796E+02 -0.14010816260E+04 -0.11320096031E+04  0.18021354956E+04  0.12699999809E+01 0.  1.
       -4    1    3    3    0  502 -0.56703326796E+02  0.14010816260E+04  0.24625793332E+03  0.14236887205E+04  0.12699999809E+01 0. -1.
</event>
<event>
 5   0  0.1840359E-07  0.3102001E+04  0.7818609E-02  0.8215189E-01
       -1   -1    0    0    0  501  0.00000000000E+00  0.00000000000E+00  0.14139662031E+04  0.14139662031E+04  0.50400001928E-02 0. -1.
        1   -1    0    0  501    0  0.00000000000E+00  0.00000000000E+00 -0.17013151813E+04  0.17013151813E+04  0.50400001928E-02 0.  1.
    10030    2    1    2    0    0  0.00000000000E+00  0.00000000000E+00 -0.28734897825E+03  0.31152813844E+04  0.31020007525E+04 0.  0.
        1    1    3    3  502    0  0.12853498618E+04 -0.62915702935E+03  0.45691540299E+03  0.15022431629E+04  0.50400001928E-02 0. -1.
       -1    1    3    3    0  502 -0.12853498618E+04  0.62915702935E+03 -0.74426438124E+03  0.16130382215E+04  0.50400001928E-02 0.  1.
</event>
<event>
 5   0  0.5154105E-07  0.3097533E+04  0.7818609E-02  0.8216415E-01
       -2   -1    0    0    0  501  0.00000000000E+00  0.00000000000E+00  0.12187771198E+04  0.12187771198E+04  0.25500000920E-02 0.  1.
        2   -1    0    0  501    0  0.00000000000E+00  0.00000000000E+00 -0.19681023785E+04  0.19681023785E+04  0.25500000920E-02 0. -1.
    10030    2    1    2    0    0  0.00000000000E+00  0.00000000000E+00 -0.74932525875E+03  0.31868794983E+04  0.30975333079E+04 0.  0.
        1    1    3    3  502    0 -0.54029129255E+03  0.58831517973E+03 -0.17398303616E+04  0.19144291887E+04  0.50400001928E-02 0. -1.
       -1    1    3    3    0  502  0.54029129255E+03 -0.58831517973E+03  0.99050510285E+03  0.12724503096E+04  0.50400001928E-02 0.  1.
</event>
<event>
 5   0  0.5248309E-07  0.3100307E+04  0.7818609E-02  0.8215654E-01
       -2   -1    0    0    0  501  0.00000000000E+00  0.00000000000E+00  0.11528900086E+04  0.11528900086E+04  0.25500000920E-02 0. -1.
        2   -1    0    0  501    0  0.00000000000E+00  0.00000000000E+00 -0.20843064912E+04  0.20843064912E+04  0.25500000920E-02 0.  1.
    10030    2    1    2    0    0  0.00000000000E+00  0.00000000000E+00 -0.93141648266E+03  0.32371964998E+04  0.31003071645E+04 0.  0.
        4    1    3    3  502    0 -0.11263093119E+04  0.90921422875E+03  0.11352062787E+03  0.14519406756E+04  0.12699999809E+01 0. -1.
       -4    1    3    3    0  502  0.11263093119E+04 -0.90921422875E+03 -0.10449371105E+04  0.17852558241E+04  0.12699999809E+01 0.  1.
</event>
<event>
 5   0  0.5055900E-07  0.3100780E+04  0.7818609E-02  0.8215524E-01
        2   -1    0    0  501    0  0.00000000000E+00  0.00000000000E+00  0.18396110473E+04  0.18396110473E+04  0.25500000920E-02 0.  1.
       -2   -1    0    0    0  501  0.00000000000E+00  0.00000000000E+00 -0.13066402150E+04  0.13066402150E+04  0.25500000920E-02 0. -1.
    10030    2    1    2    0    0  0.00000000000E+00  0.00000000000E+00  0.53297083231E+03  0.31462512623E+04  0.31007804013E+04 0.  0.
        2    1    3    3  502    0 -0.48815312408E+03 -0.11138206906E+04  0.12422632430E+04  0.17384211137E+04  0.25500000920E-02 0.  1.
       -2    1    3    3    0  502  0.48815312408E+03  0.11138206906E+04 -0.70929241073E+03  0.14078301486E+04  0.25500000920E-02 0. -1.
</event>
<event>
 5   0  0.1814075E-07  0.3123520E+04  0.7818609E-02  0.8209313E-01
       -1   -1    0    0    0  501  0.00000000000E+00  0.00000000000E+00  0.24449457002E+04  0.24449457002E+04  0.50400001928E-02 0. -1.
        1   -1    0    0  501    0  0.00000000000E+00  0.00000000000E+00 -0.99760672985E+03  0.99760672986E+03  0.50400001928E-02 0.  1.
    10030    2    1    2    0    0  0.00000000000E+00  0.00000000000E+00  0.14473389704E+04  0.34425524301E+04  0.31235199917E+04 0.  0.
        5    1    3    3  502    0 -0.31558380291E+03 -0.45960176677E+03  0.23315253428E+04  0.23972608191E+04  0.46999998093E+01 0. -1.
       -5    1    3    3    0  502  0.31558380291E+03  0.45960176677E+03 -0.88418637246E+03  0.10452916109E+04  0.46999998093E+01 0.  1.
</event>
<event>
 5   0  0.1830902E-07  0.3111032E+04  0.7818609E-02  0.8212717E-01
       -1   -1    0    0    0  501  0.00000000000E+00  0.00000000000E+00  0.15454610326E+04  0.15454610326E+04  0.50400001928E-02 0.  1.
        1   -1    0    0  501    0  0.00000000000E+00  0.00000000000E+00 -0.15656361385E+04  0.15656361385E+04  0.50400001928E-02 0. -1.
    10030    2    1    2    0    0  0.00000000000E+00  0.00000000000E+00 -0.20175105853E+02  0.31110971711E+04  0.31110317538E+04 0.  0.
        3    1    3    3  502    0  0.13604231230E+04  0.64541577325E+03 -0.40037391578E+03  0.15580795476E+04  0.10100000352E+00 0. -1.
       -3    1    3    3    0  502 -0.13604231230E+04 -0.64541577325E+03  0.38019880992E+03  0.15530176236E+04  0.10100000352E+00 0.  1.
</event>
<event>
 5   0  0.5154105E-07  0.3113990E+04  0.7818609E-02  0.8211909E-01
       -2   -1    0    0    0  501  0.00000000000E+00  0.00000000000E+00  0.21490242295E+04  0.21490242295E+04  0.25500000920E-02 0.  1.
        2   -1    0    0  501    0  0.00000000000E+00  0.00000000000E+00 -0.11280624561E+04  0.11280624561E+04  0.25500000920E-02 0. -1.
    10030    2    1    2    0    0  0.00000000000E+00  0.00000000000E+00  0.10209617734E+04  0.32770866855E+04  0.31139900773E+04 0.  0.
        1    1    3    3  502    0  0.77789936067E+03  0.88939731102E+03  0.15775286404E+04  0.19709773219E+04  0.50400001928E-02 0.  1.
       -1    1    3    3    0  502 -0.77789936067E+03 -0.88939731102E+03 -0.55656686701E+03  0.13061093636E+04  0.50400001928E-02 0. -1.
</event>
<event>
 5   0  0.1875284E-07  0.3093752E+04  0.7818609E-02  0.8217455E-01
        1   -1    0    0  501    0  0.00000000000E+00  0.00000000000E+00  0.17110075859E+04  0.17110075859E+04  0.50400001928E-02 0. -1.
       -1   -1    0    0    0  501  0.00000000000E+00  0.00000000000E+00 -0.13984886858E+04  0.13984886858E+04  0.50400001928E-02 0.  1.
    10030    2    1    2    0    0  0.00000000000E+00  0.00000000000E+00  0.31251890006E+03  0.31094962718E+04  0.30937516062E+04 0.  0.
        4    1    3    3  502    0 -0.54527058125E+03  0.54217253438E+03  0.15053093330E+04  0.16903339507E+04  0.12699999809E+01 0. -1.
       -4    1    3    3    0  502  0.54527058125E+03 -0.54217253438E+03 -0.11927904329E+04  0.14191623211E+04  0.12699999809E+01 0.  1.
</event>
<event>
 5   0  0.1830902E-07  0.3102107E+04  0.7818609E-02  0.8215160E-01
       -1   -1    0    0    0  501  0.00000000000E+00  0.00000000000E+00  0.14288161443E+04  0.14288161443E+04  0.50400001928E-02 0.  1.
        1   -1    0    0  501    0  0.00000000000E+00  0.00000000000E+00 -0.16837485552E+04  0.16837485552E+04  0.50400001928E-02 0. -1.
    10030    2    1    2    0    0  0.00000000000E+00  0.00000000000E+00 -0.25493241089E+03  0.31125646995E+04  0.31021071024E+04 0.  0.
        3    1    3    3  502    0  0.38810051827E+03  0.79387546629E+03  0.11515493696E+04  0.14515254834E+04  0.10100000352E+00 0.  1.
       -3    1    3    3    0  502 -0.38810051827E+03 -0.79387546629E+03 -0.14064817805E+04  0.16610392161E+04  0.10100000352E+00 0. -1.
</event>
<event>
 5   0  0.1840359E-07  0.3100469E+04  0.7818609E-02  0.8215609E-01
       -1   -1    0    0    0  501  0.00000000000E+00  0.00000000000E+00  0.18140459006E+04  0.18140459006E+04  0.50400001928E-02 0.  1.
        1   -1    0    0  501    0  0.00000000000E+00  0.00000000000E+00 -0.13247883238E+04  0.13247883238E+04  0.50400001928E-02 0. -1.
    10030    2    1    2    0    0  0.00000000000E+00  0.00000000000E+00  0.48925757677E+03  0.31388342245E+04  0.31004688859E+04 0.  0.
        1    1    3    3  502    0 -0.15764579026E+03  0.68054217268E+03  0.16456743597E+04  0.17878014270E+04  0.50400001928E-02 0.  1.
       -1    1    3    3    0  502  0.15764579026E+03 -0.68054217268E+03 -0.11564167830E+04  0.13510327975E+04  0.50400001928E-02 0. -1.
</event>
<event>
 5   0  0.1814075E-07  0.3092505E+04  0.7818609E-02  0.8217798E-01
       -1   -1    0    0    0  501  0.00000000000E+00  0.00000000000E+00  0.11056636755E+04  0.11056636755E+04  0.50400001928E-02 0. -1.
        1   -1    0    0  501    0  0.00000000000E+00  0.00000000000E+00 -0.21624091050E+04  0.21624091050E+04  0.50400001928E-02 0.  1.
    10030    2    1    2    0    0  0.00000000000E+00  0.00000000000E+00 -0.10567454295E+04  0.32680727805E+04  0.30925052621E+04 0.  0.
        5    1    3    3  502    0  0.10447204300E+02  0.69676474475E+03  0.93031132187E+03  0.11623646154E+04  0.46999998093E+01 0. -1.
       -5    1    3    3    0  502 -0.10447204300E+02 -0.69676474475E+03 -0.19870567513E+04  0.21057081651E+04  0.46999998093E+01 0.  1.
</event>
<event>
 5   0  0.1830902E-07  0.3107352E+04  0.7818609E-02  0.8213723E-01
       -1   -1    0    0    0  501  0.00000000000E+00  0.00000000000E+00  0.17249455754E+04  0.17249455755E+04  0.50400001928E-02 0.  1.
        1   -1    0    0  501    0  0.00000000000E+00  0.00000000000E+00 -0.13994114697E+04  0.13994114697E+04  0.50400001928E-02 0. -1.
    10030    2    1    2    0    0  0.00000000000E+00  0.00000000000E+00  0.32553410573E+03  0.31243570452E+04  0.31073516846E+04 0.  0.
        3    1    3    3  502    0 -0.40924565312E+03  0.13617173191E+04  0.79241497126E+03  0.16277830195E+04  0.10100000352E+00 0.  1.
       -3    1    3    3    0  502  0.40924565312E+03 -0.13617173191E+04 -0.46688086554E+03  0.14965740257E+04  0.10100000352E+00 0. -1.
</event>
<event>
 5   0  0.5248309E-07  0.3099645E+04  0.7818609E-02  0.8215835E-01
        2   -1    0    0  501    0  0.00000000000E+00  0.00000000000E+00  0.19264178188E+04  0.19264178188E+04  0.25500000920E-02 0.  1.
       -2   -1    0    0    0  501  0.00000000000E+00  0.00000000000E+00 -0.12468477076E+04  0.12468477076E+04  0.25500000920E-02 0. -1.
    10030    2    1    2    0    0  0.00000000000E+00  0.00000000000E+00  0.67957011123E+03  0.31732655264E+04  0.30996449095E+04 0.  0.
        4    1    3    3  502    0 -0.81778751303E+03  0.81179525149E+03  0.14008182562E+04  0.18138581385E+04  0.12699999809E+01 0.  1.
       -4    1    3    3    0  502  0.81778751303E+03 -0.81179525149E+03 -0.72124814496E+03  0.13594073879E+04  0.12699999809E+01 0. -1.
</event>
<event>
 5   0  0.5154105E-07  0.3105950E+04  0.7818609E-02  0.8214107E-01
       -2   -1    0    0    0  501  0.00000000000E+00  0.00000000000E+00  0.16191569772E+04  0.16191569772E+04  0.25500000920E-02 0. -1.
        2   -1    0    0  501    0  0.00000000000E+00  0.00000000000E+00 -0.14894977613E+04  0.14894977613E+04  0.25500000920E-02 0.  1.
    10030    2    1    2    0    0  0.00000000000E+00  0.00000000000E+00  0.12965921594E+03  0.31086547384E+04  0.31059495763E+04 0.  0.
        1    1    3    3  502    0  0.51648566728E+03  0.77288943109E+02  0.15286353540E+04  0.16153814010E+04  0.50400001928E-02 0. -1.
       -1    1    3    3    0  502 -0.51648566728E+03 -0.77288943109E+02 -0.13989761381E+04  0.14932733374E+04  0.50400001928E-02 0.  1.
</event>
<event>
 5   0  0.1875284E-07  0.3099062E+04  0.7818609E-02  0.8215995E-01
        1   -1    0    0  501    0  0.00000000000E+00  0.00000000000E+00  0.22604156212E+04  0.22604156212E+04  0.50400001928E-02 0.  1.
       -1   -1    0    0    0  501  0.00000000000E+00  0.00000000000E+00 -0.10622143267E+04  0.10622143267E+04  0.50400001928E-02 0. -1.
    10030    2    1    2    0    0  0.00000000000E+00  0.00000000000E+00  0.11982012945E+04  0.33226299480E+04  0.30990617014E+04 0.  0.
        4    1    3    3  502    0  0.14284624654E+04  0.59720043536E+03  0.66597738540E+03  0.16854319523E+04  0.12699999809E+01 0.  1.
       -4    1    3    3    0  502 -0.14284624654E+04 -0.59720043536E+03  0.53222390911E+03  0.16371979957E+04  0.12699999809E+01 0. -1.
</event>
<event>
 5   0  0.5376678E-07  0.3107996E+04  0.7818609E-02  0.8213547E-01
       -2   -1    0    0    0  501  0.00000000000E+00  0.00000000000E+00  0.16088860446E+04  0.16088860446E+04  0.25500000920E-02 0. -1.
        2   -1    0    0  501    0  0.00000000000E+00  0.00000000000E+00 -0.15009822822E+04  0.15009822822E+04  0.25500000920E-02 0.  1.
    10030    2    1    2    0    0  0.00000000000E+00  0.00000000000E+00  0.10790376240E+03  0.31098683267E+04  0.31079957831E+04 0.  0.
        5    1    3    3  502    0  0.10637194812E+04  0.47070834995E+03  0.10850201311E+04  0.15907093576E+04  0.46999998093E+01 0. -1.
       -5    1    3    3    0  502 -0.10637194812E+04 -0.47070834995E+03 -0.97711636872E+03  0.15191589691E+04  0.46999998093E+01 0.  1.
</event>
<event>
 5   0  0.1875284E-07  0.3096969E+04  0.7818609E-02  0.8216570E-01
        1   -1    0    0  501    0  0.00000000000E+00  0.00000000000E+00  0.23613811477E+04  0.23613811477E+04  0.50400001928E-02 0.  1.
       -1   -1    0    0    0  501  0.00000000000E+00  0.00000000000E+00 -0.10154245257E+04  0.10154245257E+04  0.50400001928E-02 0. -1.
    10030    2    1    2    0    0  0.00000000000E+00  0.00000000000E+00  0.13459566220E+04  0.33768056734E+04  0.30969690550E+04 0.  0.
        4    1    3    3  502    0 -0.95105623125E+03 -0.90863593327E+03 -0.21796880147E+03  0.13332813752E+04  0.12699999809E+01 0. -1.
       -4    1    3    3    0  502  0.95105623125E+03  0.90863593327E+03  0.15639254234E+04  0.20435242982E+04  0.12699999809E+01 0.  1.
</event>
<event>
 5   0  0.1840359E-07  0.3102704E+04  0.7818609E-02  0.8214996E-01
       -1   -1    0    0    0  501  0.00000000000E+00  0.00000000000E+00  0.11174544804E+04  0.11174544804E+04  0.50400001928E-02 0.  1.
        1   -1    0    0  501    0  0.00000000000E+00  0.00000000000E+00 -0.21537281102E+04  0.21537281102E+04  0.50400001928E-02 0. -1.
    10030    2    1    2    0    0  0.00000000000E+00  0.00000000000E+00 -0.10362736298E+04  0.32711825906E+04  0.31027040634E+04 0.  0.
        1    1    3    3  502    0  0.11224765254E+04  0.67776423098E+03 -0.13922373149E+04  0.19124964428E+04  0.50400001928E-02 0. -1.
       -1    1    3    3    0  502 -0.11224765254E+04 -0.67776423098E+03  0.35596368501E+03  0.13586861477E+04  0.50400001928E-02 0.  1.
</event>
<event>
 5   0  0.1840359E-07  0.3094886E+04  0.7818609E-02  0.8217143E-01
       -1   -1    0    0    0  501  0.00000000000E+00  0.00000000000E+00  0.17753541449E+04  0.17753541449E+04  0.50400001928E-02 0.  1.
        1   -1    0    0  501    0  0.00000000000E+00  0.00000000000E+00 -0.13487897784E+04  0.13487897784E+04  0.50400001928E-02 0. -1.
    10030    2    1    2    0    0  0.00000000000E+00  0.00000000000E+00  0.42656436646E+03  0.31241439233E+04  0.30948857967E+04 0.  0.
        1    1    3    3  502    0  0.51479750281E+03  0.89382644112E+03 -0.95115552097E+03  0.14030819651E+04  0.50400001928E-02 0. -1.
       -1    1    3    3    0  502 -0.51479750281E+03 -0.89382644112E+03  0.13777198874E+04  0.17210619582E+04  0.50400001928E-02 0.  1.
</event>
<event>
 5   0  0.1830902E-07  0.3101181E+04  0.7818609E-02  0.8215414E-01
        1   -1    0    0  501    0  0.00000000000E+00  0.00000000000E+00  0.19442163800E+04  0.19442163800E+04  0.50400001928E-02 0.  1.
       -1   -1    0    0    0  501  0.00000000000E+00  0.00000000000E+00 -0.12366580604E+04  0.12366580604E+04  0.50400001928E-02 0. -1.
    10030    2    1    2    0    0  0.00000000000E+00  0.00000000000E+00  0.70755831959E+03  0.31808744403E+04  0.31011809734E+04 0.  0.
        3    1    3    3  502    0  0.58415726746E+03 -0.10787507412E+04 -0.61895228072E+03  0.13740614291E+04  0.10100000352E+00 0. -1.
       -3    1    3    3    0  502 -0.58415726746E+03  0.10787507412E+04  0.13265106003E+04  0.18068130113E+04  0.10100000352E+00 0.  1.
</event>
<event>
 5   0  0.5376678E-07  0.3102309E+04  0.7818609E-02  0.8215105E-01
        2   -1    0    0  501    0  0.00000000000E+00  0.00000000000E+00  0.28040968624E+04  0.28040968624E+04  0.25500000920E-02 0.  1.
       -2   -1    0    0    0  501  0.00000000000E+00  0.00000000000E+00 -0.85805887593E+03  0.85805887593E+03  0.25500000920E-02 0. -1.
    10030    2    1    2    0    0  0.00000000000E+00  0.00000000000E+00  0.19460379865E+04  0.36621557383E+04  0.31023089477E+04 0.  0.
        5    1    3    3  502    0  0.84480102349E+03  0.19730718388E+02 -0.56247945460E+03  0.10151272321E+04  0.46999998093E+01 0. -1.
       -5    1    3    3    0  502 -0.84480102349E+03 -0.19730718388E+02  0.25085174411E+04  0.26470285062E+04  0.46999998093E+01 0.  1.
</event>
<event>
 5   0  0.5154105E-07  0.3091019E+04  0.7818609E-02  0.8218207E-01
       -2   -1    0    0    0  501  0.00000000000E+00  0.00000000000E+00  0.16080157233E+04  0.16080157233E+04  0.25500000920E-02 0.  1.
        2   -1    0    0  501    0  0.00000000000E+00  0.00000000000E+00 -0.14854325527E+04  0.14854325527E+04  0.25500000920E-02 0. -1.
    10030    2    1    2    0    0  0.00000000000E+00  0.00000000000E+00  0.12258317057E+03  0.30934482760E+04  0.30910185380E+04 0.  0.
        1    1    3    3  502    0 -0.13990237040E+04  0.43717981356E+03 -0.42920119621E+03  0.15272875239E+04  0.50400001928E-02 0. -1.
       -1    1    3    3    0  502  0.13990237040E+04 -0.43717981356E+03  0.55178436678E+03  0.15661607521E+04  0.50400001928E-02 0.  1.
</event>
<event>
 5   0  0.1875284E-07  0.3096112E+04  0.7818609E-02  0.8216806E-01
       -1   -1    0    0    0  501  0.00000000000E+00  0.00000000000E+00  0.34411966860E+04  0.34411966860E+04  0.50400001928E-02 0.  1.
        1   -1    0    0  501    0  0.00000000000E+00  0.00000000000E+00 -0.69640800250E+03  0.69640800252E+03  0.50400001928E-02 0. -1.
    10030    2    1    2    0    0  0.00000000000E+00  0.00000000000E+00  0.27447886835E+04  0.41376046885E+04  0.30961116972E+04 0.  0.
        4    1    3    3  502    0 -0.49385393140E+02  0.89397124622E+03 -0.31529512715E+03  0.94922923271E+03  0.12699999809E+01 0. -1.
       -4    1    3    3    0  502  0.49385393140E+02 -0.89397124622E+03  0.30600838106E+04  0.31883754558E+04  0.12699999809E+01 0.  1.
</event>
<event>
 5   0  0.1830902E-07  0.3098409E+04  0.7818609E-02  0.8216175E-01
        1   -1    0    0  501    0  0.00000000000E+00  0.00000000000E+00  0.22876921998E+04  0.22876921998E+04  0.50400001928E-02 0. -1.
       -1   -1    0    0    0  501  0.00000000000E+00  0.00000000000E+00 -0.10491071835E+04  0.10491071835E+04  0.50400001928E-02 0.  1.
    10030    2    1    2    0    0  0.00000000000E+00  0.00000000000E+00  0.12385850163E+04  0.33367993833E+04  0.30984088306E+04 0.  0.
        3    1    3    3  502    0  0.22116269201E+03 -0.13632429894E+04  0.13752166506E+04  0.19489908236E+04  0.10100000352E+00 0. -1.
       -3    1    3    3    0  502 -0.22116269201E+03  0.13632429894E+04 -0.13663163432E+03  0.13878085596E+04  0.10100000352E+00 0.  1.
</event>
<event>
 5   0  0.5376678E-07  0.3095255E+04  0.7818609E-02  0.8217041E-01
        2   -1    0    0  501    0  0.00000000000E+00  0.00000000000E+00  0.14741431083E+04  0.14741431083E+04  0.25500000920E-02 0. -1.
       -2   -1    0    0    0  501  0.00000000000E+00  0.00000000000E+00 -0.16247751522E+04  0.16247751522E+04  0.25500000920E-02 0.  1.
    10030    2    1    2    0    0  0.00000000000E+00  0.00000000000E+00 -0.15063204398E+03  0.30989182605E+04  0.30952551385E+04 0.  0.
        5    1    3    3  502    0  0.61849387126E+03 -0.13825892490E+04 -0.39356215597E+03  0.15649284204E+04  0.46999998093E+01 0. -1.
       -5    1    3    3    0  502 -0.61849387126E+03  0.13825892490E+04  0.24293011199E+03  0.15339898401E+04  0.46999998093E+01 0.  1.
</event>
<event>
 5   0  0.1830902E-07  0.3097237E+04  0.7818609E-02  0.8216497E-01
       -1   -1    0    0    0  501  0.00000000000E+00  0.00000000000E+00  0.10738428840E+04  0.10738428840E+04  0.50400001928E-02 0.  1.
        1   -1    0    0  501    0  0.00000000000E+00  0.00000000000E+00 -0.22333058351E+04  0.22333058351E+04  0.50400001928E-02 0. -1.
    10030    2    1    2    0    0  0.00000000000E+00  0.00000000000E+00 -0.11594629511E+04  0.33071487191E+04  0.30972372068E+04 0.  0.
        3    1    3    3  502    0  0.12669935005E+04  0.88841028296E+03 -0.64445484071E+03  0.16762659136E+04  0.10100000352E+00 0. -1.
       -3    1    3    3    0  502 -0.12669935005E+04 -0.88841028296E+03 -0.51500811035E+03  0.16308828055E+04  0.10100000352E+00 0.  1.
</event>
<event>
 5   0  0.1830902E-07  0.3097911E+04  0.7818609E-02  0.8216311E-01
       -1   -1    0    0    0  501  0.00000000000E+00  0.00000000000E+00  0.20539638852E+04  0.20539638852E+04  0.50400001928E-02 0.  1.
        1   -1    0    0  501    0  0.00000000000E+00  0.00000000000E+00 -0.11681138331E+04  0.11681138331E+04  0.50400001928E-02 0. -1.
    10030    2    1    2    0    0  0.00000000000E+00  0.00000000000E+00  0.88585005205E+03  0.32220777183E+04  0.30979113138E+04 0.  0.
        3    1    3    3  502    0 -0.10297653950E+04  0.38381743838E+03  0.15782487363E+04  0.19231748955E+04  0.10100000352E+00 0.  1.
       -3    1    3    3    0  502  0.10297653950E+04 -0.38381743838E+03 -0.69239868429E+03  0.12989028228E+04  0.10100000352E+00 0. -1.
</event>
<event>
 5   0  0.5248309E-07  0.3115628E+04  0.7818609E-02  0.8211462E-01
        2   -1    0    0  501    0  0.00000000000E+00  0.00000000000E+00  0.15826499094E+04  0.15826499094E+04  0.25500000920E-02 0. -1.
       -2   -1    0    0    0  501  0.00000000000E+00  0.00000000000E+00 -0.15333677184E+04  0.15333677184E+04  0.25500000920E-02 0.  1.
    10030    2    1    2    0    0  0.00000000000E+00  0.00000000000E+00  0.49282191019E+02  0.31160176277E+04  0.31156278857E+04 0.  0.
        4    1    3    3  502    0 -0.69214215456E+03 -0.96249336740E+03  0.10353754624E+04  0.15739943474E+04  0.12699999809E+01 0. -1.
       -4    1    3    3    0  502  0.69214215456E+03  0.96249336740E+03 -0.98609327141E+03  0.15420232804E+04  0.12699999809E+01 0.  1.
</event>
<event>
 5   0  0.5055900E-07  0.3110450E+04  0.7818609E-02  0.8212876E-01
       -2   -1    0    0    0  501  0.00000000000E+00  0.00000000000E+00  0.18270615206E+04  0.18270615206E+04  0.25500000920E-02 0.  1.
        2   -1    0    0  501    0  0.00000000000E+00  0.00000000000E+00 -0.13238330947E+04  0.13238330947E+04  0.25500000920E-02 0. -1.
    10030    2    1    2    0    0  0.00000000000E+00  0.00000000000E+00  0.50322842595E+03  0.31508946153E+04  0.31104498112E+04 0.  0.
        2    1    3    3  502    0  0.98818532886E+02  0.53195922923E+03 -0.12254185979E+04  0.13395508442E+04  0.25500000920E-02 0. -1.
       -2    1    3    3    0  502 -0.98818532886E+02 -0.53195922923E+03  0.17286470238E+04  0.18113437711E+04  0.25500000920E-02 0.  1.
</event>
<event>
 5   0  0.1845123E-07  0.3104711E+04  0.7818609E-02  0.8214446E-01
        1   -1    0    0  501    0  0.00000000000E+00  0.00000000000E+00  0.18555512259E+04  0.18555512259E+04  0.50400001928E-02 0.  1.
       -1   -1    0    0    0  501  0.00000000000E+00  0.00000000000E+00 -0.12987017079E+04  0.12987017080E+04  0.50400001928E-02 0. -1.
    10030    2    1    2    0    0  0.00000000000E+00  0.00000000000E+00  0.55684951791E+03  0.31542529338E+04  0.31047109664E+04 0.  0.
        2    1    3    3  502    0 -0.13915543685E+03 -0.15678806674E+03 -0.12842548149E+04  0.13012521520E+04  0.25500000920E-02 0. -1.
       -2    1    3    3    0  502  0.13915543685E+03  0.15678806674E+03  0.18411043328E+04  0.18530007819E+04  0.25500000920E-02 0.  1.
</event>
<event>
 5   0  0.5055900E-07  0.3097250E+04  0.7818609E-02  0.8216493E-01
       -2   -1    0    0    0  501  0.00000000000E+00  0.00000000000E+00  0.12067046574E+04  0.12067046574E+04  0.25500000920E-02 0. -1.
        2   -1    0    0  501    0  0.00000000000E+00  0.00000000000E+00 -0.19874292529E+04  0.19874292529E+04  0.25500000920E-02 0.  1.
    10030    2    1    2    0    0  0.00000000000E+00  0.00000000000E+00 -0.78072459549E+03  0.31941339103E+04  0.30972504812E+04 0.  0.
        2    1    3    3  502    0  0.14255625604E+03 -0.24810864603E+03 -0.19599291347E+04  0.19807075502E+04  0.25500000920E-02 0.  1.
       -2    1    3    3    0  502 -0.14255625604E+03  0.24810864603E+03  0.11792045392E+04  0.12134263602E+04  0.25500000920E-02 0. -1.
</event>
<event>
 5   0  0.1845123E-07  0.3087078E+04  0.7818609E-02  0.8219293E-01
       -1   -1    0    0    0  501  0.00000000000E+00  0.00000000000E+00  0.13229863878E+04  0.13229863878E+04  0.50400001928E-02 0. -1.
        1   -1    0    0  501    0  0.00000000000E+00  0.00000000000E+00 -0.18008595741E+04  0.18008595741E+04  0.50400001928E-02 0.  1.
    10030    2    1    2    0    0  0.00000000000E+00  0.00000000000E+00 -0.47787318630E+03  0.31238459619E+04  0.30870780378E+04 0.  0.
        2    1    3    3  502    0 -0.38642734757E+03 -0.40542263267E+03  0.12165334149E+04  0.13392711285E+04  0.25500000920E-02 0. -1.
       -2    1    3    3    0  502  0.38642734757E+03  0.40542263267E+03 -0.16944066012E+04  0.17845748334E+04  0.25500000920E-02 0.  1.
</event>
<event>
 5   0  0.1727000E-07  0.3099632E+04  0.7818609E-02  0.8215839E-01
       -3   -1    0    0    0  501  0.00000000000E+00  0.00000000000E+00  0.14612120612E+04  0.14612120647E+04  0.10100000352E+00 0.  1.
        3   -1    0    0  501    0  0.00000000000E+00  0.00000000000E+00 -0.16437931593E+04  0.16437931624E+04  0.10100000352E+00 0. -1.
    10030    2    1    2    0    0  0.00000000000E+00  0.00000000000E+00 -0.18258109809E+03  0.31050052271E+04  0.30996324948E+04 0.  0.
        4    1    3    3  502    0 -0.55992635248E+03  0.50319914850E+03  0.12657538401E+04  0.14727054356E+04  0.12699999809E+01 0.  1.
       -4    1    3    3    0  502  0.55992635248E+03 -0.50319914850E+03 -0.14483349382E+04  0.16322997915E+04  0.12699999809E+01 0. -1.
</event>
<event>
 5   0  0.1840359E-07  0.3102188E+04  0.7818609E-02  0.8215138E-01
        1   -1    0    0  501    0  0.00000000000E+00  0.00000000000E+00  0.15660516738E+04  0.15660516738E+04  0.50400001928E-02 0. -1.
       -1   -1    0    0    0  501  0.00000000000E+00  0.00000000000E+00 -0.15362791535E+04  0.15362791535E+04  0.50400001928E-02 0.  1.
    10030    2    1    2    0    0  0.00000000000E+00  0.00000000000E+00  0.29772520389E+02  0.31023308273E+04  0.31021879632E+04 0.  0.
        1    1    3    3  502    0  0.12109490330E+04  0.36327736945E+03  0.91355133195E+03  0.15597897434E+04  0.50400001928E-02 0. -1.
       -1    1    3    3    0  502 -0.12109490330E+04 -0.36327736945E+03 -0.88377881156E+03  0.15425410839E+04  0.50400001928E-02 0.  1.
</event>
<event>
 5   0  0.5055900E-07  0.3098198E+04  0.7818609E-02  0.8216233E-01
       -2   -1    0    0    0  501  0.00000000000E+00  0.00000000000E+00  0.18628420776E+04  0.18628420776E+04  0.25500000920E-02 0.  1.
        2   -1    0    0  501    0  0.00000000000E+00  0.00000000000E+00 -0.12881971604E+04  0.12881971604E+04  0.25500000920E-02 0. -1.
    10030    2    1    2    0    0  0.00000000000E+00  0.00000000000E+00  0.57464491711E+03  0.31510392380E+04  0.30981981051E+04 0.  0.
        2    1    3    3  502    0  0.67415001389E+03 -0.13812884792E+04  0.90970770484E+02  0.15397115916E+04  0.25500000920E-02 0. -1.
       -2    1    3    3    0  502 -0.67415001389E+03  0.13812884792E+04  0.48367414663E+03  0.16113276464E+04  0.25500000920E-02 0.  1.
</event>
<event>
 5   0  0.5248309E-07  0.3099782E+04  0.7818609E-02  0.8215798E-01
       -2   -1    0    0    0  501  0.00000000000E+00  0.00000000000E+00  0.11388976666E+04  0.11388976666E+04  0.25500000920E-02 0.  1.
        2   -1    0    0  501    0  0.00000000000E+00  0.00000000000E+00 -0.21091994332E+04  0.21091994332E+04  0.25500000920E-02 0. -1.
    10030    2    1    2    0    0  0.00000000000E+00  0.00000000000E+00 -0.97030176653E+03  0.32480970998E+04  0.30997821297E+04 0.  0.
        4    1    3    3  502    0  0.69634821004E+03 -0.13651085655E+04 -0.24224361968E+03  0.15514850335E+04  0.12699999809E+01 0.  1.
       -4    1    3    3    0  502 -0.69634821004E+03  0.13651085655E+04 -0.72805814686E+03  0.16966120662E+04  0.12699999809E+01 0. -1.
</event>
<event>
 5   0  0.5154105E-07  0.3101985E+04  0.7818609E-02  0.8215193E-01
        2   -1    0    0  501    0  0.00000000000E+00  0.00000000000E+00  0.17558037877E+04  0.17558037877E+04  0.25500000920E-02 0. -1.
       -2   -1    0    0    0  501  0.00000000000E+00  0.00000000000E+00 -0.13700717819E+04  0.13700717819E+04  0.25500000920E-02 0.  1.
    10030    2    1    2    0    0  0.00000000000E+00  0.00000000000E+00  0.38573200578E+03  0.31258755695E+04  0.31019846705E+04 0.  0.
        1    1    3    3  502    0 -0.30742785379E+03 -0.42042974645E+03  0.16650435680E+04  0.17446040067E+04  0.50400001928E-02 0. -1.
       -1    1    3    3    0  502  0.30742785379E+03  0.42042974645E+03 -0.12793115622E+04  0.13812715628E+04  0.50400001928E-02 0.  1.
</event>
<event>
 5   0  0.5154105E-07  0.3106104E+04  0.7818609E-02  0.8214065E-01
        2   -1    0    0  501    0  0.00000000000E+00  0.00000000000E+00  0.20231822067E+04  0.20231822067E+04  0.25500000920E-02 0.  1.
       -2   -1    0    0    0  501  0.00000000000E+00  0.00000000000E+00 -0.11921664503E+04  0.11921664503E+04  0.25500000920E-02 0. -1.
    10030    2    1    2    0    0  0.00000000000E+00  0.00000000000E+00  0.83101575638E+03  0.32153486570E+04  0.31061036361E+04 0.  0.
        1    1    3    3  502    0 -0.33256191545E+03  0.10838910168E+04 -0.68321433163E+03  0.13237065335E+04  0.50400001928E-02 0. -1.
       -1    1    3    3    0  502  0.33256191545E+03 -0.10838910168E+04  0.15142300880E+04  0.18916421235E+04  0.50400001928E-02 0.  1.
</event>
<event>
 5   0  0.1845123E-07  0.3104598E+04  0.7818609E-02  0.8214477E-01
       -1   -1    0    0    0  501  0.00000000000E+00  0.00000000000E+00  0.83983721907E+03  0.83983721909E+03  0.50400001928E-02 0. -1.
        1   -1    0    0  501    0  0.00000000000E+00  0.00000000000E+00 -0.28691657670E+04  0.28691657670E+04  0.50400001928E-02 0.  1.
    10030    2    1    2    0    0  0.00000000000E+00  0.00000000000E+00 -0.20293285479E+04  0.37090029861E+04  0.31045980087E+04 0.  0.
        2    1    3    3  502    0 -0.71996179416E+03 -0.15586265111E+03  0.61772328079E+03  0.96136372029E+03  0.25500000920E-02 0. -1.
       -2    1    3    3    0  502  0.71996179416E+03  0.15586265111E+03 -0.26470518287E+04  0.27476392658E+04  0.25500000920E-02 0.  1.
</event>
<event>
 5   0  0.5376678E-07  0.3095988E+04  0.7818609E-02  0.8216840E-01
       -2   -1    0    0    0  501  0.00000000000E+00  0.00000000000E+00  0.10385270877E+04  0.10385270877E+04  0.25500000920E-02 0. -1.
        2   -1    0    0  501    0  0.00000000000E+00  0.00000000000E+00 -0.23073884099E+04  0.23073884099E+04  0.25500000920E-02 0.  1.
    10030    2    1    2    0    0  0.00000000000E+00  0.00000000000E+00 -0.12688613222E+04  0.33459154975E+04  0.30959879622E+04 0.  0.
        5    1    3    3  502    0 -0.18547407835E+03 -0.12985652167E+04 -0.15227265233E+04  0.20098234775E+04  0.46999998093E+01 0.  1.
       -5    1    3    3    0  502  0.18547407835E+03  0.12985652167E+04  0.25386520117E+03  0.13360920201E+04  0.46999998093E+01 0. -1.
</event>
<event>
 5   0  0.5154105E-07  0.3106301E+04  0.7818609E-02  0.8214011E-01
       -2   -1    0    0    0  501  0.00000000000E+00  0.00000000000E+00  0.14120624686E+04  0.14120624686E+04  0.25500000920E-02 0. -1.
        2   -1    0    0  501    0  0.00000000000E+00  0.00000000000E+00 -0.17083360523E+04  0.17083360523E+04  0.25500000920E-02 0.  1.
    10030    2    1    2    0    0  0.00000000000E+00  0.00000000000E+00 -0.29627358363E+03  0.31203985209E+04  0.31063014813E+04 0.  0.
        1    1    3    3  502    0 -0.35402742862E+03  0.13545081647E+04 -0.82368364605E+03  0.16243406469E+04  0.50400001928E-02 0.  1.
       -1    1    3    3    0  502  0.35402742862E+03 -0.13545081647E+04  0.52741006241E+03  0.14960578740E+04  0.50400001928E-02 0. -1.
</event>
<event>
 5   0  0.5376678E-07  0.3082346E+04  0.7818609E-02  0.8220600E-01
       -2   -1    0    0    0  501  0.00000000000E+00  0.00000000000E+00  0.10320991709E+04  0.10320991709E+04  0.25500000920E-02 0.  1.
        2   -1    0    0  501    0  0.00000000000E+00  0.00000000000E+00 -0.23013432259E+04  0.23013432259E+04  0.25500000920E-02 0. -1.
    10030    2    1    2    0    0  0.00000000000E+00  0.00000000000E+00 -0.12692440550E+04  0.33334423968E+04  0.30823461424E+04 0.  0.
        5    1    3    3  502    0  0.88769948786E+02 -0.30930809923E+03 -0.22645986346E+04  0.22873523274E+04  0.46999998093E+01 0. -1.
       -5    1    3    3    0  502 -0.88769948786E+02  0.30930809923E+03  0.99535457961E+03  0.10460900694E+04  0.46999998093E+01 0.  1.
</event>
<event>
 5   0  0.5248309E-07  0.3101716E+04  0.7818609E-02  0.8215267E-01
       -2   -1    0    0    0  501  0.00000000000E+00  0.00000000000E+00  0.13268299358E+04  0.13268299358E+04  0.25500000920E-02 0.  1.
        2   -1    0    0  501    0  0.00000000000E+00  0.00000000000E+00 -0.18127121396E+04  0.18127121396E+04  0.25500000920E-02 0. -1.
    10030    2    1    2    0    0  0.00000000000E+00  0.00000000000E+00 -0.48588220383E+03  0.31395420753E+04  0.31017161261E+04 0.  0.
        4    1    3    3  502    0  0.10305396176E+03 -0.43674048629E+03  0.12596818860E+04  0.13372219106E+04  0.12699999809E+01 0.  1.
       -4    1    3    3    0  502 -0.10305396176E+03  0.43674048629E+03 -0.17455640899E+04  0.18023201647E+04  0.12699999809E+01 0. -1.
</event>
<event>
 5   0  0.1840359E-07  0.3064496E+04  0.7818609E-02  0.8225550E-01
       -1   -1    0    0    0  501  0.00000000000E+00  0.00000000000E+00  0.12531097295E+04  0.12531097295E+04  0.50400001928E-02 0. -1.
        1   -1    0    0  501    0  0.00000000000E+00  0.00000000000E+00 -0.18735657542E+04  0.18735657542E+04  0.50400001928E-02 0.  1.
    10030    2    1    2    0    0  0.00000000000E+00  0.00000000000E+00 -0.62045602469E+03  0.31266754837E+04  0.30644957011E+04 0.  0.
        1    1    3    3  502    0  0.72123134632E+03 -0.11614559608E+04  0.39563957187E+03  0.14232657077E+04  0.50400001928E-02 0. -1.
       -1    1    3    3    0  502 -0.72123134632E+03  0.11614559608E+04 -0.10160955966E+04  0.17034097760E+04  0.50400001928E-02 0.  1.
</event>
<event>
 5   0  0.5342534E-07  0.3099771E+04  0.7818609E-02  0.8215801E-01
        2   -1    0    0  501    0  0.00000000000E+00  0.00000000000E+00  0.28029395437E+04  0.28029395437E+04  0.25500000920E-02 0.  1.
       -2   -1    0    0    0  501  0.00000000000E+00  0.00000000000E+00 -0.85700922123E+03  0.85700922124E+03  0.25500000920E-02 0. -1.
    10030    2    1    2    0    0  0.00000000000E+00  0.00000000000E+00  0.19459303224E+04  0.36599487649E+04  0.30997709822E+04 0.  0.
        3    1    3    3  502    0  0.37813385691E+03  0.89291074347E+03 -0.45461270660E+03  0.10709563636E+04  0.10100000352E+00 0. -1.
       -3    1    3    3    0  502 -0.37813385691E+03 -0.89291074347E+03  0.24005430290E+04  0.25889924013E+04  0.10100000352E+00 0.  1.
</event>
<event>
 5   0  0.5154105E-07  0.3103579E+04  0.7818609E-02  0.8214756E-01
       -2   -1    0    0    0  501  0.00000000000E+00  0.00000000000E+00  0.11452935214E+04  0.11452935214E+04  0.25500000920E-02 0.  1.
        2   -1    0    0  501    0  0.00000000000E+00  0.00000000000E+00 -0.21025618963E+04  0.21025618963E+04  0.25500000920E-02 0. -1.
    10030    2    1    2    0    0  0.00000000000E+00  0.00000000000E+00 -0.95726837484E+03  0.32478554177E+04  0.31035789136E+04 0.  0.
        1    1    3    3  502    0 -0.15351053179E+04 -0.16145466296E+03 -0.64553026161E+03  0.16731184249E+04  0.50400001928E-02 0. -1.
       -1    1    3    3    0  502  0.15351053179E+04  0.16145466296E+03 -0.31173811323E+03  0.15747369928E+04  0.50400001928E-02 0.  1.
</event>
<event>
 5   0  0.1875284E-07  0.3098824E+04  0.7818609E-02  0.8216061E-01
        1   -1    0    0  501    0  0.00000000000E+00  0.00000000000E+00  0.25083074673E+04  0.25083074673E+04  0.50400001928E-02 0. -1.
       -1   -1    0    0    0  501  0.00000000000E+00  0.00000000000E+00 -0.95709089301E+03  0.95709089303E+03  0.50400001928E-02 0.  1.
    10030    2    1    2    0    0  0.00000000000E+00  0.00000000000E+00  0.15512165743E+04  0.34653983604E+04  0.30988244441E+04 0.  0.
        4    1    3    3  502    0  0.46548385060E+03  0.50443007032E+03  0.23290122306E+04  0.24280495247E+04  0.12699999809E+01 0. -1.
       -4    1    3    3    0  502 -0.46548385060E+03 -0.50443007032E+03 -0.77779565631E+03  0.10373488357E+04  0.12699999809E+01 0.  1.
</event>
<event>
 5   0  0.5342534E-07  0.3098367E+04  0.7818609E-02  0.8216186E-01
       -2   -1    0    0    0  501  0.00000000000E+00  0.00000000000E+00  0.14361624949E+04  0.14361624949E+04  0.25500000920E-02 0.  1.
        2   -1    0    0  501    0  0.00000000000E+00  0.00000000000E+00 -0.16710989768E+04  0.16710989768E+04  0.25500000920E-02 0. -1.
    10030    2    1    2    0    0  0.00000000000E+00  0.00000000000E+00 -0.23493648198E+03  0.31072614717E+04  0.30983671027E+04 0.  0.
        3    1    3    3  502    0  0.79232714572E+02  0.35608834595E+03 -0.16274108181E+04  0.16677957652E+04  0.10100000352E+00 0. -1.
       -3    1    3    3    0  502 -0.79232714572E+02 -0.35608834595E+03  0.13924743362E+04  0.14394657065E+04  0.10100000352E+00 0.  1.
</event>
<event>
 5   0  0.5154105E-07  0.3103103E+04  0.7818609E-02  0.8214887E-01
       -2   -1    0    0    0  501  0.00000000000E+00  0.00000000000E+00  0.89994721905E+03  0.89994721905E+03  0.25500000920E-02 0.  1.
        2   -1    0    0  501    0  0.00000000000E+00  0.00000000000E+00 -0.26749479443E+04  0.26749479443E+04  0.25500000920E-02 0. -1.
    10030    2    1    2    0    0  0.00000000000E+00  0.00000000000E+00 -0.17750007252E+04  0.35748951633E+04  0.31031029397E+04 0.  0.
        1    1    3    3  502    0  0.50292453588E+03  0.46815455815E+03 -0.24901227235E+04  0.25831788473E+04  0.50400001928E-02 0. -1.
       -1    1    3    3    0  502 -0.50292453588E+03 -0.46815455815E+03  0.71512199824E+03  0.99171631604E+03  0.50400001928E-02 0.  1.
</event>
<event>
 5   0  0.1845123E-07  0.3104276E+04  0.7818609E-02  0.8214565E-01
        1   -1    0    0  501    0  0.00000000000E+00  0.00000000000E+00  0.15252419494E+04  0.15252419494E+04  0.50400001928E-02 0. -1.
       -1   -1    0    0    0  501  0.00000000000E+00  0.00000000000E+00 -0.15795082667E+04  0.15795082667E+04  0.50400001928E-02 0.  1.
    10030    2    1    2    0    0  0.00000000000E+00  0.00000000000E+00 -0.54266317333E+02  0.31047502161E+04  0.31042759335E+04 0.  0.
        2    1    3    3  502    0 -0.31381537807E+03  0.10272933661E+04  0.10934488912E+04  0.15327890361E+04  0.25500000920E-02 0. -1.
       -2    1    3    3    0  502  0.31381537807E+03 -0.10272933661E+04 -0.11477152086E+04  0.15719611800E+04  0.25500000920E-02 0.  1.
</event>
<event>
 5   0  0.5376678E-07  0.3086274E+04  0.7818609E-02  0.8219515E-01
        2   -1    0    0  501    0  0.00000000000E+00  0.00000000000E+00  0.16670971393E+04  0.16670971393E+04  0.25500000920E-02 0. -1.
       -2   -1    0    0    0  501  0.00000000000E+00  0.00000000000E+00 -0.14283940099E+04  0.14283940099E+04  0.25500000920E-02 0.  1.
    10030    2    1    2    0    0  0.00000000000E+00  0.00000000000E+00  0.23870312941E+03  0.30954911493E+04  0.30862738490E+04 0.  0.
        5    1    3    3  502    0  0.15219643665E+04  0.24075903455E+03  0.20272039587E+03  0.15541744093E+04  0.46999998093E+01 0.  1.
       -5    1    3    3    0  502 -0.15219643665E+04 -0.24075903455E+03  0.35982733535E+02  0.15413167399E+04  0.46999998093E+01 0. -1.
</event>
<event>
 5   0  0.1840359E-07  0.3171052E+04  0.7818609E-02  0.8196504E-01
        1   -1    0    0  501    0  0.00000000000E+00  0.00000000000E+00  0.12814494646E+04  0.12814494646E+04  0.50400001928E-02 0.  1.
       -1   -1    0    0    0  501  0.00000000000E+00  0.00000000000E+00 -0.19617577932E+04  0.19617577932E+04  0.50400001928E-02 0. -1.
    10030    2    1    2    0    0  0.00000000000E+00  0.00000000000E+00 -0.68030832859E+03  0.32432072578E+04  0.31710524902E+04 0.  0.
        1    1    3    3  502    0 -0.95976233341E+03 -0.12147009069E+04  0.10057310846E+02  0.15481418473E+04  0.50400001928E-02 0. -1.
       -1    1    3    3    0  502  0.95976233341E+03  0.12147009069E+04 -0.69036563944E+03  0.16950654105E+04  0.50400001928E-02 0.  1.
</event>
<event>
 5   0  0.5154105E-07  0.3098900E+04  0.7818609E-02  0.8216040E-01
       -2   -1    0    0    0  501  0.00000000000E+00  0.00000000000E+00  0.94732745556E+03  0.94732745556E+03  0.25500000920E-02 0. -1.
        2   -1    0    0  501    0  0.00000000000E+00  0.00000000000E+00 -0.25342821784E+04  0.25342821784E+04  0.25500000920E-02 0.  1.
    10030    2    1    2    0    0  0.00000000000E+00  0.00000000000E+00 -0.15869547228E+04  0.34816096339E+04  0.30988998614E+04 0.  0.
        1    1    3    3  502    0  0.48317854390E+03 -0.75266587720E+03 -0.22149706798E+04  0.23887365992E+04  0.50400001928E-02 0.  1.
       -1    1    3    3    0  502 -0.48317854390E+03  0.75266587720E+03  0.62801595692E+03  0.10928730348E+04  0.50400001928E-02 0. -1.
</event>
<event>
 5   0  0.5055900E-07  0.3098944E+04  0.7818609E-02  0.8216028E-01
        2   -1    0    0  501    0  0.00000000000E+00  0.00000000000E+00  0.21561160711E+04  0.21561160711E+04  0.25500000920E-02 0.  1.
       -2   -1    0    0    0  501  0.00000000000E+00  0.00000000000E+00 -0.11135133639E+04  0.11135133639E+04  0.25500000920E-02 0. -1.
    10030    2    1    2    0    0  0.00000000000E+00  0.00000000000E+00  0.10426027072E+04  0.32696294349E+04  0.30989443746E+04 0.  0.
        2    1    3    3  502    0  0.41101907542E+03  0.59144978020E+03  0.19687653768E+04  0.20963746401E+04  0.25500000920E-02 0.  1.
       -2    1    3    3    0  502 -0.41101907542E+03 -0.59144978020E+03 -0.92616266965E+03  0.11732547948E+04  0.25500000920E-02 0. -1.
</event>
<event>
 5   0  0.1814075E-07  0.3097169E+04  0.7818609E-02  0.8216515E-01
       -1   -1    0    0    0  501  0.00000000000E+00  0.00000000000E+00  0.87510029260E+03  0.87510029262E+03  0.50400001928E-02 0.  1.
        1   -1    0    0  501    0  0.00000000000E+00  0.00000000000E+00 -0.27403878432E+04  0.27403878432E+04  0.50400001928E-02 0. -1.
    10030    2    1    2    0    0  0.00000000000E+00  0.00000000000E+00 -0.18652875505E+04  0.36154881358E+04  0.30971691613E+04 0.  0.
        5    1    3    3  502    0  0.19364524182E+03 -0.12500136724E+04  0.11020092255E+03  0.12697239835E+04  0.46999998093E+01 0.  1.
       -5    1    3    3    0  502 -0.19364524182E+03  0.12500136724E+04 -0.19754884731E+04  0.23457641523E+04  0.46999998093E+01 0. -1.
</event>
<event>
 5   0  0.1830902E-07  0.3100101E+04  0.7818609E-02  0.8215710E-01
       -1   -1    0    0    0  501  0.00000000000E+00  0.00000000000E+00  0.14087274716E+04  0.14087274716E+04  0.50400001928E-02 0.  1.
        1   -1    0    0  501    0  0.00000000000E+00  0.00000000000E+00 -0.17055511485E+04  0.17055511485E+04  0.50400001928E-02 0. -1.
    10030    2    1    2    0    0  0.00000000000E+00  0.00000000000E+00 -0.29682367685E+03  0.31142786201E+04  0.31001011320E+04 0.  0.
        3    1    3    3  502    0  0.52196700854E+03  0.85591971628E+03  0.10391996474E+04  0.14439473800E+04  0.10100000352E+00 0.  1.
       -3    1    3    3    0  502 -0.52196700854E+03 -0.85591971628E+03 -0.13360233243E+04  0.16703312402E+04  0.10100000352E+00 0. -1.
</event>
<event>
 5   0  0.5154105E-07  0.3095030E+04  0.7818609E-02  0.8217103E-01
       -2   -1    0    0    0  501  0.00000000000E+00  0.00000000000E+00  0.10796270986E+04  0.10796270986E+04  0.25500000920E-02 0.  1.
        2   -1    0    0  501    0  0.00000000000E+00  0.00000000000E+00 -0.22181759291E+04  0.22181759291E+04  0.25500000920E-02 0. -1.
    10030    2    1    2    0    0  0.00000000000E+00  0.00000000000E+00 -0.11385488305E+04  0.32978030277E+04  0.30950301081E+04 0.  0.
        1    1    3    3  502    0 -0.61286516611E+03 -0.55969267163E+03  0.82241435667E+03  0.11684284200E+04  0.50400001928E-02 0.  1.
       -1    1    3    3    0  502  0.61286516611E+03  0.55969267163E+03 -0.19609631872E+04  0.21293746077E+04  0.50400001928E-02 0. -1.
</event>
<event>
 5   0  0.5376678E-07  0.3093883E+04  0.7818609E-02  0.8217419E-01
       -2   -1    0    0    0  501  0.00000000000E+00  0.00000000000E+00  0.16241710759E+04  0.16241710759E+04  0.25500000920E-02 0.  1.
        2   -1    0    0  501    0  0.00000000000E+00  0.00000000000E+00 -0.14733842267E+04  0.14733842267E+04  0.25500000920E-02 0. -1.
    10030    2    1    2    0    0  0.00000000000E+00  0.00000000000E+00  0.15078684919E+03  0.30975553025E+04  0.30938830259E+04 0.  0.
        5    1    3    3  502    0 -0.11290944943E+04  0.10432417374E+04  0.24822002771E+03  0.15571907307E+04  0.46999998093E+01 0.  1.
       -5    1    3    3    0  502  0.11290944943E+04 -0.10432417374E+04 -0.97433178523E+02  0.15403645718E+04  0.46999998093E+01 0. -1.
</event>
<event>
 5   0  0.1814075E-07  0.3097910E+04  0.7818609E-02  0.8216312E-01
       -1   -1    0    0    0  501  0.00000000000E+00  0.00000000000E+00  0.10418091565E+04  0.10418091565E+04  0.50400001928E-02 0. -1.
        1   -1    0    0  501    0  0.00000000000E+00  0.00000000000E+00 -0.23029759290E+04  0.23029759290E+04  0.50400001928E-02 0.  1.
    10030    2    1    2    0    0  0.00000000000E+00  0.00000000000E+00 -0.12611667725E+04  0.33447850855E+04  0.30979098825E+04 0.  0.
        5    1    3    3  502    0  0.11164113079E+03 -0.15445839185E+04 -0.59582980446E+03  0.16592885431E+04  0.46999998093E+01 0. -1.
       -5    1    3    3    0  502 -0.11164113079E+03  0.15445839185E+04 -0.66533696805E+03  0.16854965424E+04  0.46999998093E+01 0.  1.
</event>
<event>
 5   0  0.5154105E-07  0.3100212E+04  0.7818609E-02  0.8215680E-01
       -2   -1    0    0    0  501  0.00000000000E+00  0.00000000000E+00  0.19708386468E+04  0.19708386468E+04  0.25500000920E-02 0.  1.
        2   -1    0    0  501    0  0.00000000000E+00  0.00000000000E+00 -0.12191910829E+04  0.12191910830E+04  0.25500000920E-02 0. -1.
    10030    2    1    2    0    0  0.00000000000E+00  0.00000000000E+00  0.75164756385E+03  0.31900297298E+04  0.31002121889E+04 0.  0.
        1    1    3    3  502    0  0.15387058346E+04  0.11039649281E+03  0.21968479302E+03  0.15582247718E+04  0.50400001928E-02 0. -1.
       -1    1    3    3    0  502 -0.15387058346E+04 -0.11039649281E+03  0.53196277083E+03  0.16318049579E+04  0.50400001928E-02 0.  1.
</event>
<event>
 5   0  0.1840359E-07  0.3064328E+04  0.7818609E-02  0.8225597E-01
       -1   -1    0    0    0  501  0.00000000000E+00  0.00000000000E+00  0.14374556779E+04  0.14374556779E+04  0.50400001928E-02 0. -1.
        1   -1    0    0  501    0  0.00000000000E+00  0.00000000000E+00 -0.16331120159E+04  0.16331120159E+04  0.50400001928E-02 0.  1.
    10030    2    1    2    0    0  0.00000000000E+00  0.00000000000E+00 -0.19565633800E+03  0.30705676938E+04  0.30643277500E+04 0.  0.
        1    1    3    3  502    0  0.95299607733E+03  0.90461664911E+03 -0.88746415387E+03  0.15855993913E+04  0.50400001928E-02 0.  1.
       -1    1    3    3    0  502 -0.95299607733E+03 -0.90461664911E+03  0.69180781587E+03  0.14849683025E+04  0.50400001928E-02 0. -1.
</event>
<event>
 5   0  0.5342534E-07  0.3119347E+04  0.7818609E-02  0.8210448E-01
        2   -1    0    0  501    0  0.00000000000E+00  0.00000000000E+00  0.17421319491E+04  0.17421319491E+04  0.25500000920E-02 0. -1.
       -2   -1    0    0    0  501  0.00000000000E+00  0.00000000000E+00 -0.13963244842E+04  0.13963244842E+04  0.25500000920E-02 0.  1.
    10030    2    1    2    0    0  0.00000000000E+00  0.00000000000E+00  0.34580746491E+03  0.31384564334E+04  0.31193470441E+04 0.  0.
        3    1    3    3  502    0  0.37232785696E+03  0.31887519008E+03 -0.13167990684E+04  0.14050869071E+04  0.10100000352E+00 0.  1.
       -3    1    3    3    0  502 -0.37232785696E+03 -0.31887519008E+03  0.16626065333E+04  0.17333695263E+04  0.10100000352E+00 0. -1.
</event>
<event>
 5   0  0.5248309E-07  0.3100462E+04  0.7818609E-02  0.8215611E-01
        2   -1    0    0  501    0  0.00000000000E+00  0.00000000000E+00  0.22687574993E+04  0.22687574993E+04  0.25500000920E-02 0.  1.
       -2   -1    0    0    0  501  0.00000000000E+00  0.00000000000E+00 -0.10592655130E+04  0.10592655130E+04  0.25500000920E-02 0. -1.
    10030    2    1    2    0    0  0.00000000000E+00  0.00000000000E+00  0.12094919863E+04  0.33280230123E+04  0.31004622729E+04 0.  0.
        4    1    3    3  502    0  0.13133880891E+04  0.75009167924E+03  0.23980854551E+03  0.15313835415E+04  0.12699999809E+01 0. -1.
       -4    1    3    3    0  502 -0.13133880891E+04 -0.75009167924E+03  0.96968344081E+03  0.17966394708E+04  0.12699999809E+01 0.  1.
</event>
<event>
 5   0  0.5055900E-07  0.3101758E+04  0.7818609E-02  0.8215256E-01
        2   -1    0    0  501    0  0.00000000000E+00  0.00000000000E+00  0.20749763165E+04  0.20749763165E+04  0.25500000920E-02 0. -1.
       -2   -1    0    0    0  501  0.00000000000E+00  0.00000000000E+00 -0.11591583644E+04  0.11591583644E+04  0.25500000920E-02 0.  1.
    10030    2    1    2    0    0  0.00000000000E+00  0.00000000000E+00  0.91581795218E+03  0.32341346809E+04  0.31017583099E+04 0.  0.
        2    1    3    3  502    0  0.48754896908E+03 -0.54429564368E+03 -0.96841349954E+03  0.12131720616E+04  0.25500000920E-02 0.  1.
       -2    1    3    3    0  502 -0.48754896908E+03  0.54429564368E+03  0.18842314517E+04  0.20209626193E+04  0.25500000920E-02 0. -1.
</event>
<event>
 5   0  0.5055900E-07  0.3095159E+04  0.7818609E-02  0.8217068E-01
        2   -1    0    0  501    0  0.00000000000E+00  0.00000000000E+00  0.95454765036E+03  0.95454765036E+03  0.25500000920E-02 0. -1.
       -2   -1    0    0    0  501  0.00000000000E+00  0.00000000000E+00 -0.25090441018E+04  0.25090441018E+04  0.25500000920E-02 0.  1.
    10030    2    1    2    0    0  0.00000000000E+00  0.00000000000E+00 -0.15544964515E+04  0.34635917522E+04  0.30951588987E+04 0.  0.
        2    1    3    3  502    0  0.36221698832E+03  0.70374861013E+03  0.71091666886E+03  0.10638918004E+04  0.25500000920E-02 0. -1.
       -2    1    3    3    0  502 -0.36221698832E+03 -0.70374861013E+03 -0.22654131203E+04  0.23996999518E+04  0.25500000920E-02 0.  1.
</event>
<event>
 5   0  0.5154105E-07  0.3101758E+04  0.7818609E-02  0.8215256E-01
        2   -1    0    0  501    0  0.00000000000E+00  0.00000000000E+00  0.19186400998E+04  0.19186400998E+04  0.25500000920E-02 0. -1.
       -2   -1    0    0    0  501  0.00000000000E+00  0.00000000000E+00 -0.12536095752E+04  0.12536095752E+04  0.25500000920E-02 0.  1.
    10030    2    1    2    0    0  0.00000000000E+00  0.00000000000E+00  0.66503052459E+03  0.31722496750E+04  0.31017579535E+04 0.  0.
        1    1    3    3  502    0 -0.21784507502E+03  0.50541564562E+03 -0.11503759671E+04  0.12752514722E+04  0.50400001928E-02 0.  1.
       -1    1    3    3    0  502  0.21784507502E+03 -0.50541564562E+03  0.18154064917E+04  0.18969982029E+04  0.50400001928E-02 0. -1.
</event>
<event>
 5   0  0.1814075E-07  0.3098096E+04  0.7818609E-02  0.8216261E-01
       -1   -1    0    0    0  501  0.00000000000E+00  0.00000000000E+00  0.14795328253E+04  0.14795328253E+04  0.50400001928E-02 0.  1.
        1   -1    0    0  501    0  0.00000000000E+00  0.00000000000E+00 -0.16218293443E+04  0.16218293443E+04  0.50400001928E-02 0. -1.
    10030    2    1    2    0    0  0.00000000000E+00  0.00000000000E+00 -0.14229651902E+03  0.31013621696E+04  0.30980960295E+04 0.  0.
        5    1    3    3  502    0 -0.52333089978E+03 -0.94727651066E+03 -0.11806124991E+04  0.16015854586E+04  0.46999998093E+01 0. -1.
       -5    1    3    3    0  502  0.52333089978E+03  0.94727651066E+03  0.10383159801E+04  0.14997767110E+04  0.46999998093E+01 0.  1.
</event>
<event>
 5   0  0.1840359E-07  0.3136171E+04  0.7818609E-02  0.8205881E-01
       -1   -1    0    0    0  501  0.00000000000E+00  0.00000000000E+00  0.96159225109E+03  0.96159225111E+03  0.50400001928E-02 0. -1.
        1   -1    0    0  501    0  0.00000000000E+00  0.00000000000E+00 -0.25571039974E+04  0.25571039974E+04  0.50400001928E-02 0.  1.
    10030    2    1    2    0    0  0.00000000000E+00  0.00000000000E+00 -0.15955117463E+04  0.35186962485E+04  0.31361705242E+04 0.  0.
        1    1    3    3  502    0  0.44044454903E+03  0.11261583696E+04 -0.19178569566E+04  0.22672448876E+04  0.50400001928E-02 0.  1.
       -1    1    3    3    0  502 -0.44044454903E+03 -0.11261583696E+04  0.32234521030E+03  0.12514513609E+04  0.50400001928E-02 0. -1.
</event>
<event>
 5   0  0.5154105E-07  0.3099431E+04  0.7818609E-02  0.8215894E-01
       -2   -1    0    0    0  501  0.00000000000E+00  0.00000000000E+00  0.20125584742E+04  0.20125584742E+04  0.25500000920E-02 0.  1.
        2   -1    0    0  501    0  0.00000000000E+00  0.00000000000E+00 -0.11933160244E+04  0.11933160244E+04  0.25500000920E-02 0. -1.
    10030    2    1    2    0    0  0.00000000000E+00  0.00000000000E+00  0.81924244972E+03  0.32058744986E+04  0.30994310945E+04 0.  0.
        1    1    3    3  502    0 -0.50069024854E+03  0.39819431577E+03 -0.10503671628E+04  0.12298457687E+04  0.50400001928E-02 0. -1.
       -1    1    3    3    0  502  0.50069024854E+03 -0.39819431577E+03  0.18696096125E+04  0.19760287299E+04  0.50400001928E-02 0.  1.
</event>
<event>
 5   0  0.1845123E-07  0.3032377E+04  0.7818609E-02  0.8234545E-01
       -1   -1    0    0    0  501  0.00000000000E+00  0.00000000000E+00  0.73655178429E+03  0.73655178431E+03  0.50400001928E-02 0. -1.
        1   -1    0    0  501    0  0.00000000000E+00  0.00000000000E+00 -0.31210668818E+04  0.31210668818E+04  0.50400001928E-02 0.  1.
    10030    2    1    2    0    0  0.00000000000E+00  0.00000000000E+00 -0.23845150975E+04  0.38576186661E+04  0.30323768768E+04 0.  0.
        2    1    3    3  502    0 -0.13813619579E+04  0.61486049390E+03 -0.10493856052E+04  0.18404957033E+04  0.25500000920E-02 0. -1.
       -2    1    3    3    0  502  0.13813619579E+04 -0.61486049390E+03 -0.13351294923E+04  0.20171229628E+04  0.25500000920E-02 0.  1.
</event>
<event>
 5   0  0.1830902E-07  0.3098206E+04  0.7818609E-02  0.8216230E-01
       -1   -1    0    0    0  501  0.00000000000E+00  0.00000000000E+00  0.14330049286E+04  0.14330049286E+04  0.50400001928E-02 0. -1.
        1   -1    0    0  501    0  0.00000000000E+00  0.00000000000E+00 -0.16746075440E+04  0.16746075440E+04  0.50400001928E-02 0.  1.
    10030    2    1    2    0    0  0.00000000000E+00  0.00000000000E+00 -0.24160261542E+03  0.31076124727E+04  0.30982064903E+04 0.  0.
        3    1    3    3  502    0  0.56087008490E+02  0.14445998469E+04  0.43740093256E+03  0.15104085726E+04  0.10100000352E+00 0. -1.
       -3    1    3    3    0  502 -0.56087008490E+02 -0.14445998469E+04 -0.67900354798E+03  0.15972039001E+04  0.10100000352E+00 0.  1.
</event>
<event>
 5   0  0.1875284E-07  0.3100030E+04  0.7818609E-02  0.8215730E-01
        1   -1    0    0  501    0  0.00000000000E+00  0.00000000000E+00  0.12567215090E+04  0.12567215090E+04  0.50400001928E-02 0.  1.
       -1   -1    0    0    0  501  0.00000000000E+00  0.00000000000E+00 -0.19117567196E+04  0.19117567196E+04  0.50400001928E-02 0. -1.
    10030    2    1    2    0    0  0.00000000000E+00  0.00000000000E+00 -0.65503521061E+03  0.31684782286E+04  0.31000295415E+04 0.  0.
        4    1    3    3  502    0 -0.70560921555E+03 -0.10330149851E+04 -0.12628966483E+04  0.17776146606E+04  0.12699999809E+01 0. -1.
       -4    1    3    3    0  502  0.70560921555E+03  0.10330149851E+04  0.60786143768E+03  0.13908635680E+04  0.12699999809E+01 0.  1.
</event>
<event>
 5   0  0.5154105E-07  0.3098429E+04  0.7818609E-02  0.8216169E-01
       -2   -1    0    0    0  501  0.00000000000E+00  0.00000000000E+00  0.11069132101E+04  0.11069132101E+04  0.25500000920E-02 0.  1.
        2   -1    0    0  501    0  0.00000000000E+00  0.00000000000E+00 -0.21682502465E+04  0.21682502465E+04  0.25500000920E-02 0. -1.
    10030    2    1    2    0    0  0.00000000000E+00  0.00000000000E+00 -0.10613370364E+04  0.32751634566E+04  0.30984285311E+04 0.  0.
        1    1    3    3  502    0 -0.14356968528E+04 -0.10095405401E+02  0.84541099787E+02  0.14382192350E+04  0.50400001928E-02 0.  1.
       -1    1    3    3    0  502  0.14356968528E+04  0.10095405401E+02 -0.11458781362E+04  0.18369442216E+04  0.50400001928E-02 0. -1.
</event>
<event>
 5   0  0.1845123E-07  0.3097468E+04  0.7818609E-02  0.8216433E-01
       -1   -1    0    0    0  501  0.00000000000E+00  0.00000000000E+00  0.12121909865E+04  0.12121909865E+04  0.50400001928E-02 0.  1.
        1   -1    0    0  501    0  0.00000000000E+00  0.00000000000E+00 -0.19787119764E+04  0.19787119764E+04  0.50400001928E-02 0. -1.
    10030    2    1    2    0    0  0.00000000000E+00  0.00000000000E+00 -0.76652098989E+03  0.31909029629E+04  0.30974678837E+04 0.  0.
        2    1    3    3  502    0  0.55389320130E+03  0.73248676994E+03 -0.16679725868E+04  0.19040659382E+04  0.25500000920E-02 0. -1.
       -2    1    3    3    0  502 -0.55389320130E+03 -0.73248676994E+03  0.90145159692E+03  0.12868370247E+04  0.25500000920E-02 0.  1.
</event>
<event>
 5   0  0.1830902E-07  0.3104725E+04  0.7818609E-02  0.8214442E-01
        1   -1    0    0  501    0  0.00000000000E+00  0.00000000000E+00  0.21318663099E+04  0.21318663099E+04  0.50400001928E-02 0. -1.
       -1   -1    0    0    0  501  0.00000000000E+00  0.00000000000E+00 -0.11303850277E+04  0.11303850277E+04  0.50400001928E-02 0.  1.
    10030    2    1    2    0    0  0.00000000000E+00  0.00000000000E+00  0.10014812822E+04  0.32622513377E+04  0.31047252747E+04 0.  0.
        3    1    3    3  502    0  0.87411443830E+03 -0.12812643927E+04  0.43333558435E+03  0.16104329338E+04  0.10100000352E+00 0. -1.
       -3    1    3    3    0  502 -0.87411443830E+03  0.12812643927E+04  0.56814569788E+03  0.16518184039E+04  0.10100000352E+00 0.  1.
</event>
<event>
 5   0  0.1814075E-07  0.3089563E+04  0.7818609E-02  0.8218608E-01
        1   -1    0    0  501    0  0.00000000000E+00  0.00000000000E+00  0.99417969476E+03  0.99417969477E+03  0.50400001928E-02 0. -1.
       -1   -1    0    0    0  501  0.00000000000E+00  0.00000000000E+00 -0.24003209882E+04  0.24003209882E+04  0.50400001928E-02 0.  1.
    10030    2    1    2    0    0  0.00000000000E+00  0.00000000000E+00 -0.14061412935E+04  0.33945006830E+04  0.30895633267E+04 0.  0.
        5    1    3    3  502    0 -0.10252472237E+04 -0.96946461927E+03 -0.12256359923E+02  0.14110867535E+04  0.46999998093E+01 0. -1.
       -5    1    3    3    0  502  0.10252472237E+04  0.96946461927E+03 -0.13938849335E+04  0.19834139295E+04  0.46999998093E+01 0.  1.
</event>
<event>
 5   0  0.5154105E-07  0.3101454E+04  0.7818609E-02  0.8215339E-01
        2   -1    0    0  501    0  0.00000000000E+00  0.00000000000E+00  0.26300916132E+04  0.26300916132E+04  0.25500000920E-02 0. -1.
       -2   -1    0    0    0  501  0.00000000000E+00  0.00000000000E+00 -0.91432356314E+03  0.91432356314E+03  0.25500000920E-02 0.  1.
    10030    2    1    2    0    0  0.00000000000E+00  0.00000000000E+00  0.17157680500E+04  0.35444151763E+04  0.31014543267E+04 0.  0.
        1    1    3    3  502    0  0.66434872147E+03 -0.86251719761E+03 -0.40412629144E+03  0.11612980665E+04  0.50400001928E-02 0.  1.
       -1    1    3    3    0  502 -0.66434872147E+03  0.86251719761E+03  0.21198943415E+04  0.23831171098E+04  0.50400001928E-02 0. -1.
</event>
<event>
 5   0  0.1814075E-07  0.3092567E+04  0.7818609E-02  0.8217781E-01
       -1   -1    0    0    0  501  0.00000000000E+00  0.00000000000E+00  0.18380241983E+04  0.18380241983E+04  0.50400001928E-02 0.  1.
        1   -1    0    0  501    0  0.00000000000E+00  0.00000000000E+00 -0.13008496436E+04  0.13008496436E+04  0.50400001928E-02 0. -1.
    10030    2    1    2    0    0  0.00000000000E+00  0.00000000000E+00  0.53717455467E+03  0.31388738419E+04  0.30925672981E+04 0.  0.
        5    1    3    3  502    0 -0.40839534752E+03 -0.14867522194E+04  0.38761260703E+03  0.15898064489E+04  0.46999998093E+01 0.  1.
       -5    1    3    3    0  502  0.40839534752E+03  0.14867522194E+04  0.14956194764E+03  0.15490673930E+04  0.46999998093E+01 0. -1.
</event>
<event>
 5   0  0.5055900E-07  0.3093603E+04  0.7818609E-02  0.8217496E-01
       -2   -1    0    0    0  501  0.00000000000E+00  0.00000000000E+00  0.11693815618E+04  0.11693815618E+04  0.25500000920E-02 0. -1.
        2   -1    0    0  501    0  0.00000000000E+00  0.00000000000E+00 -0.20460340945E+04  0.20460340945E+04  0.25500000920E-02 0.  1.
    10030    2    1    2    0    0  0.00000000000E+00  0.00000000000E+00 -0.87665253272E+03  0.32154156563E+04  0.30936027831E+04 0.  0.
        2    1    3    3  502    0 -0.99455380485E+02  0.82762620059E+02 -0.20403996418E+04  0.20444979145E+04  0.25500000920E-02 0.  1.
       -2    1    3    3    0  502  0.99455380485E+02 -0.82762620059E+02  0.11637471091E+04  0.11709177418E+04  0.25500000920E-02 0. -1.
</event>
<event>
 5   0  0.1845123E-07  0.3088651E+04  0.7818609E-02  0.8218859E-01
        1   -1    0    0  501    0  0.00000000000E+00  0.00000000000E+00  0.15495141116E+04  0.15495141116E+04  0.50400001928E-02 0.  1.
       -1   -1    0    0    0  501  0.00000000000E+00  0.00000000000E+00 -0.15391541786E+04  0.15391541786E+04  0.50400001928E-02 0. -1.
    10030    2    1    2    0    0  0.00000000000E+00  0.00000000000E+00  0.10359933052E+02  0.30886682902E+04  0.30886509156E+04 0.  0.
        2    1    3    3  502    0 -0.38190505436E+02  0.14024616342E+04  0.65061676162E+03  0.15464990529E+04  0.25500000920E-02 0.  1.
       -2    1    3    3    0  502  0.38190505436E+02 -0.14024616342E+04 -0.64025682857E+03  0.15421692373E+04  0.25500000920E-02 0. -1.
</event>
<event>
 5   0  0.5376678E-07  0.3105779E+04  0.7818609E-02  0.8214154E-01
       -2   -1    0    0    0  501  0.00000000000E+00  0.00000000000E+00  0.95541646824E+03  0.95541646824E+03  0.25500000920E-02 0. -1.
        2   -1    0    0  501    0  0.00000000000E+00  0.00000000000E+00 -0.25239945953E+04  0.25239945953E+04  0.25500000920E-02 0.  1.
    10030    2    1    2    0    0  0.00000000000E+00  0.00000000000E+00 -0.15685781270E+04  0.34794110635E+04  0.31057791306E+04 0.  0.
        5    1    3    3  502    0  0.13633569440E+04  0.53279419366E+03 -0.20342335726E+03  0.14778413183E+04  0.46999998093E+01 0.  1.
       -5    1    3    3    0  502 -0.13633569440E+04 -0.53279419366E+03 -0.13651547698E+04  0.20015697453E+04  0.46999998093E+01 0. -1.
</event>
<event>
 5   0  0.5248309E-07  0.3107710E+04  0.7818609E-02  0.8213625E-01
       -2   -1    0    0    0  501  0.00000000000E+00  0.00000000000E+00  0.16653761071E+04  0.16653761071E+04  0.25500000920E-02 0. -1.
        2   -1    0    0  501    0  0.00000000000E+00  0.00000000000E+00 -0.14498019873E+04  0.14498019873E+04  0.25500000920E-02 0.  1.
    10030    2    1    2    0    0  0.00000000000E+00  0.00000000000E+00  0.21557411980E+03  0.31151780944E+04  0.31077101471E+04 0.  0.
        4    1    3    3  502    0 -0.61665663315E+03  0.86990577343E+03 -0.10251778465E+04  0.14791864952E+04  0.12699999809E+01 0.  1.
       -4    1    3    3    0  502  0.61665663315E+03 -0.86990577343E+03  0.12407519663E+04  0.16359915992E+04  0.12699999809E+01 0. -1.
</event>
<event>
 5   0  0.5248309E-07  0.3108461E+04  0.7818609E-02  0.8213420E-01
       -2   -1    0    0    0  501  0.00000000000E+00  0.00000000000E+00  0.13240849340E+04  0.13240849340E+04  0.25500000920E-02 0. -1.
        2   -1    0    0  501    0  0.00000000000E+00  0.00000000000E+00 -0.18243793441E+04  0.18243793441E+04  0.25500000920E-02 0.  1.
    10030    2    1    2    0    0  0.00000000000E+00  0.00000000000E+00 -0.50029441010E+03  0.31484642781E+04  0.31084614866E+04 0.  0.
        4    1    3    3  502    0 -0.59115523198E+03  0.67385919771E+01 -0.17060461325E+04  0.18055760676E+04  0.12699999809E+01 0.  1.
       -4    1    3    3    0  502  0.59115523198E+03 -0.67385919771E+01  0.12057517224E+04  0.13428882105E+04  0.12699999809E+01 0. -1.
</event>
<event>
 5   0  0.1814075E-07  0.3104024E+04  0.7818609E-02  0.8214635E-01
       -1   -1    0    0    0  501  0.00000000000E+00  0.00000000000E+00  0.86661838317E+03  0.86661838319E+03  0.50400001928E-02 0.  1.
        1   -1    0    0  501    0  0.00000000000E+00  0.00000000000E+00 -0.27794710763E+04  0.27794710763E+04  0.50400001928E-02 0. -1.
    10030    2    1    2    0    0  0.00000000000E+00  0.00000000000E+00 -0.19128526931E+04  0.36460894595E+04  0.31040236663E+04 0.  0.
        5    1    3    3  502    0  0.76281348234E+03 -0.52155244128E+03  0.50825103854E+03  0.10546291130E+04  0.46999998093E+01 0.  1.
       -5    1    3    3    0  502 -0.76281348234E+03  0.52155244128E+03 -0.24211037316E+04  0.25914603464E+04  0.46999998093E+01 0. -1.
</event>
<event>
 5   0  0.1814075E-07  0.3103294E+04  0.7818609E-02  0.8214835E-01
        1   -1    0    0  501    0  0.00000000000E+00  0.00000000000E+00  0.16150962018E+04  0.16150962018E+04  0.50400001928E-02 0. -1.
       -1   -1    0    0    0  501  0.00000000000E+00  0.00000000000E+00 -0.14906899772E+04  0.14906899772E+04  0.50400001928E-02 0.  1.
    10030    2    1    2    0    0  0.00000000000E+00  0.00000000000E+00  0.12440622460E+03  0.31057861791E+04  0.31032935539E+04 0.  0.
        5    1    3    3  502    0  0.14770582115E+04  0.28656614516E+03  0.44167057624E+03  0.15680931425E+04  0.46999998093E+01 0. -1.
       -5    1    3    3    0  502 -0.14770582115E+04 -0.28656614516E+03 -0.31726435164E+03  0.15376930365E+04  0.46999998093E+01 0.  1.
</event>
<event>
 5   0  0.1814075E-07  0.3118126E+04  0.7818609E-02  0.8210781E-01
       -1   -1    0    0    0  501  0.00000000000E+00  0.00000000000E+00  0.12601287595E+04  0.12601287595E+04  0.50400001928E-02 0. -1.
        1   -1    0    0  501    0  0.00000000000E+00  0.00000000000E+00 -0.19289125228E+04  0.19289125228E+04  0.50400001928E-02 0.  1.
    10030    2    1    2    0    0  0.00000000000E+00  0.00000000000E+00 -0.66878376331E+03  0.31890412823E+04  0.31181264532E+04 0.  0.
        5    1    3    3  502    0  0.65886923289E+03 -0.93319725540E+02 -0.17763644582E+04  0.18969211938E+04  0.46999998093E+01 0.  1.
       -5    1    3    3    0  502 -0.65886923289E+03  0.93319725540E+02  0.11075806949E+04  0.12921200884E+04  0.46999998093E+01 0. -1.
</event>
<event>
 5   0  0.5248309E-07  0.3095274E+04  0.7818609E-02  0.8217036E-01
        2   -1    0    0  501    0  0.00000000000E+00  0.00000000000E+00  0.12282839913E+04  0.12282839913E+04  0.25500000920E-02 0. -1.
       -2   -1    0    0    0  501  0.00000000000E+00  0.00000000000E+00 -0.19500210711E+04  0.19500210711E+04  0.25500000920E-02 0.  1.
    10030    2    1    2    0    0  0.00000000000E+00  0.00000000000E+00 -0.72173707980E+03  0.31783050624E+04  0.30952735998E+04 0.  0.
        4    1    3    3  502    0 -0.23676314166E+03 -0.13835803687E+04  0.30840306872E+03  0.14371727411E+04  0.12699999809E+01 0. -1.
       -4    1    3    3    0  502  0.23676314166E+03  0.13835803687E+04 -0.10301401485E+04  0.17411323214E+04  0.12699999809E+01 0.  1.
</event>
<event>
 5   0  0.5376678E-07  0.3097838E+04  0.7818609E-02  0.8216332E-01
        2   -1    0    0  501    0  0.00000000000E+00  0.00000000000E+00  0.17227760735E+04  0.17227760735E+04  0.25500000920E-02 0. -1.
       -2   -1    0    0    0  501  0.00000000000E+00  0.00000000000E+00 -0.13926066619E+04  0.13926066619E+04  0.25500000920E-02 0.  1.
    10030    2    1    2    0    0  0.00000000000E+00  0.00000000000E+00  0.33016941152E+03  0.31153827354E+04  0.30978375922E+04 0.  0.
        5    1    3    3  502    0 -0.10417276247E+04  0.71158873175E+03  0.10688246785E+04  0.16534700634E+04  0.46999998093E+01 0. -1.
       -5    1    3    3    0  502  0.10417276247E+04 -0.71158873175E+03 -0.73865526694E+03  0.14619126720E+04  0.46999998093E+01 0.  1.
</event>
<event>
 5   0  0.1830902E-07  0.3103039E+04  0.7818609E-02  0.8214904E-01
        1   -1    0    0  501    0  0.00000000000E+00  0.00000000000E+00  0.15503359553E+04  0.15503359553E+04  0.50400001928E-02 0.  1.
       -1   -1    0    0    0  501  0.00000000000E+00  0.00000000000E+00 -0.15527039918E+04  0.15527039918E+04  0.50400001928E-02 0. -1.
    10030    2    1    2    0    0  0.00000000000E+00  0.00000000000E+00 -0.23680365745E+01  0.31030399471E+04  0.31030390436E+04 0.  0.
        3    1    3    3  502    0 -0.24559018950E+01 -0.70342262402E+03  0.13817131256E+04  0.15504646372E+04  0.10100000352E+00 0.  1.
       -3    1    3    3    0  502  0.24559018950E+01  0.70342262402E+03 -0.13840811622E+04  0.15525753100E+04  0.10100000352E+00 0. -1.
</event>
<event>
 5   0  0.5248309E-07  0.3098058E+04  0.7818609E-02  0.8216271E-01
        2   -1    0    0  501    0  0.00000000000E+00  0.00000000000E+00  0.19296608957E+04  0.19296608957E+04  0.25500000920E-02 0. -1.
       -2   -1    0    0    0  501  0.00000000000E+00  0.00000000000E+00 -0.12434781111E+04  0.12434781111E+04  0.25500000920E-02 0.  1.
    10030    2    1    2    0    0  0.00000000000E+00  0.00000000000E+00  0.68618278460E+03  0.31731390067E+04  0.30980581567E+04 0.  0.
        4    1    3    3  502    0  0.43809113184E+03 -0.27027990329E+03  0.18394961382E+04  0.19101630091E+04  0.12699999809E+01 0. -1.
       -4    1    3    3    0  502 -0.43809113184E+03  0.27027990329E+03 -0.11533133536E+04  0.12629759976E+04  0.12699999809E+01 0.  1.
</event>
<event>
 5   0  0.5154105E-07  0.3078075E+04  0.7818609E-02  0.8221781E-01
       -2   -1    0    0    0  501  0.00000000000E+00  0.00000000000E+00  0.11809513279E+04  0.11809513279E+04  0.25500000920E-02 0.  1.
        2   -1    0    0  501    0  0.00000000000E+00  0.00000000000E+00 -0.20057015789E+04  0.20057015789E+04  0.25500000920E-02 0. -1.
    10030    2    1    2    0    0  0.00000000000E+00  0.00000000000E+00 -0.82475025106E+03  0.31866529068E+04  0.30780746859E+04 0.  0.
        1    1    3    3  502    0  0.11041354087E+04 -0.10252807446E+04 -0.73699663174E+03  0.16773430302E+04  0.50400001928E-02 0.  1.
       -1    1    3    3    0  502 -0.11041354087E+04  0.10252807446E+04 -0.87753619314E+02  0.15093098766E+04  0.50400001928E-02 0. -1.
</event>
<event>
 5   0  0.1830902E-07  0.3101283E+04  0.7818609E-02  0.8215386E-01
       -1   -1    0    0    0  501  0.00000000000E+00  0.00000000000E+00  0.13142774812E+04  0.13142774812E+04  0.50400001928E-02 0.  1.
        1   -1    0    0  501    0  0.00000000000E+00  0.00000000000E+00 -0.18295140191E+04  0.18295140191E+04  0.50400001928E-02 0. -1.
    10030    2    1    2    0    0  0.00000000000E+00  0.00000000000E+00 -0.51523653788E+03  0.31437915003E+04  0.31012830099E+04 0.  0.
        3    1    3    3  502    0  0.29500460617E+03 -0.84242757267E+02 -0.17984406834E+04  0.18244214047E+04  0.10100000352E+00 0. -1.
       -3    1    3    3    0  502 -0.29500460617E+03  0.84242757267E+02  0.12832041456E+04  0.13193700956E+04  0.10100000352E+00 0.  1.
</event>
<event>
 5   0  0.5342534E-07  0.3104482E+04  0.7818609E-02  0.8214509E-01
        2   -1    0    0  501    0  0.00000000000E+00  0.00000000000E+00  0.17055622106E+04  0.17055622106E+04  0.25500000920E-02 0.  1.
       -2   -1    0    0    0  501  0.00000000000E+00  0.00000000000E+00 -0.14127027167E+04  0.14127027167E+04  0.25500000920E-02 0. -1.
    10030    2    1    2    0    0  0.00000000000E+00  0.00000000000E+00  0.29285949390E+03  0.31182649272E+04  0.31044821586E+04 0.  0.
        3    1    3    3  502    0  0.45634046393E+02 -0.14694437904E+04 -0.35388287425E+03  0.15121443775E+04  0.10100000352E+00 0.  1.
       -3    1    3    3    0  502 -0.45634046393E+02  0.14694437904E+04  0.64674236815E+03  0.16061205498E+04  0.10100000352E+00 0. -1.
</event>
<event>
 5   0  0.1830902E-07  0.3104158E+04  0.7818609E-02  0.8214598E-01
       -1   -1    0    0    0  501  0.00000000000E+00  0.00000000000E+00  0.82051834768E+03  0.82051834770E+03  0.50400001928E-02 0.  1.
        1   -1    0    0  501    0  0.00000000000E+00  0.00000000000E+00 -0.29358864431E+04  0.29358864431E+04  0.50400001928E-02 0. -1.
    10030    2    1    2    0    0  0.00000000000E+00  0.00000000000E+00 -0.21153680954E+04  0.37564047908E+04  0.31041576592E+04 0.  0.
        3    1    3    3  502    0  0.89006269461E+02 -0.49058074554E+03  0.72096959906E+03  0.87657786697E+03  0.10100000352E+00 0.  1.
       -3    1    3    3    0  502 -0.89006269461E+02  0.49058074554E+03 -0.28363376945E+04  0.28798269238E+04  0.10100000352E+00 0. -1.
</event>
<event>
 5   0  0.1814075E-07  0.3103904E+04  0.7818609E-02  0.8214667E-01
       -1   -1    0    0    0  501  0.00000000000E+00  0.00000000000E+00  0.77336596008E+03  0.77336596010E+03  0.50400001928E-02 0. -1.
        1   -1    0    0  501    0  0.00000000000E+00  0.00000000000E+00 -0.31143789823E+04  0.31143789823E+04  0.50400001928E-02 0.  1.
    10030    2    1    2    0    0  0.00000000000E+00  0.00000000000E+00 -0.23410130223E+04  0.38877449424E+04  0.31039037948E+04 0.  0.
        5    1    3    3  502    0 -0.66406186416E+03  0.10014728794E+04  0.59662006572E+02  0.12031241551E+04  0.46999998093E+01 0. -1.
       -5    1    3    3    0  502  0.66406186416E+03 -0.10014728794E+04 -0.24006750288E+04  0.26846207873E+04  0.46999998093E+01 0.  1.
</event>
<event>
 5   0  0.1840359E-07  0.3100094E+04  0.7818609E-02  0.8215712E-01
       -1   -1    0    0    0  501  0.00000000000E+00  0.00000000000E+00  0.19383345065E+04  0.19383345065E+04  0.50400001928E-02 0. -1.
        1   -1    0    0  501    0  0.00000000000E+00  0.00000000000E+00 -0.12395411584E+04  0.12395411584E+04  0.50400001928E-02 0.  1.
    10030    2    1    2    0    0  0.00000000000E+00  0.00000000000E+00  0.69879334810E+03  0.31778756648E+04  0.31000938047E+04 0.  0.
        1    1    3    3  502    0 -0.30543040145E+02  0.47836419010E+03 -0.11616572386E+04  0.12566673051E+04  0.50400001928E-02 0.  1.
       -1    1    3    3    0  502  0.30543040145E+02 -0.47836419010E+03  0.18604505867E+04  0.19212083597E+04  0.50400001928E-02 0. -1.
</event>
<event>
 5   0  0.1840359E-07  0.3115209E+04  0.7818609E-02  0.8211576E-01
       -1   -1    0    0    0  501  0.00000000000E+00  0.00000000000E+00  0.35200432419E+04  0.35200432419E+04  0.50400001928E-02 0.  1.
        1   -1    0    0  501    0  0.00000000000E+00  0.00000000000E+00 -0.68923345725E+03  0.68923345727E+03  0.50400001928E-02 0. -1.
    10030    2    1    2    0    0  0.00000000000E+00  0.00000000000E+00  0.28308097847E+04  0.42092766992E+04  0.31152088684E+04 0.  0.
        1    1    3    3  502    0  0.12126550548E+04 -0.96714952118E+03  0.12232627445E+04  0.19754195049E+04  0.50400001928E-02 0. -1.
       -1    1    3    3    0  502 -0.12126550548E+04  0.96714952118E+03  0.16075470401E+04  0.22338571943E+04  0.50400001928E-02 0.  1.
</event>
<event>
 5   0  0.5342534E-07  0.3097702E+04  0.7818609E-02  0.8216369E-01
        2   -1    0    0  501    0  0.00000000000E+00  0.00000000000E+00  0.26273351796E+04  0.26273351796E+04  0.25500000920E-02 0.  1.
       -2   -1    0    0    0  501  0.00000000000E+00  0.00000000000E+00 -0.91306945861E+03  0.91306945861E+03  0.25500000920E-02 0. -1.
    10030    2    1    2    0    0  0.00000000000E+00  0.00000000000E+00  0.17142657210E+04  0.35404046382E+04  0.30977020580E+04 0.  0.
        3    1    3    3  502    0  0.68089736403E+03  0.73522641222E+01 -0.73281686036E+03  0.10003478581E+04  0.10100000352E+00 0. -1.
       -3    1    3    3    0  502 -0.68089736403E+03 -0.73522641222E+01  0.24470825813E+04  0.25400567801E+04  0.10100000352E+00 0.  1.
</event>
<event>
 5   0  0.1840359E-07  0.3098074E+04  0.7818609E-02  0.8216267E-01
       -1   -1    0    0    0  501  0.00000000000E+00  0.00000000000E+00  0.18374962690E+04  0.18374962690E+04  0.50400001928E-02 0.  1.
        1   -1    0    0  501    0  0.00000000000E+00  0.00000000000E+00 -0.13058614225E+04  0.13058614225E+04  0.50400001928E-02 0. -1.
    10030    2    1    2    0    0  0.00000000000E+00  0.00000000000E+00  0.53163484650E+03  0.31433576915E+04  0.30980739124E+04 0.  0.
        1    1    3    3  502    0 -0.10578194991E+04  0.79922270719E+03 -0.54700171637E+03  0.14342070653E+04  0.50400001928E-02 0. -1.
       -1    1    3    3    0  502  0.10578194991E+04 -0.79922270719E+03  0.10786365629E+04  0.17091506262E+04  0.50400001928E-02 0.  1.
</event>
<event>
 5   0  0.1845123E-07  0.3123671E+04  0.7818609E-02  0.8209271E-01
        1   -1    0    0  501    0  0.00000000000E+00  0.00000000000E+00  0.21345067876E+04  0.21345067876E+04  0.50400001928E-02 0.  1.
       -1   -1    0    0    0  501  0.00000000000E+00  0.00000000000E+00 -0.11428074224E+04  0.11428074224E+04  0.50400001928E-02 0. -1.
    10030    2    1    2    0    0  0.00000000000E+00  0.00000000000E+00  0.99169936525E+03  0.32773142100E+04  0.31236710454E+04 0.  0.
        2    1    3    3  502    0 -0.80382516791E+03 -0.12881118187E+04  0.87986240558E+03  0.17548574902E+04  0.25500000920E-02 0.  1.
       -2    1    3    3    0  502  0.80382516791E+03  0.12881118187E+04  0.11183695967E+03  0.15224567198E+04  0.25500000920E-02 0. -1.
</event>
<event>
 5   0  0.1814075E-07  0.3097626E+04  0.7818609E-02  0.8216390E-01
        1   -1    0    0  501    0  0.00000000000E+00  0.00000000000E+00  0.24341299859E+04  0.24341299859E+04  0.50400001928E-02 0. -1.
       -1   -1    0    0    0  501  0.00000000000E+00  0.00000000000E+00 -0.98549469502E+03  0.98549469503E+03  0.50400001928E-02 0.  1.
    10030    2    1    2    0    0  0.00000000000E+00  0.00000000000E+00  0.14486352909E+04  0.34196246810E+04  0.30976263094E+04 0.  0.
        5    1    3    3  502    0 -0.47538589123E+03  0.94847636751E+03  0.19699729814E+04  0.22375019112E+04  0.46999998093E+01 0. -1.
       -5    1    3    3    0  502  0.47538589123E+03 -0.94847636751E+03 -0.52133769045E+03  0.11821227698E+04  0.46999998093E+01 0.  1.
</event>
<event>
 5   0  0.5248309E-07  0.3050703E+04  0.7818609E-02  0.8229399E-01
       -2   -1    0    0    0  501  0.00000000000E+00  0.00000000000E+00  0.15359774143E+04  0.15359774143E+04  0.25500000920E-02 0.  1.
        2   -1    0    0  501    0  0.00000000000E+00  0.00000000000E+00 -0.15147993936E+04  0.15147993936E+04  0.25500000920E-02 0. -1.
    10030    2    1    2    0    0  0.00000000000E+00  0.00000000000E+00  0.21178020784E+02  0.30507768079E+04  0.30507032998E+04 0.  0.
        4    1    3    3  502    0 -0.29644021707E+03 -0.27221405202E+03 -0.14607447626E+04  0.15151746325E+04  0.12699999809E+01 0. -1.
       -4    1    3    3    0  502  0.29644021707E+03  0.27221405202E+03  0.14819227834E+04  0.15356021755E+04  0.12699999809E+01 0.  1.
</event>
<event>
 5   0  0.5342534E-07  0.3106115E+04  0.7818609E-02  0.8214062E-01
       -2   -1    0    0    0  501  0.00000000000E+00  0.00000000000E+00  0.92894618987E+03  0.92894618988E+03  0.25500000920E-02 0.  1.
        2   -1    0    0  501    0  0.00000000000E+00  0.00000000000E+00 -0.25964772673E+04  0.25964772673E+04  0.25500000920E-02 0. -1.
    10030    2    1    2    0    0  0.00000000000E+00  0.00000000000E+00 -0.16675310775E+04  0.35254234572E+04  0.31061150427E+04 0.  0.
        3    1    3    3  502    0 -0.27255193516E+03 -0.15289535282E+04 -0.83609313264E+03  0.17638126843E+04  0.10100000352E+00 0. -1.
       -3    1    3    3    0  502  0.27255193516E+03  0.15289535282E+04 -0.83143794482E+03  0.17616107729E+04  0.10100000352E+00 0.  1.
</event>
<event>
 5   0  0.1875284E-07  0.3102548E+04  0.7818609E-02  0.8215039E-01
        1   -1    0    0  501    0  0.00000000000E+00  0.00000000000E+00  0.18714593064E+04  0.18714593064E+04  0.50400001928E-02 0. -1.
       -1   -1    0    0    0  501  0.00000000000E+00  0.00000000000E+00 -0.12858689211E+04  0.12858689211E+04  0.50400001928E-02 0.  1.
    10030    2    1    2    0    0  0.00000000000E+00  0.00000000000E+00  0.58559038526E+03  0.31573282275E+04  0.31025482167E+04 0.  0.
        4    1    3    3  502    0  0.46800757899E+03 -0.13105078947E+04 -0.40486580324E+03  0.14492687700E+04  0.12699999809E+01 0.  1.
       -4    1    3    3    0  502 -0.46800757899E+03  0.13105078947E+04  0.99045618851E+03  0.17080594575E+04  0.12699999809E+01 0. -1.
</event>
<event>
 5   0  0.1845123E-07  0.3100702E+04  0.7818609E-02  0.8215545E-01
       -1   -1    0    0    0  501  0.00000000000E+00  0.00000000000E+00  0.12714967333E+04  0.12714967333E+04  0.50400001928E-02 0.  1.
        1   -1    0    0  501    0  0.00000000000E+00  0.00000000000E+00 -0.18903618514E+04  0.18903618514E+04  0.50400001928E-02 0. -1.
    10030    2    1    2    0    0  0.00000000000E+00  0.00000000000E+00 -0.61886511807E+03  0.31618585847E+04  0.31007024487E+04 0.  0.
        2    1    3    3  502    0 -0.10001569649E+03 -0.10555359186E+04 -0.14628607570E+04  0.18066878008E+04  0.25500000920E-02 0. -1.
       -2    1    3    3    0  502  0.10001569649E+03  0.10555359186E+04  0.84399563896E+03  0.13551707839E+04  0.25500000920E-02 0.  1.
</event>
<event>
 5   0  0.1875284E-07  0.3115717E+04  0.7818609E-02  0.8211438E-01
       -1   -1    0    0    0  501  0.00000000000E+00  0.00000000000E+00  0.11732997961E+04  0.11732997961E+04  0.50400001928E-02 0.  1.
        1   -1    0    0  501    0  0.00000000000E+00  0.00000000000E+00 -0.20684599399E+04  0.20684599399E+04  0.50400001928E-02 0. -1.
    10030    2    1    2    0    0  0.00000000000E+00  0.00000000000E+00 -0.89516014384E+03  0.32417597360E+04  0.31157173336E+04 0.  0.
        4    1    3    3  502    0 -0.27585901179E+03  0.17709435161E+03  0.11370078781E+04  0.11833212292E+04  0.12699999809E+01 0.  1.
       -4    1    3    3    0  502  0.27585901179E+03 -0.17709435161E+03 -0.20321680219E+04  0.20584385068E+04  0.12699999809E+01 0. -1.
</event>
<event>
 5   0  0.1840359E-07  0.3103913E+04  0.7818609E-02  0.8214665E-01
       -1   -1    0    0    0  501  0.00000000000E+00  0.00000000000E+00  0.89169768484E+03  0.89169768485E+03  0.50400001928E-02 0. -1.
        1   -1    0    0  501    0  0.00000000000E+00  0.00000000000E+00 -0.27011052018E+04  0.27011052018E+04  0.50400001928E-02 0.  1.
    10030    2    1    2    0    0  0.00000000000E+00  0.00000000000E+00 -0.18094075170E+04  0.35928028867E+04  0.31039131786E+04 0.  0.
        1    1    3    3  502    0 -0.12772793128E+04  0.86355280819E+03 -0.69958192894E+03  0.16930979803E+04  0.50400001928E-02 0.  1.
       -1    1    3    3    0  502  0.12772793128E+04 -0.86355280819E+03 -0.11098255881E+04  0.18997049064E+04  0.50400001928E-02 0. -1.
</event>
<event>
 5   0  0.1727000E-07  0.3105508E+04  0.7818609E-02  0.8214228E-01
       -3   -1    0    0    0  501  0.00000000000E+00  0.00000000000E+00  0.10993493493E+04  0.10993493539E+04  0.10100000352E+00 0. -1.
        3   -1    0    0  501    0  0.00000000000E+00  0.00000000000E+00 -0.21931564522E+04  0.21931564545E+04  0.10100000352E+00 0.  1.
    10030    2    1    2    0    0  0.00000000000E+00  0.00000000000E+00 -0.10938071029E+04  0.32925058084E+04  0.31055080937E+04 0.  0.
        1    1    3    3  502    0  0.50342024938E+03  0.18283349001E+03  0.99831553239E+03  0.11329139132E+04  0.50400001928E-02 0. -1.
       -1    1    3    3    0  502 -0.50342024938E+03 -0.18283349001E+03 -0.20921226353E+04  0.21595918952E+04  0.50400001928E-02 0.  1.
</event>
<event>
 5   0  0.1875284E-07  0.3108303E+04  0.7818609E-02  0.8213463E-01
       -1   -1    0    0    0  501  0.00000000000E+00  0.00000000000E+00  0.17643351846E+04  0.17643351846E+04  0.50400001928E-02 0. -1.
        1   -1    0    0  501    0  0.00000000000E+00  0.00000000000E+00 -0.13690070417E+04  0.13690070417E+04  0.50400001928E-02 0.  1.
    10030    2    1    2    0    0  0.00000000000E+00  0.00000000000E+00  0.39532814288E+03  0.31333422263E+04  0.31083032617E+04 0.  0.
        4    1    3    3  502    0 -0.58775458642E+03  0.12416121343E+04 -0.53505398020E+03  0.14742253968E+04  0.12699999809E+01 0.  1.
       -4    1    3    3    0  502  0.58775458642E+03 -0.12416121343E+04  0.93038212308E+03  0.16591168295E+04  0.12699999809E+01 0. -1.
</event>
<event>
 5   0  0.5248309E-07  0.3093764E+04  0.7818609E-02  0.8217451E-01
       -2   -1    0    0    0  501  0.00000000000E+00  0.00000000000E+00  0.18496905927E+04  0.18496905927E+04  0.25500000920E-02 0. -1.
        2   -1    0    0  501    0  0.00000000000E+00  0.00000000000E+00 -0.12936459207E+04  0.12936459207E+04  0.25500000920E-02 0.  1.
    10030    2    1    2    0    0  0.00000000000E+00  0.00000000000E+00  0.55604467194E+03  0.31433365134E+04  0.30937644964E+04 0.  0.
        4    1    3    3  502    0 -0.97782174925E+03  0.85527026884E+02  0.14927514092E+04  0.17865493635E+04  0.12699999809E+01 0. -1.
       -4    1    3    3    0  502  0.97782174925E+03 -0.85527026884E+02 -0.93670673727E+03  0.13567871499E+04  0.12699999809E+01 0.  1.
</event>
<event>
 5   0  0.5248309E-07  0.3094782E+04  0.7818609E-02  0.8217171E-01
        2   -1    0    0  501    0  0.00000000000E+00  0.00000000000E+00  0.19360559897E+04  0.19360559897E+04  0.25500000920E-02 0. -1.
       -2   -1    0    0    0  501  0.00000000000E+00  0.00000000000E+00 -0.12367510928E+04  0.12367510928E+04  0.25500000920E-02 0.  1.
    10030    2    1    2    0    0  0.00000000000E+00  0.00000000000E+00  0.69930489687E+03  0.31728070825E+04  0.30947822935E+04 0.  0.
        4    1    3    3  502    0  0.13786394306E+04  0.67420978843E+03  0.14663922272E+03  0.15416582608E+04  0.12699999809E+01 0.  1.
       -4    1    3    3    0  502 -0.13786394306E+04 -0.67420978843E+03  0.55266567415E+03  0.16311488218E+04  0.12699999809E+01 0. -1.
</event>
<event>
 5   0  0.1840359E-07  0.3080692E+04  0.7818609E-02  0.8221057E-01
        1   -1    0    0  501    0  0.00000000000E+00  0.00000000000E+00  0.11451610503E+04  0.11451610503E+04  0.50400001928E-02 0.  1.
       -1   -1    0    0    0  501  0.00000000000E+00  0.00000000000E+00 -0.20719063513E+04  0.20719063513E+04  0.50400001928E-02 0. -1.
    10030    2    1    2    0    0  0.00000000000E+00  0.00000000000E+00 -0.92674530097E+03  0.32170674016E+04  0.30806924244E+04 0.  0.
        1    1    3    3  502    0 -0.51160308987E+03 -0.83108500098E+03 -0.17078603779E+04  0.19670350965E+04  0.50400001928E-02 0. -1.
       -1    1    3    3    0  502  0.51160308987E+03  0.83108500098E+03  0.78111507694E+03  0.12500323051E+04  0.50400001928E-02 0.  1.
</event>
<event>
 5   0  0.1875284E-07  0.3098783E+04  0.7818609E-02  0.8216072E-01
       -1   -1    0    0    0  501  0.00000000000E+00  0.00000000000E+00  0.16637090599E+04  0.16637090599E+04  0.50400001928E-02 0. -1.
        1   -1    0    0  501    0  0.00000000000E+00  0.00000000000E+00 -0.14429289457E+04  0.14429289457E+04  0.50400001928E-02 0.  1.
    10030    2    1    2    0    0  0.00000000000E+00  0.00000000000E+00  0.22078011418E+03  0.31066380057E+04  0.30987829610E+04 0.  0.
        4    1    3    3  502    0  0.37410230952E+03 -0.36931485408E+03 -0.13507908079E+04  0.14494769467E+04  0.12699999809E+01 0.  1.
       -4    1    3    3    0  502 -0.37410230952E+03  0.36931485408E+03  0.15715709220E+04  0.16571610590E+04  0.12699999809E+01 0. -1.
</event>
<event>
 5   0  0.5248309E-07  0.3099203E+04  0.7818609E-02  0.8215957E-01
       -2   -1    0    0    0  501  0.00000000000E+00  0.00000000000E+00  0.14413066699E+04  0.14413066699E+04  0.25500000920E-02 0. -1.
        2   -1    0    0  501    0  0.00000000000E+00  0.00000000000E+00 -0.16660327735E+04  0.16660327735E+04  0.25500000920E-02 0.  1.
    10030    2    1    2    0    0  0.00000000000E+00  0.00000000000E+00 -0.22472610364E+03  0.31073394434E+04  0.30992025740E+04 0.  0.
        4    1    3    3  502    0 -0.64581055297E+03  0.52072255307E+03  0.11999045160E+04  0.14587651312E+04  0.12699999809E+01 0. -1.
       -4    1    3    3    0  502  0.64581055297E+03 -0.52072255307E+03 -0.14246306196E+04  0.16485743122E+04  0.12699999809E+01 0.  1.
</event>
<event>
 5   0  0.5248309E-07  0.3098110E+04  0.7818609E-02  0.8216257E-01
       -2   -1    0    0    0  501  0.00000000000E+00  0.00000000000E+00  0.18450422950E+04  0.18450422950E+04  0.25500000920E-02 0. -1.
        2   -1    0    0  501    0  0.00000000000E+00  0.00000000000E+00 -0.13005509197E+04  0.13005509197E+04  0.25500000920E-02 0.  1.
    10030    2    1    2    0    0  0.00000000000E+00  0.00000000000E+00  0.54449137526E+03  0.31455932147E+04  0.30981100391E+04 0.  0.
        4    1    3    3  502    0  0.33499009316E+03 -0.79808885456E+03  0.15766165005E+04  0.17985787124E+04  0.12699999809E+01 0. -1.
       -4    1    3    3    0  502 -0.33499009316E+03  0.79808885456E+03 -0.10321251252E+04  0.13470145023E+04  0.12699999809E+01 0.  1.
</event>
<event>
 5   0  0.5376678E-07  0.3097718E+04  0.7818609E-02  0.8216364E-01
       -2   -1    0    0    0  501  0.00000000000E+00  0.00000000000E+00  0.10939796471E+04  0.10939796471E+04  0.25500000920E-02 0.  1.
        2   -1    0    0  501    0  0.00000000000E+00  0.00000000000E+00 -0.21928782173E+04  0.21928782173E+04  0.25500000920E-02 0. -1.
    10030    2    1    2    0    0  0.00000000000E+00  0.00000000000E+00 -0.10988985702E+04  0.32868578644E+04  0.30977179589E+04 0.  0.
        5    1    3    3  502    0 -0.77738744265E+03  0.59642449447E+03 -0.18222272314E+04  0.20689580920E+04  0.46999998093E+01 0. -1.
       -5    1    3    3    0  502  0.77738744265E+03 -0.59642449447E+03  0.72332866118E+03  0.12178997724E+04  0.46999998093E+01 0.  1.
</event>
<event>
 5   0  0.5154105E-07  0.3101296E+04  0.7818609E-02  0.8215382E-01
        2   -1    0    0  501    0  0.00000000000E+00  0.00000000000E+00  0.24818526751E+04  0.24818526751E+04  0.25500000920E-02 0.  1.
       -2   -1    0    0    0  501  0.00000000000E+00  0.00000000000E+00 -0.96883654783E+03  0.96883654783E+03  0.25500000920E-02 0. -1.
    10030    2    1    2    0    0  0.00000000000E+00  0.00000000000E+00  0.15130161273E+04  0.34506892230E+04  0.31012962309E+04 0.  0.
        1    1    3    3  502    0 -0.85735192164E+03  0.16132775883E+03 -0.66988192704E+03  0.10999185240E+04  0.50400001928E-02 0. -1.
       -1    1    3    3    0  502  0.85735192164E+03 -0.16132775883E+03  0.21828980543E+04  0.23507706989E+04  0.50400001928E-02 0.  1.
</event>
<event>
 5   0  0.1814075E-07  0.3098217E+04  0.7818609E-02  0.8216227E-01
       -1   -1    0    0    0  501  0.00000000000E+00  0.00000000000E+00  0.90220610503E+03  0.90220610504E+03  0.50400001928E-02 0.  1.
        1   -1    0    0  501    0  0.00000000000E+00  0.00000000000E+00 -0.26598547549E+04  0.26598547549E+04  0.50400001928E-02 0. -1.
    10030    2    1    2    0    0  0.00000000000E+00  0.00000000000E+00 -0.17576486499E+04  0.35620608599E+04  0.30982170346E+04 0.  0.
        5    1    3    3  502    0 -0.31169140452E+03 -0.54458648021E+03  0.74954827832E+03  0.97753295474E+03  0.46999998093E+01 0.  1.
       -5    1    3    3    0  502  0.31169140452E+03  0.54458648021E+03 -0.25071969282E+04  0.25845279052E+04  0.46999998093E+01 0. -1.
</event>
<event>
 5   0  0.5376678E-07  0.3123788E+04  0.7818609E-02  0.8209240E-01
        2   -1    0    0  501    0  0.00000000000E+00  0.00000000000E+00  0.19724552714E+04  0.19724552714E+04  0.25500000920E-02 0.  1.
       -2   -1    0    0    0  501  0.00000000000E+00  0.00000000000E+00 -0.12367896858E+04  0.12367896858E+04  0.25500000920E-02 0. -1.
    10030    2    1    2    0    0  0.00000000000E+00  0.00000000000E+00  0.73566558560E+03  0.32092449572E+04  0.31237876595E+04 0.  0.
        5    1    3    3  502    0 -0.10304949912E+03 -0.51531948646E+03  0.18788918257E+04  0.19510074206E+04  0.46999998093E+01 0.  1.
       -5    1    3    3    0  502  0.10304949912E+03  0.51531948646E+03 -0.11432262401E+04  0.12582375366E+04  0.46999998093E+01 0. -1.
</event>
<event>
 5   0  0.1845123E-07  0.3097040E+04  0.7818609E-02  0.8216551E-01
        1   -1    0    0  501    0  0.00000000000E+00  0.00000000000E+00  0.14903208616E+04  0.14903208616E+04  0.50400001928E-02 0.  1.
       -1   -1    0    0    0  501  0.00000000000E+00  0.00000000000E+00 -0.16089922386E+04  0.16089922386E+04  0.50400001928E-02 0. -1.
    10030    2    1    2    0    0  0.00000000000E+00  0.00000000000E+00 -0.11867137702E+03  0.30993131002E+04  0.30970403286E+04 0.  0.
        2    1    3    3  502    0 -0.11365329027E+04  0.81760528866E+02 -0.11086865565E+04  0.15898357474E+04  0.25500000920E-02 0. -1.
       -2    1    3    3    0  502  0.11365329027E+04 -0.81760528866E+02  0.99001517944E+03  0.15094773528E+04  0.25500000920E-02 0.  1.
</event>
<event>
 5   0  0.5376678E-07  0.3103323E+04  0.7818609E-02  0.8214827E-01
        2   -1    0    0  501    0  0.00000000000E+00  0.00000000000E+00  0.17084878467E+04  0.17084878467E+04  0.25500000920E-02 0. -1.
       -2   -1    0    0    0  501  0.00000000000E+00  0.00000000000E+00 -0.14092304303E+04  0.14092304303E+04  0.25500000920E-02 0.  1.
    10030    2    1    2    0    0  0.00000000000E+00  0.00000000000E+00  0.29925741641E+03  0.31177182769E+04  0.31033227761E+04 0.  0.
        5    1    3    3  502    0  0.17404469591E+03 -0.10781545070E+04  0.12569768154E+04  0.16651490929E+04  0.46999998093E+01 0. -1.
       -5    1    3    3    0  502 -0.17404469591E+03  0.10781545070E+04 -0.95771939899E+03  0.14525691840E+04  0.46999998093E+01 0.  1.
</event>
<event>
 5   0  0.1830902E-07  0.3094756E+04  0.7818609E-02  0.8217179E-01
        1   -1    0    0  501    0  0.00000000000E+00  0.00000000000E+00  0.12628074972E+04  0.12628074972E+04  0.50400001928E-02 0.  1.
       -1   -1    0    0    0  501  0.00000000000E+00  0.00000000000E+00 -0.18960758544E+04  0.18960758544E+04  0.50400001928E-02 0. -1.
    10030    2    1    2    0    0  0.00000000000E+00  0.00000000000E+00 -0.63326835727E+03  0.31588833516E+04  0.30947560836E+04 0.  0.
        3    1    3    3  502    0 -0.14277594985E+02  0.10359376694E+04 -0.14898013515E+04  0.18146291030E+04  0.10100000352E+00 0. -1.
       -3    1    3    3    0  502  0.14277594985E+02 -0.10359376694E+04  0.85653299419E+03  0.13442542486E+04  0.10100000352E+00 0.  1.
</event>
<event>
 5   0  0.1875284E-07  0.3091719E+04  0.7818609E-02  0.8218014E-01
        1   -1    0    0  501    0  0.00000000000E+00  0.00000000000E+00  0.14307871390E+04  0.14307871390E+04  0.50400001928E-02 0. -1.
       -1   -1    0    0    0  501  0.00000000000E+00  0.00000000000E+00 -0.16701864363E+04  0.16701864363E+04  0.50400001928E-02 0.  1.
    10030    2    1    2    0    0  0.00000000000E+00  0.00000000000E+00 -0.23939929728E+03  0.31009735752E+04  0.30917187923E+04 0.  0.
        4    1    3    3  502    0 -0.14417227229E+04  0.14771698577E+03 -0.65917114127E+03  0.15921347066E+04  0.12699999809E+01 0.  1.
       -4    1    3    3    0  502  0.14417227229E+04 -0.14771698577E+03  0.41977184399E+03  0.15088388686E+04  0.12699999809E+01 0. -1.
</event>
<event>
 5   0  0.1830902E-07  0.3100523E+04  0.7818609E-02  0.8215594E-01
       -1   -1    0    0    0  501  0.00000000000E+00  0.00000000000E+00  0.98062282942E+03  0.98062282944E+03  0.50400001928E-02 0.  1.
        1   -1    0    0  501    0  0.00000000000E+00  0.00000000000E+00 -0.24508003690E+04  0.24508003690E+04  0.50400001928E-02 0. -1.
    10030    2    1    2    0    0  0.00000000000E+00  0.00000000000E+00 -0.14701775396E+04  0.34314231984E+04  0.31005230476E+04 0.  0.
        3    1    3    3  502    0  0.13363008650E+04  0.58826278174E+03 -0.13118158761E+04  0.19628076842E+04  0.10100000352E+00 0. -1.
       -3    1    3    3    0  502 -0.13363008650E+04 -0.58826278174E+03 -0.15836166350E+03  0.14686155143E+04  0.10100000352E+00 0.  1.
</event>
<event>
 5   0  0.1830902E-07  0.3109640E+04  0.7818609E-02  0.8213097E-01
       -1   -1    0    0    0  501  0.00000000000E+00  0.00000000000E+00  0.12078981267E+04  0.12078981267E+04  0.50400001928E-02 0.  1.
        1   -1    0    0  501    0  0.00000000000E+00  0.00000000000E+00 -0.20013820584E+04  0.20013820584E+04  0.50400001928E-02 0. -1.
    10030    2    1    2    0    0  0.00000000000E+00  0.00000000000E+00 -0.79348393169E+03  0.32092801851E+04  0.31096402616E+04 0.  0.
        3    1    3    3  502    0 -0.31429398063E+03  0.14579448563E+04 -0.85023232833E+03  0.17167640877E+04  0.10100000352E+00 0. -1.
       -3    1    3    3    0  502  0.31429398063E+03 -0.14579448563E+04  0.56748396636E+02  0.14925160974E+04  0.10100000352E+00 0.  1.
</event>
<event>
 5   0  0.5055900E-07  0.3097459E+04  0.7818609E-02  0.8216436E-01
       -2   -1    0    0    0  501  0.00000000000E+00  0.00000000000E+00  0.11321867986E+04  0.11321867986E+04  0.25500000920E-02 0. -1.
        2   -1    0    0  501    0  0.00000000000E+00  0.00000000000E+00 -0.21185219018E+04  0.21185219018E+04  0.25500000920E-02 0.  1.
    10030    2    1    2    0    0  0.00000000000E+00  0.00000000000E+00 -0.98633510314E+03  0.32507087004E+04  0.30974586550E+04 0.  0.
        2    1    3    3  502    0 -0.12821047536E+04 -0.65815894627E+03 -0.10883201704E+04  0.18059364859E+04  0.25500000920E-02 0.  1.
       -2    1    3    3    0  502  0.12821047536E+04  0.65815894627E+03  0.10198506727E+03  0.14447722145E+04  0.25500000920E-02 0. -1.
</event>
<event>
 5   0  0.1814075E-07  0.3118676E+04  0.7818609E-02  0.8210631E-01
        1   -1    0    0  501    0  0.00000000000E+00  0.00000000000E+00  0.15253952292E+04  0.15253952292E+04  0.50400001928E-02 0. -1.
       -1   -1    0    0    0  501  0.00000000000E+00  0.00000000000E+00 -0.15940360181E+04  0.15940360181E+04  0.50400001928E-02 0.  1.
    10030    2    1    2    0    0  0.00000000000E+00  0.00000000000E+00 -0.68640788945E+02  0.31194312473E+04  0.31186759608E+04 0.  0.
        5    1    3    3  502    0 -0.89919689213E+03 -0.80133117529E+03  0.95628612570E+03  0.15379180562E+04  0.46999998093E+01 0. -1.
       -5    1    3    3    0  502  0.89919689213E+03  0.80133117529E+03 -0.10249269146E+04  0.15815131911E+04  0.46999998093E+01 0.  1.
</event>
<event>
 5   0  0.1845123E-07  0.3102050E+04  0.7818609E-02  0.8215176E-01
       -1   -1    0    0    0  501  0.00000000000E+00  0.00000000000E+00  0.91350464039E+03  0.91350464041E+03  0.50400001928E-02 0. -1.
        1   -1    0    0  501    0  0.00000000000E+00  0.00000000000E+00 -0.26334605060E+04  0.26334605060E+04  0.50400001928E-02 0.  1.
    10030    2    1    2    0    0  0.00000000000E+00  0.00000000000E+00 -0.17199558656E+04  0.35469651464E+04  0.31020498981E+04 0.  0.
        2    1    3    3  502    0  0.10641412394E+04 -0.71082489742E+03 -0.18620328347E+04  0.22593881671E+04  0.25500000920E-02 0.  1.
       -2    1    3    3    0  502 -0.10641412394E+04  0.71082489742E+03  0.14207696914E+03  0.12875769792E+04  0.25500000920E-02 0. -1.
</event>
<event>
 5   0  0.1830902E-07  0.3095522E+04  0.7818609E-02  0.8216968E-01
       -1   -1    0    0    0  501  0.00000000000E+00  0.00000000000E+00  0.14300864007E+04  0.14300864007E+04  0.50400001928E-02 0. -1.
        1   -1    0    0  501    0  0.00000000000E+00  0.00000000000E+00 -0.16751182201E+04  0.16751182201E+04  0.50400001928E-02 0.  1.
    10030    2    1    2    0    0  0.00000000000E+00  0.00000000000E+00 -0.24503181940E+03  0.31052046208E+04  0.30955217887E+04 0.  0.
        3    1    3    3  502    0 -0.28064371128E+03  0.88046612637E+03 -0.13680043864E+04  0.16508838553E+04  0.10100000352E+00 0.  1.
       -3    1    3    3    0  502  0.28064371128E+03 -0.88046612637E+03  0.11229725670E+04  0.14543207654E+04  0.10100000352E+00 0. -1.
</event>
<event>
 5   0  0.5154105E-07  0.3098004E+04  0.7818609E-02  0.8216286E-01
        2   -1    0    0  501    0  0.00000000000E+00  0.00000000000E+00  0.12274878091E+04  0.12274878091E+04  0.25500000920E-02 0. -1.
       -2   -1    0    0    0  501  0.00000000000E+00  0.00000000000E+00 -0.19547298072E+04  0.19547298072E+04  0.25500000920E-02 0.  1.
    10030    2    1    2    0    0  0.00000000000E+00  0.00000000000E+00 -0.72724199816E+03  0.31822176163E+04  0.30980038789E+04 0.  0.
        1    1    3    3  502    0  0.54086815648E+03 -0.32711511541E+03  0.10889861840E+04  0.12591400122E+04  0.50400001928E-02 0. -1.
       -1    1    3    3    0  502 -0.54086815648E+03  0.32711511541E+03 -0.18162281822E+04  0.19230776040E+04  0.50400001928E-02 0.  1.
</event>
<event>
 5   0  0.5055900E-07  0.3096671E+04  0.7818609E-02  0.8216652E-01
       -2   -1    0    0    0  501  0.00000000000E+00  0.00000000000E+00  0.20824901622E+04  0.20824901622E+04  0.25500000920E-02 0. -1.
        2   -1    0    0  501    0  0.00000000000E+00  0.00000000000E+00 -0.11511903050E+04  0.11511903050E+04  0.25500000920E-02 0.  1.
    10030    2    1    2    0    0  0.00000000000E+00  0.00000000000E+00  0.93129985723E+03  0.32336804672E+04  0.30966707832E+04 0.  0.
        2    1    3    3  502    0 -0.62761296782E+02  0.60918585425E+03  0.19506430393E+04  0.20445181956E+04  0.25500000920E-02 0. -1.
       -2    1    3    3    0  502  0.62761296782E+02 -0.60918585425E+03 -0.10193431821E+04  0.11891622716E+04  0.25500000920E-02 0.  1.
</event>
<event>
 5   0  0.1830902E-07  0.3099435E+04  0.7818609E-02  0.8215893E-01
       -1   -1    0    0    0  501  0.00000000000E+00  0.00000000000E+00  0.16893614052E+04  0.16893614052E+04  0.50400001928E-02 0.  1.
        1   -1    0    0  501    0  0.00000000000E+00  0.00000000000E+00 -0.14216168365E+04  0.14216168365E+04  0.50400001928E-02 0. -1.
    10030    2    1    2    0    0  0.00000000000E+00  0.00000000000E+00  0.26774456873E+03  0.31109782417E+04  0.30994351850E+04 0.  0.
        3    1    3    3  502    0  0.10640153233E+04 -0.32405066993E+03  0.12170052330E+04  0.16487083405E+04  0.10100000352E+00 0.  1.
       -3    1    3    3    0  502 -0.10640153233E+04  0.32405066993E+03 -0.94926066423E+03  0.14622699011E+04  0.10100000352E+00 0. -1.
</event>
<event>
 5   0  0.5154105E-07  0.3083990E+04  0.7818609E-02  0.8220146E-01
        2   -1    0    0  501    0  0.00000000000E+00  0.00000000000E+00  0.77075268854E+03  0.77075268854E+03  0.25500000920E-02 0. -1.
       -2   -1    0    0    0  501  0.00000000000E+00  0.00000000000E+00 -0.30849687750E+04  0.30849687750E+04  0.25500000920E-02 0.  1.
    10030    2    1    2    0    0  0.00000000000E+00  0.00000000000E+00 -0.23142160864E+04  0.38557214635E+04  0.30839896092E+04 0.  0.
        1    1    3    3  502    0 -0.33403749659E+03  0.48825882516E+03 -0.29374446436E+04  0.29964243298E+04  0.50400001928E-02 0.  1.
       -1    1    3    3    0  502  0.33403749659E+03 -0.48825882516E+03  0.62322855723E+03  0.85929713374E+03  0.50400001928E-02 0. -1.
</event>
<event>
 5   0  0.1840359E-07  0.3104317E+04  0.7818609E-02  0.8214554E-01
       -1   -1    0    0    0  501  0.00000000000E+00  0.00000000000E+00  0.27389313364E+04  0.27389313364E+04  0.50400001928E-02 0.  1.
        1   -1    0    0  501    0  0.00000000000E+00  0.00000000000E+00 -0.87961166034E+03  0.87961166035E+03  0.50400001928E-02 0. -1.
    10030    2    1    2    0    0  0.00000000000E+00  0.00000000000E+00  0.18593196761E+04  0.36185429968E+04  0.31043169557E+04 0.  0.
        1    1    3    3  502    0 -0.42404829006E+03  0.94525841361E+03  0.22769125006E+04  0.25015317220E+04  0.50400001928E-02 0.  1.
       -1    1    3    3    0  502  0.42404829006E+03 -0.94525841361E+03 -0.41759282453E+03  0.11170112748E+04  0.50400001928E-02 0. -1.
</event>
<event>
 5   0  0.1830902E-07  0.3109072E+04  0.7818609E-02  0.8213253E-01
       -1   -1    0    0    0  501  0.00000000000E+00  0.00000000000E+00  0.17072794345E+04  0.17072794345E+04  0.50400001928E-02 0.  1.
        1   -1    0    0  501    0  0.00000000000E+00  0.00000000000E+00 -0.14154578616E+04  0.14154578616E+04  0.50400001928E-02 0. -1.
    10030    2    1    2    0    0  0.00000000000E+00  0.00000000000E+00  0.29182157286E+03  0.31227372961E+04  0.31090719500E+04 0.  0.
        3    1    3    3  502    0 -0.14340394084E+04 -0.54801948963E+03  0.39150074519E+03  0.15843191691E+04  0.10100000352E+00 0. -1.
       -3    1    3    3    0  502  0.14340394084E+04  0.54801948963E+03 -0.99679172321E+02  0.15384181270E+04  0.10100000352E+00 0.  1.
</event>
<event>
 5   0  0.5248309E-07  0.3093913E+04  0.7818609E-02  0.8217410E-01
       -2   -1    0    0    0  501  0.00000000000E+00  0.00000000000E+00  0.15764984287E+04  0.15764984287E+04  0.25500000920E-02 0. -1.
        2   -1    0    0  501    0  0.00000000000E+00  0.00000000000E+00 -0.15179682062E+04  0.15179682062E+04  0.25500000920E-02 0.  1.
    10030    2    1    2    0    0  0.00000000000E+00  0.00000000000E+00  0.58530222519E+02  0.30944666348E+04  0.30939130510E+04 0.  0.
        4    1    3    3  502    0 -0.67924032643E+03  0.96485549994E+03 -0.97129347242E+03  0.15283082736E+04  0.12699999809E+01 0.  1.
       -4    1    3    3    0  502  0.67924032643E+03 -0.96485549994E+03  0.10298236949E+04  0.15661583612E+04  0.12699999809E+01 0. -1.
</event>
<event>
 5   0  0.5376678E-07  0.3037446E+04  0.7818609E-02  0.8233118E-01
       -2   -1    0    0    0  501  0.00000000000E+00  0.00000000000E+00  0.23421418022E+04  0.23421418022E+04  0.25500000920E-02 0. -1.
        2   -1    0    0  501    0  0.00000000000E+00  0.00000000000E+00 -0.98479088991E+03  0.98479088991E+03  0.25500000920E-02 0.  1.
    10030    2    1    2    0    0  0.00000000000E+00  0.00000000000E+00  0.13573509123E+04  0.33269326921E+04  0.30374462363E+04 0.  0.
        5    1    3    3  502    0 -0.46411431210E+03  0.99718998575E+03  0.18257216089E+04  0.21314482038E+04  0.46999998093E+01 0. -1.
       -5    1    3    3    0  502  0.46411431210E+03 -0.99718998575E+03 -0.46837069658E+03  0.11954844883E+04  0.46999998093E+01 0.  1.
</event>
<event>
 5   0  0.1727000E-07  0.3103722E+04  0.7818609E-02  0.8214717E-01
       -3   -1    0    0    0  501  0.00000000000E+00  0.00000000000E+00  0.16977873246E+04  0.16977873276E+04  0.10100000352E+00 0.  1.
        3   -1    0    0  501    0  0.00000000000E+00  0.00000000000E+00 -0.14184768134E+04  0.14184768170E+04  0.10100000352E+00 0. -1.
    10030    2    1    2    0    0  0.00000000000E+00  0.00000000000E+00  0.27931051122E+03  0.31162641446E+04  0.31037216140E+04 0.  0.
        5    1    3    3  502    0 -0.55540071845E+03  0.42053862485E+03  0.15319555705E+04  0.16829238405E+04  0.46999998093E+01 0.  1.
       -5    1    3    3    0  502  0.55540071845E+03 -0.42053862485E+03 -0.12526450592E+04  0.14333403041E+04  0.46999998093E+01 0. -1.
</event>
<event>
 5   0  0.5154105E-07  0.3101589E+04  0.7818609E-02  0.8215302E-01
        2   -1    0    0  501    0  0.00000000000E+00  0.00000000000E+00  0.17714762206E+04  0.17714762206E+04  0.25500000920E-02 0. -1.
       -2   -1    0    0    0  501  0.00000000000E+00  0.00000000000E+00 -0.13576046405E+04  0.13576046405E+04  0.25500000920E-02 0.  1.
    10030    2    1    2    0    0  0.00000000000E+00  0.00000000000E+00  0.41387158010E+03  0.31290808610E+04  0.31015894877E+04 0.  0.
        1    1    3    3  502    0 -0.43672478790E+03  0.93941856658E+02 -0.12912898022E+04  0.13663758510E+04  0.50400001928E-02 0.  1.
       -1    1    3    3    0  502  0.43672478790E+03 -0.93941856658E+02  0.17051613823E+04  0.17627050101E+04  0.50400001928E-02 0. -1.
</event>
<event>
 5   0  0.5376678E-07  0.3100892E+04  0.7818609E-02  0.8215493E-01
       -2   -1    0    0    0  501  0.00000000000E+00  0.00000000000E+00  0.14908626697E+04  0.14908626697E+04  0.25500000920E-02 0.  1.
        2   -1    0    0  501    0  0.00000000000E+00  0.00000000000E+00 -0.16124105410E+04  0.16124105410E+04  0.25500000920E-02 0. -1.
    10030    2    1    2    0    0  0.00000000000E+00  0.00000000000E+00 -0.12154787131E+03  0.31032732108E+04  0.31008919258E+04 0.  0.
        5    1    3    3  502    0 -0.65807161807E+03 -0.10740140757E+04 -0.96551248786E+03  0.15870730744E+04  0.46999998093E+01 0. -1.
       -5    1    3    3    0  502  0.65807161807E+03  0.10740140757E+04  0.84396461655E+03  0.15162001363E+04  0.46999998093E+01 0.  1.
</event>
<event>
 5   0  0.5248309E-07  0.3103940E+04  0.7818609E-02  0.8214657E-01
       -2   -1    0    0    0  501  0.00000000000E+00  0.00000000000E+00  0.10439659327E+04  0.10439659327E+04  0.25500000920E-02 0. -1.
        2   -1    0    0  501    0  0.00000000000E+00  0.00000000000E+00 -0.23071742863E+04  0.23071742863E+04  0.25500000920E-02 0.  1.
    10030    2    1    2    0    0  0.00000000000E+00  0.00000000000E+00 -0.12632083536E+04  0.33511402190E+04  0.31039403059E+04 0.  0.
        4    1    3    3  502    0  0.14597079652E+04  0.23599015372E+03 -0.12271528633E+03  0.14837450423E+04  0.12699999809E+01 0. -1.
       -4    1    3    3    0  502 -0.14597079652E+04 -0.23599015372E+03 -0.11404930672E+04  0.18673951766E+04  0.12699999809E+01 0.  1.
</event>
<event>
 5   0  0.1830902E-07  0.3031757E+04  0.7818609E-02  0.8234720E-01
        1   -1    0    0  501    0  0.00000000000E+00  0.00000000000E+00  0.18730245686E+04  0.18730245686E+04  0.50400001928E-02 0. -1.
       -1   -1    0    0    0  501  0.00000000000E+00  0.00000000000E+00 -0.12268324973E+04  0.12268324974E+04  0.50400001928E-02 0.  1.
    10030    2    1    2    0    0  0.00000000000E+00  0.00000000000E+00  0.64619207121E+03  0.30998570659E+04  0.30317568564E+04 0.  0.
        3    1    3    3  502    0  0.13844761611E+04  0.50565122898E+03  0.68521227301E+03  0.16254148010E+04  0.10100000352E+00 0. -1.
       -3    1    3    3    0  502 -0.13844761611E+04 -0.50565122898E+03 -0.39020201795E+02  0.14744422649E+04  0.10100000352E+00 0.  1.
</event>
<event>
 5   0  0.1830902E-07  0.3104491E+04  0.7818609E-02  0.8214506E-01
        1   -1    0    0  501    0  0.00000000000E+00  0.00000000000E+00  0.14064724988E+04  0.14064724988E+04  0.50400001928E-02 0.  1.
       -1   -1    0    0    0  501  0.00000000000E+00  0.00000000000E+00 -0.17131272179E+04  0.17131272179E+04  0.50400001928E-02 0. -1.
    10030    2    1    2    0    0  0.00000000000E+00  0.00000000000E+00 -0.30665471915E+03  0.31195997167E+04  0.31044911460E+04 0.  0.
        3    1    3    3  502    0 -0.25329366987E+03  0.13806500007E+04  0.51255450646E+03  0.14943440835E+04  0.10100000352E+00 0.  1.
       -3    1    3    3    0  502  0.25329366987E+03 -0.13806500007E+04 -0.81920922560E+03  0.16252556332E+04  0.10100000352E+00 0. -1.
</event>
<event>
 5   0  0.5342534E-07  0.3102591E+04  0.7818609E-02  0.8215027E-01
       -2   -1    0    0    0  501  0.00000000000E+00  0.00000000000E+00  0.16828787995E+04  0.16828787995E+04  0.25500000920E-02 0. -1.
        2   -1    0    0  501    0  0.00000000000E+00  0.00000000000E+00 -0.14300004475E+04  0.14300004475E+04  0.25500000920E-02 0.  1.
    10030    2    1    2    0    0  0.00000000000E+00  0.00000000000E+00  0.25287835203E+03  0.31128792470E+04  0.31025908118E+04 0.  0.
        3    1    3    3  502    0 -0.11429584815E+03  0.18697531414E+03  0.16672707554E+04  0.16816108620E+04  0.10100000352E+00 0. -1.
       -3    1    3    3    0  502  0.11429584815E+03 -0.18697531414E+03 -0.14143924034E+04  0.14312683850E+04  0.10100000352E+00 0.  1.
</event>
<event>
 5   0  0.5248309E-07  0.3103090E+04  0.7818609E-02  0.8214890E-01
        2   -1    0    0  501    0  0.00000000000E+00  0.00000000000E+00  0.18572529575E+04  0.18572529575E+04  0.25500000920E-02 0.  1.
       -2   -1    0    0    0  501  0.00000000000E+00  0.00000000000E+00 -0.12961573327E+04  0.12961573327E+04  0.25500000920E-02 0. -1.
    10030    2    1    2    0    0  0.00000000000E+00  0.00000000000E+00  0.56109562484E+03  0.31534102902E+04  0.31030900983E+04 0.  0.
        4    1    3    3  502    0 -0.55709885880E+01  0.13738280342E+04  0.10132501774E+04  0.17070770452E+04  0.12699999809E+01 0.  1.
       -4    1    3    3    0  502  0.55709885880E+01 -0.13738280342E+04 -0.45215455255E+03  0.14463332450E+04  0.12699999809E+01 0. -1.
</event>
<event>
 5   0  0.1845123E-07  0.3100417E+04  0.7818609E-02  0.8215623E-01
        1   -1    0    0  501    0  0.00000000000E+00  0.00000000000E+00  0.13263398029E+04  0.13263398029E+04  0.50400001928E-02 0.  1.
       -1   -1    0    0    0  501  0.00000000000E+00  0.00000000000E+00 -0.18118633209E+04  0.18118633209E+04  0.50400001928E-02 0. -1.
    10030    2    1    2    0    0  0.00000000000E+00  0.00000000000E+00 -0.48552351800E+03  0.31382031239E+04  0.31004170300E+04 0.  0.
        2    1    3    3  502    0  0.13379199842E+04  0.48837804741E+03 -0.86226961269E+03  0.16649480131E+04  0.25500000920E-02 0.  1.
       -2    1    3    3    0  502 -0.13379199842E+04 -0.48837804741E+03  0.37674609469E+03  0.14732551107E+04  0.25500000920E-02 0. -1.
</event>
<event>
 5   0  0.1840359E-07  0.3100401E+04  0.7818609E-02  0.8215628E-01
       -1   -1    0    0    0  501  0.00000000000E+00  0.00000000000E+00  0.96902889975E+03  0.96902889976E+03  0.50400001928E-02 0. -1.
        1   -1    0    0  501    0  0.00000000000E+00  0.00000000000E+00 -0.24799274492E+04  0.24799274492E+04  0.50400001928E-02 0.  1.
    10030    2    1    2    0    0  0.00000000000E+00  0.00000000000E+00 -0.15108985495E+04  0.34489563490E+04  0.31004008564E+04 0.  0.
        1    1    3    3  502    0 -0.68382229004E+03  0.12853381732E+04 -0.13476660032E+04  0.19839130022E+04  0.50400001928E-02 0.  1.
       -1    1    3    3    0  502  0.68382229004E+03 -0.12853381732E+04 -0.16323254628E+03  0.14650433468E+04  0.50400001928E-02 0. -1.
</event>
<event>
 5   0  0.1845123E-07  0.3098672E+04  0.7818609E-02  0.8216103E-01
        1   -1    0    0  501    0  0.00000000000E+00  0.00000000000E+00  0.18443069457E+04  0.18443069457E+04  0.50400001928E-02 0.  1.
       -1   -1    0    0    0  501  0.00000000000E+00  0.00000000000E+00 -0.13015411600E+04  0.13015411600E+04  0.50400001928E-02 0. -1.
    10030    2    1    2    0    0  0.00000000000E+00  0.00000000000E+00  0.54276578574E+03  0.31458481057E+04  0.30986715873E+04 0.  0.
        2    1    3    3  502    0  0.92325985202E+03  0.31876880608E+03 -0.94959913841E+03  0.13622631279E+04  0.25500000920E-02 0. -1.
       -2    1    3    3    0  502 -0.92325985202E+03 -0.31876880608E+03  0.14923649241E+04  0.17835849778E+04  0.25500000920E-02 0.  1.
</event>
<event>
 5   0  0.5248309E-07  0.3104517E+04  0.7818609E-02  0.8214499E-01
       -2   -1    0    0    0  501  0.00000000000E+00  0.00000000000E+00  0.10165444468E+04  0.10165444468E+04  0.25500000920E-02 0. -1.
        2   -1    0    0  501    0  0.00000000000E+00  0.00000000000E+00 -0.23702912559E+04  0.23702912559E+04  0.25500000920E-02 0.  1.
    10030    2    1    2    0    0  0.00000000000E+00  0.00000000000E+00 -0.13537468091E+04  0.33868357027E+04  0.31045169759E+04 0.  0.
        4    1    3    3  502    0  0.14719107485E+04 -0.48642133365E+03 -0.58974961995E+03  0.16585937395E+04  0.12699999809E+01 0. -1.
       -4    1    3    3    0  502 -0.14719107485E+04  0.48642133365E+03 -0.76399718916E+03  0.17282419632E+04  0.12699999809E+01 0.  1.
</event>
<event>
 5   0  0.5248309E-07  0.3089964E+04  0.7818609E-02  0.8218498E-01
        2   -1    0    0  501    0  0.00000000000E+00  0.00000000000E+00  0.14749701848E+04  0.14749701848E+04  0.25500000920E-02 0.  1.
       -2   -1    0    0    0  501  0.00000000000E+00  0.00000000000E+00 -0.16183172442E+04  0.16183172442E+04  0.25500000920E-02 0. -1.
    10030    2    1    2    0    0  0.00000000000E+00  0.00000000000E+00 -0.14334705939E+03  0.30932874291E+04  0.30899641971E+04 0.  0.
        4    1    3    3  502    0  0.13196838316E+04 -0.78669611631E+03 -0.23467332877E+03  0.15541973423E+04  0.12699999809E+01 0. -1.
       -4    1    3    3    0  502 -0.13196838316E+04  0.78669611631E+03  0.91326269384E+02  0.15390900867E+04  0.12699999809E+01 0.  1.
</event>
<event>
 5   0  0.5376678E-07  0.3096732E+04  0.7818609E-02  0.8216635E-01
        2   -1    0    0  501    0  0.00000000000E+00  0.00000000000E+00  0.21410003141E+04  0.21410003141E+04  0.25500000920E-02 0.  1.
       -2   -1    0    0    0  501  0.00000000000E+00  0.00000000000E+00 -0.11197745268E+04  0.11197745268E+04  0.25500000920E-02 0. -1.
    10030    2    1    2    0    0  0.00000000000E+00  0.00000000000E+00  0.10212257873E+04  0.32607748409E+04  0.30967322219E+04 0.  0.
        5    1    3    3  502    0  0.20867726637E+03  0.12788216086E+04 -0.38192342049E+03  0.13508584298E+04  0.46999998093E+01 0. -1.
       -5    1    3    3    0  502 -0.20867726637E+03 -0.12788216086E+04  0.14031492078E+04  0.19099164111E+04  0.46999998093E+01 0.  1.
</event>
<event>
 5   0  0.1830902E-07  0.3099043E+04  0.7818609E-02  0.8216001E-01
        1   -1    0    0  501    0  0.00000000000E+00  0.00000000000E+00  0.18972519303E+04  0.18972519303E+04  0.50400001928E-02 0.  1.
       -1   -1    0    0    0  501  0.00000000000E+00  0.00000000000E+00 -0.12655234671E+04  0.12655234671E+04  0.50400001928E-02 0. -1.
    10030    2    1    2    0    0  0.00000000000E+00  0.00000000000E+00  0.63172846327E+03  0.31627753974E+04  0.30990429754E+04 0.  0.
        3    1    3    3  502    0 -0.42135579361E+03  0.65235629081E+03  0.16842999849E+04  0.18547171979E+04  0.10100000352E+00 0.  1.
       -3    1    3    3    0  502  0.42135579361E+03 -0.65235629081E+03 -0.10525715216E+04  0.13080581995E+04  0.10100000352E+00 0. -1.
</event>
<event>
 5   0  0.1845123E-07  0.3103622E+04  0.7818609E-02  0.8214744E-01
       -1   -1    0    0    0  501  0.00000000000E+00  0.00000000000E+00  0.11914074226E+04  0.11914074226E+04  0.50400001928E-02 0.  1.
        1   -1    0    0  501    0  0.00000000000E+00  0.00000000000E+00 -0.20212379916E+04  0.20212379916E+04  0.50400001928E-02 0. -1.
    10030    2    1    2    0    0  0.00000000000E+00  0.00000000000E+00 -0.82983056907E+03  0.32126454142E+04  0.31036223649E+04 0.  0.
        2    1    3    3  502    0 -0.49602218919E+03 -0.13130140162E+04  0.27020641620E+03  0.14293548636E+04  0.25500000920E-02 0.  1.
       -2    1    3    3    0  502  0.49602218919E+03  0.13130140162E+04 -0.11000369853E+04  0.17832905506E+04  0.25500000920E-02 0. -1.
</event>
<event>
 5   0  0.5154105E-07  0.3099838E+04  0.7818609E-02  0.8215782E-01
        2   -1    0    0  501    0  0.00000000000E+00  0.00000000000E+00  0.21294744969E+04  0.21294744969E+04  0.25500000920E-02 0.  1.
       -2   -1    0    0    0  501  0.00000000000E+00  0.00000000000E+00 -0.11280949894E+04  0.11280949894E+04  0.25500000920E-02 0. -1.
    10030    2    1    2    0    0  0.00000000000E+00  0.00000000000E+00  0.10013795075E+04  0.32575694864E+04  0.30998383894E+04 0.  0.
        1    1    3    3  502    0 -0.37178918718E+02 -0.81110661301E+03  0.18880843644E+04  0.20552709740E+04  0.50400001928E-02 0.  1.
       -1    1    3    3    0  502  0.37178918718E+02  0.81110661301E+03 -0.88670485685E+03  0.12022985124E+04  0.50400001928E-02 0. -1.
</event>
<event>
 5   0  0.1875284E-07  0.3095910E+04  0.7818609E-02  0.8216861E-01
        1   -1    0    0  501    0  0.00000000000E+00  0.00000000000E+00  0.16706938695E+04  0.16706938695E+04  0.50400001928E-02 0.  1.
       -1   -1    0    0    0  501  0.00000000000E+00  0.00000000000E+00 -0.14342333045E+04  0.14342333045E+04  0.50400001928E-02 0. -1.
    10030    2    1    2    0    0  0.00000000000E+00  0.00000000000E+00  0.23646056501E+03  0.31049271741E+04  0.30959100694E+04 0.  0.
        4    1    3    3  502    0 -0.96784707602E+03  0.61615589413E+03 -0.92392432889E+03  0.14730966794E+04  0.12699999809E+01 0.  1.
       -4    1    3    3    0  502  0.96784707602E+03 -0.61615589413E+03  0.11603848939E+04  0.16318304947E+04  0.12699999809E+01 0. -1.
</event>
<event>
 5   0  0.5248309E-07  0.3098627E+04  0.7818609E-02  0.8216115E-01
       -2   -1    0    0    0  501  0.00000000000E+00  0.00000000000E+00  0.11670170478E+04  0.11670170478E+04  0.25500000920E-02 0. -1.
        2   -1    0    0  501    0  0.00000000000E+00  0.00000000000E+00 -0.20568442795E+04  0.20568442795E+04  0.25500000920E-02 0.  1.
    10030    2    1    2    0    0  0.00000000000E+00  0.00000000000E+00 -0.88982723171E+03  0.32238613273E+04  0.30986270113E+04 0.  0.
        4    1    3    3  502    0  0.75713713526E+03  0.39680678066E+03  0.89946275870E+03  0.12408654762E+04  0.12699999809E+01 0. -1.
       -4    1    3    3    0  502 -0.75713713526E+03 -0.39680678066E+03 -0.17892899904E+04  0.19829958511E+04  0.12699999809E+01 0.  1.
</event>
<event>
 5   0  0.1727000E-07  0.3089362E+04  0.7818609E-02  0.8218663E-01
       -3   -1    0    0    0  501  0.00000000000E+00  0.00000000000E+00  0.25745111159E+04  0.25745111178E+04  0.10100000352E+00 0. -1.
        3   -1    0    0  501    0  0.00000000000E+00  0.00000000000E+00 -0.92679339319E+03  0.92679339869E+03  0.10100000352E+00 0.  1.
    10030    2    1    2    0    0  0.00000000000E+00  0.00000000000E+00  0.16477177227E+04  0.35013045165E+04  0.30893623329E+04 0.  0.
        3    1    3    3  502    0 -0.64545829535E+03 -0.51377626647E+03  0.23039262137E+04  0.24471735679E+04  0.10100000352E+00 0. -1.
       -3    1    3    3    0  502  0.64545829535E+03  0.51377626647E+03 -0.65620849102E+03  0.10541309487E+04  0.10100000352E+00 0.  1.
</event>
<event>
 5   0  0.5055900E-07  0.3095345E+04  0.7818609E-02  0.8217017E-01
       -2   -1    0    0    0  501  0.00000000000E+00  0.00000000000E+00  0.13242954830E+04  0.13242954830E+04  0.25500000920E-02 0.  1.
        2   -1    0    0  501    0  0.00000000000E+00  0.00000000000E+00 -0.18087282616E+04  0.18087282616E+04  0.25500000920E-02 0. -1.
    10030    2    1    2    0    0  0.00000000000E+00  0.00000000000E+00 -0.48443277861E+03  0.31330237447E+04  0.30953453228E+04 0.  0.
        2    1    3    3  502    0  0.75662420121E+03 -0.51974034745E+03 -0.15034502527E+04  0.17615257231E+04  0.25500000920E-02 0. -1.
       -2    1    3    3    0  502 -0.75662420121E+03  0.51974034745E+03  0.10190174741E+04  0.13714980216E+04  0.25500000920E-02 0.  1.
</event>
<event>
 5   0  0.1875284E-07  0.3105983E+04  0.7818609E-02  0.8214098E-01
       -1   -1    0    0    0  501  0.00000000000E+00  0.00000000000E+00  0.13983385095E+04  0.13983385095E+04  0.50400001928E-02 0. -1.
        1   -1    0    0  501    0  0.00000000000E+00  0.00000000000E+00 -0.17247490184E+04  0.17247490184E+04  0.50400001928E-02 0.  1.
    10030    2    1    2    0    0  0.00000000000E+00  0.00000000000E+00 -0.32641050888E+03  0.31230875279E+04  0.31059832399E+04 0.  0.
        4    1    3    3  502    0 -0.11257766832E+04 -0.17699983758E+03  0.89763037223E+03  0.14506701834E+04  0.12699999809E+01 0. -1.
       -4    1    3    3    0  502  0.11257766832E+04  0.17699983758E+03 -0.12240408811E+04  0.16724173446E+04  0.12699999809E+01 0.  1.
</event>
<event>
 5   0  0.5248309E-07  0.3102192E+04  0.7818609E-02  0.8215137E-01
        2   -1    0    0  501    0  0.00000000000E+00  0.00000000000E+00  0.17500573141E+04  0.17500573141E+04  0.25500000920E-02 0.  1.
       -2   -1    0    0    0  501  0.00000000000E+00  0.00000000000E+00 -0.13747539872E+04  0.13747539872E+04  0.25500000920E-02 0. -1.
    10030    2    1    2    0    0  0.00000000000E+00  0.00000000000E+00  0.37530332686E+03  0.31248113013E+04  0.31021916577E+04 0.  0.
        4    1    3    3  502    0 -0.51777670359E+03  0.59721157577E+03 -0.11566739614E+04  0.14009463397E+04  0.12699999809E+01 0. -1.
       -4    1    3    3    0  502  0.51777670359E+03 -0.59721157577E+03  0.15319772882E+04  0.17238649615E+04  0.12699999809E+01 0.  1.
</event>
<event>
 5   0  0.1830902E-07  0.3099063E+04  0.7818609E-02  0.8215995E-01
       -1   -1    0    0    0  501  0.00000000000E+00  0.00000000000E+00  0.11636344753E+04  0.11636344753E+04  0.50400001928E-02 0. -1.
        1   -1    0    0  501    0  0.00000000000E+00  0.00000000000E+00 -0.20634036822E+04  0.20634036822E+04  0.50400001928E-02 0.  1.
    10030    2    1    2    0    0  0.00000000000E+00  0.00000000000E+00 -0.89976920695E+03  0.32270381575E+04  0.30990628655E+04 0.  0.
        3    1    3    3  502    0  0.11145750325E+04 -0.58699503118E+03 -0.13894805304E+04  0.18754990867E+04  0.10100000352E+00 0.  1.
       -3    1    3    3    0  502 -0.11145750325E+04  0.58699503118E+03  0.48971132341E+03  0.13515390709E+04  0.10100000352E+00 0. -1.
</event>
<event>
 5   0  0.5376678E-07  0.3104099E+04  0.7818609E-02  0.8214614E-01
        2   -1    0    0  501    0  0.00000000000E+00  0.00000000000E+00  0.23402122601E+04  0.23402122601E+04  0.25500000920E-02 0.  1.
       -2   -1    0    0    0  501  0.00000000000E+00  0.00000000000E+00 -0.10293332259E+04  0.10293332259E+04  0.25500000920E-02 0. -1.
    10030    2    1    2    0    0  0.00000000000E+00  0.00000000000E+00  0.13108790342E+04  0.33695454860E+04  0.31040993766E+04 0.  0.
        5    1    3    3  502    0  0.12354260700E+02 -0.24587663073E+03 -0.10079955641E+04  0.10376343732E+04  0.46999998093E+01 0. -1.
       -5    1    3    3    0  502 -0.12354260700E+02  0.24587663073E+03  0.23188745983E+04  0.23319111128E+04  0.46999998093E+01 0.  1.
</event>
<event>
 5   0  0.5376678E-07  0.3059490E+04  0.7818609E-02  0.8226944E-01
       -2   -1    0    0    0  501  0.00000000000E+00  0.00000000000E+00  0.28137867878E+04  0.28137867878E+04  0.25500000920E-02 0. -1.
        2   -1    0    0  501    0  0.00000000000E+00  0.00000000000E+00 -0.83166209446E+03  0.83166209446E+03  0.25500000920E-02 0.  1.
    10030    2    1    2    0    0  0.00000000000E+00  0.00000000000E+00  0.19821246933E+04  0.36454488823E+04  0.30594900316E+04 0.  0.
        5    1    3    3  502    0 -0.11972855534E+04 -0.67064878867E+03  0.18571772261E+03  0.13848377727E+04  0.46999998093E+01 0.  1.
       -5    1    3    3    0  502  0.11972855534E+04  0.67064878867E+03  0.17964069707E+04  0.22606111096E+04  0.46999998093E+01 0. -1.
</event>
<event>
 5   0  0.5154105E-07  0.3101458E+04  0.7818609E-02  0.8215338E-01
       -2   -1    0    0    0  501  0.00000000000E+00  0.00000000000E+00  0.10318119005E+04  0.10318119005E+04  0.25500000920E-02 0. -1.
        2   -1    0    0  501    0  0.00000000000E+00  0.00000000000E+00 -0.23306185133E+04  0.23306185133E+04  0.25500000920E-02 0.  1.
    10030    2    1    2    0    0  0.00000000000E+00  0.00000000000E+00 -0.12988066128E+04  0.33624304138E+04  0.31014576686E+04 0.  0.
        1    1    3    3  502    0  0.38320196168E+03  0.58006045932E+03  0.85339792910E+03  0.11007278979E+04  0.50400001928E-02 0. -1.
       -1    1    3    3    0  502 -0.38320196168E+03 -0.58006045932E+03 -0.21522045419E+04  0.22617025158E+04  0.50400001928E-02 0.  1.
</event>
<event>
 5   0  0.1845123E-07  0.3086465E+04  0.7818609E-02  0.8219462E-01
       -1   -1    0    0    0  501  0.00000000000E+00  0.00000000000E+00  0.18926996416E+04  0.18926996416E+04  0.50400001928E-02 0.  1.
        1   -1    0    0  501    0  0.00000000000E+00  0.00000000000E+00 -0.12582909748E+04  0.12582909748E+04  0.50400001928E-02 0. -1.
    10030    2    1    2    0    0  0.00000000000E+00  0.00000000000E+00  0.63440866672E+03  0.31509906164E+04  0.30864652126E+04 0.  0.
        2    1    3    3  502    0 -0.79890250317E+03  0.12906462678E+04  0.60151128945E+03  0.16327366075E+04  0.25500000920E-02 0.  1.
       -2    1    3    3    0  502  0.79890250317E+03 -0.12906462678E+04  0.32897377274E+02  0.15182540089E+04  0.25500000920E-02 0. -1.
</event>
<event>
 5   0  0.1830902E-07  0.3096930E+04  0.7818609E-02  0.8216581E-01
       -1   -1    0    0    0  501  0.00000000000E+00  0.00000000000E+00  0.11681278141E+04  0.11681278141E+04  0.50400001928E-02 0.  1.
        1   -1    0    0  501    0  0.00000000000E+00  0.00000000000E+00 -0.20526382538E+04  0.20526382538E+04  0.50400001928E-02 0. -1.
    10030    2    1    2    0    0  0.00000000000E+00  0.00000000000E+00 -0.88451043967E+03  0.32207660679E+04  0.30969299873E+04 0.  0.
        3    1    3    3  502    0 -0.54211958105E+03  0.14322129677E+04 -0.20370076011E+03  0.15448694556E+04  0.10100000352E+00 0. -1.
       -3    1    3    3    0  502  0.54211958105E+03 -0.14322129677E+04 -0.68080967956E+03  0.16758966123E+04  0.10100000352E+00 0.  1.
</event>
<event>
 5   0  0.1830902E-07  0.3116881E+04  0.7818609E-02  0.8211120E-01
       -1   -1    0    0    0  501  0.00000000000E+00  0.00000000000E+00  0.14881335305E+04  0.14881335305E+04  0.50400001928E-02 0.  1.
        1   -1    0    0  501    0  0.00000000000E+00  0.00000000000E+00 -0.16320689535E+04  0.16320689535E+04  0.50400001928E-02 0. -1.
    10030    2    1    2    0    0  0.00000000000E+00  0.00000000000E+00 -0.14393542305E+03  0.31202024840E+04  0.31168808343E+04 0.  0.
        3    1    3    3  502    0 -0.85411190309E+03 -0.33344898395E+03  0.11895503025E+04  0.15019072209E+04  0.10100000352E+00 0.  1.
       -3    1    3    3    0  502  0.85411190309E+03  0.33344898395E+03 -0.13334857256E+04  0.16182952630E+04  0.10100000352E+00 0. -1.
</event>
<event>
 5   0  0.5248309E-07  0.3097362E+04  0.7818609E-02  0.8216462E-01
       -2   -1    0    0    0  501  0.00000000000E+00  0.00000000000E+00  0.14316270757E+04  0.14316270757E+04  0.25500000920E-02 0.  1.
        2   -1    0    0  501    0  0.00000000000E+00  0.00000000000E+00 -0.16753053008E+04  0.16753053008E+04  0.25500000920E-02 0. -1.
    10030    2    1    2    0    0  0.00000000000E+00  0.00000000000E+00 -0.24367822505E+03  0.31069323765E+04  0.30973617346E+04 0.  0.
        4    1    3    3  502    0  0.84340144243E+03  0.42348220198E+03  0.11098587899E+04  0.14568635197E+04  0.12699999809E+01 0.  1.
       -4    1    3    3    0  502 -0.84340144243E+03 -0.42348220198E+03 -0.13535370150E+04  0.16500688568E+04  0.12699999809E+01 0. -1.
</event>
<event>
 5   0  0.1814075E-07  0.3100599E+04  0.7818609E-02  0.8215574E-01
        1   -1    0    0  501    0  0.00000000000E+00  0.00000000000E+00  0.21534720216E+04  0.21534720216E+04  0.50400001928E-02 0. -1.
       -1   -1    0    0    0  501  0.00000000000E+00  0.00000000000E+00 -0.11160711884E+04  0.11160711884E+04  0.50400001928E-02 0.  1.
    10030    2    1    2    0    0  0.00000000000E+00  0.00000000000E+00  0.10374008332E+04  0.32695432100E+04  0.31005987024E+04 0.  0.
        5    1    3    3  502    0  0.10990372099E+04 -0.22731667464E+02 -0.63402706976E+03  0.12690200678E+04  0.46999998093E+01 0.  1.
       -5    1    3    3    0  502 -0.10990372099E+04  0.22731667464E+02  0.16714279030E+04  0.20005231422E+04  0.46999998093E+01 0. -1.
</event>
<event>
 5   0  0.1875284E-07  0.3093003E+04  0.7818609E-02  0.8217661E-01
        1   -1    0    0  501    0  0.00000000000E+00  0.00000000000E+00  0.17708134215E+04  0.17708134215E+04  0.50400001928E-02 0.  1.
       -1   -1    0    0    0  501  0.00000000000E+00  0.00000000000E+00 -0.13506037290E+04  0.13506037291E+04  0.50400001928E-02 0. -1.
    10030    2    1    2    0    0  0.00000000000E+00  0.00000000000E+00  0.42020969240E+03  0.31214171505E+04  0.30930032076E+04 0.  0.
        4    1    3    3  502    0  0.46029642820E+03 -0.58960311592E+03  0.15761128830E+04  0.17446025533E+04  0.12699999809E+01 0.  1.
       -4    1    3    3    0  502 -0.46029642820E+03  0.58960311592E+03 -0.11559031906E+04  0.13768145972E+04  0.12699999809E+01 0. -1.
</event>
<event>
 5   0  0.1845123E-07  0.3100571E+04  0.7818609E-02  0.8215581E-01
        1   -1    0    0  501    0  0.00000000000E+00  0.00000000000E+00  0.13310458953E+04  0.13310458953E+04  0.50400001928E-02 0. -1.
       -1   -1    0    0    0  501  0.00000000000E+00  0.00000000000E+00 -0.18056367914E+04  0.18056367914E+04  0.50400001928E-02 0.  1.
    10030    2    1    2    0    0  0.00000000000E+00  0.00000000000E+00 -0.47459089618E+03  0.31366826867E+04  0.31005711987E+04 0.  0.
        2    1    3    3  502    0  0.39074621607E+03 -0.13073281176E+04 -0.98179872423E+03  0.16809872538E+04  0.25500000920E-02 0.  1.
       -2    1    3    3    0  502 -0.39074621607E+03  0.13073281176E+04  0.50720782806E+03  0.14556954329E+04  0.25500000920E-02 0. -1.
</event>
<event>
 5   0  0.5342534E-07  0.3099405E+04  0.7818609E-02  0.8215901E-01
       -2   -1    0    0    0  501  0.00000000000E+00  0.00000000000E+00  0.93733357664E+03  0.93733357665E+03  0.25500000920E-02 0.  1.
        2   -1    0    0  501    0  0.00000000000E+00  0.00000000000E+00 -0.25621378577E+04  0.25621378577E+04  0.25500000920E-02 0. -1.
    10030    2    1    2    0    0  0.00000000000E+00  0.00000000000E+00 -0.16248042810E+04  0.34994714343E+04  0.30994050023E+04 0.  0.
        3    1    3    3  502    0  0.87476536385E+02  0.79305317722E+03 -0.23124169136E+04  0.24461924452E+04  0.10100000352E+00 0. -1.
       -3    1    3    3    0  502 -0.87476536385E+02 -0.79305317722E+03  0.68761263257E+03  0.10532789892E+04  0.10100000352E+00 0.  1.
</event>
<event>
 5   0  0.5248309E-07  0.3095559E+04  0.7818609E-02  0.8216958E-01
        2   -1    0    0  501    0  0.00000000000E+00  0.00000000000E+00  0.11639242240E+04  0.11639242240E+04  0.25500000920E-02 0. -1.
       -2   -1    0    0    0  501  0.00000000000E+00  0.00000000000E+00 -0.20582282522E+04  0.20582282522E+04  0.25500000920E-02 0.  1.
    10030    2    1    2    0    0  0.00000000000E+00  0.00000000000E+00 -0.89430402826E+03  0.32221524762E+04  0.30955592201E+04 0.  0.
        4    1    3    3  502    0  0.99983729346E+03 -0.10468576560E+04 -0.10173065715E+04  0.17693218584E+04  0.12699999809E+01 0.  1.
       -4    1    3    3    0  502 -0.99983729346E+03  0.10468576560E+04  0.12300254328E+03  0.14528306178E+04  0.12699999809E+01 0. -1.
</event>
<event>
 5   0  0.5154105E-07  0.3095413E+04  0.7818609E-02  0.8216998E-01
       -2   -1    0    0    0  501  0.00000000000E+00  0.00000000000E+00  0.13678538095E+04  0.13678538095E+04  0.25500000920E-02 0.  1.
        2   -1    0    0  501    0  0.00000000000E+00  0.00000000000E+00 -0.17512070228E+04  0.17512070228E+04  0.25500000920E-02 0. -1.
    10030    2    1    2    0    0  0.00000000000E+00  0.00000000000E+00 -0.38335321329E+03  0.31190608323E+04  0.30954128625E+04 0.  0.
        1    1    3    3  502    0  0.57128709672E+03 -0.41625451999E+03  0.11957076420E+04  0.13890117125E+04  0.50400001928E-02 0.  1.
       -1    1    3    3    0  502 -0.57128709672E+03  0.41625451999E+03 -0.15790608553E+04  0.17300491198E+04  0.50400001928E-02 0. -1.
</event>
<event>
 5   0  0.5342534E-07  0.3165808E+04  0.7818609E-02  0.8197906E-01
       -2   -1    0    0    0  501  0.00000000000E+00  0.00000000000E+00  0.20535737949E+04  0.20535737949E+04  0.25500000920E-02 0. -1.
        2   -1    0    0  501    0  0.00000000000E+00  0.00000000000E+00 -0.12201093266E+04  0.12201093266E+04  0.25500000920E-02 0.  1.
    10030    2    1    2    0    0  0.00000000000E+00  0.00000000000E+00  0.83346446829E+03  0.32736831216E+04  0.31658076632E+04 0.  0.
        3    1    3    3  502    0 -0.77656352143E+03 -0.13211183353E+04  0.67635198567E+01  0.15324654365E+04  0.10100000352E+00 0.  1.
       -3    1    3    3    0  502  0.77656352143E+03  0.13211183353E+04  0.82670094844E+03  0.17412176851E+04  0.10100000352E+00 0. -1.
</event>
<event>
 5   0  0.1814075E-07  0.3089153E+04  0.7818609E-02  0.8218721E-01
       -1   -1    0    0    0  501  0.00000000000E+00  0.00000000000E+00  0.14772489908E+04  0.14772489908E+04  0.50400001928E-02 0. -1.
        1   -1    0    0  501    0  0.00000000000E+00  0.00000000000E+00 -0.16149729286E+04  0.16149729286E+04  0.50400001928E-02 0.  1.
    10030    2    1    2    0    0  0.00000000000E+00  0.00000000000E+00 -0.13772393779E+03  0.30922219194E+04  0.30891533655E+04 0.  0.
        5    1    3    3  502    0  0.11592559103E+03  0.86384147287E+03 -0.13452890890E+04  0.16029615266E+04  0.46999998093E+01 0.  1.
       -5    1    3    3    0  502 -0.11592559103E+03 -0.86384147287E+03  0.12075651512E+04  0.14892603927E+04  0.46999998093E+01 0. -1.
</event>
<event>
 5   0  0.1875284E-07  0.3100634E+04  0.7818609E-02  0.8215564E-01
        1   -1    0    0  501    0  0.00000000000E+00  0.00000000000E+00  0.21405397193E+04  0.21405397193E+04  0.50400001928E-02 0.  1.
       -1   -1    0    0    0  501  0.00000000000E+00  0.00000000000E+00 -0.11228398594E+04  0.11228398594E+04  0.50400001928E-02 0. -1.
    10030    2    1    2    0    0  0.00000000000E+00  0.00000000000E+00  0.10176998599E+04  0.32633795787E+04  0.31006343335E+04 0.  0.
        4    1    3    3  502    0  0.24022149537E+03 -0.38850293241E+03 -0.10504101243E+04  0.11454274038E+04  0.12699999809E+01 0. -1.
       -4    1    3    3    0  502 -0.24022149537E+03  0.38850293241E+03  0.20681099842E+04  0.21179521749E+04  0.12699999809E+01 0.  1.
</event>
<event>
 5   0  0.1814075E-07  0.3109561E+04  0.7818609E-02  0.8213119E-01
        1   -1    0    0  501    0  0.00000000000E+00  0.00000000000E+00  0.12034562455E+04  0.12034562455E+04  0.50400001928E-02 0. -1.
       -1   -1    0    0    0  501  0.00000000000E+00  0.00000000000E+00 -0.20086662500E+04  0.20086662500E+04  0.50400001928E-02 0.  1.
    10030    2    1    2    0    0  0.00000000000E+00  0.00000000000E+00 -0.80521000448E+03  0.32121224954E+04  0.31095607044E+04 0.  0.
        5    1    3    3  502    0 -0.11308871758E+03  0.14312548904E+04 -0.10189765719E+04  0.17605723397E+04  0.46999998093E+01 0.  1.
       -5    1    3    3    0  502  0.11308871758E+03 -0.14312548904E+04  0.21376656743E+03  0.14515501557E+04  0.46999998093E+01 0. -1.
</event>
<event>
 5   0  0.1840359E-07  0.3107953E+04  0.7818609E-02  0.8213559E-01
        1   -1    0    0  501    0  0.00000000000E+00  0.00000000000E+00  0.22015706936E+04  0.22015706936E+04  0.50400001928E-02 0. -1.
       -1   -1    0    0    0  501  0.00000000000E+00  0.00000000000E+00 -0.10968730553E+04  0.10968730553E+04  0.50400001928E-02 0.  1.
    10030    2    1    2    0    0  0.00000000000E+00  0.00000000000E+00  0.11046976383E+04  0.32984437488E+04  0.31079533929E+04 0.  0.
        1    1    3    3  502    0  0.45481957360E+03  0.76404219420E+03 -0.80021358912E+03  0.11962287019E+04  0.50400001928E-02 0.  1.
       -1    1    3    3    0  502 -0.45481957360E+03 -0.76404219420E+03  0.19049112274E+04  0.21022150469E+04  0.50400001928E-02 0. -1.
</event>
<event>
 5   0  0.5248309E-07  0.3103496E+04  0.7818609E-02  0.8214779E-01
        2   -1    0    0  501    0  0.00000000000E+00  0.00000000000E+00  0.13281776383E+04  0.13281776383E+04  0.25500000920E-02 0. -1.
       -2   -1    0    0    0  501  0.00000000000E+00  0.00000000000E+00 -0.18129515928E+04  0.18129515928E+04  0.25500000920E-02 0.  1.
    10030    2    1    2    0    0  0.00000000000E+00  0.00000000000E+00 -0.48477395446E+03  0.31411292311E+04  0.31034959416E+04 0.  0.
        4    1    3    3  502    0  0.17802268410E+03  0.11696301673E+04  0.77387701072E+03  0.14137234683E+04  0.12699999809E+01 0. -1.
       -4    1    3    3    0  502 -0.17802268410E+03 -0.11696301673E+04 -0.12586509652E+04  0.17274057628E+04  0.12699999809E+01 0.  1.
</event>
<event>
 5   0  0.5154105E-07  0.3109438E+04  0.7818609E-02  0.8213153E-01
       -2   -1    0    0    0  501  0.00000000000E+00  0.00000000000E+00  0.72888122391E+03  0.72888122391E+03  0.25500000920E-02 0. -1.
        2   -1    0    0  501    0  0.00000000000E+00  0.00000000000E+00 -0.33162473077E+04  0.33162473077E+04  0.25500000920E-02 0.  1.
    10030    2    1    2    0    0  0.00000000000E+00  0.00000000000E+00 -0.25873660838E+04  0.40451285316E+04  0.31094375031E+04 0.  0.
        1    1    3    3  502    0  0.13831154000E+04 -0.25613751099E+03 -0.43218756624E+03  0.14715300632E+04  0.50400001928E-02 0.  1.
       -1    1    3    3    0  502 -0.13831154000E+04  0.25613751099E+03 -0.21551785176E+04  0.25735984685E+04  0.50400001928E-02 0. -1.
</event>
<event>
 5   0  0.5055900E-07  0.3106451E+04  0.7818609E-02  0.8213970E-01
        2   -1    0    0  501    0  0.00000000000E+00  0.00000000000E+00  0.29034529032E+04  0.29034529032E+04  0.25500000920E-02 0.  1.
       -2   -1    0    0    0  501  0.00000000000E+00  0.00000000000E+00 -0.83091054735E+03  0.83091054735E+03  0.25500000920E-02 0. -1.
    10030    2    1    2    0    0  0.00000000000E+00  0.00000000000E+00  0.20725423559E+04  0.37343634506E+04  0.31064511205E+04 0.  0.
        2    1    3    3  502    0  0.19991585328E+03  0.11853509955E+04  0.22186985470E+04  0.25234196190E+04  0.25500000920E-02 0.  1.
       -2    1    3    3    0  502 -0.19991585328E+03 -0.11853509955E+04 -0.14615619119E+03  0.12109438315E+04  0.25500000920E-02 0. -1.
</event>
<event>
 5   0  0.1830902E-07  0.3092774E+04  0.7818609E-02  0.8217724E-01
       -1   -1    0    0    0  501  0.00000000000E+00  0.00000000000E+00  0.16416284575E+04  0.16416284575E+04  0.50400001928E-02 0.  1.
        1   -1    0    0  501    0  0.00000000000E+00  0.00000000000E+00 -0.14566710403E+04  0.14566710403E+04  0.50400001928E-02 0. -1.
    10030    2    1    2    0    0  0.00000000000E+00  0.00000000000E+00  0.18495741722E+03  0.30982994977E+04  0.30927739218E+04 0.  0.
        3    1    3    3  502    0  0.13601773597E+04  0.73555712037E+03  0.10613741663E+03  0.15499651250E+04  0.10100000352E+00 0.  1.
       -3    1    3    3    0  502 -0.13601773597E+04 -0.73555712037E+03  0.78820000599E+02  0.15483343728E+04  0.10100000352E+00 0. -1.
</event>
<event>
 5   0  0.5342534E-07  0.3101829E+04  0.7818609E-02  0.8215236E-01
       -2   -1    0    0    0  501  0.00000000000E+00  0.00000000000E+00  0.12728605622E+04  0.12728605622E+04  0.25500000920E-02 0. -1.
        2   -1    0    0  501    0  0.00000000000E+00  0.00000000000E+00 -0.18897092268E+04  0.18897092268E+04  0.25500000920E-02 0.  1.
    10030    2    1    2    0    0  0.00000000000E+00  0.00000000000E+00 -0.61684866456E+03  0.31625697890E+04  0.31018293627E+04 0.  0.
        3    1    3    3  502    0  0.10087083286E+03  0.15377402606E+04 -0.13031438038E+03  0.15465451438E+04  0.10100000352E+00 0. -1.
       -3    1    3    3    0  502 -0.10087083286E+03 -0.15377402606E+04 -0.48653428418E+03  0.16160246452E+04  0.10100000352E+00 0.  1.
</event>
<event>
 5   0  0.5376678E-07  0.3098770E+04  0.7818609E-02  0.8216076E-01
        2   -1    0    0  501    0  0.00000000000E+00  0.00000000000E+00  0.17259131739E+04  0.17259131739E+04  0.25500000920E-02 0. -1.
       -2   -1    0    0    0  501  0.00000000000E+00  0.00000000000E+00 -0.13909123210E+04  0.13909123210E+04  0.25500000920E-02 0.  1.
    10030    2    1    2    0    0  0.00000000000E+00  0.00000000000E+00  0.33500085286E+03  0.31168254949E+04  0.30987700131E+04 0.  0.
        5    1    3    3  502    0 -0.15451619094E+04 -0.74279257487E+02  0.25477624580E+03  0.15677932771E+04  0.46999998093E+01 0.  1.
       -5    1    3    3    0  502  0.15451619094E+04  0.74279257487E+02  0.80224607056E+02  0.15490322178E+04  0.46999998093E+01 0. -1.
</event>
<event>
 5   0  0.5154105E-07  0.3080165E+04  0.7818609E-02  0.8221202E-01
        2   -1    0    0  501    0  0.00000000000E+00  0.00000000000E+00  0.20814269733E+04  0.20814269733E+04  0.25500000920E-02 0. -1.
       -2   -1    0    0    0  501  0.00000000000E+00  0.00000000000E+00 -0.11395330692E+04  0.11395330692E+04  0.25500000920E-02 0.  1.
    10030    2    1    2    0    0  0.00000000000E+00  0.00000000000E+00  0.94189390416E+03  0.32209600425E+04  0.30801654938E+04 0.  0.
        1    1    3    3  502    0  0.58135221128E+03 -0.90835319260E+03 -0.67875357485E+03  0.12742771800E+04  0.50400001928E-02 0.  1.
       -1    1    3    3    0  502 -0.58135221128E+03  0.90835319260E+03  0.16206474790E+04  0.19466828625E+04  0.50400001928E-02 0. -1.
</event>
<event>
 5   0  0.1830902E-07  0.3070127E+04  0.7818609E-02  0.8223984E-01
        1   -1    0    0  501    0  0.00000000000E+00  0.00000000000E+00  0.14119363023E+04  0.14119363023E+04  0.50400001928E-02 0.  1.
       -1   -1    0    0    0  501  0.00000000000E+00  0.00000000000E+00 -0.16689279255E+04  0.16689279255E+04  0.50400001928E-02 0. -1.
    10030    2    1    2    0    0  0.00000000000E+00  0.00000000000E+00 -0.25699162321E+03  0.30808642278E+04  0.30701269837E+04 0.  0.
        3    1    3    3  502    0 -0.92694623580E+03 -0.11560143058E+04  0.27393228527E+03  0.15068634000E+04  0.10100000352E+00 0.  1.
       -3    1    3    3    0  502  0.92694623580E+03  0.11560143058E+04 -0.53092390848E+03  0.15740008278E+04  0.10100000352E+00 0. -1.
</event>
<event>
 5   0  0.1875284E-07  0.3095868E+04  0.7818609E-02  0.8216873E-01
        1   -1    0    0  501    0  0.00000000000E+00  0.00000000000E+00  0.92205443017E+03  0.92205443019E+03  0.50400001928E-02 0.  1.
       -1   -1    0    0    0  501  0.00000000000E+00  0.00000000000E+00 -0.25986528360E+04  0.25986528360E+04  0.50400001928E-02 0. -1.
    10030    2    1    2    0    0  0.00000000000E+00  0.00000000000E+00 -0.16765984058E+04  0.35207072662E+04  0.30958678007E+04 0.  0.
        4    1    3    3  502    0  0.29525279356E+03 -0.67499006655E+03 -0.23864803401E+04  0.24976140272E+04  0.12699999809E+01 0. -1.
       -4    1    3    3    0  502 -0.29525279356E+03  0.67499006655E+03  0.70988193434E+03  0.10230932390E+04  0.12699999809E+01 0.  1.
</event>
<event>
 5   0  0.1830902E-07  0.3090801E+04  0.7818609E-02  0.8218267E-01
        1   -1    0    0  501    0  0.00000000000E+00  0.00000000000E+00  0.18042128275E+04  0.18042128275E+04  0.50400001928E-02 0.  1.
       -1   -1    0    0    0  501  0.00000000000E+00  0.00000000000E+00 -0.13237143075E+04  0.13237143076E+04  0.50400001928E-02 0. -1.
    10030    2    1    2    0    0  0.00000000000E+00  0.00000000000E+00  0.48049851994E+03  0.31279271351E+04  0.30908007594E+04 0.  0.
        3    1    3    3  502    0  0.98202777518E+03  0.11910813931E+04  0.31328881081E+03  0.15751835847E+04  0.10100000352E+00 0.  1.
       -3    1    3    3    0  502 -0.98202777518E+03 -0.11910813931E+04  0.16720970914E+03  0.15527435504E+04  0.10100000352E+00 0. -1.
</event>
<event>
 5   0  0.5248309E-07  0.3107153E+04  0.7818609E-02  0.8213778E-01
        2   -1    0    0  501    0  0.00000000000E+00  0.00000000000E+00  0.17294674091E+04  0.17294674091E+04  0.25500000920E-02 0. -1.
       -2   -1    0    0    0  501  0.00000000000E+00  0.00000000000E+00 -0.13955743297E+04  0.13955743297E+04  0.25500000920E-02 0.  1.
    10030    2    1    2    0    0  0.00000000000E+00  0.00000000000E+00  0.33389307941E+03  0.31250417388E+04  0.31071532438E+04 0.  0.
        4    1    3    3  502    0  0.12635012263E+04 -0.28784835586E+03 -0.69490386408E+03  0.14704370160E+04  0.12699999809E+01 0. -1.
       -4    1    3    3    0  502 -0.12635012263E+04  0.28784835586E+03  0.10287969435E+04  0.16546047228E+04  0.12699999809E+01 0.  1.
</event>
<event>
 5   0  0.5376678E-07  0.3113041E+04  0.7818609E-02  0.8212168E-01
        2   -1    0    0  501    0  0.00000000000E+00  0.00000000000E+00  0.20601796780E+04  0.20601796780E+04  0.25500000920E-02 0.  1.
       -2   -1    0    0    0  501  0.00000000000E+00  0.00000000000E+00 -0.11759923696E+04  0.11759923696E+04  0.25500000920E-02 0. -1.
    10030    2    1    2    0    0  0.00000000000E+00  0.00000000000E+00  0.88418730838E+03  0.32361720475E+04  0.31130406880E+04 0.  0.
        5    1    3    3  502    0 -0.73146678573E+03 -0.33227320897E+02 -0.98576455703E+03  0.12279664350E+04  0.46999998093E+01 0. -1.
       -5    1    3    3    0  502  0.73146678573E+03  0.33227320897E+02  0.18699518654E+04  0.20082056126E+04  0.46999998093E+01 0.  1.
</event>
<event>
 5   0  0.5055900E-07  0.3097175E+04  0.7818609E-02  0.8216514E-01
       -2   -1    0    0    0  501  0.00000000000E+00  0.00000000000E+00  0.92358279275E+03  0.92358279276E+03  0.25500000920E-02 0. -1.
        2   -1    0    0  501    0  0.00000000000E+00  0.00000000000E+00 -0.25965442856E+04  0.25965442856E+04  0.25500000920E-02 0.  1.
    10030    2    1    2    0    0  0.00000000000E+00  0.00000000000E+00 -0.16729614929E+04  0.35201270784E+04  0.30971752439E+04 0.  0.
        2    1    3    3  502    0 -0.53606330410E+03 -0.11533110603E+04 -0.18406712609E+04  0.22373111001E+04  0.25500000920E-02 0.  1.
       -2    1    3    3    0  502  0.53606330410E+03  0.11533110603E+04  0.16770976806E+03  0.12828159783E+04  0.25500000920E-02 0. -1.
</event>
<event>
 5   0  0.5342534E-07  0.3102733E+04  0.7818609E-02  0.8214988E-01
        2   -1    0    0  501    0  0.00000000000E+00  0.00000000000E+00  0.17152433410E+04  0.17152433410E+04  0.25500000920E-02 0.  1.
       -2   -1    0    0    0  501  0.00000000000E+00  0.00000000000E+00 -0.14031470294E+04  0.14031470294E+04  0.25500000920E-02 0. -1.
    10030    2    1    2    0    0  0.00000000000E+00  0.00000000000E+00  0.31209631162E+03  0.31183903705E+04  0.31027333748E+04 0.  0.
        3    1    3    3  502    0 -0.14811132483E+04 -0.16639683281E+03  0.58874853155E+03  0.16025009216E+04  0.10100000352E+00 0. -1.
       -3    1    3    3    0  502  0.14811132483E+04  0.16639683281E+03 -0.27665221993E+03  0.15158894489E+04  0.10100000352E+00 0.  1.
</event>
<event>
 5   0  0.5055900E-07  0.3096048E+04  0.7818609E-02  0.8216823E-01
        2   -1    0    0  501    0  0.00000000000E+00  0.00000000000E+00  0.21988704147E+04  0.21988704147E+04  0.25500000920E-02 0.  1.
       -2   -1    0    0    0  501  0.00000000000E+00  0.00000000000E+00 -0.10898225450E+04  0.10898225450E+04  0.25500000920E-02 0. -1.
    10030    2    1    2    0    0  0.00000000000E+00  0.00000000000E+00  0.11090478697E+04  0.32886929596E+04  0.30960481594E+04 0.  0.
        2    1    3    3  502    0 -0.68561144506E+03  0.13754859438E+04  0.35764296211E+03  0.15779521931E+04  0.25500000920E-02 0. -1.
       -2    1    3    3    0  502  0.68561144506E+03 -0.13754859438E+04  0.75140490757E+03  0.17107407666E+04  0.25500000920E-02 0.  1.
</event>
<event>
 5   0  0.5342534E-07  0.3128585E+04  0.7818609E-02  0.8207936E-01
       -2   -1    0    0    0  501  0.00000000000E+00  0.00000000000E+00  0.89561584142E+03  0.89561584142E+03  0.25500000920E-02 0.  1.
        2   -1    0    0  501    0  0.00000000000E+00  0.00000000000E+00 -0.27322110429E+04  0.27322110429E+04  0.25500000920E-02 0. -1.
    10030    2    1    2    0    0  0.00000000000E+00  0.00000000000E+00 -0.18365952015E+04  0.36278268843E+04  0.31285852983E+04 0.  0.
        3    1    3    3  502    0  0.11517280076E+04 -0.38716237942E+03  0.22412689371E+03  0.12355585726E+04  0.10100000352E+00 0.  1.
       -3    1    3    3    0  502 -0.11517280076E+04  0.38716237942E+03 -0.20607220952E+04  0.23922683118E+04  0.10100000352E+00 0. -1.
</event>
<event>
 5   0  0.5342534E-07  0.3105727E+04  0.7818609E-02  0.8214168E-01
       -2   -1    0    0    0  501  0.00000000000E+00  0.00000000000E+00  0.15555963338E+04  0.15555963338E+04  0.25500000920E-02 0.  1.
        2   -1    0    0  501    0  0.00000000000E+00  0.00000000000E+00 -0.15501358676E+04  0.15501358677E+04  0.25500000920E-02 0. -1.
    10030    2    1    2    0    0  0.00000000000E+00  0.00000000000E+00  0.54604661452E+01  0.31057322014E+04  0.31057274012E+04 0.  0.
        3    1    3    3  502    0  0.13921792928E+04 -0.95064683612E+02 -0.67858219164E+03  0.15516682243E+04  0.10100000352E+00 0. -1.
       -3    1    3    3    0  502 -0.13921792928E+04  0.95064683612E+02  0.68404265779E+03  0.15540639772E+04  0.10100000352E+00 0.  1.
</event>
<event>
 5   0  0.5055900E-07  0.3102175E+04  0.7818609E-02  0.8215141E-01
        2   -1    0    0  501    0  0.00000000000E+00  0.00000000000E+00  0.21309062311E+04  0.21309062311E+04  0.25500000920E-02 0. -1.
       -2   -1    0    0    0  501  0.00000000000E+00  0.00000000000E+00 -0.11290370854E+04  0.11290370854E+04  0.25500000920E-02 0.  1.
    10030    2    1    2    0    0  0.00000000000E+00  0.00000000000E+00  0.10018691457E+04  0.32599433165E+04  0.31021748245E+04 0.  0.
        2    1    3    3  502    0 -0.42934293013E+03 -0.13268471186E+04  0.12144454803E+04  0.18492529444E+04  0.25500000920E-02 0. -1.
       -2    1    3    3    0  502  0.42934293013E+03  0.13268471186E+04 -0.21257633462E+03  0.14106903721E+04  0.25500000920E-02 0.  1.
</event>
<event>
 5   0  0.1830902E-07  0.3084237E+04  0.7818609E-02  0.8220077E-01
       -1   -1    0    0    0  501  0.00000000000E+00  0.00000000000E+00  0.87015572755E+03  0.87015572757E+03  0.50400001928E-02 0.  1.
        1   -1    0    0  501    0  0.00000000000E+00  0.00000000000E+00 -0.27329936168E+04  0.27329936168E+04  0.50400001928E-02 0. -1.
    10030    2    1    2    0    0  0.00000000000E+00  0.00000000000E+00 -0.18628378892E+04  0.36031493444E+04  0.30842373768E+04 0.  0.
        3    1    3    3  502    0 -0.93058941926E+03  0.11658888633E+04 -0.47470102487E+03  0.15654502809E+04  0.10100000352E+00 0.  1.
       -3    1    3    3    0  502  0.93058941926E+03 -0.11658888633E+04 -0.13881368644E+04  0.20376990635E+04  0.10100000352E+00 0. -1.
</event>
<event>
 5   0  0.1845123E-07  0.3110587E+04  0.7818609E-02  0.8212838E-01
        1   -1    0    0  501    0  0.00000000000E+00  0.00000000000E+00  0.12890031495E+04  0.12890031495E+04  0.50400001928E-02 0. -1.
       -1   -1    0    0    0  501  0.00000000000E+00  0.00000000000E+00 -0.18765955815E+04  0.18765955815E+04  0.50400001928E-02 0.  1.
    10030    2    1    2    0    0  0.00000000000E+00  0.00000000000E+00 -0.58759243197E+03  0.31655987310E+04  0.31105868352E+04 0.  0.
        2    1    3    3  502    0 -0.79282734323E+03 -0.86742060882E+03  0.74301688268E+03  0.13903480847E+04  0.25500000920E-02 0. -1.
       -2    1    3    3    0  502  0.79282734323E+03  0.86742060882E+03 -0.13306093146E+04  0.17752506463E+04  0.25500000920E-02 0.  1.
</event>
<event>
 5   0  0.1845123E-07  0.3095109E+04  0.7818609E-02  0.8217082E-01
        1   -1    0    0  501    0  0.00000000000E+00  0.00000000000E+00  0.12256387604E+04  0.12256387604E+04  0.50400001928E-02 0.  1.
       -1   -1    0    0    0  501  0.00000000000E+00  0.00000000000E+00 -0.19540215262E+04  0.19540215262E+04  0.50400001928E-02 0. -1.
    10030    2    1    2    0    0  0.00000000000E+00  0.00000000000E+00 -0.72838276580E+03  0.31796602866E+04  0.30951087355E+04 0.  0.
        2    1    3    3  502    0  0.12034544816E+02 -0.90097810095E+03 -0.16567425946E+04  0.18859221599E+04  0.25500000920E-02 0. -1.
       -2    1    3    3    0  502 -0.12034544816E+02  0.90097810095E+03  0.92835982876E+03  0.12937381266E+04  0.25500000920E-02 0.  1.
</event>
<event>
 5   0  0.1830902E-07  0.3104090E+04  0.7818609E-02  0.8214616E-01
        1   -1    0    0  501    0  0.00000000000E+00  0.00000000000E+00  0.23300927893E+04  0.23300927893E+04  0.50400001928E-02 0. -1.
       -1   -1    0    0    0  501  0.00000000000E+00  0.00000000000E+00 -0.10337971501E+04  0.10337971501E+04  0.50400001928E-02 0.  1.
    10030    2    1    2    0    0  0.00000000000E+00  0.00000000000E+00  0.12962956392E+04  0.33638899394E+04  0.31040897443E+04 0.  0.
        3    1    3    3  502    0 -0.14130532268E+04  0.22057454275E+03  0.13014923011E+04  0.19337152766E+04  0.10100000352E+00 0. -1.
       -3    1    3    3    0  502  0.14130532268E+04 -0.22057454275E+03 -0.51966619570E+01  0.14301746628E+04  0.10100000352E+00 0.  1.
</event>
<event>
 5   0  0.5154105E-07  0.3094746E+04  0.7818609E-02  0.8217181E-01
        2   -1    0    0  501    0  0.00000000000E+00  0.00000000000E+00  0.15152806542E+04  0.15152806542E+04  0.25500000920E-02 0.  1.
       -2   -1    0    0    0  501  0.00000000000E+00  0.00000000000E+00 -0.15801454166E+04  0.15801454166E+04  0.25500000920E-02 0. -1.
    10030    2    1    2    0    0  0.00000000000E+00  0.00000000000E+00 -0.64864762420E+02  0.30954260709E+04  0.30947463745E+04 0.  0.
        1    1    3    3  502    0  0.84051514910E+03  0.31363324996E+03 -0.12934758146E+04  0.15741382450E+04  0.50400001928E-02 0. -1.
       -1    1    3    3    0  502 -0.84051514910E+03 -0.31363324996E+03  0.12286110522E+04  0.15212878258E+04  0.50400001928E-02 0.  1.
</event>
<event>
 5   0  0.1830902E-07  0.3099084E+04  0.7818609E-02  0.8215989E-01
        1   -1    0    0  501    0  0.00000000000E+00  0.00000000000E+00  0.19356544306E+04  0.19356544306E+04  0.50400001928E-02 0. -1.
       -1   -1    0    0    0  501  0.00000000000E+00  0.00000000000E+00 -0.12404488376E+04  0.12404488376E+04  0.50400001928E-02 0.  1.
    10030    2    1    2    0    0  0.00000000000E+00  0.00000000000E+00  0.69520559295E+03  0.31761032682E+04  0.30990839217E+04 0.  0.
        3    1    3    3  502    0 -0.43940078550E+03  0.85663473075E+03 -0.89673172217E+03  0.13156838161E+04  0.10100000352E+00 0.  1.
       -3    1    3    3    0  502  0.43940078550E+03 -0.85663473075E+03  0.15919373151E+04  0.18604194521E+04  0.10100000352E+00 0. -1.
</event>
<event>
 5   0  0.5342534E-07  0.3105914E+04  0.7818609E-02  0.8214117E-01
       -2   -1    0    0    0  501  0.00000000000E+00  0.00000000000E+00  0.86000788519E+03  0.86000788519E+03  0.25500000920E-02 0. -1.
        2   -1    0    0  501    0  0.00000000000E+00  0.00000000000E+00 -0.28042486956E+04  0.28042486956E+04  0.25500000920E-02 0.  1.
    10030    2    1    2    0    0  0.00000000000E+00  0.00000000000E+00 -0.19442408104E+04  0.36642565808E+04  0.31059143518E+04 0.  0.
        3    1    3    3  502    0  0.12154241514E+04  0.74225746055E+03 -0.24154617635E+03  0.14444883423E+04  0.10100000352E+00 0. -1.
       -3    1    3    3    0  502 -0.12154241514E+04 -0.74225746055E+03 -0.17026946340E+04  0.22197682385E+04  0.10100000352E+00 0.  1.
</event>
<event>
 5   0  0.1840359E-07  0.3101860E+04  0.7818609E-02  0.8215228E-01
        1   -1    0    0  501    0  0.00000000000E+00  0.00000000000E+00  0.18589873797E+04  0.18589873797E+04  0.50400001928E-02 0.  1.
       -1   -1    0    0    0  501  0.00000000000E+00  0.00000000000E+00 -0.12939218970E+04  0.12939218970E+04  0.50400001928E-02 0. -1.
    10030    2    1    2    0    0  0.00000000000E+00  0.00000000000E+00  0.56506548267E+03  0.31529092767E+04  0.31018603946E+04 0.  0.
        1    1    3    3  502    0 -0.22467022274E+03  0.28186335683E+03 -0.12507558608E+04  0.13016581288E+04  0.50400001928E-02 0. -1.
       -1    1    3    3    0  502  0.22467022274E+03 -0.28186335683E+03  0.18158213435E+04  0.18512511479E+04  0.50400001928E-02 0.  1.
</event>
<event>
 5   0  0.5248309E-07  0.3102964E+04  0.7818609E-02  0.8214925E-01
       -2   -1    0    0    0  501  0.00000000000E+00  0.00000000000E+00  0.95506407220E+03  0.95506407220E+03  0.25500000920E-02 0. -1.
        2   -1    0    0  501    0  0.00000000000E+00  0.00000000000E+00 -0.25203499078E+04  0.25203499078E+04  0.25500000920E-02 0.  1.
    10030    2    1    2    0    0  0.00000000000E+00  0.00000000000E+00 -0.15652858356E+04  0.34754139800E+04  0.31029635166E+04 0.  0.
        4    1    3    3  502    0 -0.77690850613E+03  0.50825841481E+03 -0.21749001946E+04  0.23647633946E+04  0.12699999809E+01 0.  1.
       -4    1    3    3    0  502  0.77690850613E+03 -0.50825841481E+03  0.60961435903E+03  0.11106505854E+04  0.12699999809E+01 0. -1.
</event>
<event>
 5   0  0.5248309E-07  0.3097172E+04  0.7818609E-02  0.8216514E-01
       -2   -1    0    0    0  501  0.00000000000E+00  0.00000000000E+00  0.10809952447E+04  0.10809952447E+04  0.25500000920E-02 0. -1.
        2   -1    0    0  501    0  0.00000000000E+00  0.00000000000E+00 -0.22184356420E+04  0.22184356420E+04  0.25500000920E-02 0.  1.
    10030    2    1    2    0    0  0.00000000000E+00  0.00000000000E+00 -0.11374403973E+04  0.32994308868E+04  0.30971718582E+04 0.  0.
        4    1    3    3  502    0  0.12769935157E+04 -0.75162203761E+03 -0.10480700689E+04  0.18149657322E+04  0.12699999809E+01 0. -1.
       -4    1    3    3    0  502 -0.12769935157E+04  0.75162203761E+03 -0.89370328362E+02  0.14844651546E+04  0.12699999809E+01 0.  1.
</event>
<event>
 5   0  0.1814075E-07  0.3100355E+04  0.7818609E-02  0.8215640E-01
        1   -1    0    0  501    0  0.00000000000E+00  0.00000000000E+00  0.16203193369E+04  0.16203193369E+04  0.50400001928E-02 0. -1.
       -1   -1    0    0    0  501  0.00000000000E+00  0.00000000000E+00 -0.14830720202E+04  0.14830720202E+04  0.50400001928E-02 0.  1.
    10030    2    1    2    0    0  0.00000000000E+00  0.00000000000E+00  0.13724731666E+03  0.31033913571E+04  0.31003549941E+04 0.  0.
        5    1    3    3  502    0 -0.96024025777E+03 -0.55539788706E+03 -0.10152572116E+04  0.15037611051E+04  0.46999998093E+01 0.  1.
       -5    1    3    3    0  502  0.96024025777E+03  0.55539788706E+03  0.11525045282E+04  0.15996302520E+04  0.46999998093E+01 0. -1.
</event>
<event>
 5   0  0.1830902E-07  0.3100550E+04  0.7818609E-02  0.8215587E-01
        1   -1    0    0  501    0  0.00000000000E+00  0.00000000000E+00  0.17851633465E+04  0.17851633465E+04  0.50400001928E-02 0.  1.
       -1   -1    0    0    0  501  0.00000000000E+00  0.00000000000E+00 -0.13462930829E+04  0.13462930829E+04  0.50400001928E-02 0. -1.
    10030    2    1    2    0    0  0.00000000000E+00  0.00000000000E+00  0.43887026355E+03  0.31314564294E+04  0.31005503159E+04 0.  0.
        3    1    3    3  502    0 -0.89404849926E+02  0.14362978639E+03 -0.13369416303E+04  0.13476036790E+04  0.10100000352E+00 0. -1.
       -3    1    3    3    0  502  0.89404849926E+02 -0.14362978639E+03  0.17758118938E+04  0.17838527504E+04  0.10100000352E+00 0.  1.
</event>
<event>
 5   0  0.1845123E-07  0.3088255E+04  0.7818609E-02  0.8218969E-01
       -1   -1    0    0    0  501  0.00000000000E+00  0.00000000000E+00  0.13045424317E+04  0.13045424318E+04  0.50400001928E-02 0. -1.
        1   -1    0    0  501    0  0.00000000000E+00  0.00000000000E+00 -0.18277130897E+04  0.18277130897E+04  0.50400001928E-02 0.  1.
    10030    2    1    2    0    0  0.00000000000E+00  0.00000000000E+00 -0.52317065792E+03  0.31322555214E+04  0.30882547036E+04 0.  0.
        2    1    3    3  502    0 -0.13323018962E+04  0.44781124671E+02  0.52880958052E+03  0.14341106178E+04  0.25500000920E-02 0. -1.
       -2    1    3    3    0  502  0.13323018962E+04 -0.44781124671E+02 -0.10519802384E+04  0.16981449036E+04  0.25500000920E-02 0.  1.
</event>
<event>
 5   0  0.5248309E-07  0.3167943E+04  0.7818609E-02  0.8197335E-01
       -2   -1    0    0    0  501  0.00000000000E+00  0.00000000000E+00  0.18897692146E+04  0.18897692146E+04  0.25500000920E-02 0. -1.
        2   -1    0    0  501    0  0.00000000000E+00  0.00000000000E+00 -0.13276574038E+04  0.13276574038E+04  0.25500000920E-02 0.  1.
    10030    2    1    2    0    0  0.00000000000E+00  0.00000000000E+00  0.56211181076E+03  0.32174266184E+04  0.31679432377E+04 0.  0.
        4    1    3    3  502    0  0.96152355965E+03  0.10212394975E+04 -0.46630989438E+03  0.14781421438E+04  0.12699999809E+01 0.  1.
       -4    1    3    3    0  502 -0.96152355965E+03 -0.10212394975E+04  0.10284217051E+04  0.17392844746E+04  0.12699999809E+01 0. -1.
</event>
<event>
 5   0  0.1830902E-07  0.3099825E+04  0.7818609E-02  0.8215786E-01
       -1   -1    0    0    0  501  0.00000000000E+00  0.00000000000E+00  0.15268897243E+04  0.15268897244E+04  0.50400001928E-02 0. -1.
        1   -1    0    0  501    0  0.00000000000E+00  0.00000000000E+00 -0.15732821259E+04  0.15732821259E+04  0.50400001928E-02 0.  1.
    10030    2    1    2    0    0  0.00000000000E+00  0.00000000000E+00 -0.46392401577E+02  0.31001718503E+04  0.30998247122E+04 0.  0.
        3    1    3    3  502    0 -0.81353493871E+03  0.76383475207E+03  0.10525383460E+04  0.15339881372E+04  0.10100000352E+00 0. -1.
       -3    1    3    3    0  502  0.81353493871E+03 -0.76383475207E+03 -0.10989307476E+04  0.15661837131E+04  0.10100000352E+00 0.  1.
</event>
<event>
 5   0  0.5055900E-07  0.3101505E+04  0.7818609E-02  0.8215325E-01
        2   -1    0    0  501    0  0.00000000000E+00  0.00000000000E+00  0.19089978403E+04  0.19089978403E+04  0.25500000920E-02 0.  1.
       -2   -1    0    0    0  501  0.00000000000E+00  0.00000000000E+00 -0.12597363824E+04  0.12597363824E+04  0.25500000920E-02 0. -1.
    10030    2    1    2    0    0  0.00000000000E+00  0.00000000000E+00  0.64926145786E+03  0.31687342227E+04  0.31015054625E+04 0.  0.
        2    1    3    3  502    0 -0.10629593224E+04 -0.16838988196E+03  0.14653432040E+04  0.18180947113E+04  0.25500000920E-02 0. -1.
       -2    1    3    3    0  502  0.10629593224E+04  0.16838988196E+03 -0.81608174619E+03  0.13506395115E+04  0.25500000920E-02 0.  1.
</event>
<event>
 5   0  0.5248309E-07  0.3098241E+04  0.7818609E-02  0.8216221E-01
        2   -1    0    0  501    0  0.00000000000E+00  0.00000000000E+00  0.13516425621E+04  0.13516425621E+04  0.25500000920E-02 0. -1.
       -2   -1    0    0    0  501  0.00000000000E+00  0.00000000000E+00 -0.17754499766E+04  0.17754499766E+04  0.25500000920E-02 0.  1.
    10030    2    1    2    0    0  0.00000000000E+00  0.00000000000E+00 -0.42380741451E+03  0.31270925387E+04  0.30982406331E+04 0.  0.
        4    1    3    3  502    0  0.10184211346E+04 -0.87753920475E+03  0.56501474834E+03  0.14582523588E+04  0.12699999809E+01 0. -1.
       -4    1    3    3    0  502 -0.10184211346E+04  0.87753920475E+03 -0.98882216286E+03  0.16688401799E+04  0.12699999809E+01 0.  1.
</event>
<event>
 5   0  0.1814075E-07  0.3098560E+04  0.7818609E-02  0.8216133E-01
       -1   -1    0    0    0  501  0.00000000000E+00  0.00000000000E+00  0.14709432012E+04  0.14709432012E+04  0.50400001928E-02 0.  1.
        1   -1    0    0  501    0  0.00000000000E+00  0.00000000000E+00 -0.16317888847E+04  0.16317888847E+04  0.50400001928E-02 0. -1.
    10030    2    1    2    0    0  0.00000000000E+00  0.00000000000E+00 -0.16084568345E+03  0.31027320859E+04  0.30985601596E+04 0.  0.
        5    1    3    3  502    0  0.54773433083E+03  0.75629902665E+03  0.11574639122E+04  0.14871939728E+04  0.46999998093E+01 0.  1.
       -5    1    3    3    0  502 -0.54773433083E+03 -0.75629902665E+03 -0.13183095956E+04  0.16155381131E+04  0.46999998093E+01 0. -1.
</event>
<event>
 5   0  0.1845123E-07  0.3103740E+04  0.7818609E-02  0.8214712E-01
       -1   -1    0    0    0  501  0.00000000000E+00  0.00000000000E+00  0.27290840444E+04  0.27290840444E+04  0.50400001928E-02 0.  1.
        1   -1    0    0  501    0  0.00000000000E+00  0.00000000000E+00 -0.88245746243E+03  0.88245746244E+03  0.50400001928E-02 0. -1.
    10030    2    1    2    0    0  0.00000000000E+00  0.00000000000E+00  0.18466265820E+04  0.36115415069E+04  0.31037400540E+04 0.  0.
        2    1    3    3  502    0 -0.10930486980E+04  0.10878077691E+04  0.11255919469E+04  0.19091983735E+04  0.25500000920E-02 0.  1.
       -2    1    3    3    0  502  0.10930486980E+04 -0.10878077691E+04  0.72103463513E+03  0.17023431333E+04  0.25500000920E-02 0. -1.
</event>
<event>
 5   0  0.5055900E-07  0.3105151E+04  0.7818609E-02  0.8214326E-01
        2   -1    0    0  501    0  0.00000000000E+00  0.00000000000E+00  0.17853805778E+04  0.17853805778E+04  0.25500000920E-02 0. -1.
       -2   -1    0    0    0  501  0.00000000000E+00  0.00000000000E+00 -0.13501271474E+04  0.13501271474E+04  0.25500000920E-02 0.  1.
    10030    2    1    2    0    0  0.00000000000E+00  0.00000000000E+00  0.43525343047E+03  0.31355077252E+04  0.31051510665E+04 0.  0.
        2    1    3    3  502    0 -0.86752892730E+03 -0.10074792770E+04 -0.59200343322E+03  0.14553655892E+04  0.25500000920E-02 0.  1.
       -2    1    3    3    0  502  0.86752892730E+03  0.10074792770E+04  0.10272568637E+04  0.16801421360E+04  0.25500000920E-02 0. -1.
</event>
<event>
 5   0  0.5342534E-07  0.3070751E+04  0.7818609E-02  0.8223811E-01
        2   -1    0    0  501    0  0.00000000000E+00  0.00000000000E+00  0.14969526176E+04  0.14969526176E+04  0.25500000920E-02 0.  1.
       -2   -1    0    0    0  501  0.00000000000E+00  0.00000000000E+00 -0.15747841052E+04  0.15747841052E+04  0.25500000920E-02 0. -1.
    10030    2    1    2    0    0  0.00000000000E+00  0.00000000000E+00 -0.77831487678E+02  0.30717367228E+04  0.30707505196E+04 0.  0.
        3    1    3    3  502    0 -0.88561740211E+03  0.48508928630E+03  0.11180660107E+04  0.15065528245E+04  0.10100000352E+00 0.  1.
       -3    1    3    3    0  502  0.88561740211E+03 -0.48508928630E+03 -0.11958974984E+04  0.15651838983E+04  0.10100000352E+00 0. -1.
</event>
<event>
 5   0  0.5376678E-07  0.3097208E+04  0.7818609E-02  0.8216505E-01
       -2   -1    0    0    0  501  0.00000000000E+00  0.00000000000E+00  0.11854668402E+04  0.11854668402E+04  0.25500000920E-02 0. -1.
        2   -1    0    0  501    0  0.00000000000E+00  0.00000000000E+00 -0.20229784776E+04  0.20229784776E+04  0.25500000920E-02 0.  1.
    10030    2    1    2    0    0  0.00000000000E+00  0.00000000000E+00 -0.83751163741E+03  0.32084453179E+04  0.30972077126E+04 0.  0.
        5    1    3    3  502    0 -0.13259875594E+04  0.46082496836E+03  0.25860073313E+03  0.14274099230E+04  0.46999998093E+01 0.  1.
       -5    1    3    3    0  502  0.13259875594E+04 -0.46082496836E+03 -0.10961123705E+04  0.17810353949E+04  0.46999998093E+01 0. -1.
</event>
<event>
 5   0  0.1845123E-07  0.3095567E+04  0.7818609E-02  0.8216956E-01
       -1   -1    0    0    0  501  0.00000000000E+00  0.00000000000E+00  0.12308653407E+04  0.12308653407E+04  0.50400001928E-02 0.  1.
        1   -1    0    0  501    0  0.00000000000E+00  0.00000000000E+00 -0.19462999197E+04  0.19462999197E+04  0.50400001928E-02 0. -1.
    10030    2    1    2    0    0  0.00000000000E+00  0.00000000000E+00 -0.71543457896E+03  0.31771652604E+04  0.30955665806E+04 0.  0.
        2    1    3    3  502    0  0.24533735868E+03 -0.14010614585E+04 -0.98410756148E+03  0.17296332913E+04  0.25500000920E-02 0. -1.
       -2    1    3    3    0  502 -0.24533735868E+03  0.14010614585E+04  0.26867298252E+03  0.14475319691E+04  0.25500000920E-02 0.  1.
</event>
<event>
 5   0  0.5055900E-07  0.3098096E+04  0.7818609E-02  0.8216261E-01
        2   -1    0    0  501    0  0.00000000000E+00  0.00000000000E+00  0.16612155981E+04  0.16612155981E+04  0.25500000920E-02 0. -1.
       -2   -1    0    0    0  501  0.00000000000E+00  0.00000000000E+00 -0.14444545746E+04  0.14444545746E+04  0.25500000920E-02 0.  1.
    10030    2    1    2    0    0  0.00000000000E+00  0.00000000000E+00  0.21676102349E+03  0.31056701728E+04  0.30980964931E+04 0.  0.
        2    1    3    3  502    0 -0.24593299954E+03 -0.14077750485E+04  0.70753457933E+03  0.15946531938E+04  0.25500000920E-02 0. -1.
       -2    1    3    3    0  502  0.24593299954E+03  0.14077750485E+04 -0.49077355584E+03  0.15110169789E+04  0.25500000920E-02 0.  1.
</event>
<event>
 5   0  0.1845123E-07  0.3098252E+04  0.7818609E-02  0.8216218E-01
       -1   -1    0    0    0  501  0.00000000000E+00  0.00000000000E+00  0.13100359302E+04  0.13100359302E+04  0.50400001928E-02 0.  1.
        1   -1    0    0  501    0  0.00000000000E+00  0.00000000000E+00 -0.18318511240E+04  0.18318511240E+04  0.50400001928E-02 0. -1.
    10030    2    1    2    0    0  0.00000000000E+00  0.00000000000E+00 -0.52181519385E+03  0.31418870542E+04  0.30982516303E+04 0.  0.
        2    1    3    3  502    0 -0.16162140230E+03  0.21040013956E+03 -0.18086405150E+04  0.18279962278E+04  0.25500000920E-02 0. -1.
       -2    1    3    3    0  502  0.16162140230E+03 -0.21040013956E+03  0.12868253212E+04  0.13138908264E+04  0.25500000920E-02 0.  1.
</event>
<event>
 5   0  0.5376678E-07  0.3131516E+04  0.7818609E-02  0.8207141E-01
        2   -1    0    0  501    0  0.00000000000E+00  0.00000000000E+00  0.16132231465E+04  0.16132231465E+04  0.25500000920E-02 0.  1.
       -2   -1    0    0    0  501  0.00000000000E+00  0.00000000000E+00 -0.15196896493E+04  0.15196896493E+04  0.25500000920E-02 0. -1.
    10030    2    1    2    0    0  0.00000000000E+00  0.00000000000E+00  0.93533497162E+02  0.31329127957E+04  0.31315162574E+04 0.  0.
        5    1    3    3  502    0 -0.54605128176E+03  0.84691019392E+02 -0.14188889274E+04  0.15226990673E+04  0.46999998093E+01 0. -1.
       -5    1    3    3    0  502  0.54605128176E+03 -0.84691019392E+02  0.15124224246E+04  0.16102137285E+04  0.46999998093E+01 0.  1.
</event>
<event>
 5   0  0.1840359E-07  0.3099976E+04  0.7818609E-02  0.8215744E-01
        1   -1    0    0  501    0  0.00000000000E+00  0.00000000000E+00  0.19174735879E+04  0.19174735879E+04  0.50400001928E-02 0. -1.
       -1   -1    0    0    0  501  0.00000000000E+00  0.00000000000E+00 -0.12529316425E+04  0.12529316426E+04  0.50400001928E-02 0.  1.
    10030    2    1    2    0    0  0.00000000000E+00  0.00000000000E+00  0.66454194531E+03  0.31704052304E+04  0.30999763431E+04 0.  0.
        1    1    3    3  502    0  0.32543073909E+03  0.32315512791E+03  0.18464925933E+04  0.19025954115E+04  0.50400001928E-02 0. -1.
       -1    1    3    3    0  502 -0.32543073909E+03 -0.32315512791E+03 -0.11819506480E+04  0.12678098189E+04  0.50400001928E-02 0.  1.
</event>
<event>
 5   0  0.1845123E-07  0.3104372E+04  0.7818609E-02  0.8214539E-01
        1   -1    0    0  501    0  0.00000000000E+00  0.00000000000E+00  0.14517697477E+04  0.14517697477E+04  0.50400001928E-02 0.  1.
       -1   -1    0    0    0  501  0.00000000000E+00  0.00000000000E+00 -0.16595480942E+04  0.16595480942E+04  0.50400001928E-02 0. -1.
    10030    2    1    2    0    0  0.00000000000E+00  0.00000000000E+00 -0.20777834653E+03  0.31113178419E+04  0.31043722187E+04 0.  0.
        2    1    3    3  502    0  0.29663803364E+03  0.84566697197E+03  0.11662801216E+04  0.14708351616E+04  0.25500000920E-02 0.  1.
       -2    1    3    3    0  502 -0.29663803364E+03 -0.84566697197E+03 -0.13740584682E+04  0.16404826803E+04  0.25500000920E-02 0. -1.
</event>
<event>
 5   0  0.1840359E-07  0.3097691E+04  0.7818609E-02  0.8216372E-01
        1   -1    0    0  501    0  0.00000000000E+00  0.00000000000E+00  0.12570601987E+04  0.12570601987E+04  0.50400001928E-02 0. -1.
       -1   -1    0    0    0  501  0.00000000000E+00  0.00000000000E+00 -0.19083587803E+04  0.19083587803E+04  0.50400001928E-02 0.  1.
    10030    2    1    2    0    0  0.00000000000E+00  0.00000000000E+00 -0.65129858166E+03  0.31654189790E+04  0.30976906673E+04 0.  0.
        1    1    3    3  502    0 -0.46077042202E+03  0.31519384662E+03  0.11506757420E+04  0.12789492586E+04  0.50400001928E-02 0. -1.
       -1    1    3    3    0  502  0.46077042202E+03 -0.31519384662E+03 -0.18019743237E+04  0.18864697204E+04  0.50400001928E-02 0.  1.
</event>
<event>
 5   0  0.5376678E-07  0.3093841E+04  0.7818609E-02  0.8217430E-01
       -2   -1    0    0    0  501  0.00000000000E+00  0.00000000000E+00  0.15226653813E+04  0.15226653813E+04  0.25500000920E-02 0.  1.
        2   -1    0    0  501    0  0.00000000000E+00  0.00000000000E+00 -0.15715623238E+04  0.15715623238E+04  0.25500000920E-02 0. -1.
    10030    2    1    2    0    0  0.00000000000E+00  0.00000000000E+00 -0.48896942476E+02  0.30942277051E+04  0.30938413308E+04 0.  0.
        5    1    3    3  502    0 -0.51383262868E+03 -0.60654481904E+03  0.13027518696E+04  0.15261405937E+04  0.46999998093E+01 0.  1.
       -5    1    3    3    0  502  0.51383262868E+03  0.60654481904E+03 -0.13516488121E+04  0.15680871114E+04  0.46999998093E+01 0. -1.
</event>
<event>
 5   0  0.1814075E-07  0.3108314E+04  0.7818609E-02  0.8213460E-01
       -1   -1    0    0    0  501  0.00000000000E+00  0.00000000000E+00  0.21051812268E+04  0.21051812268E+04  0.50400001928E-02 0.  1.
        1   -1    0    0  501    0  0.00000000000E+00  0.00000000000E+00 -0.11473615558E+04  0.11473615558E+04  0.50400001928E-02 0. -1.
    10030    2    1    2    0    0  0.00000000000E+00  0.00000000000E+00  0.95781967108E+03  0.32525427826E+04  0.31083140173E+04 0.  0.
        5    1    3    3  502    0  0.13150781374E+04  0.82609188042E+03  0.54102424570E+03  0.16445630504E+04  0.46999998093E+01 0. -1.
       -5    1    3    3    0  502 -0.13150781374E+04 -0.82609188042E+03  0.41679542538E+03  0.16079797322E+04  0.46999998093E+01 0.  1.
</event>
<event>
 5   0  0.1830902E-07  0.3101207E+04  0.7818609E-02  0.8215407E-01
        1   -1    0    0  501    0  0.00000000000E+00  0.00000000000E+00  0.12749888192E+04  0.12749888192E+04  0.50400001928E-02 0. -1.
       -1   -1    0    0    0  501  0.00000000000E+00  0.00000000000E+00 -0.18857980700E+04  0.18857980700E+04  0.50400001928E-02 0.  1.
    10030    2    1    2    0    0  0.00000000000E+00  0.00000000000E+00 -0.61080925080E+03  0.31607868892E+04  0.31012071550E+04 0.  0.
        3    1    3    3  502    0  0.14391860686E+04  0.19723586450E+03 -0.85823934075E+03  0.16872265119E+04  0.10100000352E+00 0.  1.
       -3    1    3    3    0  502 -0.14391860686E+04 -0.19723586450E+03  0.24743008995E+03  0.14735603774E+04  0.10100000352E+00 0. -1.
</event>
<event>
 5   0  0.5154105E-07  0.3099554E+04  0.7818609E-02  0.8215860E-01
        2   -1    0    0  501    0  0.00000000000E+00  0.00000000000E+00  0.16706990487E+04  0.16706990487E+04  0.25500000920E-02 0.  1.
       -2   -1    0    0    0  501  0.00000000000E+00  0.00000000000E+00 -0.14376070753E+04  0.14376070753E+04  0.25500000920E-02 0. -1.
    10030    2    1    2    0    0  0.00000000000E+00  0.00000000000E+00  0.23309197340E+03  0.31083061240E+04  0.30995540151E+04 0.  0.
        1    1    3    3  502    0 -0.13356347536E+04  0.74502171381E+03 -0.13482337073E+03  0.15353028660E+04  0.50400001928E-02 0.  1.
       -1    1    3    3    0  502  0.13356347536E+04 -0.74502171381E+03  0.36791534413E+03  0.15730032580E+04  0.50400001928E-02 0. -1.
</event>
<event>
 5   0  0.1840359E-07  0.3103894E+04  0.7818609E-02  0.8214670E-01
       -1   -1    0    0    0  501  0.00000000000E+00  0.00000000000E+00  0.10170107628E+04  0.10170107628E+04  0.50400001928E-02 0. -1.
        1   -1    0    0  501    0  0.00000000000E+00  0.00000000000E+00 -0.23682533374E+04  0.23682533374E+04  0.50400001928E-02 0.  1.
    10030    2    1    2    0    0  0.00000000000E+00  0.00000000000E+00 -0.13512425746E+04  0.33852641002E+04  0.31038937695E+04 0.  0.
        1    1    3    3  502    0 -0.39100488553E+03  0.51649179888E+03  0.86250199811E+03  0.10786835938E+04  0.50400001928E-02 0. -1.
       -1    1    3    3    0  502  0.39100488553E+03 -0.51649179888E+03 -0.22137445727E+04  0.23065805063E+04  0.50400001928E-02 0.  1.
</event>
<event>
 5   0  0.5342534E-07  0.3100869E+04  0.7818609E-02  0.8215500E-01
       -2   -1    0    0    0  501  0.00000000000E+00  0.00000000000E+00  0.14353295788E+04  0.14353295788E+04  0.25500000920E-02 0. -1.
        2   -1    0    0  501    0  0.00000000000E+00  0.00000000000E+00 -0.16747697450E+04  0.16747697450E+04  0.25500000920E-02 0.  1.
    10030    2    1    2    0    0  0.00000000000E+00  0.00000000000E+00 -0.23944016612E+03  0.31100993238E+04  0.31008686220E+04 0.  0.
        3    1    3    3  502    0  0.33437218223E+03 -0.28637961835E+03 -0.16107619207E+04  0.16698419139E+04  0.10100000352E+00 0.  1.
       -3    1    3    3    0  502 -0.33437218223E+03  0.28637961835E+03  0.13713217546E+04  0.14402574099E+04  0.10100000352E+00 0. -1.
</event>
<event>
 5   0  0.1840359E-07  0.3096119E+04  0.7818609E-02  0.8216804E-01
       -1   -1    0    0    0  501  0.00000000000E+00  0.00000000000E+00  0.19813778850E+04  0.19813778850E+04  0.50400001928E-02 0. -1.
        1   -1    0    0  501    0  0.00000000000E+00  0.00000000000E+00 -0.12095062754E+04  0.12095062754E+04  0.50400001928E-02 0.  1.
    10030    2    1    2    0    0  0.00000000000E+00  0.00000000000E+00  0.77187160965E+03  0.31908841604E+04  0.30961194976E+04 0.  0.
        1    1    3    3  502    0 -0.50642640119E+03 -0.10097357933E+04  0.14768498083E+04  0.18593330601E+04  0.50400001928E-02 0. -1.
       -1    1    3    3    0  502  0.50642640119E+03  0.10097357933E+04 -0.70497819862E+03  0.13315511003E+04  0.50400001928E-02 0.  1.
</event>
<event>
 5   0  0.1840359E-07  0.3110630E+04  0.7818609E-02  0.8212827E-01
        1   -1    0    0  501    0  0.00000000000E+00  0.00000000000E+00  0.14073494663E+04  0.14073494663E+04  0.50400001928E-02 0. -1.
       -1   -1    0    0    0  501  0.00000000000E+00  0.00000000000E+00 -0.17188374982E+04  0.17188374982E+04  0.50400001928E-02 0.  1.
    10030    2    1    2    0    0  0.00000000000E+00  0.00000000000E+00 -0.31148803194E+03  0.31261869645E+04  0.31106301843E+04 0.  0.
        1    1    3    3  502    0  0.11792536810E+04 -0.28753800896E+03 -0.11330722217E+04  0.16604728274E+04  0.50400001928E-02 0.  1.
       -1    1    3    3    0  502 -0.11792536810E+04  0.28753800896E+03  0.82158418980E+03  0.14657141371E+04  0.50400001928E-02 0. -1.
</event>
<event>
 5   0  0.5154105E-07  0.3113921E+04  0.7818609E-02  0.8211928E-01
        2   -1    0    0  501    0  0.00000000000E+00  0.00000000000E+00  0.18234600980E+04  0.18234600980E+04  0.25500000920E-02 0.  1.
       -2   -1    0    0    0  501  0.00000000000E+00  0.00000000000E+00 -0.13294096232E+04  0.13294096232E+04  0.25500000920E-02 0. -1.
    10030    2    1    2    0    0  0.00000000000E+00  0.00000000000E+00  0.49405047484E+03  0.31528697212E+04  0.31139206167E+04 0.  0.
        1    1    3    3  502    0  0.90366926142E+03 -0.51537861416E+03  0.14199152693E+04  0.17602251623E+04  0.50400001928E-02 0.  1.
       -1    1    3    3    0  502 -0.90366926142E+03  0.51537861416E+03 -0.92586479443E+03  0.13926445589E+04  0.50400001928E-02 0. -1.
</event>
<event>
 5   0  0.1840359E-07  0.3101272E+04  0.7818609E-02  0.8215389E-01
        1   -1    0    0  501    0  0.00000000000E+00  0.00000000000E+00  0.16889334412E+04  0.16889334412E+04  0.50400001928E-02 0. -1.
       -1   -1    0    0    0  501  0.00000000000E+00  0.00000000000E+00 -0.14236630291E+04  0.14236630291E+04  0.50400001928E-02 0.  1.
    10030    2    1    2    0    0  0.00000000000E+00  0.00000000000E+00  0.26527041212E+03  0.31125964703E+04  0.31012720609E+04 0.  0.
        1    1    3    3  502    0 -0.12007896408E+04  0.60120676475E+03  0.91078997983E+03  0.16226163202E+04  0.50400001928E-02 0. -1.
       -1    1    3    3    0  502  0.12007896408E+04 -0.60120676475E+03 -0.64551956771E+03  0.14899801501E+04  0.50400001928E-02 0.  1.
</event>
<event>
 5   0  0.1840359E-07  0.3104904E+04  0.7818609E-02  0.8214393E-01
        1   -1    0    0  501    0  0.00000000000E+00  0.00000000000E+00  0.17118754341E+04  0.17118754341E+04  0.50400001928E-02 0.  1.
       -1   -1    0    0    0  501  0.00000000000E+00  0.00000000000E+00 -0.14078755735E+04  0.14078755736E+04  0.50400001928E-02 0. -1.
    10030    2    1    2    0    0  0.00000000000E+00  0.00000000000E+00  0.30399986056E+03  0.31197510077E+04  0.31049042553E+04 0.  0.
        1    1    3    3  502    0 -0.95870162074E+03 -0.24085293262E+03 -0.10507991859E+04  0.14426703927E+04  0.50400001928E-02 0. -1.
       -1    1    3    3    0  502  0.95870162074E+03  0.24085293262E+03  0.13547990465E+04  0.16770806150E+04  0.50400001928E-02 0.  1.
</event>
<event>
 5   0  0.5342534E-07  0.3101037E+04  0.7818609E-02  0.8215453E-01
       -2   -1    0    0    0  501  0.00000000000E+00  0.00000000000E+00  0.25832175433E+04  0.25832175433E+04  0.25500000920E-02 0. -1.
        2   -1    0    0  501    0  0.00000000000E+00  0.00000000000E+00 -0.93066389569E+03  0.93066389569E+03  0.25500000920E-02 0.  1.
    10030    2    1    2    0    0  0.00000000000E+00  0.00000000000E+00  0.16525536476E+04  0.35138814390E+04  0.31010367958E+04 0.  0.
        3    1    3    3  502    0 -0.14577350499E+04 -0.15348780713E+03  0.13991049555E+04  0.20263377481E+04  0.10100000352E+00 0.  1.
       -3    1    3    3    0  502  0.14577350499E+04  0.15348780713E+03  0.25344869212E+03  0.14875436909E+04  0.10100000352E+00 0. -1.
</event>
<event>
 5   0  0.5376678E-07  0.3100779E+04  0.7818609E-02  0.8215524E-01
        2   -1    0    0  501    0  0.00000000000E+00  0.00000000000E+00  0.18247190286E+04  0.18247190286E+04  0.25500000920E-02 0. -1.
       -2   -1    0    0    0  501  0.00000000000E+00  0.00000000000E+00 -0.13173025060E+04  0.13173025060E+04  0.25500000920E-02 0.  1.
    10030    2    1    2    0    0  0.00000000000E+00  0.00000000000E+00  0.50741652257E+03  0.31420215346E+04  0.31007785791E+04 0.  0.
        5    1    3    3  502    0 -0.50006463728E+03 -0.12185243523E+04 -0.57498265811E+03  0.14371824469E+04  0.46999998093E+01 0.  1.
       -5    1    3    3    0  502  0.50006463728E+03  0.12185243523E+04  0.10823991807E+04  0.17048390877E+04  0.46999998093E+01 0. -1.
</event>
<event>
 5   0  0.5055900E-07  0.3094881E+04  0.7818609E-02  0.8217144E-01
       -2   -1    0    0    0  501  0.00000000000E+00  0.00000000000E+00  0.87981479930E+03  0.87981479930E+03  0.25500000920E-02 0.  1.
        2   -1    0    0  501    0  0.00000000000E+00  0.00000000000E+00 -0.27216772397E+04  0.27216772397E+04  0.25500000920E-02 0. -1.
    10030    2    1    2    0    0  0.00000000000E+00  0.00000000000E+00 -0.18418624404E+04  0.36014920390E+04  0.30948808794E+04 0.  0.
        2    1    3    3  502    0  0.99164159939E+03  0.27703180598E+03 -0.22652222225E+04  0.24882386140E+04  0.25500000920E-02 0. -1.
       -2    1    3    3    0  502 -0.99164159939E+03 -0.27703180598E+03  0.42335978206E+03  0.11132534250E+04  0.25500000920E-02 0.  1.
</event>
<event>
 5   0  0.5055900E-07  0.3116792E+04  0.7818609E-02  0.8211145E-01
        2   -1    0    0  501    0  0.00000000000E+00  0.00000000000E+00  0.20613882906E+04  0.20613882906E+04  0.25500000920E-02 0.  1.
       -2   -1    0    0    0  501  0.00000000000E+00  0.00000000000E+00 -0.11781370437E+04  0.11781370437E+04  0.25500000920E-02 0. -1.
    10030    2    1    2    0    0  0.00000000000E+00  0.00000000000E+00  0.88325124695E+03  0.32395253343E+04  0.31167918805E+04 0.  0.
        2    1    3    3  502    0 -0.14738218162E+04  0.50222998159E+02 -0.82126921161E+02  0.14769623985E+04  0.25500000920E-02 0. -1.
       -2    1    3    3    0  502  0.14738218162E+04 -0.50222998159E+02  0.96537816811E+03  0.17625629359E+04  0.25500000920E-02 0.  1.
</event>
<event>
 5   0  0.5342534E-07  0.3164028E+04  0.7818609E-02  0.8198382E-01
        2   -1    0    0  501    0  0.00000000000E+00  0.00000000000E+00  0.17949677748E+04  0.17949677748E+04  0.25500000920E-02 0. -1.
       -2   -1    0    0    0  501  0.00000000000E+00  0.00000000000E+00 -0.13943251939E+04  0.13943251939E+04  0.25500000920E-02 0.  1.
    10030    2    1    2    0    0  0.00000000000E+00  0.00000000000E+00  0.40064258092E+03  0.31892929687E+04  0.31640283125E+04 0.  0.
        3    1    3    3  502    0 -0.63996651525E+03  0.12231003184E+04 -0.57866084535E+03  0.14967898696E+04  0.10100000352E+00 0.  1.
       -3    1    3    3    0  502  0.63996651525E+03 -0.12231003184E+04  0.97930342626E+03  0.16925030991E+04  0.10100000352E+00 0. -1.
</event>
<event>
 5   0  0.1845123E-07  0.3099783E+04  0.7818609E-02  0.8215797E-01
       -1   -1    0    0    0  501  0.00000000000E+00  0.00000000000E+00  0.26386143125E+04  0.26386143125E+04  0.50400001928E-02 0.  1.
        1   -1    0    0  501    0  0.00000000000E+00  0.00000000000E+00 -0.91038859947E+03  0.91038859948E+03  0.50400001928E-02 0. -1.
    10030    2    1    2    0    0  0.00000000000E+00  0.00000000000E+00  0.17282257130E+04  0.35490029120E+04  0.30997834689E+04 0.  0.
        2    1    3    3  502    0  0.14391023742E+04 -0.57194407549E+03  0.93678341927E+03  0.18098891799E+04  0.25500000920E-02 0. -1.
       -2    1    3    3    0  502 -0.14391023742E+04  0.57194407549E+03  0.79144229376E+03  0.17391137321E+04  0.25500000920E-02 0.  1.
</event>
<event>
 5   0  0.5154105E-07  0.3112440E+04  0.7818609E-02  0.8212332E-01
        2   -1    0    0  501    0  0.00000000000E+00  0.00000000000E+00  0.80323452083E+03  0.80323452084E+03  0.25500000920E-02 0. -1.
       -2   -1    0    0    0  501  0.00000000000E+00  0.00000000000E+00 -0.30150847060E+04  0.30150847060E+04  0.25500000920E-02 0.  1.
    10030    2    1    2    0    0  0.00000000000E+00  0.00000000000E+00 -0.22118501852E+04  0.38183192269E+04  0.31124396342E+04 0.  0.
        1    1    3    3  502    0 -0.41771650968E+03 -0.14874373131E+04 -0.87686185419E+03  0.17764694070E+04  0.50400001928E-02 0.  1.
       -1    1    3    3    0  502  0.41771650968E+03  0.14874373131E+04 -0.13349883310E+04  0.20418498198E+04  0.50400001928E-02 0. -1.
</event>
<event>
 5   0  0.1830902E-07  0.3078586E+04  0.7818609E-02  0.8221639E-01
       -1   -1    0    0    0  501  0.00000000000E+00  0.00000000000E+00  0.16959512947E+04  0.16959512947E+04  0.50400001928E-02 0. -1.
        1   -1    0    0  501    0  0.00000000000E+00  0.00000000000E+00 -0.13971057584E+04  0.13971057584E+04  0.50400001928E-02 0.  1.
    10030    2    1    2    0    0  0.00000000000E+00  0.00000000000E+00  0.29884553625E+03  0.30930570531E+04  0.30785862468E+04 0.  0.
        3    1    3    3  502    0 -0.32208472239E+03 -0.12883887112E+04  0.93137364482E+03  0.16220791954E+04  0.10100000352E+00 0. -1.
       -3    1    3    3    0  502  0.32208472239E+03  0.12883887112E+04 -0.63252810857E+03  0.14709778577E+04  0.10100000352E+00 0.  1.
</event>
<event>
 5   0  0.1830902E-07  0.3102410E+04  0.7818609E-02  0.8215077E-01
       -1   -1    0    0    0  501  0.00000000000E+00  0.00000000000E+00  0.99076436257E+03  0.99076436258E+03  0.50400001928E-02 0. -1.
        1   -1    0    0  501    0  0.00000000000E+00  0.00000000000E+00 -0.24286679062E+04  0.24286679062E+04  0.50400001928E-02 0.  1.
    10030    2    1    2    0    0  0.00000000000E+00  0.00000000000E+00 -0.14379035436E+04  0.34194322688E+04  0.31024104242E+04 0.  0.
        3    1    3    3  502    0  0.85207162225E+03 -0.80386344603E+03  0.40182261512E+03  0.12384199262E+04  0.10100000352E+00 0. -1.
       -3    1    3    3    0  502 -0.85207162225E+03  0.80386344603E+03 -0.18397261588E+04  0.21810123426E+04  0.10100000352E+00 0.  1.
</event>
<event>
 5   0  0.1875284E-07  0.3092702E+04  0.7818609E-02  0.8217744E-01
        1   -1    0    0  501    0  0.00000000000E+00  0.00000000000E+00  0.14220614870E+04  0.14220614870E+04  0.50400001928E-02 0.  1.
       -1   -1    0    0    0  501  0.00000000000E+00  0.00000000000E+00 -0.16815039632E+04  0.16815039632E+04  0.50400001928E-02 0. -1.
    10030    2    1    2    0    0  0.00000000000E+00  0.00000000000E+00 -0.25944247621E+03  0.31035654502E+04  0.30927023952E+04 0.  0.
        4    1    3    3  502    0 -0.12122502922E+04 -0.58528754260E+03 -0.89337256582E+03  0.16156201388E+04  0.12699999809E+01 0. -1.
       -4    1    3    3    0  502  0.12122502922E+04  0.58528754260E+03  0.63393008961E+03  0.14879453115E+04  0.12699999809E+01 0.  1.
</event>
<event>
 5   0  0.5248309E-07  0.3109862E+04  0.7818609E-02  0.8213037E-01
        2   -1    0    0  501    0  0.00000000000E+00  0.00000000000E+00  0.19422954720E+04  0.19422954720E+04  0.25500000920E-02 0.  1.
       -2   -1    0    0    0  501  0.00000000000E+00  0.00000000000E+00 -0.12448208321E+04  0.12448208321E+04  0.25500000920E-02 0. -1.
    10030    2    1    2    0    0  0.00000000000E+00  0.00000000000E+00  0.69747463991E+03  0.31871163042E+04  0.31098616469E+04 0.  0.
        4    1    3    3  502    0 -0.64101788510E+03  0.13519198812E+04  0.78259410637E+03  0.16885042027E+04  0.12699999809E+01 0.  1.
       -4    1    3    3    0  502  0.64101788510E+03 -0.13519198812E+04 -0.85119466459E+02  0.14986121015E+04  0.12699999809E+01 0. -1.
</event>
<event>
 5   0  0.1830902E-07  0.3092984E+04  0.7818609E-02  0.8217666E-01
        1   -1    0    0  501    0  0.00000000000E+00  0.00000000000E+00  0.20088016750E+04  0.20088016750E+04  0.50400001928E-02 0.  1.
       -1   -1    0    0    0  501  0.00000000000E+00  0.00000000000E+00 -0.11905792658E+04  0.11905792658E+04  0.50400001928E-02 0. -1.
    10030    2    1    2    0    0  0.00000000000E+00  0.00000000000E+00  0.81822240915E+03  0.31993809408E+04  0.30929840758E+04 0.  0.
        3    1    3    3  502    0  0.18781845236E+03 -0.10452369599E+04 -0.75376794065E+03  0.13022911318E+04  0.10100000352E+00 0. -1.
       -3    1    3    3    0  502 -0.18781845236E+03  0.10452369599E+04  0.15719903498E+04  0.18970898090E+04  0.10100000352E+00 0.  1.
</event>
<event>
 5   0  0.5376678E-07  0.3095070E+04  0.7818609E-02  0.8217092E-01
       -2   -1    0    0    0  501  0.00000000000E+00  0.00000000000E+00  0.11814385295E+04  0.11814385295E+04  0.25500000920E-02 0. -1.
        2   -1    0    0  501    0  0.00000000000E+00  0.00000000000E+00 -0.20270750495E+04  0.20270750495E+04  0.25500000920E-02 0.  1.
    10030    2    1    2    0    0  0.00000000000E+00  0.00000000000E+00 -0.84563651999E+03  0.32085135790E+04  0.30950699932E+04 0.  0.
        5    1    3    3  502    0 -0.94572793101E+02  0.13719544397E+04  0.31286909150E+03  0.14103588750E+04  0.46999998093E+01 0. -1.
       -5    1    3    3    0  502  0.94572793101E+02 -0.13719544397E+04 -0.11585056115E+04  0.17981547040E+04  0.46999998093E+01 0.  1.
</event>
<event>
 5   0  0.1830902E-07  0.3054334E+04  0.7818609E-02  0.8228384E-01
       -1   -1    0    0    0  501  0.00000000000E+00  0.00000000000E+00  0.13315871327E+04  0.13315871327E+04  0.50400001928E-02 0.  1.
        1   -1    0    0  501    0  0.00000000000E+00  0.00000000000E+00 -0.17514729150E+04  0.17514729150E+04  0.50400001928E-02 0. -1.
    10030    2    1    2    0    0  0.00000000000E+00  0.00000000000E+00 -0.41988578230E+03  0.30830600477E+04  0.30543338369E+04 0.  0.
        3    1    3    3  502    0  0.14622222379E+04 -0.37281901958E+03  0.27108087069E+02  0.15092457563E+04  0.10100000352E+00 0. -1.
       -3    1    3    3    0  502 -0.14622222379E+04  0.37281901958E+03 -0.44699386936E+03  0.15738142914E+04  0.10100000352E+00 0.  1.
</event>
<event>
 5   0  0.5154105E-07  0.3092884E+04  0.7818609E-02  0.8217693E-01
        2   -1    0    0  501    0  0.00000000000E+00  0.00000000000E+00  0.25212817312E+04  0.25212817312E+04  0.25500000920E-02 0. -1.
       -2   -1    0    0    0  501  0.00000000000E+00  0.00000000000E+00 -0.94851892748E+03  0.94851892749E+03  0.25500000920E-02 0.  1.
    10030    2    1    2    0    0  0.00000000000E+00  0.00000000000E+00  0.15727628037E+04  0.34698006587E+04  0.30928843778E+04 0.  0.
        1    1    3    3  502    0 -0.95843722335E+02 -0.11492617273E+04 -0.36946412739E+03  0.12109881413E+04  0.50400001928E-02 0.  1.
       -1    1    3    3    0  502  0.95843722335E+02  0.11492617273E+04  0.19422269311E+04  0.22588125174E+04  0.50400001928E-02 0. -1.
</event>
<event>
 5   0  0.1830902E-07  0.3101901E+04  0.7818609E-02  0.8215217E-01
        1   -1    0    0  501    0  0.00000000000E+00  0.00000000000E+00  0.22966893605E+04  0.22966893605E+04  0.50400001928E-02 0. -1.
       -1   -1    0    0    0  501  0.00000000000E+00  0.00000000000E+00 -0.10473540142E+04  0.10473540142E+04  0.50400001928E-02 0.  1.
    10030    2    1    2    0    0  0.00000000000E+00  0.00000000000E+00  0.12493353463E+04  0.33440433747E+04  0.31019005923E+04 0.  0.
        3    1    3    3  502    0  0.77247500573E+03 -0.13085504846E+04  0.95943141416E+03  0.17970894952E+04  0.10100000352E+00 0. -1.
       -3    1    3    3    0  502 -0.77247500573E+03  0.13085504846E+04  0.28990393217E+03  0.15469538795E+04  0.10100000352E+00 0.  1.
</event>
<event>
 5   0  0.5376678E-07  0.3097964E+04  0.7818609E-02  0.8216297E-01
       -2   -1    0    0    0  501  0.00000000000E+00  0.00000000000E+00  0.19328697309E+04  0.19328697309E+04  0.25500000920E-02 0. -1.
        2   -1    0    0  501    0  0.00000000000E+00  0.00000000000E+00 -0.12413383224E+04  0.12413383224E+04  0.25500000920E-02 0.  1.
    10030    2    1    2    0    0  0.00000000000E+00  0.00000000000E+00  0.69153140854E+03  0.31742080533E+04  0.30979640212E+04 0.  0.
        5    1    3    3  502    0 -0.31931583058E+03  0.10114735246E+04 -0.81085716391E+03  0.13351227363E+04  0.46999998093E+01 0.  1.
       -5    1    3    3    0  502  0.31931583058E+03 -0.10114735246E+04  0.15023885725E+04  0.18390853170E+04  0.46999998093E+01 0. -1.
</event>
<event>
 5   0  0.5342534E-07  0.3098492E+04  0.7818609E-02  0.8216152E-01
        2   -1    0    0  501    0  0.00000000000E+00  0.00000000000E+00  0.15219701154E+04  0.15219701154E+04  0.25500000920E-02 0.  1.
       -2   -1    0    0    0  501  0.00000000000E+00  0.00000000000E+00 -0.15770105092E+04  0.15770105092E+04  0.25500000920E-02 0. -1.
    10030    2    1    2    0    0  0.00000000000E+00  0.00000000000E+00 -0.55040393730E+02  0.30989806246E+04  0.30984918052E+04 0.  0.
        3    1    3    3  502    0  0.11037393745E+04 -0.89044086909E+03  0.59630675616E+03  0.15384106428E+04  0.10100000352E+00 0.  1.
       -3    1    3    3    0  502 -0.11037393745E+04  0.89044086909E+03 -0.65134714989E+03  0.15605699818E+04  0.10100000352E+00 0. -1.
</event>
<event>
 5   0  0.5342534E-07  0.3100039E+04  0.7818609E-02  0.8215727E-01
       -2   -1    0    0    0  501  0.00000000000E+00  0.00000000000E+00  0.11834877589E+04  0.11834877589E+04  0.25500000920E-02 0. -1.
        2   -1    0    0  501    0  0.00000000000E+00  0.00000000000E+00 -0.20300673376E+04  0.20300673376E+04  0.25500000920E-02 0.  1.
    10030    2    1    2    0    0  0.00000000000E+00  0.00000000000E+00 -0.84657957873E+03  0.32135550966E+04  0.31000386087E+04 0.  0.
        3    1    3    3  502    0 -0.24280488754E+03 -0.91997312595E+03  0.84514032274E+03  0.12726220732E+04  0.10100000352E+00 0. -1.
       -3    1    3    3    0  502  0.24280488754E+03  0.91997312595E+03 -0.16917199015E+04  0.19409330233E+04  0.10100000352E+00 0.  1.
</event>
<event>
 5   0  0.1840359E-07  0.3100568E+04  0.7818609E-02  0.8215582E-01
        1   -1    0    0  501    0  0.00000000000E+00  0.00000000000E+00  0.25435044520E+04  0.25435044520E+04  0.50400001928E-02 0.  1.
       -1   -1    0    0    0  501  0.00000000000E+00  0.00000000000E+00 -0.94490929761E+03  0.94490929763E+03  0.50400001928E-02 0. -1.
    10030    2    1    2    0    0  0.00000000000E+00  0.00000000000E+00  0.15985951544E+04  0.34884137496E+04  0.31005683384E+04 0.  0.
        1    1    3    3  502    0 -0.13292572366E+04 -0.72683663836E+03  0.42927394054E+03  0.15746404085E+04  0.50400001928E-02 0. -1.
       -1    1    3    3    0  502  0.13292572366E+04  0.72683663836E+03  0.11693212139E+04  0.19137733411E+04  0.50400001928E-02 0.  1.
</event>
<event>
 5   0  0.1875284E-07  0.3099491E+04  0.7818609E-02  0.8215878E-01
        1   -1    0    0  501    0  0.00000000000E+00  0.00000000000E+00  0.20582423530E+04  0.20582423530E+04  0.50400001928E-02 0. -1.
       -1   -1    0    0    0  501  0.00000000000E+00  0.00000000000E+00 -0.11668747742E+04  0.11668747742E+04  0.50400001928E-02 0.  1.
    10030    2    1    2    0    0  0.00000000000E+00  0.00000000000E+00  0.89136757880E+03  0.32251171272E+04  0.30994909781E+04 0.  0.
        4    1    3    3  502    0 -0.62407237275E+03  0.86757932411E+03 -0.72210067476E+03  0.12898027785E+04  0.12699999809E+01 0.  1.
       -4    1    3    3    0  502  0.62407237275E+03 -0.86757932411E+03  0.16134682536E+04  0.19353143487E+04  0.12699999809E+01 0. -1.
</event>
<event>
 5   0  0.1840359E-07  0.3101110E+04  0.7818609E-02  0.8215433E-01
       -1   -1    0    0    0  501  0.00000000000E+00  0.00000000000E+00  0.12695552822E+04  0.12695552822E+04  0.50400001928E-02 0.  1.
        1   -1    0    0  501    0  0.00000000000E+00  0.00000000000E+00 -0.18937500571E+04  0.18937500572E+04  0.50400001928E-02 0. -1.
    10030    2    1    2    0    0  0.00000000000E+00  0.00000000000E+00 -0.62419477492E+03  0.31633053394E+04  0.31011097293E+04 0.  0.
        1    1    3    3  502    0 -0.60008638392E+03  0.35223365875E+03  0.11013512874E+04  0.13027458988E+04  0.50400001928E-02 0.  1.
       -1    1    3    3    0  502  0.60008638392E+03 -0.35223365875E+03 -0.17255460624E+04  0.18605594406E+04  0.50400001928E-02 0. -1.
</event>
<event>
 5   0  0.1814075E-07  0.3100353E+04  0.7818609E-02  0.8215641E-01
       -1   -1    0    0    0  501  0.00000000000E+00  0.00000000000E+00  0.10968629649E+04  0.10968629649E+04  0.50400001928E-02 0. -1.
        1   -1    0    0  501    0  0.00000000000E+00  0.00000000000E+00 -0.21908361124E+04  0.21908361124E+04  0.50400001928E-02 0.  1.
    10030    2    1    2    0    0  0.00000000000E+00  0.00000000000E+00 -0.10939731475E+04  0.32876990774E+04  0.31003528793E+04 0.  0.
        5    1    3    3  502    0 -0.12719449833E+04  0.88230287046E+03 -0.46004117508E+03  0.16149186879E+04  0.46999998093E+01 0.  1.
       -5    1    3    3    0  502  0.12719449833E+04 -0.88230287046E+03 -0.63393197242E+03  0.16727803895E+04  0.46999998093E+01 0. -1.
</event>
<event>
 5   0  0.1830902E-07  0.3101511E+04  0.7818609E-02  0.8215323E-01
        1   -1    0    0  501    0  0.00000000000E+00  0.00000000000E+00  0.15612094907E+04  0.15612094907E+04  0.50400001928E-02 0. -1.
       -1   -1    0    0    0  501  0.00000000000E+00  0.00000000000E+00 -0.15403718158E+04  0.15403718158E+04  0.50400001928E-02 0.  1.
    10030    2    1    2    0    0  0.00000000000E+00  0.00000000000E+00  0.20837674842E+02  0.31015813065E+04  0.31015113078E+04 0.  0.
        3    1    3    3  502    0  0.45803856143E+03 -0.90516049306E+03 -0.11625220583E+04  0.15429103630E+04  0.10100000352E+00 0.  1.
       -3    1    3    3    0  502 -0.45803856143E+03  0.90516049306E+03  0.11833597331E+04  0.15586709435E+04  0.10100000352E+00 0. -1.
</event>
<event>
 5   0  0.1875284E-07  0.3106296E+04  0.7818609E-02  0.8214012E-01
        1   -1    0    0  501    0  0.00000000000E+00  0.00000000000E+00  0.16548026639E+04  0.16548026639E+04  0.50400001928E-02 0.  1.
       -1   -1    0    0    0  501  0.00000000000E+00  0.00000000000E+00 -0.14577380516E+04  0.14577380516E+04  0.50400001928E-02 0. -1.
    10030    2    1    2    0    0  0.00000000000E+00  0.00000000000E+00  0.19706461222E+03  0.31125407155E+04  0.31062960651E+04 0.  0.
        4    1    3    3  502    0  0.12454614031E+04 -0.21332799907E+03  0.10034448564E+04  0.16135631796E+04  0.12699999809E+01 0.  1.
       -4    1    3    3    0  502 -0.12454614031E+04  0.21332799907E+03 -0.80638024420E+03  0.14989775359E+04  0.12699999809E+01 0. -1.
</event>
<event>
 5   0  0.1845123E-07  0.3095951E+04  0.7818609E-02  0.8216850E-01
        1   -1    0    0  501    0  0.00000000000E+00  0.00000000000E+00  0.15256077702E+04  0.15256077702E+04  0.50400001928E-02 0. -1.
       -1   -1    0    0    0  501  0.00000000000E+00  0.00000000000E+00 -0.15706707798E+04  0.15706707798E+04  0.50400001928E-02 0.  1.
    10030    2    1    2    0    0  0.00000000000E+00  0.00000000000E+00 -0.45063009541E+02  0.30962785500E+04  0.30959506108E+04 0.  0.
        2    1    3    3  502    0 -0.24722261273E+03  0.14443801459E+04  0.47639458902E+03  0.15408779415E+04  0.25500000920E-02 0. -1.
       -2    1    3    3    0  502  0.24722261273E+03 -0.14443801459E+04 -0.52145759856E+03  0.15554006086E+04  0.25500000920E-02 0.  1.
</event>
<event>
 5   0  0.5055900E-07  0.3046705E+04  0.7818609E-02  0.8230518E-01
       -2   -1    0    0    0  501  0.00000000000E+00  0.00000000000E+00  0.10350545450E+04  0.10350545450E+04  0.25500000920E-02 0. -1.
        2   -1    0    0  501    0  0.00000000000E+00  0.00000000000E+00 -0.22420102007E+04  0.22420102007E+04  0.25500000920E-02 0.  1.
    10030    2    1    2    0    0  0.00000000000E+00  0.00000000000E+00 -0.12069556557E+04  0.32770647457E+04  0.30467050059E+04 0.  0.
        2    1    3    3  502    0 -0.33143956846E+03  0.11029480259E+04 -0.16759938638E+04  0.20335441886E+04  0.25500000920E-02 0.  1.
       -2    1    3    3    0  502  0.33143956846E+03 -0.11029480259E+04  0.46903820808E+03  0.12435205572E+04  0.25500000920E-02 0. -1.
</event>
<event>
 5   0  0.1814075E-07  0.3100788E+04  0.7818609E-02  0.8215522E-01
        1   -1    0    0  501    0  0.00000000000E+00  0.00000000000E+00  0.25889323459E+04  0.25889323459E+04  0.50400001928E-02 0.  1.
       -1   -1    0    0    0  501  0.00000000000E+00  0.00000000000E+00 -0.92846035985E+03  0.92846035986E+03  0.50400001928E-02 0. -1.
    10030    2    1    2    0    0  0.00000000000E+00  0.00000000000E+00  0.16604719861E+04  0.35173927058E+04  0.31007876790E+04 0.  0.
        5    1    3    3  502    0  0.32543091502E+02 -0.61314644252E+03 -0.78465285859E+03  0.99634823795E+03  0.46999998093E+01 0. -1.
       -5    1    3    3    0  502 -0.32543091502E+02  0.61314644252E+03  0.24451248446E+04  0.25210444678E+04  0.46999998093E+01 0.  1.
</event>
<event>
 5   0  0.1830902E-07  0.3093909E+04  0.7818609E-02  0.8217411E-01
       -1   -1    0    0    0  501  0.00000000000E+00  0.00000000000E+00  0.20059023887E+04  0.20059023887E+04  0.50400001928E-02 0. -1.
        1   -1    0    0  501    0  0.00000000000E+00  0.00000000000E+00 -0.11930133669E+04  0.11930133670E+04  0.50400001928E-02 0.  1.
    10030    2    1    2    0    0  0.00000000000E+00  0.00000000000E+00  0.81288902172E+03  0.31989157556E+04  0.30939090888E+04 0.  0.
        3    1    3    3  502    0 -0.14086790505E+04 -0.12238801000E+02 -0.25442171141E+03  0.14315225716E+04  0.10100000352E+00 0.  1.
       -3    1    3    3    0  502  0.14086790505E+04  0.12238801000E+02  0.10673107331E+04  0.17673931840E+04  0.10100000352E+00 0. -1.
</event>
<event>
 5   0  0.5055900E-07  0.3084765E+04  0.7818609E-02  0.8219932E-01
       -2   -1    0    0    0  501  0.00000000000E+00  0.00000000000E+00  0.13231220055E+04  0.13231220055E+04  0.25500000920E-02 0.  1.
        2   -1    0    0  501    0  0.00000000000E+00  0.00000000000E+00 -0.17979773496E+04  0.17979773496E+04  0.25500000920E-02 0. -1.
    10030    2    1    2    0    0  0.00000000000E+00  0.00000000000E+00 -0.47485534414E+03  0.31210993551E+04  0.30847647539E+04 0.  0.
        2    1    3    3  502    0 -0.15309591735E+04 -0.12883389932E+03 -0.99776553232E+02  0.15396069385E+04  0.25500000920E-02 0.  1.
       -2    1    3    3    0  502  0.15309591735E+04  0.12883389932E+03 -0.37507879091E+03  0.15814924166E+04  0.25500000920E-02 0. -1.
</event>
<event>
 5   0  0.1845123E-07  0.3093812E+04  0.7818609E-02  0.8217438E-01
        1   -1    0    0  501    0  0.00000000000E+00  0.00000000000E+00  0.13377988001E+04  0.13377988001E+04  0.50400001928E-02 0. -1.
       -1   -1    0    0    0  501  0.00000000000E+00  0.00000000000E+00 -0.17886984425E+04  0.17886984425E+04  0.50400001928E-02 0.  1.
    10030    2    1    2    0    0  0.00000000000E+00  0.00000000000E+00 -0.45089964243E+03  0.31264972427E+04  0.30938122957E+04 0.  0.
        2    1    3    3  502    0 -0.21930859638E+03  0.68097722698E+02 -0.17713775641E+04  0.17862004465E+04  0.25500000920E-02 0.  1.
       -2    1    3    3    0  502  0.21930859638E+03 -0.68097722698E+02  0.13204779217E+04  0.13402967962E+04  0.25500000920E-02 0. -1.
</event>
<event>
 5   0  0.1814075E-07  0.3096720E+04  0.7818609E-02  0.8216639E-01
        1   -1    0    0  501    0  0.00000000000E+00  0.00000000000E+00  0.21688430158E+04  0.21688430158E+04  0.50400001928E-02 0.  1.
       -1   -1    0    0    0  501  0.00000000000E+00  0.00000000000E+00 -0.11053905946E+04  0.11053905947E+04  0.50400001928E-02 0. -1.
    10030    2    1    2    0    0  0.00000000000E+00  0.00000000000E+00  0.10634524211E+04  0.32742336104E+04  0.30967199879E+04 0.  0.
        5    1    3    3  502    0  0.68789287933E+03 -0.13691223008E+04  0.29600221063E+03  0.15605549931E+04  0.46999998093E+01 0. -1.
       -5    1    3    3    0  502 -0.68789287933E+03  0.13691223008E+04  0.76745021049E+03  0.17136786173E+04  0.46999998093E+01 0.  1.
</event>
<event>
 5   0  0.5154105E-07  0.3095077E+04  0.7818609E-02  0.8217090E-01
        2   -1    0    0  501    0  0.00000000000E+00  0.00000000000E+00  0.19973950248E+04  0.19973950248E+04  0.25500000920E-02 0. -1.
       -2   -1    0    0    0  501  0.00000000000E+00  0.00000000000E+00 -0.11989995045E+04  0.11989995045E+04  0.25500000920E-02 0.  1.
    10030    2    1    2    0    0  0.00000000000E+00  0.00000000000E+00  0.79839552034E+03  0.31963945293E+04  0.30950771525E+04 0.  0.
        1    1    3    3  502    0  0.82842988405E+03  0.10025122526E+04 -0.46703778155E+03  0.13818289253E+04  0.50400001928E-02 0.  1.
       -1    1    3    3    0  502 -0.82842988405E+03 -0.10025122526E+04  0.12654333019E+04  0.18145656039E+04  0.50400001928E-02 0. -1.
</event>
<event>
 5   0  0.5055900E-07  0.3092235E+04  0.7818609E-02  0.8217872E-01
        2   -1    0    0  501    0  0.00000000000E+00  0.00000000000E+00  0.14998542603E+04  0.14998542603E+04  0.25500000920E-02 0.  1.
       -2   -1    0    0    0  501  0.00000000000E+00  0.00000000000E+00 -0.15938081391E+04  0.15938081391E+04  0.25500000920E-02 0. -1.
    10030    2    1    2    0    0  0.00000000000E+00  0.00000000000E+00 -0.93953878824E+02  0.30936623994E+04  0.30922353905E+04 0.  0.
        2    1    3    3  502    0  0.47331131634E+03  0.12335048276E+04 -0.85041800265E+03  0.15712315364E+04  0.25500000920E-02 0. -1.
       -2    1    3    3    0  502 -0.47331131634E+03 -0.12335048276E+04  0.75646412383E+03  0.15224308630E+04  0.25500000920E-02 0.  1.
</event>
<event>
 5   0  0.5248309E-07  0.3110519E+04  0.7818609E-02  0.8212857E-01
       -2   -1    0    0    0  501  0.00000000000E+00  0.00000000000E+00  0.91958512170E+03  0.91958512170E+03  0.25500000920E-02 0.  1.
        2   -1    0    0  501    0  0.00000000000E+00  0.00000000000E+00 -0.26303515517E+04  0.26303515517E+04  0.25500000920E-02 0. -1.
    10030    2    1    2    0    0  0.00000000000E+00  0.00000000000E+00 -0.17107664300E+04  0.35499366734E+04  0.31105190253E+04 0.  0.
        4    1    3    3  502    0 -0.81117975956E+03  0.96935470121E+03  0.17881580639E+03  0.12765726946E+04  0.12699999809E+01 0.  1.
       -4    1    3    3    0  502  0.81117975956E+03 -0.96935470121E+03 -0.18895822363E+04  0.22733639788E+04  0.12699999809E+01 0. -1.
</event>
<event>
 5   0  0.5376678E-07  0.3098536E+04  0.7818609E-02  0.8216140E-01
        2   -1    0    0  501    0  0.00000000000E+00  0.00000000000E+00  0.23119022132E+04  0.23119022132E+04  0.25500000920E-02 0.  1.
       -2   -1    0    0    0  501  0.00000000000E+00  0.00000000000E+00 -0.10382064535E+04  0.10382064535E+04  0.25500000920E-02 0. -1.
    10030    2    1    2    0    0  0.00000000000E+00  0.00000000000E+00  0.12736957596E+04  0.33501086667E+04  0.30985362981E+04 0.  0.
        5    1    3    3  502    0  0.31543898852E+03 -0.13468093640E+04  0.13912157139E+04  0.19618614812E+04  0.46999998093E+01 0.  1.
       -5    1    3    3    0  502 -0.31543898852E+03  0.13468093640E+04 -0.11751995431E+03  0.13882471855E+04  0.46999998093E+01 0. -1.
</event>
<event>
 5   0  0.5248309E-07  0.3099380E+04  0.7818609E-02  0.8215908E-01
       -2   -1    0    0    0  501  0.00000000000E+00  0.00000000000E+00  0.11710960664E+04  0.11710960664E+04  0.25500000920E-02 0.  1.
        2   -1    0    0  501    0  0.00000000000E+00  0.00000000000E+00 -0.20506766150E+04  0.20506766150E+04  0.25500000920E-02 0. -1.
    10030    2    1    2    0    0  0.00000000000E+00  0.00000000000E+00 -0.87958054860E+03  0.32217726814E+04  0.30993801428E+04 0.  0.
        4    1    3    3  502    0 -0.15168393231E+03 -0.20880019894E+03 -0.20281804140E+04  0.20445348965E+04  0.12699999809E+01 0. -1.
       -4    1    3    3    0  502  0.15168393231E+03  0.20880019894E+03  0.11485998654E+04  0.11772377849E+04  0.12699999809E+01 0.  1.
</event>
<event>
 5   0  0.5154105E-07  0.3097998E+04  0.7818609E-02  0.8216288E-01
        2   -1    0    0  501    0  0.00000000000E+00  0.00000000000E+00  0.30491970562E+04  0.30491970562E+04  0.25500000920E-02 0.  1.
       -2   -1    0    0    0  501  0.00000000000E+00  0.00000000000E+00 -0.78689486769E+03  0.78689486769E+03  0.25500000920E-02 0. -1.
    10030    2    1    2    0    0  0.00000000000E+00  0.00000000000E+00  0.22623021885E+04  0.38360919239E+04  0.30979977496E+04 0.  0.
        1    1    3    3  502    0 -0.13767349328E+03 -0.11615958685E+04  0.23885307287E+04  0.26595747770E+04  0.50400001928E-02 0. -1.
       -1    1    3    3    0  502  0.13767349328E+03  0.11615958685E+04 -0.12622854016E+03  0.11765171469E+04  0.50400001928E-02 0.  1.
</event>
<event>
 5   0  0.1845123E-07  0.3102824E+04  0.7818609E-02  0.8214963E-01
        1   -1    0    0  501    0  0.00000000000E+00  0.00000000000E+00  0.19381417434E+04  0.19381417434E+04  0.50400001928E-02 0. -1.
       -1   -1    0    0    0  501  0.00000000000E+00  0.00000000000E+00 -0.12418486734E+04  0.12418486734E+04  0.50400001928E-02 0.  1.
    10030    2    1    2    0    0  0.00000000000E+00  0.00000000000E+00  0.69629307004E+03  0.31799904168E+04  0.31028237158E+04 0.  0.
        2    1    3    3  502    0  0.80085284086E+03  0.41124069038E+03  0.16430542863E+04  0.18735291740E+04  0.25500000920E-02 0. -1.
       -2    1    3    3    0  502 -0.80085284086E+03 -0.41124069038E+03 -0.94676121629E+03  0.13064612427E+04  0.25500000920E-02 0.  1.
</event>
<event>
 5   0  0.5055900E-07  0.3100132E+04  0.7818609E-02  0.8215702E-01
        2   -1    0    0  501    0  0.00000000000E+00  0.00000000000E+00  0.17325690114E+04  0.17325690114E+04  0.25500000920E-02 0. -1.
       -2   -1    0    0    0  501  0.00000000000E+00  0.00000000000E+00 -0.13867869263E+04  0.13867869263E+04  0.25500000920E-02 0.  1.
    10030    2    1    2    0    0  0.00000000000E+00  0.00000000000E+00  0.34578208511E+03  0.31193559376E+04  0.31001316448E+04 0.  0.
        2    1    3    3  502    0 -0.14256113781E+03  0.12955562353E+04  0.10170898359E+04  0.16532578054E+04  0.25500000920E-02 0. -1.
       -2    1    3    3    0  502  0.14256113781E+03 -0.12955562353E+04 -0.67130775084E+03  0.14660981322E+04  0.25500000920E-02 0.  1.
</event>
<event>
 5   0  0.5342534E-07  0.3090289E+04  0.7818609E-02  0.8218408E-01
       -2   -1    0    0    0  501  0.00000000000E+00  0.00000000000E+00  0.24129128702E+04  0.24129128702E+04  0.25500000920E-02 0.  1.
        2   -1    0    0  501    0  0.00000000000E+00  0.00000000000E+00 -0.98945617942E+03  0.98945617943E+03  0.25500000920E-02 0. -1.
    10030    2    1    2    0    0  0.00000000000E+00  0.00000000000E+00  0.14234566908E+04  0.34023690497E+04  0.30902890155E+04 0.  0.
        3    1    3    3  502    0  0.34691941647E+03  0.69186101305E+03 -0.76065309163E+03  0.10851810351E+04  0.10100000352E+00 0. -1.
       -3    1    3    3    0  502 -0.34691941647E+03 -0.69186101305E+03  0.21841097825E+04  0.23171880146E+04  0.10100000352E+00 0.  1.
</event>
<event>
 5   0  0.5376678E-07  0.3103653E+04  0.7818609E-02  0.8214736E-01
       -2   -1    0    0    0  501  0.00000000000E+00  0.00000000000E+00  0.14081323319E+04  0.14081323319E+04  0.25500000920E-02 0.  1.
        2   -1    0    0  501    0  0.00000000000E+00  0.00000000000E+00 -0.17101836236E+04  0.17101836236E+04  0.25500000920E-02 0. -1.
    10030    2    1    2    0    0  0.00000000000E+00  0.00000000000E+00 -0.30205129172E+03  0.31183159555E+04  0.31036525926E+04 0.  0.
        5    1    3    3  502    0 -0.28053899722E+03  0.26685370828E+03 -0.16608661607E+04  0.17054065569E+04  0.46999998093E+01 0. -1.
       -5    1    3    3    0  502  0.28053899722E+03 -0.26685370828E+03  0.13588148690E+04  0.14129093986E+04  0.46999998093E+01 0.  1.
</event>
<event>
 5   0  0.5154105E-07  0.3096370E+04  0.7818609E-02  0.8216735E-01
       -2   -1    0    0    0  501  0.00000000000E+00  0.00000000000E+00  0.21159495157E+04  0.21159495157E+04  0.25500000920E-02 0.  1.
        2   -1    0    0  501    0  0.00000000000E+00  0.00000000000E+00 -0.11327663284E+04  0.11327663284E+04  0.25500000920E-02 0. -1.
    10030    2    1    2    0    0  0.00000000000E+00  0.00000000000E+00  0.98318318727E+03  0.32487158441E+04  0.30963697221E+04 0.  0.
        1    1    3    3  502    0 -0.11750636349E+03 -0.72637360032E+03  0.19207604495E+04  0.20568779879E+04  0.50400001928E-02 0.  1.
       -1    1    3    3    0  502  0.11750636349E+03  0.72637360032E+03 -0.93757726224E+03  0.11918378562E+04  0.50400001928E-02 0. -1.
</event>
<event>
 5   0  0.1840359E-07  0.3100451E+04  0.7818609E-02  0.8215614E-01
       -1   -1    0    0    0  501  0.00000000000E+00  0.00000000000E+00  0.11359819821E+04  0.11359819821E+04  0.50400001928E-02 0.  1.
        1   -1    0    0  501    0  0.00000000000E+00  0.00000000000E+00 -0.21155263550E+04  0.21155263550E+04  0.50400001928E-02 0. -1.
    10030    2    1    2    0    0  0.00000000000E+00  0.00000000000E+00 -0.97954437294E+03  0.32515083371E+04  0.31004514651E+04 0.  0.
        1    1    3    3  502    0 -0.59324905000E+03 -0.12859148699E+04  0.17156950216E+03  0.14265193942E+04  0.50400001928E-02 0.  1.
       -1    1    3    3    0  502  0.59324905000E+03  0.12859148699E+04 -0.11511138751E+04  0.18249889429E+04  0.50400001928E-02 0. -1.
</event>
<event>
 5   0  0.5055900E-07  0.3101806E+04  0.7818609E-02  0.8215242E-01
        2   -1    0    0  501    0  0.00000000000E+00  0.00000000000E+00  0.15293156353E+04  0.15293156353E+04  0.25500000920E-02 0.  1.
       -2   -1    0    0    0  501  0.00000000000E+00  0.00000000000E+00 -0.15727952033E+04  0.15727952033E+04  0.25500000920E-02 0. -1.
    10030    2    1    2    0    0  0.00000000000E+00  0.00000000000E+00 -0.43479567920E+02  0.31021108386E+04  0.31018061162E+04 0.  0.
        2    1    3    3  502    0 -0.14245955616E+04 -0.29178777121E+03 -0.56094734633E+03  0.15586130190E+04  0.25500000920E-02 0. -1.
       -2    1    3    3    0  502  0.14245955616E+04  0.29178777121E+03  0.51746777841E+03  0.15434978196E+04  0.25500000920E-02 0.  1.
</event>
<event>
 5   0  0.1830902E-07  0.3053260E+04  0.7818609E-02  0.8228684E-01
        1   -1    0    0  501    0  0.00000000000E+00  0.00000000000E+00  0.14433886099E+04  0.14433886099E+04  0.50400001928E-02 0.  1.
       -1   -1    0    0    0  501  0.00000000000E+00  0.00000000000E+00 -0.16146714916E+04  0.16146714916E+04  0.50400001928E-02 0. -1.
    10030    2    1    2    0    0  0.00000000000E+00  0.00000000000E+00 -0.17128288165E+03  0.30580601015E+04  0.30532595302E+04 0.  0.
        3    1    3    3  502    0  0.14825540579E+04 -0.22685619909E+02 -0.44969230838E+03  0.15494206512E+04  0.10100000352E+00 0. -1.
       -3    1    3    3    0  502 -0.14825540579E+04  0.22685619909E+02  0.27840942673E+03  0.15086394503E+04  0.10100000352E+00 0.  1.
</event>
<event>
 5   0  0.5376678E-07  0.3104106E+04  0.7818609E-02  0.8214612E-01
        2   -1    0    0  501    0  0.00000000000E+00  0.00000000000E+00  0.14401986535E+04  0.14401986535E+04  0.25500000920E-02 0.  1.
       -2   -1    0    0    0  501  0.00000000000E+00  0.00000000000E+00 -0.16725945992E+04  0.16725945992E+04  0.25500000920E-02 0. -1.
    10030    2    1    2    0    0  0.00000000000E+00  0.00000000000E+00 -0.23239594572E+03  0.31127932527E+04  0.31041059838E+04 0.  0.
        5    1    3    3  502    0  0.16517137397E+03 -0.14466955917E+04 -0.65495071930E+03  0.15966190067E+04  0.46999998093E+01 0. -1.
       -5    1    3    3    0  502 -0.16517137397E+03  0.14466955917E+04  0.42255477358E+03  0.15161742461E+04  0.46999998093E+01 0.  1.
</event>
<event>
 5   0  0.1875284E-07  0.3097464E+04  0.7818609E-02  0.8216434E-01
       -1   -1    0    0    0  501  0.00000000000E+00  0.00000000000E+00  0.15349233502E+04  0.15349233502E+04  0.50400001928E-02 0. -1.
        1   -1    0    0  501    0  0.00000000000E+00  0.00000000000E+00 -0.15626650995E+04  0.15626650995E+04  0.50400001928E-02 0.  1.
    10030    2    1    2    0    0  0.00000000000E+00  0.00000000000E+00 -0.27741749381E+02  0.30975884497E+04  0.30974642208E+04 0.  0.
        4    1    3    3  502    0 -0.61756871408E+03  0.35029866284E+03 -0.13903232828E+04  0.15611216203E+04  0.12699999809E+01 0.  1.
       -4    1    3    3    0  502  0.61756871408E+03 -0.35029866284E+03  0.13625815334E+04  0.15364668294E+04  0.12699999809E+01 0. -1.
</event>
<event>
 5   0  0.5248309E-07  0.3100112E+04  0.7818609E-02  0.8215707E-01
       -2   -1    0    0    0  501  0.00000000000E+00  0.00000000000E+00  0.11148265498E+04  0.11148265498E+04  0.25500000920E-02 0.  1.
        2   -1    0    0  501    0  0.00000000000E+00  0.00000000000E+00 -0.21552000819E+04  0.21552000819E+04  0.25500000920E-02 0. -1.
    10030    2    1    2    0    0  0.00000000000E+00  0.00000000000E+00 -0.10403735321E+04  0.32700266318E+04  0.31001124312E+04 0.  0.
        4    1    3    3  502    0  0.62768025316E+03  0.70059093999E+02 -0.20133217387E+04  0.21100608553E+04  0.12699999809E+01 0. -1.
       -4    1    3    3    0  502 -0.62768025316E+03 -0.70059093999E+02  0.97294820660E+03  0.11599657764E+04  0.12699999809E+01 0.  1.
</event>
<event>
 5   0  0.1840359E-07  0.3105187E+04  0.7818609E-02  0.8214316E-01
       -1   -1    0    0    0  501  0.00000000000E+00  0.00000000000E+00  0.12960529296E+04  0.12960529296E+04  0.50400001928E-02 0. -1.
        1   -1    0    0  501    0  0.00000000000E+00  0.00000000000E+00 -0.18599135513E+04  0.18599135513E+04  0.50400001928E-02 0.  1.
    10030    2    1    2    0    0  0.00000000000E+00  0.00000000000E+00 -0.56386062176E+03  0.31559664809E+04  0.31051868910E+04 0.  0.
        1    1    3    3  502    0  0.57645244077E+03 -0.71688870634E+03  0.98925064414E+03  0.13508677473E+04  0.50400001928E-02 0. -1.
       -1    1    3    3    0  502 -0.57645244077E+03  0.71688870634E+03 -0.15531112659E+04  0.18050987336E+04  0.50400001928E-02 0.  1.
</event>
<event>
 5   0  0.5154105E-07  0.3098852E+04  0.7818609E-02  0.8216053E-01
        2   -1    0    0  501    0  0.00000000000E+00  0.00000000000E+00  0.20090173625E+04  0.20090173625E+04  0.25500000920E-02 0. -1.
       -2   -1    0    0    0  501  0.00000000000E+00  0.00000000000E+00 -0.11949729779E+04  0.11949729779E+04  0.25500000920E-02 0.  1.
    10030    2    1    2    0    0  0.00000000000E+00  0.00000000000E+00  0.81404438457E+03  0.32039903404E+04  0.30988523426E+04 0.  0.
        1    1    3    3  502    0  0.11734257241E+04 -0.54570609124E+03  0.12879861577E+04  0.18258234883E+04  0.50400001928E-02 0. -1.
       -1    1    3    3    0  502 -0.11734257241E+04  0.54570609124E+03 -0.47394177317E+03  0.13781668521E+04  0.50400001928E-02 0.  1.
</event>
<event>
 5   0  0.1875284E-07  0.3106869E+04  0.7818609E-02  0.8213855E-01
       -1   -1    0    0    0  501  0.00000000000E+00  0.00000000000E+00  0.16380243147E+04  0.16380243147E+04  0.50400001928E-02 0.  1.
        1   -1    0    0  501    0  0.00000000000E+00  0.00000000000E+00 -0.14732131534E+04  0.14732131534E+04  0.50400001928E-02 0. -1.
    10030    2    1    2    0    0  0.00000000000E+00  0.00000000000E+00  0.16481116134E+03  0.31112374681E+04  0.31068691417E+04 0.  0.
        4    1    3    3  502    0 -0.14291985677E+04 -0.51737377989E+03 -0.23878387466E+03  0.15386044085E+04  0.12699999809E+01 0. -1.
       -4    1    3    3    0  502  0.14291985677E+04  0.51737377989E+03  0.40359503599E+03  0.15726330596E+04  0.12699999809E+01 0.  1.
</event>
<event>
 5   0  0.5342534E-07  0.3066191E+04  0.7818609E-02  0.8225078E-01
        2   -1    0    0  501    0  0.00000000000E+00  0.00000000000E+00  0.20417808763E+04  0.20417808763E+04  0.25500000920E-02 0.  1.
       -2   -1    0    0    0  501  0.00000000000E+00  0.00000000000E+00 -0.11511427558E+04  0.11511427558E+04  0.25500000920E-02 0. -1.
    10030    2    1    2    0    0  0.00000000000E+00  0.00000000000E+00  0.89063812048E+03  0.31929236321E+04  0.30661906430E+04 0.  0.
        3    1    3    3  502    0 -0.93003961315E+03 -0.82194703364E+03 -0.49177054042E+03  0.13350688682E+04  0.10100000352E+00 0. -1.
       -3    1    3    3    0  502  0.93003961315E+03  0.82194703364E+03  0.13824086609E+04  0.18578547640E+04  0.10100000352E+00 0.  1.
</event>
<event>
 5   0  0.1830902E-07  0.3099156E+04  0.7818609E-02  0.8215970E-01
       -1   -1    0    0    0  501  0.00000000000E+00  0.00000000000E+00  0.16251818005E+04  0.16251818005E+04  0.50400001928E-02 0. -1.
        1   -1    0    0  501    0  0.00000000000E+00  0.00000000000E+00 -0.14774909859E+04  0.14774909859E+04  0.50400001928E-02 0.  1.
    10030    2    1    2    0    0  0.00000000000E+00  0.00000000000E+00  0.14769081454E+03  0.31026727864E+04  0.30991556661E+04 0.  0.
        3    1    3    3  502    0 -0.59150344273E+03 -0.69507854806E+03  0.13275368780E+04  0.16110135578E+04  0.10100000352E+00 0. -1.
       -3    1    3    3    0  502  0.59150344273E+03  0.69507854806E+03 -0.11798460634E+04  0.14916592286E+04  0.10100000352E+00 0.  1.
</event>
<event>
 5   0  0.5154105E-07  0.3099662E+04  0.7818609E-02  0.8215831E-01
       -2   -1    0    0    0  501  0.00000000000E+00  0.00000000000E+00  0.13562191244E+04  0.13562191244E+04  0.25500000920E-02 0. -1.
        2   -1    0    0  501    0  0.00000000000E+00  0.00000000000E+00 -0.17710824262E+04  0.17710824262E+04  0.25500000920E-02 0.  1.
    10030    2    1    2    0    0  0.00000000000E+00  0.00000000000E+00 -0.41486330175E+03  0.31273015506E+04  0.30996618250E+04 0.  0.
        1    1    3    3  502    0  0.82788787975E+03  0.11799465811E+04  0.36712296516E+03  0.14874311907E+04  0.50400001928E-02 0. -1.
       -1    1    3    3    0  502 -0.82788787975E+03 -0.11799465811E+04 -0.78198626691E+03  0.16398703599E+04  0.50400001928E-02 0.  1.
</event>
<event>
 5   0  0.1875284E-07  0.3093480E+04  0.7818609E-02  0.8217529E-01
       -1   -1    0    0    0  501  0.00000000000E+00  0.00000000000E+00  0.78479066004E+03  0.78479066006E+03  0.50400001928E-02 0.  1.
        1   -1    0    0  501    0  0.00000000000E+00  0.00000000000E+00 -0.30484628200E+04  0.30484628200E+04  0.50400001928E-02 0. -1.
    10030    2    1    2    0    0  0.00000000000E+00  0.00000000000E+00 -0.22636721600E+04  0.38332534801E+04  0.30934803369E+04 0.  0.
        4    1    3    3  502    0  0.88547914616E+03 -0.11116346824E+04 -0.18882173383E+04  0.23632967048E+04  0.12699999809E+01 0. -1.
       -4    1    3    3    0  502 -0.88547914616E+03  0.11116346824E+04 -0.37545482172E+03  0.14699567753E+04  0.12699999809E+01 0.  1.
</event>
<event>
 5   0  0.5342534E-07  0.3096894E+04  0.7818609E-02  0.8216591E-01
        2   -1    0    0  501    0  0.00000000000E+00  0.00000000000E+00  0.13431665081E+04  0.13431665081E+04  0.25500000920E-02 0. -1.
       -2   -1    0    0    0  501  0.00000000000E+00  0.00000000000E+00 -0.17851012730E+04  0.17851012730E+04  0.25500000920E-02 0.  1.
    10030    2    1    2    0    0  0.00000000000E+00  0.00000000000E+00 -0.44193476493E+03  0.31282677811E+04  0.30968940850E+04 0.  0.
        3    1    3    3  502    0  0.10520480175E+04 -0.58762546626E+03  0.76129292852E+03  0.14253686025E+04  0.10100000352E+00 0. -1.
       -3    1    3    3    0  502 -0.10520480175E+04  0.58762546626E+03 -0.12032276935E+04  0.17028991785E+04  0.10100000352E+00 0.  1.
</event>
<event>
 5   0  0.1875284E-07  0.3099330E+04  0.7818609E-02  0.8215922E-01
       -1   -1    0    0    0  501  0.00000000000E+00  0.00000000000E+00  0.15175352224E+04  0.15175352224E+04  0.50400001928E-02 0. -1.
        1   -1    0    0  501    0  0.00000000000E+00  0.00000000000E+00 -0.15824748020E+04  0.15824748020E+04  0.50400001928E-02 0.  1.
    10030    2    1    2    0    0  0.00000000000E+00  0.00000000000E+00 -0.64939579623E+02  0.31000100244E+04  0.30993297667E+04 0.  0.
        4    1    3    3  502    0 -0.89814605447E+03  0.82219938728E+03 -0.99121106497E+03  0.15700889006E+04  0.12699999809E+01 0.  1.
       -4    1    3    3    0  502  0.89814605447E+03 -0.82219938728E+03  0.92627148534E+03  0.15299211238E+04  0.12699999809E+01 0. -1.
</event>
<event>
 5   0  0.1814075E-07  0.3102064E+04  0.7818609E-02  0.8215172E-01
        1   -1    0    0  501    0  0.00000000000E+00  0.00000000000E+00  0.24201697882E+04  0.24201697882E+04  0.50400001928E-02 0. -1.
       -1   -1    0    0    0  501  0.00000000000E+00  0.00000000000E+00 -0.99402095962E+03  0.99402095963E+03  0.50400001928E-02 0.  1.
    10030    2    1    2    0    0  0.00000000000E+00  0.00000000000E+00  0.14261488285E+04  0.34141907478E+04  0.31020635037E+04 0.  0.
        5    1    3    3  502    0  0.83262038181E+03 -0.74086431032E+03 -0.47413655665E+03  0.12111829717E+04  0.46999998093E+01 0.  1.
       -5    1    3    3    0  502 -0.83262038181E+03  0.74086431032E+03  0.19002853852E+04  0.22030077761E+04  0.46999998093E+01 0. -1.
</event>
<event>
 5   0  0.1875284E-07  0.3099060E+04  0.7818609E-02  0.8215996E-01
        1   -1    0    0  501    0  0.00000000000E+00  0.00000000000E+00  0.19823036458E+04  0.19823036458E+04  0.50400001928E-02 0. -1.
       -1   -1    0    0    0  501  0.00000000000E+00  0.00000000000E+00 -0.12112388749E+04  0.12112388749E+04  0.50400001928E-02 0.  1.
    10030    2    1    2    0    0  0.00000000000E+00  0.00000000000E+00  0.77106477090E+03  0.31935425206E+04  0.30990600107E+04 0.  0.
        4    1    3    3  502    0 -0.22245327260E+03 -0.13476735263E+04 -0.36843821816E+03  0.14147288522E+04  0.12699999809E+01 0. -1.
       -4    1    3    3    0  502  0.22245327260E+03  0.13476735263E+04  0.11395029891E+04  0.17788136684E+04  0.12699999809E+01 0.  1.
</event>
<event>
 5   0  0.1814075E-07  0.3081023E+04  0.7818609E-02  0.8220965E-01
       -1   -1    0    0    0  501  0.00000000000E+00  0.00000000000E+00  0.89456757162E+03  0.89456757163E+03  0.50400001928E-02 0. -1.
        1   -1    0    0  501    0  0.00000000000E+00  0.00000000000E+00 -0.26528740559E+04  0.26528740559E+04  0.50400001928E-02 0.  1.
    10030    2    1    2    0    0  0.00000000000E+00  0.00000000000E+00 -0.17583064842E+04  0.35474416275E+04  0.30810226237E+04 0.  0.
        5    1    3    3  502    0  0.13093462340E+04 -0.38184229049E+03 -0.54516022954E+02  0.13649854146E+04  0.46999998093E+01 0. -1.
       -5    1    3    3    0  502 -0.13093462340E+04  0.38184229049E+03 -0.17037904613E+04  0.21824562129E+04  0.46999998093E+01 0.  1.
</event>
<event>
 5   0  0.5055900E-07  0.3100559E+04  0.7818609E-02  0.8215585E-01
        2   -1    0    0  501    0  0.00000000000E+00  0.00000000000E+00  0.17055290818E+04  0.17055290818E+04  0.25500000920E-02 0. -1.
       -2   -1    0    0    0  501  0.00000000000E+00  0.00000000000E+00 -0.14091616964E+04  0.14091616964E+04  0.25500000920E-02 0.  1.
    10030    2    1    2    0    0  0.00000000000E+00  0.00000000000E+00  0.29636738544E+03  0.31146907782E+04  0.31005588233E+04 0.  0.
        2    1    3    3  502    0 -0.21921137836E+03  0.77096271066E+03  0.14812320380E+04  0.16841868899E+04  0.25500000920E-02 0. -1.
       -2    1    3    3    0  502  0.21921137836E+03 -0.77096271066E+03 -0.11848646526E+04  0.14305038883E+04  0.25500000920E-02 0.  1.
</event>
<event>
 5   0  0.5248309E-07  0.3100160E+04  0.7818609E-02  0.8215694E-01
       -2   -1    0    0    0  501  0.00000000000E+00  0.00000000000E+00  0.16325801640E+04  0.16325801640E+04  0.25500000920E-02 0.  1.
        2   -1    0    0  501    0  0.00000000000E+00  0.00000000000E+00 -0.14717492312E+04  0.14717492312E+04  0.25500000920E-02 0. -1.
    10030    2    1    2    0    0  0.00000000000E+00  0.00000000000E+00  0.16083093275E+03  0.31043293952E+04  0.31001603837E+04 0.  0.
        4    1    3    3  502    0  0.52004876993E+03  0.14539960953E+04  0.21547315806E+03  0.15591618463E+04  0.12699999809E+01 0.  1.
       -4    1    3    3    0  502 -0.52004876993E+03 -0.14539960953E+04 -0.54642225303E+02  0.15451675488E+04  0.12699999809E+01 0. -1.
</event>
<event>
 5   0  0.5342534E-07  0.3155968E+04  0.7818609E-02  0.8200544E-01
       -2   -1    0    0    0  501  0.00000000000E+00  0.00000000000E+00  0.21734105135E+04  0.21734105135E+04  0.25500000920E-02 0. -1.
        2   -1    0    0  501    0  0.00000000000E+00  0.00000000000E+00 -0.11456800864E+04  0.11456800864E+04  0.25500000920E-02 0.  1.
    10030    2    1    2    0    0  0.00000000000E+00  0.00000000000E+00  0.10277304271E+04  0.33190905999E+04  0.31559677722E+04 0.  0.
        3    1    3    3  502    0  0.12242239529E+04  0.96246196824E+03  0.24578646335E+03  0.15765368131E+04  0.10100000352E+00 0. -1.
       -3    1    3    3    0  502 -0.12242239529E+04 -0.96246196824E+03  0.78194396374E+03  0.17425537868E+04  0.10100000352E+00 0.  1.
</event>
<event>
 5   0  0.5376678E-07  0.3103052E+04  0.7818609E-02  0.8214901E-01
        2   -1    0    0  501    0  0.00000000000E+00  0.00000000000E+00  0.12057138595E+04  0.12057138595E+04  0.25500000920E-02 0.  1.
       -2   -1    0    0    0  501  0.00000000000E+00  0.00000000000E+00 -0.19965205942E+04  0.19965205943E+04  0.25500000920E-02 0. -1.
    10030    2    1    2    0    0  0.00000000000E+00  0.00000000000E+00 -0.79080673477E+03  0.32022344537E+04  0.31030517567E+04 0.  0.
        5    1    3    3  502    0  0.33166935064E+03  0.14181284678E+04 -0.94739990903E+03  0.17374353475E+04  0.46999998093E+01 0. -1.
       -5    1    3    3    0  502 -0.33166935064E+03 -0.14181284678E+04  0.15659317426E+03  0.14647991062E+04  0.46999998093E+01 0.  1.
</event>
<event>
 5   0  0.1875284E-07  0.3110459E+04  0.7818609E-02  0.8212873E-01
       -1   -1    0    0    0  501  0.00000000000E+00  0.00000000000E+00  0.12907151758E+04  0.12907151758E+04  0.50400001928E-02 0. -1.
        1   -1    0    0  501    0  0.00000000000E+00  0.00000000000E+00 -0.18739520175E+04  0.18739520175E+04  0.50400001928E-02 0.  1.
    10030    2    1    2    0    0  0.00000000000E+00  0.00000000000E+00 -0.58323684173E+03  0.31646671934E+04  0.31104586850E+04 0.  0.
        4    1    3    3  502    0  0.73975368557E+03  0.17878966322E+03  0.10883135825E+04  0.13280170653E+04  0.12699999809E+01 0. -1.
       -4    1    3    3    0  502 -0.73975368557E+03 -0.17878966322E+03 -0.16715504243E+04  0.18366501280E+04  0.12699999809E+01 0.  1.
</event>
<event>
 5   0  0.1840359E-07  0.3089385E+04  0.7818609E-02  0.8218657E-01
       -1   -1    0    0    0  501  0.00000000000E+00  0.00000000000E+00  0.10539751173E+04  0.10539751173E+04  0.50400001928E-02 0.  1.
        1   -1    0    0  501    0  0.00000000000E+00  0.00000000000E+00 -0.22638815621E+04  0.22638815621E+04  0.50400001928E-02 0. -1.
    10030    2    1    2    0    0  0.00000000000E+00  0.00000000000E+00 -0.12099064449E+04  0.33178566794E+04  0.30893849452E+04 0.  0.
        1    1    3    3  502    0 -0.97836926986E+03  0.93969450989E+03  0.18849633718E+03  0.13695849989E+04  0.50400001928E-02 0.  1.
       -1    1    3    3    0  502  0.97836926986E+03 -0.93969450989E+03 -0.13984027820E+04  0.19482716805E+04  0.50400001928E-02 0. -1.
</event>
<event>
 5   0  0.5342534E-07  0.3101559E+04  0.7818609E-02  0.8215310E-01
       -2   -1    0    0    0  501  0.00000000000E+00  0.00000000000E+00  0.15732442248E+04  0.15732442248E+04  0.25500000920E-02 0.  1.
        2   -1    0    0  501    0  0.00000000000E+00  0.00000000000E+00 -0.15286351643E+04  0.15286351643E+04  0.25500000920E-02 0. -1.
    10030    2    1    2    0    0  0.00000000000E+00  0.00000000000E+00  0.44609060448E+02  0.31018793891E+04  0.31015586043E+04 0.  0.
        3    1    3    3  502    0  0.46841395262E+03  0.11397170045E+04 -0.91936066940E+03  0.15373973241E+04  0.10100000352E+00 0. -1.
       -3    1    3    3    0  502 -0.46841395262E+03 -0.11397170045E+04  0.96396972985E+03  0.15644820650E+04  0.10100000352E+00 0.  1.
</event>
<event>
 5   0  0.5154105E-07  0.3103643E+04  0.7818609E-02  0.8214739E-01
        2   -1    0    0  501    0  0.00000000000E+00  0.00000000000E+00  0.24287858880E+04  0.24287858880E+04  0.25500000920E-02 0. -1.
       -2   -1    0    0    0  501  0.00000000000E+00  0.00000000000E+00 -0.99150375572E+03  0.99150375573E+03  0.25500000920E-02 0.  1.
    10030    2    1    2    0    0  0.00000000000E+00  0.00000000000E+00  0.14372821323E+04  0.34202896438E+04  0.31036432333E+04 0.  0.
        1    1    3    3  502    0 -0.26260378636E+03 -0.19530153983E+03 -0.95304155220E+03  0.10076664331E+04  0.50400001928E-02 0.  1.
       -1    1    3    3    0  502  0.26260378636E+03  0.19530153983E+03  0.23903236845E+04  0.24126232107E+04  0.50400001928E-02 0. -1.
</event>
<event>
 5   0  0.1727000E-07  0.3094103E+04  0.7818609E-02  0.8217358E-01
       -3   -1    0    0    0  501  0.00000000000E+00  0.00000000000E+00  0.10773628230E+04  0.10773628277E+04  0.10100000352E+00 0.  1.
        3   -1    0    0  501    0  0.00000000000E+00  0.00000000000E+00 -0.22215062574E+04  0.22215062597E+04  0.10100000352E+00 0. -1.
    10030    2    1    2    0    0  0.00000000000E+00  0.00000000000E+00 -0.11441434344E+04  0.32988690874E+04  0.30941029487E+04 0.  0.
        5    1    3    3  502    0 -0.14527647237E+04 -0.12001313875E+03 -0.11244490893E+04  0.18410150299E+04  0.46999998093E+01 0. -1.
       -5    1    3    3    0  502  0.14527647237E+04  0.12001313875E+03 -0.19694345163E+02  0.14578540575E+04  0.46999998093E+01 0.  1.
</event>
<event>
 5   0  0.5342534E-07  0.3106092E+04  0.7818609E-02  0.8214068E-01
       -2   -1    0    0    0  501  0.00000000000E+00  0.00000000000E+00  0.16280628823E+04  0.16280628823E+04  0.25500000920E-02 0.  1.
        2   -1    0    0  501    0  0.00000000000E+00  0.00000000000E+00 -0.14814853224E+04  0.14814853224E+04  0.25500000920E-02 0. -1.
    10030    2    1    2    0    0  0.00000000000E+00  0.00000000000E+00  0.14657755983E+03  0.31095482047E+04  0.31060916046E+04 0.  0.
        3    1    3    3  502    0 -0.74438022600E+03  0.13507336552E+04  0.25616095879E+03  0.15633943121E+04  0.10100000352E+00 0.  1.
       -3    1    3    3    0  502  0.74438022600E+03 -0.13507336552E+04 -0.10958339896E+03  0.15461538926E+04  0.10100000352E+00 0. -1.
</event>
<event>
 5   0  0.1830902E-07  0.3101370E+04  0.7818609E-02  0.8215362E-01
       -1   -1    0    0    0  501  0.00000000000E+00  0.00000000000E+00  0.11950096123E+04  0.11950096123E+04  0.50400001928E-02 0. -1.
        1   -1    0    0  501    0  0.00000000000E+00  0.00000000000E+00 -0.20122209252E+04  0.20122209252E+04  0.50400001928E-02 0.  1.
    10030    2    1    2    0    0  0.00000000000E+00  0.00000000000E+00 -0.81721131287E+03  0.32072305375E+04  0.31013695991E+04 0.  0.
        3    1    3    3  502    0  0.92830619008E+02  0.55295182879E+03 -0.19037247172E+04  0.19845757879E+04  0.10100000352E+00 0.  1.
       -3    1    3    3    0  502 -0.92830619008E+02 -0.55295182879E+03  0.10865134043E+04  0.12226547496E+04  0.10100000352E+00 0. -1.
</event>
<event>
 5   0  0.5055900E-07  0.3082935E+04  0.7818609E-02  0.8220437E-01
       -2   -1    0    0    0  501  0.00000000000E+00  0.00000000000E+00  0.17327288886E+04  0.17327288886E+04  0.25500000920E-02 0.  1.
        2   -1    0    0  501    0  0.00000000000E+00  0.00000000000E+00 -0.13713177038E+04  0.13713177038E+04  0.25500000920E-02 0. -1.
    10030    2    1    2    0    0  0.00000000000E+00  0.00000000000E+00  0.36141118477E+03  0.31040465924E+04  0.30829348360E+04 0.  0.
        2    1    3    3  502    0 -0.27534493613E+03 -0.11100516753E+04  0.12212683240E+04  0.16731783750E+04  0.25500000920E-02 0. -1.
       -2    1    3    3    0  502  0.27534493613E+03  0.11100516753E+04 -0.85985713919E+03  0.14308682174E+04  0.25500000920E-02 0.  1.
</event>
<event>
 5   0  0.1840359E-07  0.3088653E+04  0.7818609E-02  0.8218859E-01
       -1   -1    0    0    0  501  0.00000000000E+00  0.00000000000E+00  0.13560406624E+04  0.13560406624E+04  0.50400001928E-02 0.  1.
        1   -1    0    0  501    0  0.00000000000E+00  0.00000000000E+00 -0.17587552779E+04  0.17587552779E+04  0.50400001928E-02 0. -1.
    10030    2    1    2    0    0  0.00000000000E+00  0.00000000000E+00 -0.40271461556E+03  0.31147959403E+04  0.30886525684E+04 0.  0.
        1    1    3    3  502    0  0.58439837449E+03  0.94197842429E+03 -0.12856787044E+04  0.16975908055E+04  0.50400001928E-02 0. -1.
       -1    1    3    3    0  502 -0.58439837449E+03 -0.94197842429E+03  0.88296408882E+03  0.14172051348E+04  0.50400001928E-02 0.  1.
</event>
<event>
 5   0  0.5342534E-07  0.3101176E+04  0.7818609E-02  0.8215415E-01
       -2   -1    0    0    0  501  0.00000000000E+00  0.00000000000E+00  0.29895672205E+04  0.29895672205E+04  0.25500000920E-02 0. -1.
        2   -1    0    0  501    0  0.00000000000E+00  0.00000000000E+00 -0.80423784520E+03  0.80423784520E+03  0.25500000920E-02 0.  1.
    10030    2    1    2    0    0  0.00000000000E+00  0.00000000000E+00  0.21853293753E+04  0.37938050657E+04  0.31011759701E+04 0.  0.
        3    1    3    3  502    0  0.14555283775E+04 -0.34359459831E+03  0.59168629340E+03  0.16083260819E+04  0.10100000352E+00 0.  1.
       -3    1    3    3    0  502 -0.14555283775E+04  0.34359459831E+03  0.15936430819E+04  0.21854789837E+04  0.10100000352E+00 0. -1.
</event>
<event>
 5   0  0.5055900E-07  0.3094374E+04  0.7818609E-02  0.8217284E-01
       -2   -1    0    0    0  501  0.00000000000E+00  0.00000000000E+00  0.12977222015E+04  0.12977222015E+04  0.25500000920E-02 0. -1.
        2   -1    0    0  501    0  0.00000000000E+00  0.00000000000E+00 -0.18446073640E+04  0.18446073640E+04  0.25500000920E-02 0.  1.
    10030    2    1    2    0    0  0.00000000000E+00  0.00000000000E+00 -0.54688516251E+03  0.31423295655E+04  0.30943742045E+04 0.  0.
        2    1    3    3  502    0  0.34054664677E+03  0.40837433518E+03 -0.17489037363E+04  0.18279512836E+04  0.25500000920E-02 0.  1.
       -2    1    3    3    0  502 -0.34054664677E+03 -0.40837433518E+03  0.12020185738E+04  0.13143782819E+04  0.25500000920E-02 0. -1.
</event>
<event>
 5   0  0.1840359E-07  0.3077659E+04  0.7818609E-02  0.8221896E-01
        1   -1    0    0  501    0  0.00000000000E+00  0.00000000000E+00  0.17519181399E+04  0.17519181399E+04  0.50400001928E-02 0. -1.
       -1   -1    0    0    0  501  0.00000000000E+00  0.00000000000E+00 -0.13516594886E+04  0.13516594886E+04  0.50400001928E-02 0.  1.
    10030    2    1    2    0    0  0.00000000000E+00  0.00000000000E+00  0.40025865131E+03  0.31035776285E+04  0.30776593554E+04 0.  0.
        1    1    3    3  502    0  0.87865376432E+03 -0.77486561298E+03 -0.80604465646E+03  0.14220257185E+04  0.50400001928E-02 0.  1.
       -1    1    3    3    0  502 -0.87865376432E+03  0.77486561298E+03  0.12063033078E+04  0.16815519100E+04  0.50400001928E-02 0. -1.
</event>
<event>
 5   0  0.5376678E-07  0.3089654E+04  0.7818609E-02  0.8218583E-01
       -2   -1    0    0    0  501  0.00000000000E+00  0.00000000000E+00  0.17249192745E+04  0.17249192745E+04  0.25500000920E-02 0. -1.
        2   -1    0    0  501    0  0.00000000000E+00  0.00000000000E+00 -0.13835371952E+04  0.13835371952E+04  0.25500000920E-02 0.  1.
    10030    2    1    2    0    0  0.00000000000E+00  0.00000000000E+00  0.34138207930E+03  0.31084564697E+04  0.30896536861E+04 0.  0.
        5    1    3    3  502    0  0.86761704154E+03 -0.89103167009E+03 -0.75127612440E+03  0.14529744227E+04  0.46999998093E+01 0.  1.
       -5    1    3    3    0  502 -0.86761704154E+03  0.89103167009E+03  0.10926582037E+04  0.16554820470E+04  0.46999998093E+01 0. -1.
</event>
<event>
 5   0  0.5055900E-07  0.3121482E+04  0.7818609E-02  0.8209867E-01
       -2   -1    0    0    0  501  0.00000000000E+00  0.00000000000E+00  0.19550796642E+04  0.19550796642E+04  0.25500000920E-02 0. -1.
        2   -1    0    0  501    0  0.00000000000E+00  0.00000000000E+00 -0.12459403411E+04  0.12459403411E+04  0.25500000920E-02 0.  1.
    10030    2    1    2    0    0  0.00000000000E+00  0.00000000000E+00  0.70913932312E+03  0.32010200053E+04  0.31214820990E+04 0.  0.
        2    1    3    3  502    0 -0.29511194472E+03  0.14112642159E+04  0.96742197787E+03  0.17362785002E+04  0.25500000920E-02 0. -1.
       -2    1    3    3    0  502  0.29511194472E+03 -0.14112642159E+04 -0.25828265474E+03  0.14647415051E+04  0.25500000920E-02 0.  1.
</event>
<event>
 5   0  0.5376678E-07  0.3094495E+04  0.7818609E-02  0.8217250E-01
        2   -1    0    0  501    0  0.00000000000E+00  0.00000000000E+00  0.20396572086E+04  0.20396572086E+04  0.25500000920E-02 0.  1.
       -2   -1    0    0    0  501  0.00000000000E+00  0.00000000000E+00 -0.11737139564E+04  0.11737139564E+04  0.25500000920E-02 0. -1.
    10030    2    1    2    0    0  0.00000000000E+00  0.00000000000E+00  0.86594325216E+03  0.32133711650E+04  0.30944945513E+04 0.  0.
        5    1    3    3  502    0  0.10810402065E+04  0.54989934956E+03  0.14305613794E+04  0.18755173081E+04  0.46999998093E+01 0.  1.
       -5    1    3    3    0  502 -0.10810402065E+04 -0.54989934956E+03 -0.56461812726E+03  0.13378538569E+04  0.46999998093E+01 0. -1.
</event>
<event>
 5   0  0.1840359E-07  0.3115874E+04  0.7818609E-02  0.8211395E-01
        1   -1    0    0  501    0  0.00000000000E+00  0.00000000000E+00  0.22645518054E+04  0.22645518054E+04  0.50400001928E-02 0.  1.
       -1   -1    0    0    0  501  0.00000000000E+00  0.00000000000E+00 -0.10718096435E+04  0.10718096435E+04  0.50400001928E-02 0. -1.
    10030    2    1    2    0    0  0.00000000000E+00  0.00000000000E+00  0.11927421618E+04  0.33363614489E+04  0.31158744925E+04 0.  0.
        1    1    3    3  502    0  0.31579415681E+03  0.90431955815E+03 -0.71925077595E+03  0.11978486931E+04  0.50400001928E-02 0. -1.
       -1    1    3    3    0  502 -0.31579415681E+03 -0.90431955815E+03  0.19119929378E+04  0.21385127558E+04  0.50400001928E-02 0.  1.
</event>
<event>
 5   0  0.5248309E-07  0.3100477E+04  0.7818609E-02  0.8215607E-01
       -2   -1    0    0    0  501  0.00000000000E+00  0.00000000000E+00  0.96103570803E+03  0.96103570804E+03  0.25500000920E-02 0. -1.
        2   -1    0    0  501    0  0.00000000000E+00  0.00000000000E+00 -0.25006756956E+04  0.25006756956E+04  0.25500000920E-02 0.  1.
    10030    2    1    2    0    0  0.00000000000E+00  0.00000000000E+00 -0.15396399876E+04  0.34617114037E+04  0.31004765038E+04 0.  0.
        4    1    3    3  502    0 -0.18112697345E+03  0.79006066856E+02 -0.24865556460E+04  0.24943956247E+04  0.12699999809E+01 0.  1.
       -4    1    3    3    0  502  0.18112697345E+03 -0.79006066856E+02  0.94691565842E+03  0.96731577893E+03  0.12699999809E+01 0. -1.
</event>
<event>
 5   0  0.5342534E-07  0.3102236E+04  0.7818609E-02  0.8215124E-01
        2   -1    0    0  501    0  0.00000000000E+00  0.00000000000E+00  0.31761600114E+04  0.31761600114E+04  0.25500000920E-02 0. -1.
       -2   -1    0    0    0  501  0.00000000000E+00  0.00000000000E+00 -0.75750825519E+03  0.75750825519E+03  0.25500000920E-02 0.  1.
    10030    2    1    2    0    0  0.00000000000E+00  0.00000000000E+00  0.24186517562E+04  0.39336682666E+04  0.31022362440E+04 0.  0.
        3    1    3    3  502    0 -0.10207026230E+04  0.10957891382E+04  0.17218590309E+04  0.22819698097E+04  0.10100000352E+00 0. -1.
       -3    1    3    3    0  502  0.10207026230E+04 -0.10957891382E+04  0.69679272531E+03  0.16516984568E+04  0.10100000352E+00 0.  1.
</event>
<event>
 5   0  0.5376678E-07  0.3100417E+04  0.7818609E-02  0.8215624E-01
        2   -1    0    0  501    0  0.00000000000E+00  0.00000000000E+00  0.21671362156E+04  0.21671362156E+04  0.25500000920E-02 0. -1.
       -2   -1    0    0    0  501  0.00000000000E+00  0.00000000000E+00 -0.11089038356E+04  0.11089038356E+04  0.25500000920E-02 0.  1.
    10030    2    1    2    0    0  0.00000000000E+00  0.00000000000E+00  0.10582323800E+04  0.32760400513E+04  0.31004165281E+04 0.  0.
        5    1    3    3  502    0  0.11409338530E+04  0.35227204896E+03  0.15736984502E+04  0.19754428758E+04  0.46999998093E+01 0. -1.
       -5    1    3    3    0  502 -0.11409338530E+04 -0.35227204896E+03 -0.51546607022E+03  0.13005971755E+04  0.46999998093E+01 0.  1.
</event>
<event>
 5   0  0.5342534E-07  0.3095830E+04  0.7818609E-02  0.8216883E-01
        2   -1    0    0  501    0  0.00000000000E+00  0.00000000000E+00  0.19387213031E+04  0.19387213031E+04  0.25500000920E-02 0. -1.
       -2   -1    0    0    0  501  0.00000000000E+00  0.00000000000E+00 -0.12358872787E+04  0.12358872787E+04  0.25500000920E-02 0.  1.
    10030    2    1    2    0    0  0.00000000000E+00  0.00000000000E+00  0.70283402441E+03  0.31746085817E+04  0.30958300957E+04 0.  0.
        3    1    3    3  502    0 -0.15172543100E+04  0.37674331185E+02  0.39436791750E+02  0.15182342596E+04  0.10100000352E+00 0.  1.
       -3    1    3    3    0  502  0.15172543100E+04 -0.37674331185E+02  0.66339723266E+03  0.16563743221E+04  0.10100000352E+00 0. -1.
</event>
<event>
 5   0  0.1830902E-07  0.3137454E+04  0.7818609E-02  0.8205534E-01
        1   -1    0    0  501    0  0.00000000000E+00  0.00000000000E+00  0.18568686624E+04  0.18568686624E+04  0.50400001928E-02 0. -1.
       -1   -1    0    0    0  501  0.00000000000E+00  0.00000000000E+00 -0.13252980072E+04  0.13252980072E+04  0.50400001928E-02 0.  1.
    10030    2    1    2    0    0  0.00000000000E+00  0.00000000000E+00  0.53157065520E+03  0.31821666697E+04  0.31374539601E+04 0.  0.
        3    1    3    3  502    0  0.46250034948E+03 -0.91446233734E+03  0.14704649766E+04  0.17923211758E+04  0.10100000352E+00 0. -1.
       -3    1    3    3    0  502 -0.46250034948E+03  0.91446233734E+03 -0.93889432143E+03  0.13898454938E+04  0.10100000352E+00 0.  1.
</event>
<event>
 5   0  0.1830902E-07  0.3094082E+04  0.7818609E-02  0.8217364E-01
        1   -1    0    0  501    0  0.00000000000E+00  0.00000000000E+00  0.24757196028E+04  0.24757196028E+04  0.50400001928E-02 0.  1.
       -1   -1    0    0    0  501  0.00000000000E+00  0.00000000000E+00 -0.96672310513E+03  0.96672310514E+03  0.50400001928E-02 0. -1.
    10030    2    1    2    0    0  0.00000000000E+00  0.00000000000E+00  0.15089964977E+04  0.34424427079E+04  0.30940816679E+04 0.  0.
        3    1    3    3  502    0 -0.64141569481E+03  0.11294995067E+04  0.16894389719E+04  0.21310530916E+04  0.10100000352E+00 0.  1.
       -3    1    3    3    0  502  0.64141569481E+03 -0.11294995067E+04 -0.18044247425E+03  0.13113896163E+04  0.10100000352E+00 0. -1.
</event>
<event>
 5   0  0.5248309E-07  0.3104053E+04  0.7818609E-02  0.8214627E-01
       -2   -1    0    0    0  501  0.00000000000E+00  0.00000000000E+00  0.18164573499E+04  0.18164573499E+04  0.25500000920E-02 0.  1.
        2   -1    0    0  501    0  0.00000000000E+00  0.00000000000E+00 -0.13260900572E+04  0.13260900572E+04  0.25500000920E-02 0. -1.
    10030    2    1    2    0    0  0.00000000000E+00  0.00000000000E+00  0.49036729271E+03  0.31425474071E+04  0.31040528546E+04 0.  0.
        4    1    3    3  502    0 -0.14254534514E+04 -0.61811739643E+02 -0.37316587907E+03  0.14747856181E+04  0.12699999809E+01 0. -1.
       -4    1    3    3    0  502  0.14254534514E+04  0.61811739643E+02  0.86353317177E+03  0.16677617890E+04  0.12699999809E+01 0.  1.
</event>
<event>
 5   0  0.1814075E-07  0.3104539E+04  0.7818609E-02  0.8214493E-01
       -1   -1    0    0    0  501  0.00000000000E+00  0.00000000000E+00  0.11857183780E+04  0.11857183780E+04  0.50400001928E-02 0. -1.
        1   -1    0    0  501    0  0.00000000000E+00  0.00000000000E+00 -0.20321359506E+04  0.20321359506E+04  0.50400001928E-02 0.  1.
    10030    2    1    2    0    0  0.00000000000E+00  0.00000000000E+00 -0.84641757252E+03  0.32178543286E+04  0.31045392207E+04 0.  0.
        5    1    3    3  502    0  0.56203956932E+03  0.66207858910E+03  0.91032881824E+03  0.12581562633E+04  0.46999998093E+01 0. -1.
       -5    1    3    3    0  502 -0.56203956932E+03 -0.66207858910E+03 -0.17567463908E+04  0.19596980653E+04  0.46999998093E+01 0.  1.
</event>
<event>
 5   0  0.1727000E-07  0.3099702E+04  0.7818609E-02  0.8215820E-01
        3   -1    0    0  501    0  0.00000000000E+00  0.00000000000E+00  0.10137459031E+04  0.10137459081E+04  0.10100000352E+00 0.  1.
       -3   -1    0    0    0  501  0.00000000000E+00  0.00000000000E+00 -0.23694669386E+04  0.23694669408E+04  0.10100000352E+00 0. -1.
    10030    2    1    2    0    0  0.00000000000E+00  0.00000000000E+00 -0.13557210355E+04  0.33832128489E+04  0.30997015428E+04 0.  0.
        3    1    3    3  502    0 -0.12086436960E+04  0.28480899517E+03 -0.16901024730E+04  0.20972320156E+04  0.10100000352E+00 0. -1.
       -3    1    3    3    0  502  0.12086436960E+04 -0.28480899517E+03  0.33438143749E+03  0.12859808333E+04  0.10100000352E+00 0.  1.
</event>
<event>
 5   0  0.1830902E-07  0.3089439E+04  0.7818609E-02  0.8218642E-01
        1   -1    0    0  501    0  0.00000000000E+00  0.00000000000E+00  0.17000778819E+04  0.17000778819E+04  0.50400001928E-02 0.  1.
       -1   -1    0    0    0  501  0.00000000000E+00  0.00000000000E+00 -0.14035586431E+04  0.14035586431E+04  0.50400001928E-02 0. -1.
    10030    2    1    2    0    0  0.00000000000E+00  0.00000000000E+00  0.29651923879E+03  0.31036365251E+04  0.30894394347E+04 0.  0.
        3    1    3    3  502    0 -0.74941493216E+02 -0.14371120762E+02 -0.14016640932E+04  0.14037396471E+04  0.10100000352E+00 0. -1.
       -3    1    3    3    0  502  0.74941493216E+02  0.14371120762E+02  0.16981833320E+04  0.16998968780E+04  0.10100000352E+00 0.  1.
</event>
<event>
 5   0  0.1727000E-07  0.3110993E+04  0.7818609E-02  0.8212727E-01
       -3   -1    0    0    0  501  0.00000000000E+00  0.00000000000E+00  0.17509908336E+04  0.17509908365E+04  0.10100000352E+00 0.  1.
        3   -1    0    0  501    0  0.00000000000E+00  0.00000000000E+00 -0.13818286040E+04  0.13818286077E+04  0.10100000352E+00 0. -1.
    10030    2    1    2    0    0  0.00000000000E+00  0.00000000000E+00  0.36916222956E+03  0.31328194442E+04  0.31109929151E+04 0.  0.
        2    1    3    3  502    0  0.42823336149E+02 -0.13767910168E+04  0.91227251981E+03  0.16521587371E+04  0.25500000920E-02 0.  1.
       -2    1    3    3    0  502 -0.42823336149E+02  0.13767910168E+04 -0.54311029025E+03  0.14806607071E+04  0.25500000920E-02 0. -1.
</event>
<event>
 5   0  0.1830902E-07  0.3122672E+04  0.7818609E-02  0.8209543E-01
        1   -1    0    0  501    0  0.00000000000E+00  0.00000000000E+00  0.14880200059E+04  0.14880200059E+04  0.50400001928E-02 0. -1.
       -1   -1    0    0    0  501  0.00000000000E+00  0.00000000000E+00 -0.16382645528E+04  0.16382645528E+04  0.50400001928E-02 0.  1.
    10030    2    1    2    0    0  0.00000000000E+00  0.00000000000E+00 -0.15024454692E+03  0.31262845587E+04  0.31226722079E+04 0.  0.
        3    1    3    3  502    0 -0.91623132347E+03 -0.12409453760E+04  0.16670456985E+03  0.15515204440E+04  0.10100000352E+00 0.  1.
       -3    1    3    3    0  502  0.91623132347E+03  0.12409453760E+04 -0.31694911677E+03  0.15747641147E+04  0.10100000352E+00 0. -1.
</event>
<event>
 5   0  0.5154105E-07  0.3101686E+04  0.7818609E-02  0.8215275E-01
       -2   -1    0    0    0  501  0.00000000000E+00  0.00000000000E+00  0.25137351182E+04  0.25137351182E+04  0.25500000920E-02 0. -1.
        2   -1    0    0  501    0  0.00000000000E+00  0.00000000000E+00 -0.95678924130E+03  0.95678924130E+03  0.25500000920E-02 0.  1.
    10030    2    1    2    0    0  0.00000000000E+00  0.00000000000E+00  0.15569458769E+04  0.34705243595E+04  0.31016864552E+04 0.  0.
        1    1    3    3  502    0  0.55373743162E+03 -0.88966237369E+03  0.20576580855E+04  0.23091299398E+04  0.50400001928E-02 0. -1.
       -1    1    3    3    0  502 -0.55373743162E+03  0.88966237369E+03 -0.50071220852E+03  0.11613944197E+04  0.50400001928E-02 0.  1.
</event>
<event>
 5   0  0.1845123E-07  0.3096977E+04  0.7818609E-02  0.8216568E-01
        1   -1    0    0  501    0  0.00000000000E+00  0.00000000000E+00  0.12960847485E+04  0.12960847485E+04  0.50400001928E-02 0.  1.
       -1   -1    0    0    0  501  0.00000000000E+00  0.00000000000E+00 -0.18500464475E+04  0.18500464476E+04  0.50400001928E-02 0. -1.
    10030    2    1    2    0    0  0.00000000000E+00  0.00000000000E+00 -0.55396169909E+03  0.31461311960E+04  0.30969772260E+04 0.  0.
        2    1    3    3  502    0 -0.11123005146E+04  0.43118330157E+03 -0.12799118887E+04  0.17496588002E+04  0.25500000920E-02 0. -1.
       -2    1    3    3    0  502  0.11123005146E+04 -0.43118330157E+03  0.72595018965E+03  0.13964723958E+04  0.25500000920E-02 0.  1.
</event>
<event>
 5   0  0.1830902E-07  0.3103428E+04  0.7818609E-02  0.8214798E-01
       -1   -1    0    0    0  501  0.00000000000E+00  0.00000000000E+00  0.22173469309E+04  0.22173469309E+04  0.50400001928E-02 0.  1.
        1   -1    0    0  501    0  0.00000000000E+00  0.00000000000E+00 -0.10858997151E+04  0.10858997151E+04  0.50400001928E-02 0. -1.
    10030    2    1    2    0    0  0.00000000000E+00  0.00000000000E+00  0.11314472158E+04  0.33032466460E+04  0.31034280405E+04 0.  0.
        3    1    3    3  502    0 -0.11372400975E+04  0.66846485677E+02 -0.55569368286E+03  0.12675089630E+04  0.10100000352E+00 0. -1.
       -3    1    3    3    0  502  0.11372400975E+04 -0.66846485677E+02  0.16871408987E+04  0.20357376830E+04  0.10100000352E+00 0.  1.
</event>
<event>
 5   0  0.1845123E-07  0.3103297E+04  0.7818609E-02  0.8214834E-01
       -1   -1    0    0    0  501  0.00000000000E+00  0.00000000000E+00  0.12357613140E+04  0.12357613140E+04  0.50400001928E-02 0.  1.
        1   -1    0    0  501    0  0.00000000000E+00  0.00000000000E+00 -0.19482835294E+04  0.19482835294E+04  0.50400001928E-02 0. -1.
    10030    2    1    2    0    0  0.00000000000E+00  0.00000000000E+00 -0.71252221549E+03  0.31840448434E+04  0.31032972235E+04 0.  0.
        2    1    3    3  502    0 -0.12454277397E+03 -0.48145304339E+03 -0.18643029313E+04  0.19294904393E+04  0.25500000920E-02 0. -1.
       -2    1    3    3    0  502  0.12454277397E+03  0.48145304339E+03  0.11517807158E+04  0.12545544041E+04  0.25500000920E-02 0.  1.
</event>
<event>
 5   0  0.1830902E-07  0.3129691E+04  0.7818609E-02  0.8207636E-01
        1   -1    0    0  501    0  0.00000000000E+00  0.00000000000E+00  0.29397368464E+04  0.29397368464E+04  0.50400001928E-02 0. -1.
       -1   -1    0    0    0  501  0.00000000000E+00  0.00000000000E+00 -0.83297994719E+03  0.83297994721E+03  0.50400001928E-02 0.  1.
    10030    2    1    2    0    0  0.00000000000E+00  0.00000000000E+00  0.21067568992E+04  0.37727167936E+04  0.31296912583E+04 0.  0.
        3    1    3    3  502    0  0.12956496041E+04 -0.77316841408E+03  0.55308428168E+03  0.16069846066E+04  0.10100000352E+00 0. -1.
       -3    1    3    3    0  502 -0.12956496041E+04  0.77316841408E+03  0.15536726175E+04  0.21657321869E+04  0.10100000352E+00 0.  1.
</event>
<event>
 5   0  0.5376678E-07  0.3093727E+04  0.7818609E-02  0.8217462E-01
        2   -1    0    0  501    0  0.00000000000E+00  0.00000000000E+00  0.23822464945E+04  0.23822464945E+04  0.25500000920E-02 0. -1.
       -2   -1    0    0    0  501  0.00000000000E+00  0.00000000000E+00 -0.10044245024E+04  0.10044245024E+04  0.25500000920E-02 0.  1.
    10030    2    1    2    0    0  0.00000000000E+00  0.00000000000E+00  0.13778219921E+04  0.33866709969E+04  0.30937270402E+04 0.  0.
        5    1    3    3  502    0 -0.55640171641E+03  0.14431126087E+04  0.66192321389E+03  0.16823558787E+04  0.46999998093E+01 0. -1.
       -5    1    3    3    0  502  0.55640171641E+03 -0.14431126087E+04  0.71589877819E+03  0.17043151182E+04  0.46999998093E+01 0.  1.
</event>
<event>
 5   0  0.5154105E-07  0.3100498E+04  0.7818609E-02  0.8215601E-01
        2   -1    0    0  501    0  0.00000000000E+00  0.00000000000E+00  0.20342888926E+04  0.20342888926E+04  0.25500000920E-02 0.  1.
       -2   -1    0    0    0  501  0.00000000000E+00  0.00000000000E+00 -0.11813815143E+04  0.11813815143E+04  0.25500000920E-02 0. -1.
    10030    2    1    2    0    0  0.00000000000E+00  0.00000000000E+00  0.85290737824E+03  0.32156704069E+04  0.31004975681E+04 0.  0.
        1    1    3    3  502    0 -0.59361804990E+03 -0.30528155763E+03  0.18776037525E+04  0.19927305563E+04  0.50400001928E-02 0.  1.
       -1    1    3    3    0  502  0.59361804990E+03  0.30528155763E+03 -0.10246963743E+04  0.12229398506E+04  0.50400001928E-02 0. -1.
</event>
<event>
 5   0  0.1840359E-07  0.3098946E+04  0.7818609E-02  0.8216027E-01
        1   -1    0    0  501    0  0.00000000000E+00  0.00000000000E+00  0.17457779168E+04  0.17457779168E+04  0.50400001928E-02 0. -1.
       -1   -1    0    0    0  501  0.00000000000E+00  0.00000000000E+00 -0.13752417352E+04  0.13752417352E+04  0.50400001928E-02 0.  1.
    10030    2    1    2    0    0  0.00000000000E+00  0.00000000000E+00  0.37053618161E+03  0.31210196521E+04  0.30989460477E+04 0.  0.
        1    1    3    3  502    0  0.11799906432E+04  0.91475314538E+03 -0.23206914191E+03  0.15109623826E+04  0.50400001928E-02 0.  1.
       -1    1    3    3    0  502 -0.11799906432E+04 -0.91475314538E+03  0.60260532352E+03  0.16100572695E+04  0.50400001928E-02 0. -1.
</event>
<event>
 5   0  0.5055900E-07  0.3102791E+04  0.7818609E-02  0.8214972E-01
       -2   -1    0    0    0  501  0.00000000000E+00  0.00000000000E+00  0.13139400920E+04  0.13139400920E+04  0.25500000920E-02 0.  1.
        2   -1    0    0  501    0  0.00000000000E+00  0.00000000000E+00 -0.18317637483E+04  0.18317637483E+04  0.25500000920E-02 0. -1.
    10030    2    1    2    0    0  0.00000000000E+00  0.00000000000E+00 -0.51782365630E+03  0.31457038403E+04  0.31027908908E+04 0.  0.
        2    1    3    3  502    0  0.13285246319E+03  0.11130772874E+04 -0.13462358733E+04  0.17518395621E+04  0.25500000920E-02 0. -1.
       -2    1    3    3    0  502 -0.13285246319E+03 -0.11130772874E+04  0.82841221704E+03  0.13938642782E+04  0.25500000920E-02 0.  1.
</event>
<event>
 5   0  0.5376678E-07  0.3099636E+04  0.7818609E-02  0.8215838E-01
        2   -1    0    0  501    0  0.00000000000E+00  0.00000000000E+00  0.11343712561E+04  0.11343712561E+04  0.25500000920E-02 0. -1.
       -2   -1    0    0    0  501  0.00000000000E+00  0.00000000000E+00 -0.21174156602E+04  0.21174156602E+04  0.25500000920E-02 0.  1.
    10030    2    1    2    0    0  0.00000000000E+00  0.00000000000E+00 -0.98304440404E+03  0.32517869163E+04  0.30996357607E+04 0.  0.
        5    1    3    3  502    0 -0.19393207703E+03  0.42376937461E+03 -0.20421573747E+04  0.20946644042E+04  0.46999998093E+01 0.  1.
       -5    1    3    3    0  502  0.19393207703E+03 -0.42376937461E+03  0.10591129706E+04  0.11571225121E+04  0.46999998093E+01 0. -1.
</event>
<event>
 5   0  0.1845123E-07  0.3102360E+04  0.7818609E-02  0.8215091E-01
       -1   -1    0    0    0  501  0.00000000000E+00  0.00000000000E+00  0.74793817503E+03  0.74793817505E+03  0.50400001928E-02 0. -1.
        1   -1    0    0  501    0  0.00000000000E+00  0.00000000000E+00 -0.32170554972E+04  0.32170554972E+04  0.50400001928E-02 0.  1.
    10030    2    1    2    0    0  0.00000000000E+00  0.00000000000E+00 -0.24691173221E+04  0.39649936722E+04  0.31023595005E+04 0.  0.
        2    1    3    3  502    0  0.62714546537E+03  0.94062895966E+03 -0.25919882518E+04  0.28278078739E+04  0.25500000920E-02 0.  1.
       -2    1    3    3    0  502 -0.62714546537E+03 -0.94062895966E+03  0.12287092965E+03  0.11371857983E+04  0.25500000920E-02 0. -1.
</event>
<event>
 5   0  0.5055900E-07  0.3140760E+04  0.7818609E-02  0.8204640E-01
       -2   -1    0    0    0  501  0.00000000000E+00  0.00000000000E+00  0.10230500395E+04  0.10230500395E+04  0.25500000920E-02 0. -1.
        2   -1    0    0  501    0  0.00000000000E+00  0.00000000000E+00 -0.24105309301E+04  0.24105309301E+04  0.25500000920E-02 0.  1.
    10030    2    1    2    0    0  0.00000000000E+00  0.00000000000E+00 -0.13874808906E+04  0.34335809697E+04  0.31407602668E+04 0.  0.
        2    1    3    3  502    0 -0.43024130530E+03 -0.81316481060E+03 -0.20850904334E+04  0.22790231911E+04  0.25500000920E-02 0.  1.
       -2    1    3    3    0  502  0.43024130530E+03  0.81316481060E+03  0.69760954279E+03  0.11545577786E+04  0.25500000920E-02 0. -1.
</event>
<event>
 5   0  0.5342534E-07  0.3088890E+04  0.7818609E-02  0.8218794E-01
       -2   -1    0    0    0  501  0.00000000000E+00  0.00000000000E+00  0.16986632228E+04  0.16986632228E+04  0.25500000920E-02 0.  1.
        2   -1    0    0  501    0  0.00000000000E+00  0.00000000000E+00 -0.14042278855E+04  0.14042278855E+04  0.25500000920E-02 0. -1.
    10030    2    1    2    0    0  0.00000000000E+00  0.00000000000E+00  0.29443533730E+03  0.31028911083E+04  0.30888899401E+04 0.  0.
        3    1    3    3  502    0 -0.14881239196E+04  0.33793982647E+03  0.38619119417E+03  0.15741219060E+04  0.10100000352E+00 0. -1.
       -3    1    3    3    0  502  0.14881239196E+04 -0.33793982647E+03 -0.91755856867E+02  0.15287692023E+04  0.10100000352E+00 0.  1.
</event>
<event>
 5   0  0.1814075E-07  0.3099685E+04  0.7818609E-02  0.8215824E-01
       -1   -1    0    0    0  501  0.00000000000E+00  0.00000000000E+00  0.23848499805E+04  0.23848499805E+04  0.50400001928E-02 0.  1.
        1   -1    0    0  501    0  0.00000000000E+00  0.00000000000E+00 -0.10071959042E+04  0.10071959042E+04  0.50400001928E-02 0. -1.
    10030    2    1    2    0    0  0.00000000000E+00  0.00000000000E+00  0.13776540763E+04  0.33920458848E+04  0.30996845856E+04 0.  0.
        5    1    3    3  502    0 -0.13495702455E+04  0.36275141871E+03  0.14221523785E+04  0.19938575469E+04  0.46999998093E+01 0. -1.
       -5    1    3    3    0  502  0.13495702455E+04 -0.36275141871E+03 -0.44498302222E+02  0.13981883379E+04  0.46999998093E+01 0.  1.
</event>
<event>
 5   0  0.1814075E-07  0.3084591E+04  0.7818609E-02  0.8219980E-01
        1   -1    0    0  501    0  0.00000000000E+00  0.00000000000E+00  0.19528940269E+04  0.19528940269E+04  0.50400001928E-02 0. -1.
       -1   -1    0    0    0  501  0.00000000000E+00  0.00000000000E+00 -0.12180257964E+04  0.12180257964E+04  0.50400001928E-02 0.  1.
    10030    2    1    2    0    0  0.00000000000E+00  0.00000000000E+00  0.73486823059E+03  0.31709198233E+04  0.30845909307E+04 0.  0.
        5    1    3    3  502    0  0.14936478081E+04 -0.13241221629E+03  0.73827460794E+03  0.16714030801E+04  0.46999998093E+01 0. -1.
       -5    1    3    3    0  502 -0.14936478081E+04  0.13241221629E+03 -0.34063773494E+01  0.14995167432E+04  0.46999998093E+01 0.  1.
</event>
<event>
 5   0  0.5154105E-07  0.3100883E+04  0.7818609E-02  0.8215496E-01
       -2   -1    0    0    0  501  0.00000000000E+00  0.00000000000E+00  0.12411405757E+04  0.12411405757E+04  0.25500000920E-02 0. -1.
        2   -1    0    0  501    0  0.00000000000E+00  0.00000000000E+00 -0.19368224266E+04  0.19368224266E+04  0.25500000920E-02 0.  1.
    10030    2    1    2    0    0  0.00000000000E+00  0.00000000000E+00 -0.69568185091E+03  0.31779630023E+04  0.31008830366E+04 0.  0.
        1    1    3    3  502    0 -0.65489270320E+03 -0.11836225230E+04 -0.11243164762E+04  0.17589582907E+04  0.50400001928E-02 0.  1.
       -1    1    3    3    0  502  0.65489270320E+03  0.11836225230E+04  0.42863462525E+03  0.14190047117E+04  0.50400001928E-02 0. -1.
</event>
<event>
 5   0  0.1875284E-07  0.3102917E+04  0.7818609E-02  0.8214938E-01
        1   -1    0    0  501    0  0.00000000000E+00  0.00000000000E+00  0.15661751782E+04  0.15661751782E+04  0.50400001928E-02 0. -1.
       -1   -1    0    0    0  501  0.00000000000E+00  0.00000000000E+00 -0.15368800572E+04  0.15368800572E+04  0.50400001928E-02 0.  1.
    10030    2    1    2    0    0  0.00000000000E+00  0.00000000000E+00  0.29295120946E+02  0.31030552354E+04  0.31029169486E+04 0.  0.
        4    1    3    3  502    0  0.79297476129E+02 -0.10579456911E+04  0.11467247818E+04  0.15622152583E+04  0.12699999809E+01 0. -1.
       -4    1    3    3    0  502 -0.79297476129E+02  0.10579456911E+04 -0.11174296609E+04  0.15408399771E+04  0.12699999809E+01 0.  1.
</event>
<event>
 5   0  0.1845123E-07  0.3104593E+04  0.7818609E-02  0.8214479E-01
        1   -1    0    0  501    0  0.00000000000E+00  0.00000000000E+00  0.16717520324E+04  0.16717520324E+04  0.50400001928E-02 0. -1.
       -1   -1    0    0    0  501  0.00000000000E+00  0.00000000000E+00 -0.14413765504E+04  0.14413765504E+04  0.50400001928E-02 0.  1.
    10030    2    1    2    0    0  0.00000000000E+00  0.00000000000E+00  0.23037548195E+03  0.31131285828E+04  0.31045928413E+04 0.  0.
        2    1    3    3  502    0 -0.74508583877E+03  0.27141027573E+02  0.14804503284E+04  0.16575954625E+04  0.25500000920E-02 0. -1.
       -2    1    3    3    0  502  0.74508583877E+03 -0.27141027573E+02 -0.12500748465E+04  0.14555331203E+04  0.25500000920E-02 0.  1.
</event>
<event>
 5   0  0.5248309E-07  0.3095120E+04  0.7818609E-02  0.8217078E-01
        2   -1    0    0  501    0  0.00000000000E+00  0.00000000000E+00  0.21791114882E+04  0.21791114882E+04  0.25500000920E-02 0.  1.
       -2   -1    0    0    0  501  0.00000000000E+00  0.00000000000E+00 -0.10990452927E+04  0.10990452927E+04  0.25500000920E-02 0. -1.
    10030    2    1    2    0    0  0.00000000000E+00  0.00000000000E+00  0.10800661955E+04  0.32781567809E+04  0.30951201743E+04 0.  0.
        4    1    3    3  502    0 -0.53349470705E+03  0.11908558324E+04 -0.34114508034E+03  0.13487534225E+04  0.12699999809E+01 0. -1.
       -4    1    3    3    0  502  0.53349470705E+03 -0.11908558324E+04  0.14212112758E+04  0.19294033584E+04  0.12699999809E+01 0.  1.
</event>
<event>
 5   0  0.5055900E-07  0.3112046E+04  0.7818609E-02  0.8212440E-01
       -2   -1    0    0    0  501  0.00000000000E+00  0.00000000000E+00  0.15595780326E+04  0.15595780326E+04  0.25500000920E-02 0. -1.
        2   -1    0    0  501    0  0.00000000000E+00  0.00000000000E+00 -0.15524764551E+04  0.15524764551E+04  0.25500000920E-02 0.  1.
    10030    2    1    2    0    0  0.00000000000E+00  0.00000000000E+00  0.71015774460E+01  0.31120544877E+04  0.31120463850E+04 0.  0.
        2    1    3    3  502    0  0.14243653650E+04  0.54676553918E+02 -0.62047163460E+03  0.15546032509E+04  0.25500000920E-02 0. -1.
       -2    1    3    3    0  502 -0.14243653650E+04 -0.54676553918E+02  0.62757321205E+03  0.15574512368E+04  0.25500000920E-02 0.  1.
</event>
<event>
 5   0  0.5342534E-07  0.3113681E+04  0.7818609E-02  0.8211993E-01
       -2   -1    0    0    0  501  0.00000000000E+00  0.00000000000E+00  0.14876791900E+04  0.14876791900E+04  0.25500000920E-02 0. -1.
        2   -1    0    0  501    0  0.00000000000E+00  0.00000000000E+00 -0.16292171333E+04  0.16292171333E+04  0.25500000920E-02 0.  1.
    10030    2    1    2    0    0  0.00000000000E+00  0.00000000000E+00 -0.14153794329E+03  0.31168963233E+04  0.31136810532E+04 0.  0.
        3    1    3    3  502    0 -0.40288801174E+03 -0.80949441206E+03  0.11978804229E+04  0.15008389224E+04  0.10100000352E+00 0. -1.
       -3    1    3    3    0  502  0.40288801174E+03  0.80949441206E+03 -0.13394183662E+04  0.16160574009E+04  0.10100000352E+00 0.  1.
</event>
<event>
 5   0  0.1727000E-07  0.3088644E+04  0.7818609E-02  0.8218862E-01
       -4   -1    0    0    0  501  0.00000000000E+00  0.00000000000E+00  0.15424911713E+04  0.15424916941E+04  0.12699999809E+01 0. -1.
        4   -1    0    0  501    0  0.00000000000E+00  0.00000000000E+00 -0.15461534927E+04  0.15461540142E+04  0.12699999809E+01 0.  1.
    10030    2    1    2    0    0  0.00000000000E+00  0.00000000000E+00 -0.36623213953E+01  0.30886457083E+04  0.30886435371E+04 0.  0.
        5    1    3    3  502    0 -0.14127727160E+04  0.10783211716E+03  0.61246001850E+03  0.15435944664E+04  0.46999998093E+01 0. -1.
       -5    1    3    3    0  502  0.14127727160E+04 -0.10783211716E+03 -0.61612233990E+03  0.15450512419E+04  0.46999998093E+01 0.  1.
</event>
<event>
 5   0  0.5248309E-07  0.3090759E+04  0.7818609E-02  0.8218279E-01
       -2   -1    0    0    0  501  0.00000000000E+00  0.00000000000E+00  0.13555372572E+04  0.13555372572E+04  0.25500000920E-02 0. -1.
        2   -1    0    0  501    0  0.00000000000E+00  0.00000000000E+00 -0.17618085074E+04  0.17618085074E+04  0.25500000920E-02 0.  1.
    10030    2    1    2    0    0  0.00000000000E+00  0.00000000000E+00 -0.40627125020E+03  0.31173457646E+04  0.30907585294E+04 0.  0.
        4    1    3    3  502    0  0.27505957053E+03  0.12506738390E+04 -0.10756509153E+04  0.16723843229E+04  0.12699999809E+01 0.  1.
       -4    1    3    3    0  502 -0.27505957053E+03 -0.12506738390E+04  0.66937966515E+03  0.14449614417E+04  0.12699999809E+01 0. -1.
</event>
<event>
 5   0  0.5342534E-07  0.3104940E+04  0.7818609E-02  0.8214384E-01
       -2   -1    0    0    0  501  0.00000000000E+00  0.00000000000E+00  0.17214599653E+04  0.17214599653E+04  0.25500000920E-02 0.  1.
        2   -1    0    0  501    0  0.00000000000E+00  0.00000000000E+00 -0.14000689804E+04  0.14000689804E+04  0.25500000920E-02 0. -1.
    10030    2    1    2    0    0  0.00000000000E+00  0.00000000000E+00  0.32139098491E+03  0.31215289457E+04  0.31049397408E+04 0.  0.
        3    1    3    3  502    0 -0.15229059665E+03  0.33728139607E+03 -0.13550773259E+04  0.14047012976E+04  0.10100000352E+00 0. -1.
       -3    1    3    3    0  502  0.15229059665E+03 -0.33728139607E+03  0.16764683109E+04  0.17168276482E+04  0.10100000352E+00 0.  1.
</event>
<event>
 5   0  0.1830902E-07  0.3107612E+04  0.7818609E-02  0.8213652E-01
        1   -1    0    0  501    0  0.00000000000E+00  0.00000000000E+00  0.20707938467E+04  0.20707938467E+04  0.50400001928E-02 0. -1.
       -1   -1    0    0    0  501  0.00000000000E+00  0.00000000000E+00 -0.11658874603E+04  0.11658874603E+04  0.50400001928E-02 0.  1.
    10030    2    1    2    0    0  0.00000000000E+00  0.00000000000E+00  0.90490638639E+03  0.32366813070E+04  0.31076116738E+04 0.  0.
        3    1    3    3  502    0  0.86542192648E+03 -0.10438912413E+04 -0.33777386622E+03  0.13974101865E+04  0.10100000352E+00 0.  1.
       -3    1    3    3    0  502 -0.86542192648E+03  0.10438912413E+04  0.12426802526E+04  0.18392711205E+04  0.10100000352E+00 0. -1.
</event>
<event>
 5   0  0.5154105E-07  0.3096258E+04  0.7818609E-02  0.8216766E-01
        2   -1    0    0  501    0  0.00000000000E+00  0.00000000000E+00  0.17092486353E+04  0.17092486353E+04  0.25500000920E-02 0. -1.
       -2   -1    0    0    0  501  0.00000000000E+00  0.00000000000E+00 -0.14021966437E+04  0.14021966437E+04  0.25500000920E-02 0.  1.
    10030    2    1    2    0    0  0.00000000000E+00  0.00000000000E+00  0.30705199156E+03  0.31114452790E+04  0.30962575472E+04 0.  0.
        1    1    3    3  502    0  0.13426067695E+04 -0.46574628884E+03  0.77069664560E+03  0.16166279295E+04  0.50400001928E-02 0. -1.
       -1    1    3    3    0  502 -0.13426067695E+04  0.46574628884E+03 -0.46364465404E+03  0.14948173495E+04  0.50400001928E-02 0.  1.
</event>
<event>
 5   0  0.1845123E-07  0.3106051E+04  0.7818609E-02  0.8214079E-01
        1   -1    0    0  501    0  0.00000000000E+00  0.00000000000E+00  0.14728823971E+04  0.14728823971E+04  0.50400001928E-02 0.  1.
       -1   -1    0    0    0  501  0.00000000000E+00  0.00000000000E+00 -0.16375295414E+04  0.16375295415E+04  0.50400001928E-02 0. -1.
    10030    2    1    2    0    0  0.00000000000E+00  0.00000000000E+00 -0.16464714440E+03  0.31104119385E+04  0.31060511498E+04 0.  0.
        2    1    3    3  502    0 -0.73291665138E+03 -0.58356771515E+03 -0.13226788474E+04  0.16208631742E+04  0.25500000920E-02 0. -1.
       -2    1    3    3    0  502  0.73291665138E+03  0.58356771515E+03  0.11580317030E+04  0.14895487643E+04  0.25500000920E-02 0.  1.
</event>
<event>
 5   0  0.1840359E-07  0.3107749E+04  0.7818609E-02  0.8213615E-01
       -1   -1    0    0    0  501  0.00000000000E+00  0.00000000000E+00  0.16114977689E+04  0.16114977689E+04  0.50400001928E-02 0. -1.
        1   -1    0    0  501    0  0.00000000000E+00  0.00000000000E+00 -0.14983114697E+04  0.14983114697E+04  0.50400001928E-02 0.  1.
    10030    2    1    2    0    0  0.00000000000E+00  0.00000000000E+00  0.11318629920E+03  0.31098092386E+04  0.31077487611E+04 0.  0.
        1    1    3    3  502    0  0.29754178630E+03  0.25733383417E+03 -0.14476579217E+04  0.15001550836E+04  0.50400001928E-02 0.  1.
       -1    1    3    3    0  502 -0.29754178630E+03 -0.25733383417E+03  0.15608442209E+04  0.16096541550E+04  0.50400001928E-02 0. -1.
</event>
<event>
 5   0  0.5248309E-07  0.3100174E+04  0.7818609E-02  0.8215690E-01
       -2   -1    0    0    0  501  0.00000000000E+00  0.00000000000E+00  0.13287762452E+04  0.13287762452E+04  0.25500000920E-02 0.  1.
        2   -1    0    0  501    0  0.00000000000E+00  0.00000000000E+00 -0.18082579700E+04  0.18082579700E+04  0.25500000920E-02 0. -1.
    10030    2    1    2    0    0  0.00000000000E+00  0.00000000000E+00 -0.47948172477E+03  0.31370342152E+04  0.31001743407E+04 0.  0.
        4    1    3    3  502    0 -0.12607330609E+04  0.75176046725E+03  0.26435586565E+03  0.14914681652E+04  0.12699999809E+01 0.  1.
       -4    1    3    3    0  502  0.12607330609E+04 -0.75176046725E+03 -0.74383759042E+03  0.16455660500E+04  0.12699999809E+01 0. -1.
</event>
<event>
 5   0  0.5248309E-07  0.3101059E+04  0.7818609E-02  0.8215447E-01
        2   -1    0    0  501    0  0.00000000000E+00  0.00000000000E+00  0.29862698360E+04  0.29862698360E+04  0.25500000920E-02 0.  1.
       -2   -1    0    0    0  501  0.00000000000E+00  0.00000000000E+00 -0.80506521270E+03  0.80506521271E+03  0.25500000920E-02 0. -1.
    10030    2    1    2    0    0  0.00000000000E+00  0.00000000000E+00  0.21812046233E+04  0.37913350487E+04  0.31010591486E+04 0.  0.
        4    1    3    3  502    0 -0.58935519035E+03  0.51851593807E+03 -0.54417586896E+03  0.95515826316E+03  0.12699999809E+01 0. -1.
       -4    1    3    3    0  502  0.58935519035E+03 -0.51851593807E+03  0.27253804923E+04  0.28361767856E+04  0.12699999809E+01 0.  1.
</event>
<event>
 5   0  0.5248309E-07  0.3103982E+04  0.7818609E-02  0.8214646E-01
       -2   -1    0    0    0  501  0.00000000000E+00  0.00000000000E+00  0.14366087310E+04  0.14366087310E+04  0.25500000920E-02 0. -1.
        2   -1    0    0  501    0  0.00000000000E+00  0.00000000000E+00 -0.16766399262E+04  0.16766399262E+04  0.25500000920E-02 0.  1.
    10030    2    1    2    0    0  0.00000000000E+00  0.00000000000E+00 -0.24003119520E+03  0.31132486572E+04  0.31039816730E+04 0.  0.
        4    1    3    3  502    0  0.10880834031E+04  0.11054347948E+04 -0.67300468591E+02  0.15525599968E+04  0.12699999809E+01 0. -1.
       -4    1    3    3    0  502 -0.10880834031E+04 -0.11054347948E+04 -0.17273072660E+03  0.15606886603E+04  0.12699999809E+01 0.  1.
</event>
<event>
 5   0  0.1727000E-07  0.3100919E+04  0.7818609E-02  0.8215486E-01
        3   -1    0    0  501    0  0.00000000000E+00  0.00000000000E+00  0.14894533282E+04  0.14894533316E+04  0.10100000352E+00 0. -1.
       -3   -1    0    0    0  501  0.00000000000E+00  0.00000000000E+00 -0.16139647693E+04  0.16139647725E+04  0.10100000352E+00 0.  1.
    10030    2    1    2    0    0  0.00000000000E+00  0.00000000000E+00 -0.12451144112E+03  0.31034181041E+04  0.31009193524E+04 0.  0.
        5    1    3    3  502    0 -0.32664574909E+03  0.72725708926E+01  0.14546016922E+04  0.14908516052E+04  0.46999998093E+01 0. -1.
       -5    1    3    3    0  502  0.32664574909E+03 -0.72725708926E+01 -0.15791131333E+04  0.16125664990E+04  0.46999998093E+01 0.  1.
</event>
<event>
 5   0  0.1840359E-07  0.3094544E+04  0.7818609E-02  0.8217237E-01
       -1   -1    0    0    0  501  0.00000000000E+00  0.00000000000E+00  0.92043768811E+03  0.92043768813E+03  0.50400001928E-02 0. -1.
        1   -1    0    0  501    0  0.00000000000E+00  0.00000000000E+00 -0.26009921570E+04  0.26009921570E+04  0.50400001928E-02 0.  1.
    10030    2    1    2    0    0  0.00000000000E+00  0.00000000000E+00 -0.16805544688E+04  0.35214298451E+04  0.30945443657E+04 0.  0.
        1    1    3    3  502    0  0.12004290520E+04  0.32008879083E+03  0.20920706203E+03  0.12598628250E+04  0.50400001928E-02 0. -1.
       -1    1    3    3    0  502 -0.12004290520E+04 -0.32008879083E+03 -0.18897615309E+04  0.22615670201E+04  0.50400001928E-02 0.  1.
</event>
<event>
 5   0  0.5342534E-07  0.3097770E+04  0.7818609E-02  0.8216350E-01
        2   -1    0    0  501    0  0.00000000000E+00  0.00000000000E+00  0.15708278857E+04  0.15708278857E+04  0.25500000920E-02 0.  1.
       -2   -1    0    0    0  501  0.00000000000E+00  0.00000000000E+00 -0.15272488212E+04  0.15272488212E+04  0.25500000920E-02 0. -1.
    10030    2    1    2    0    0  0.00000000000E+00  0.00000000000E+00  0.43579064500E+02  0.30980767069E+04  0.30977701895E+04 0.  0.
        3    1    3    3  502    0  0.13473254757E+04 -0.56185360940E+03  0.53960481312E+03  0.15563221968E+04  0.10100000352E+00 0. -1.
       -3    1    3    3    0  502 -0.13473254757E+04  0.56185360940E+03 -0.49602574862E+03  0.15417545101E+04  0.10100000352E+00 0.  1.
</event>
<event>
 5   0  0.5154105E-07  0.3175763E+04  0.7818609E-02  0.8195248E-01
        2   -1    0    0  501    0  0.00000000000E+00  0.00000000000E+00  0.13066388388E+04  0.13066388388E+04  0.25500000920E-02 0. -1.
       -2   -1    0    0    0  501  0.00000000000E+00  0.00000000000E+00 -0.19296587787E+04  0.19296587787E+04  0.25500000920E-02 0.  1.
    10030    2    1    2    0    0  0.00000000000E+00  0.00000000000E+00 -0.62301993989E+03  0.32362976175E+04  0.31757626522E+04 0.  0.
        1    1    3    3  502    0  0.39960732169E+03  0.12261077513E+04  0.63261680492E+03  0.14363948800E+04  0.50400001928E-02 0.  1.
       -1    1    3    3    0  502 -0.39960732169E+03 -0.12261077513E+04 -0.12556367448E+04  0.17999027375E+04  0.50400001928E-02 0. -1.
</event>
<event>
 5   0  0.1845123E-07  0.3098229E+04  0.7818609E-02  0.8216224E-01
        1   -1    0    0  501    0  0.00000000000E+00  0.00000000000E+00  0.16785331293E+04  0.16785331293E+04  0.50400001928E-02 0. -1.
       -1   -1    0    0    0  501  0.00000000000E+00  0.00000000000E+00 -0.14296739297E+04  0.14296739297E+04  0.50400001928E-02 0.  1.
    10030    2    1    2    0    0  0.00000000000E+00  0.00000000000E+00  0.24885919954E+03  0.31082070590E+04  0.30982285617E+04 0.  0.
        2    1    3    3  502    0 -0.70479762491E+03  0.10789658140E+04 -0.73790156118E+03  0.14850608182E+04  0.25500000920E-02 0.  1.
       -2    1    3    3    0  502  0.70479762491E+03 -0.10789658140E+04  0.98676076072E+03  0.16231462407E+04  0.25500000920E-02 0. -1.
</event>
<event>
 5   0  0.1840359E-07  0.3106705E+04  0.7818609E-02  0.8213900E-01
       -1   -1    0    0    0  501  0.00000000000E+00  0.00000000000E+00  0.12536860922E+04  0.12536860922E+04  0.50400001928E-02 0. -1.
        1   -1    0    0  501    0  0.00000000000E+00  0.00000000000E+00 -0.19246477871E+04  0.19246477871E+04  0.50400001928E-02 0.  1.
    10030    2    1    2    0    0  0.00000000000E+00  0.00000000000E+00 -0.67096169487E+03  0.31783338793E+04  0.31067051119E+04 0.  0.
        1    1    3    3  502    0 -0.16844895258E+02 -0.26230208136E+03  0.12307704029E+04  0.12585237054E+04  0.50400001928E-02 0. -1.
       -1    1    3    3    0  502  0.16844895258E+02  0.26230208136E+03 -0.19017320977E+04  0.19198101739E+04  0.50400001928E-02 0.  1.
</event>
<event>
 5   0  0.1845123E-07  0.3119938E+04  0.7818609E-02  0.8210287E-01
        1   -1    0    0  501    0  0.00000000000E+00  0.00000000000E+00  0.23037662159E+04  0.23037662160E+04  0.50400001928E-02 0.  1.
       -1   -1    0    0    0  501  0.00000000000E+00  0.00000000000E+00 -0.10563155410E+04  0.10563155410E+04  0.50400001928E-02 0. -1.
    10030    2    1    2    0    0  0.00000000000E+00  0.00000000000E+00  0.12474506750E+04  0.33600817570E+04  0.31199384973E+04 0.  0.
        2    1    3    3  502    0  0.11376822867E+03 -0.12329172539E+04 -0.39824868539E+03  0.13006268413E+04  0.25500000920E-02 0. -1.
       -2    1    3    3    0  502 -0.11376822867E+03  0.12329172539E+04  0.16456993603E+04  0.20594549156E+04  0.25500000920E-02 0.  1.
</event>
<event>
 5   0  0.5342534E-07  0.3100638E+04  0.7818609E-02  0.8215563E-01
       -2   -1    0    0    0  501  0.00000000000E+00  0.00000000000E+00  0.11375478397E+04  0.11375478397E+04  0.25500000920E-02 0.  1.
        2   -1    0    0  501    0  0.00000000000E+00  0.00000000000E+00 -0.21128679689E+04  0.21128679689E+04  0.25500000920E-02 0. -1.
    10030    2    1    2    0    0  0.00000000000E+00  0.00000000000E+00 -0.97532012919E+03  0.32504158086E+04  0.31006376077E+04 0.  0.
        3    1    3    3  502    0  0.39107277814E+03 -0.22952909466E+03 -0.20417945653E+04  0.20915416755E+04  0.10100000352E+00 0. -1.
       -3    1    3    3    0  502 -0.39107277814E+03  0.22952909466E+03  0.10664744362E+04  0.11588741331E+04  0.10100000352E+00 0.  1.
</event>
<event>
 5   0  0.1845123E-07  0.3095568E+04  0.7818609E-02  0.8216955E-01
        1   -1    0    0  501    0  0.00000000000E+00  0.00000000000E+00  0.15879101272E+04  0.15879101272E+04  0.50400001928E-02 0.  1.
       -1   -1    0    0    0  501  0.00000000000E+00  0.00000000000E+00 -0.15086714924E+04  0.15086714924E+04  0.50400001928E-02 0. -1.
    10030    2    1    2    0    0  0.00000000000E+00  0.00000000000E+00  0.79238634845E+02  0.30965816196E+04  0.30955676323E+04 0.  0.
        2    1    3    3  502    0 -0.13057822871E+04  0.80108696024E+03 -0.18142148240E+03  0.15426345820E+04  0.25500000920E-02 0. -1.
       -2    1    3    3    0  502  0.13057822871E+04 -0.80108696024E+03  0.26066011724E+03  0.15539470377E+04  0.25500000920E-02 0.  1.
</event>
<event>
 5   0  0.5055900E-07  0.3106447E+04  0.7818609E-02  0.8213971E-01
        2   -1    0    0  501    0  0.00000000000E+00  0.00000000000E+00  0.20620222661E+04  0.20620222661E+04  0.25500000920E-02 0.  1.
       -2   -1    0    0    0  501  0.00000000000E+00  0.00000000000E+00 -0.11699695678E+04  0.11699695678E+04  0.25500000920E-02 0. -1.
    10030    2    1    2    0    0  0.00000000000E+00  0.00000000000E+00  0.89205269831E+03  0.32319918338E+04  0.31064470376E+04 0.  0.
        2    1    3    3  502    0  0.82094028770E+03  0.67501193575E+03 -0.73240953504E+03  0.12907392442E+04  0.25500000920E-02 0. -1.
       -2    1    3    3    0  502 -0.82094028770E+03 -0.67501193575E+03  0.16244622333E+04  0.19412525897E+04  0.25500000920E-02 0.  1.
</event>
<event>
 5   0  0.1830902E-07  0.3102090E+04  0.7818609E-02  0.8215165E-01
        1   -1    0    0  501    0  0.00000000000E+00  0.00000000000E+00  0.21310592257E+04  0.21310592257E+04  0.50400001928E-02 0. -1.
       -1   -1    0    0    0  501  0.00000000000E+00  0.00000000000E+00 -0.11288944163E+04  0.11288944164E+04  0.50400001928E-02 0.  1.
    10030    2    1    2    0    0  0.00000000000E+00  0.00000000000E+00  0.10021648094E+04  0.32599536421E+04  0.31020901733E+04 0.  0.
        3    1    3    3  502    0 -0.12721117703E+04  0.85131566236E+03  0.76429639692E+03  0.17108932479E+04  0.10100000352E+00 0.  1.
       -3    1    3    3    0  502  0.12721117703E+04 -0.85131566236E+03  0.23786841247E+03  0.15490603942E+04  0.10100000352E+00 0. -1.
</event>
<event>
 5   0  0.1840359E-07  0.3099511E+04  0.7818609E-02  0.8215872E-01
       -1   -1    0    0    0  501  0.00000000000E+00  0.00000000000E+00  0.10405317108E+04  0.10405317108E+04  0.50400001928E-02 0.  1.
        1   -1    0    0  501    0  0.00000000000E+00  0.00000000000E+00 -0.23081875714E+04  0.23081875714E+04  0.50400001928E-02 0. -1.
    10030    2    1    2    0    0  0.00000000000E+00  0.00000000000E+00 -0.12676558605E+04  0.33487192822E+04  0.30995111631E+04 0.  0.
        1    1    3    3  502    0 -0.11873902942E+04 -0.14215960955E+03 -0.16987985499E+04  0.20775036891E+04  0.50400001928E-02 0. -1.
       -1    1    3    3    0  502  0.11873902942E+04  0.14215960955E+03  0.43114268933E+03  0.12712155930E+04  0.50400001928E-02 0.  1.
</event>
<event>
 5   0  0.5248309E-07  0.3110387E+04  0.7818609E-02  0.8212893E-01
       -2   -1    0    0    0  501  0.00000000000E+00  0.00000000000E+00  0.12588321629E+04  0.12588321629E+04  0.25500000920E-02 0. -1.
        2   -1    0    0  501    0  0.00000000000E+00  0.00000000000E+00 -0.19213264117E+04  0.19213264118E+04  0.25500000920E-02 0.  1.
    10030    2    1    2    0    0  0.00000000000E+00  0.00000000000E+00 -0.66249424888E+03  0.31801585746E+04  0.31103874244E+04 0.  0.
        4    1    3    3  502    0 -0.10377462694E+04 -0.67564300372E+03 -0.12932108396E+04  0.17904766618E+04  0.12699999809E+01 0.  1.
       -4    1    3    3    0  502  0.10377462694E+04  0.67564300372E+03  0.63071659069E+03  0.13896819128E+04  0.12699999809E+01 0. -1.
</event>
<event>
 5   0  0.5376678E-07  0.3105233E+04  0.7818609E-02  0.8214303E-01
        2   -1    0    0  501    0  0.00000000000E+00  0.00000000000E+00  0.19790797504E+04  0.19790797504E+04  0.25500000920E-02 0.  1.
       -2   -1    0    0    0  501  0.00000000000E+00  0.00000000000E+00 -0.12180498615E+04  0.12180498615E+04  0.25500000920E-02 0. -1.
    10030    2    1    2    0    0  0.00000000000E+00  0.00000000000E+00  0.76102988889E+03  0.31971296120E+04  0.31052328840E+04 0.  0.
        5    1    3    3  502    0  0.42312584934E+03  0.97874343532E+03 -0.78143190372E+03  0.13219803730E+04  0.46999998093E+01 0. -1.
       -5    1    3    3    0  502 -0.42312584934E+03 -0.97874343532E+03  0.15424617926E+04  0.18751492389E+04  0.46999998093E+01 0.  1.
</event>
<event>
 5   0  0.1845123E-07  0.3099893E+04  0.7818609E-02  0.8215767E-01
        1   -1    0    0  501    0  0.00000000000E+00  0.00000000000E+00  0.16054008663E+04  0.16054008663E+04  0.50400001928E-02 0.  1.
       -1   -1    0    0    0  501  0.00000000000E+00  0.00000000000E+00 -0.14964075112E+04  0.14964075112E+04  0.50400001928E-02 0. -1.
    10030    2    1    2    0    0  0.00000000000E+00  0.00000000000E+00  0.10899335515E+03  0.31018083775E+04  0.30998928464E+04 0.  0.
        2    1    3    3  502    0 -0.54244644959E+03 -0.11313679512E+04 -0.85606142219E+03  0.15189084075E+04  0.25500000920E-02 0.  1.
       -2    1    3    3    0  502  0.54244644959E+03  0.11313679512E+04  0.96505477735E+03  0.15828999700E+04  0.25500000920E-02 0. -1.
</event>
<event>
 5   0  0.1845123E-07  0.3103510E+04  0.7818609E-02  0.8214775E-01
       -1   -1    0    0    0  501  0.00000000000E+00  0.00000000000E+00  0.82214096267E+03  0.82214096269E+03  0.50400001928E-02 0.  1.
        1   -1    0    0  501    0  0.00000000000E+00  0.00000000000E+00 -0.29288702918E+04  0.29288702918E+04  0.50400001928E-02 0. -1.
    10030    2    1    2    0    0  0.00000000000E+00  0.00000000000E+00 -0.21067293291E+04  0.37510112545E+04  0.31035104261E+04 0.  0.
        2    1    3    3  502    0  0.92411874329E+03  0.11960471775E+04 -0.62875700754E+03  0.16370276959E+04  0.25500000920E-02 0. -1.
       -2    1    3    3    0  502 -0.92411874329E+03 -0.11960471775E+04 -0.14779723216E+04  0.21139835586E+04  0.25500000920E-02 0.  1.
</event>
<event>
 5   0  0.1840359E-07  0.3001862E+04  0.7818609E-02  0.8243199E-01
       -1   -1    0    0    0  501  0.00000000000E+00  0.00000000000E+00  0.18002311484E+04  0.18002311484E+04  0.50400001928E-02 0.  1.
        1   -1    0    0  501    0  0.00000000000E+00  0.00000000000E+00 -0.12513912826E+04  0.12513912826E+04  0.50400001928E-02 0. -1.
    10030    2    1    2    0    0  0.00000000000E+00  0.00000000000E+00  0.54883986581E+03  0.30516224310E+04  0.30018617994E+04 0.  0.
        1    1    3    3  502    0 -0.88149170650E+03  0.54864370545E+03 -0.82740842131E+03  0.13276453743E+04  0.50400001928E-02 0. -1.
       -1    1    3    3    0  502  0.88149170650E+03 -0.54864370545E+03  0.13762482871E+04  0.17239770567E+04  0.50400001928E-02 0.  1.
</event>
<event>
 5   0  0.1814075E-07  0.3099426E+04  0.7818609E-02  0.8215895E-01
        1   -1    0    0  501    0  0.00000000000E+00  0.00000000000E+00  0.11832369853E+04  0.11832369853E+04  0.50400001928E-02 0. -1.
       -1   -1    0    0    0  501  0.00000000000E+00  0.00000000000E+00 -0.20296950996E+04  0.20296950996E+04  0.50400001928E-02 0.  1.
    10030    2    1    2    0    0  0.00000000000E+00  0.00000000000E+00 -0.84645811430E+03  0.32129320849E+04  0.30994259537E+04 0.  0.
        5    1    3    3  502    0  0.65207103007E+03  0.11754154053E+04 -0.12226990886E+04  0.18170891983E+04  0.46999998093E+01 0.  1.
       -5    1    3    3    0  502 -0.65207103007E+03 -0.11754154053E+04  0.37624097429E+03  0.13958428866E+04  0.46999998093E+01 0. -1.
</event>
<event>
 5   0  0.1830902E-07  0.3104491E+04  0.7818609E-02  0.8214506E-01
       -1   -1    0    0    0  501  0.00000000000E+00  0.00000000000E+00  0.29734015529E+04  0.29734015529E+04  0.50400001928E-02 0.  1.
        1   -1    0    0  501    0  0.00000000000E+00  0.00000000000E+00 -0.81033998535E+03  0.81033998537E+03  0.50400001928E-02 0. -1.
    10030    2    1    2    0    0  0.00000000000E+00  0.00000000000E+00  0.21630615675E+04  0.37837415382E+04  0.31044910506E+04 0.  0.
        3    1    3    3  502    0 -0.13124461523E+04  0.27385666311E+03  0.12809737989E+03  0.13468189646E+04  0.10100000352E+00 0. -1.
       -3    1    3    3    0  502  0.13124461523E+04 -0.27385666311E+03  0.20349641876E+04  0.24369225736E+04  0.10100000352E+00 0.  1.
</event>
<event>
 5   0  0.5154105E-07  0.3100162E+04  0.7818609E-02  0.8215693E-01
       -2   -1    0    0    0  501  0.00000000000E+00  0.00000000000E+00  0.10315358890E+04  0.10315358890E+04  0.25500000920E-02 0. -1.
        2   -1    0    0  501    0  0.00000000000E+00  0.00000000000E+00 -0.23292946939E+04  0.23292946939E+04  0.25500000920E-02 0.  1.
    10030    2    1    2    0    0  0.00000000000E+00  0.00000000000E+00 -0.12977588049E+04  0.33608305829E+04  0.31001619783E+04 0.  0.
        1    1    3    3  502    0 -0.18542794890E+03 -0.15132945495E+04 -0.34551615955E+03  0.15632739153E+04  0.50400001928E-02 0. -1.
       -1    1    3    3    0  502  0.18542794890E+03  0.15132945495E+04 -0.95224264534E+03  0.17975566676E+04  0.50400001928E-02 0.  1.
</event>
<event>
 5   0  0.1814075E-07  0.3101931E+04  0.7818609E-02  0.8215208E-01
        1   -1    0    0  501    0  0.00000000000E+00  0.00000000000E+00  0.13501011235E+04  0.13501011235E+04  0.50400001928E-02 0.  1.
       -1   -1    0    0    0  501  0.00000000000E+00  0.00000000000E+00 -0.17817137987E+04  0.17817137987E+04  0.50400001928E-02 0. -1.
    10030    2    1    2    0    0  0.00000000000E+00  0.00000000000E+00 -0.43161267515E+03  0.31318149222E+04  0.31019308835E+04 0.  0.
        5    1    3    3  502    0 -0.92931992760E+03 -0.12197533078E+04  0.18894053544E+02  0.15335621067E+04  0.46999998093E+01 0.  1.
       -5    1    3    3    0  502  0.92931992760E+03  0.12197533078E+04 -0.45050672869E+03  0.15982528155E+04  0.46999998093E+01 0. -1.
</event>
<event>
 5   0  0.1840359E-07  0.3100487E+04  0.7818609E-02  0.8215604E-01
        1   -1    0    0  501    0  0.00000000000E+00  0.00000000000E+00  0.15184714014E+04  0.15184714014E+04  0.50400001928E-02 0.  1.
       -1   -1    0    0    0  501  0.00000000000E+00  0.00000000000E+00 -0.15826805806E+04  0.15826805806E+04  0.50400001928E-02 0. -1.
    10030    2    1    2    0    0  0.00000000000E+00  0.00000000000E+00 -0.64209179173E+02  0.31011519820E+04  0.31004871870E+04 0.  0.
        1    1    3    3  502    0  0.17023536336E+03 -0.13864272654E+04 -0.70462853085E+03  0.15645005618E+04  0.50400001928E-02 0. -1.
       -1    1    3    3    0  502 -0.17023536336E+03  0.13864272654E+04  0.64041935168E+03  0.15366514202E+04  0.50400001928E-02 0.  1.
</event>
<event>
 5   0  0.1840359E-07  0.3106083E+04  0.7818609E-02  0.8214070E-01
       -1   -1    0    0    0  501  0.00000000000E+00  0.00000000000E+00  0.11291346965E+04  0.11291346966E+04  0.50400001928E-02 0.  1.
        1   -1    0    0  501    0  0.00000000000E+00  0.00000000000E+00 -0.21360942306E+04  0.21360942306E+04  0.50400001928E-02 0. -1.
    10030    2    1    2    0    0  0.00000000000E+00  0.00000000000E+00 -0.10069595340E+04  0.32652289271E+04  0.31060831353E+04 0.  0.
        1    1    3    3  502    0  0.49878135487E+03  0.31584805641E+03  0.10065717909E+04  0.11669317053E+04  0.50400001928E-02 0.  1.
       -1    1    3    3    0  502 -0.49878135487E+03 -0.31584805641E+03 -0.20135313249E+04  0.20982972218E+04  0.50400001928E-02 0. -1.
</event>
<event>
 5   0  0.1875284E-07  0.3101644E+04  0.7818609E-02  0.8215287E-01
        1   -1    0    0  501    0  0.00000000000E+00  0.00000000000E+00  0.15288106734E+04  0.15288106734E+04  0.50400001928E-02 0.  1.
       -1   -1    0    0    0  501  0.00000000000E+00  0.00000000000E+00 -0.15731499951E+04  0.15731499952E+04  0.50400001928E-02 0. -1.
    10030    2    1    2    0    0  0.00000000000E+00  0.00000000000E+00 -0.44339321754E+02  0.31019606686E+04  0.31016437600E+04 0.  0.
        4    1    3    3  502    0  0.86394111929E+03 -0.50574179450E+03 -0.12067221339E+04  0.15679122876E+04  0.12699999809E+01 0. -1.
       -4    1    3    3    0  502 -0.86394111929E+03  0.50574179450E+03  0.11623828121E+04  0.15340483810E+04  0.12699999809E+01 0.  1.
</event>
<event>
 5   0  0.1830902E-07  0.3105608E+04  0.7818609E-02  0.8214200E-01
        1   -1    0    0  501    0  0.00000000000E+00  0.00000000000E+00  0.18203105562E+04  0.18203105562E+04  0.50400001928E-02 0. -1.
       -1   -1    0    0    0  501  0.00000000000E+00  0.00000000000E+00 -0.13246095777E+04  0.13246095777E+04  0.50400001928E-02 0.  1.
    10030    2    1    2    0    0  0.00000000000E+00  0.00000000000E+00  0.49570097858E+03  0.31449201339E+04  0.31056083443E+04 0.  0.
        3    1    3    3  502    0 -0.83969979214E+03  0.12966163358E+04  0.40761679296E+03  0.15976423640E+04  0.10100000352E+00 0. -1.
       -3    1    3    3    0  502  0.83969979214E+03 -0.12966163358E+04  0.88084185623E+02  0.15472777699E+04  0.10100000352E+00 0.  1.
</event>
<event>
 5   0  0.5154105E-07  0.3101168E+04  0.7818609E-02  0.8215417E-01
        2   -1    0    0  501    0  0.00000000000E+00  0.00000000000E+00  0.18932908333E+04  0.18932908333E+04  0.25500000920E-02 0.  1.
       -2   -1    0    0    0  501  0.00000000000E+00  0.00000000000E+00 -0.12699110357E+04  0.12699110357E+04  0.25500000920E-02 0. -1.
    10030    2    1    2    0    0  0.00000000000E+00  0.00000000000E+00  0.62337979765E+03  0.31632018690E+04  0.31011681174E+04 0.  0.
        1    1    3    3  502    0  0.11391912276E+04  0.21102942559E+03 -0.73946839191E+03  0.13744466429E+04  0.50400001928E-02 0. -1.
       -1    1    3    3    0  502 -0.11391912276E+04 -0.21102942559E+03  0.13628481896E+04  0.17887552262E+04  0.50400001928E-02 0.  1.
</event>
<event>
 5   0  0.5342534E-07  0.3091918E+04  0.7818609E-02  0.8217959E-01
       -2   -1    0    0    0  501  0.00000000000E+00  0.00000000000E+00  0.13682676637E+04  0.13682676637E+04  0.25500000920E-02 0. -1.
        2   -1    0    0  501    0  0.00000000000E+00  0.00000000000E+00 -0.17467262443E+04  0.17467262443E+04  0.25500000920E-02 0.  1.
    10030    2    1    2    0    0  0.00000000000E+00  0.00000000000E+00 -0.37845858055E+03  0.31149939080E+04  0.30919178756E+04 0.  0.
        3    1    3    3  502    0 -0.60455241155E+03  0.12247701069E+04 -0.91881890604E+03  0.16461390055E+04  0.10100000352E+00 0.  1.
       -3    1    3    3    0  502  0.60455241155E+03 -0.12247701069E+04  0.54036032549E+03  0.14688549025E+04  0.10100000352E+00 0. -1.
</event>
<event>
 5   0  0.1830902E-07  0.3103103E+04  0.7818609E-02  0.8214887E-01
       -1   -1    0    0    0  501  0.00000000000E+00  0.00000000000E+00  0.14919610002E+04  0.14919610002E+04  0.50400001928E-02 0. -1.
        1   -1    0    0  501    0  0.00000000000E+00  0.00000000000E+00 -0.16135220280E+04  0.16135220280E+04  0.50400001928E-02 0.  1.
    10030    2    1    2    0    0  0.00000000000E+00  0.00000000000E+00 -0.12156102775E+03  0.31054830282E+04  0.31031029237E+04 0.  0.
        3    1    3    3  502    0 -0.79753485045E+03  0.11263025243E+04  0.64877156243E+03  0.15249668076E+04  0.10100000352E+00 0. -1.
       -3    1    3    3    0  502  0.79753485045E+03 -0.11263025243E+04 -0.77033259018E+03  0.15805162206E+04  0.10100000352E+00 0.  1.
</event>
<event>
 5   0  0.5376678E-07  0.3101187E+04  0.7818609E-02  0.8215412E-01
       -2   -1    0    0    0  501  0.00000000000E+00  0.00000000000E+00  0.11111898277E+04  0.11111898277E+04  0.25500000920E-02 0.  1.
        2   -1    0    0  501    0  0.00000000000E+00  0.00000000000E+00 -0.21637525299E+04  0.21637525299E+04  0.25500000920E-02 0. -1.
    10030    2    1    2    0    0  0.00000000000E+00  0.00000000000E+00 -0.10525627022E+04  0.32749423576E+04  0.31011867411E+04 0.  0.
        5    1    3    3  502    0 -0.57152521755E+02 -0.14245944538E+04 -0.11700103031E+04  0.18443649226E+04  0.46999998093E+01 0. -1.
       -5    1    3    3    0  502  0.57152521755E+02  0.14245944538E+04  0.11744760089E+03  0.14305774350E+04  0.46999998093E+01 0.  1.
</event>
<event>
 5   0  0.1875284E-07  0.3099093E+04  0.7818609E-02  0.8215987E-01
       -1   -1    0    0    0  501  0.00000000000E+00  0.00000000000E+00  0.15838644330E+04  0.15838644330E+04  0.50400001928E-02 0.  1.
        1   -1    0    0  501    0  0.00000000000E+00  0.00000000000E+00 -0.15159719285E+04  0.15159719285E+04  0.50400001928E-02 0. -1.
    10030    2    1    2    0    0  0.00000000000E+00  0.00000000000E+00  0.67892504467E+02  0.30998363615E+04  0.30990927828E+04 0.  0.
        4    1    3    3  502    0  0.10282719416E+04  0.11588498173E+04  0.53680586635E+01  0.15492922622E+04  0.12699999809E+01 0.  1.
       -4    1    3    3    0  502 -0.10282719416E+04 -0.11588498173E+04  0.62524445803E+02  0.15505440993E+04  0.12699999809E+01 0. -1.
</event>
<event>
 5   0  0.1845123E-07  0.3099186E+04  0.7818609E-02  0.8215961E-01
       -1   -1    0    0    0  501  0.00000000000E+00  0.00000000000E+00  0.15769133641E+04  0.15769133641E+04  0.50400001928E-02 0.  1.
        1   -1    0    0  501    0  0.00000000000E+00  0.00000000000E+00 -0.15227456131E+04  0.15227456132E+04  0.50400001928E-02 0. -1.
    10030    2    1    2    0    0  0.00000000000E+00  0.00000000000E+00  0.54167750936E+02  0.30996589772E+04  0.30991856398E+04 0.  0.
        2    1    3    3  502    0  0.91178235881E+03  0.36711816677E+03 -0.11710619804E+04  0.15288914220E+04  0.25500000920E-02 0. -1.
       -2    1    3    3    0  502 -0.91178235881E+03 -0.36711816677E+03  0.12252297313E+04  0.15707675553E+04  0.25500000920E-02 0.  1.
</event>
<event>
 5   0  0.1840359E-07  0.3093371E+04  0.7818609E-02  0.8217559E-01
       -1   -1    0    0    0  501  0.00000000000E+00  0.00000000000E+00  0.18512877713E+04  0.18512877713E+04  0.50400001928E-02 0.  1.
        1   -1    0    0  501    0  0.00000000000E+00  0.00000000000E+00 -0.12922012019E+04  0.12922012019E+04  0.50400001928E-02 0. -1.
    10030    2    1    2    0    0  0.00000000000E+00  0.00000000000E+00  0.55908656935E+03  0.31434889732E+04  0.30933711599E+04 0.  0.
        1    1    3    3  502    0  0.13887934358E+03 -0.66972319810E+03 -0.11301667798E+04  0.13210199031E+04  0.50400001928E-02 0. -1.
       -1    1    3    3    0  502 -0.13887934358E+03  0.66972319810E+03  0.16892533491E+04  0.18224690702E+04  0.50400001928E-02 0.  1.
</event>
<event>
 5   0  0.1814075E-07  0.3103437E+04  0.7818609E-02  0.8214795E-01
        1   -1    0    0  501    0  0.00000000000E+00  0.00000000000E+00  0.14029075515E+04  0.14029075515E+04  0.50400001928E-02 0.  1.
       -1   -1    0    0    0  501  0.00000000000E+00  0.00000000000E+00 -0.17163147918E+04  0.17163147918E+04  0.50400001928E-02 0. -1.
    10030    2    1    2    0    0  0.00000000000E+00  0.00000000000E+00 -0.31340724032E+03  0.31192223433E+04  0.31034374376E+04 0.  0.
        5    1    3    3  502    0  0.48085217570E+03  0.13229860752E+04  0.49953222095E+03  0.14936751654E+04  0.46999998093E+01 0.  1.
       -5    1    3    3    0  502 -0.48085217570E+03 -0.13229860752E+04 -0.81293946128E+03  0.16255471779E+04  0.46999998093E+01 0. -1.
</event>
<event>
 5   0  0.5376678E-07  0.3095342E+04  0.7818609E-02  0.8217017E-01
       -2   -1    0    0    0  501  0.00000000000E+00  0.00000000000E+00  0.15407643111E+04  0.15407643111E+04  0.25500000920E-02 0.  1.
        2   -1    0    0  501    0  0.00000000000E+00  0.00000000000E+00 -0.15546088426E+04  0.15546088426E+04  0.25500000920E-02 0. -1.
    10030    2    1    2    0    0  0.00000000000E+00  0.00000000000E+00 -0.13844531493E+02  0.30953731537E+04  0.30953421926E+04 0.  0.
        5    1    3    3  502    0  0.13459892268E+04 -0.43092844305E+03 -0.63770382073E+03  0.15505078441E+04  0.46999998093E+01 0. -1.
       -5    1    3    3    0  502 -0.13459892268E+04  0.43092844305E+03  0.62385928924E+03  0.15448653095E+04  0.46999998093E+01 0.  1.
</event>
<event>
 5   0  0.5248309E-07  0.3104228E+04  0.7818609E-02  0.8214579E-01
       -2   -1    0    0    0  501  0.00000000000E+00  0.00000000000E+00  0.23103561279E+04  0.23103561279E+04  0.25500000920E-02 0.  1.
        2   -1    0    0  501    0  0.00000000000E+00  0.00000000000E+00 -0.10427213272E+04  0.10427213272E+04  0.25500000920E-02 0. -1.
    10030    2    1    2    0    0  0.00000000000E+00  0.00000000000E+00  0.12676348007E+04  0.33530774551E+04  0.31042278319E+04 0.  0.
        4    1    3    3  502    0  0.11206898511E+04 -0.69921936482E+02  0.17912688234E+04  0.21141145735E+04  0.12699999809E+01 0.  1.
       -4    1    3    3    0  502 -0.11206898511E+04  0.69921936482E+02 -0.52363402261E+03  0.12389628816E+04  0.12699999809E+01 0. -1.
</event>
<event>
 5   0  0.1814075E-07  0.3101312E+04  0.7818609E-02  0.8215378E-01
       -1   -1    0    0    0  501  0.00000000000E+00  0.00000000000E+00  0.10977606580E+04  0.10977606580E+04  0.50400001928E-02 0.  1.
        1   -1    0    0  501    0  0.00000000000E+00  0.00000000000E+00 -0.21903987674E+04  0.21903987674E+04  0.50400001928E-02 0. -1.
    10030    2    1    2    0    0  0.00000000000E+00  0.00000000000E+00 -0.10926381094E+04  0.32881594253E+04  0.31013117174E+04 0.  0.
        5    1    3    3  502    0  0.26897989308E+03  0.80395840297E+03  0.83029450462E+03  0.11866382562E+04  0.46999998093E+01 0.  1.
       -5    1    3    3    0  502 -0.26897989308E+03 -0.80395840297E+03 -0.19229326140E+04  0.21015211692E+04  0.46999998093E+01 0. -1.
</event>
<event>
 5   0  0.1727000E-07  0.3100359E+04  0.7818609E-02  0.8215639E-01
        3   -1    0    0  501    0  0.00000000000E+00  0.00000000000E+00  0.12603071615E+04  0.12603071656E+04  0.10100000352E+00 0.  1.
       -3   -1    0    0    0  501  0.00000000000E+00  0.00000000000E+00 -0.19067231445E+04  0.19067231472E+04  0.10100000352E+00 0. -1.
    10030    2    1    2    0    0  0.00000000000E+00  0.00000000000E+00 -0.64641598301E+03  0.31670303128E+04  0.31003592338E+04 0.  0.
        2    1    3    3  502    0 -0.26354515105E+03 -0.34247459585E+03  0.11975343792E+04  0.12731195878E+04  0.25500000920E-02 0.  1.
       -2    1    3    3    0  502  0.26354515105E+03  0.34247459585E+03 -0.18439503623E+04  0.18939107249E+04  0.25500000920E-02 0. -1.
</event>
<event>
 5   0  0.5154105E-07  0.3088248E+04  0.7818609E-02  0.8218971E-01
        2   -1    0    0  501    0  0.00000000000E+00  0.00000000000E+00  0.16897533996E+04  0.16897533996E+04  0.25500000920E-02 0. -1.
       -2   -1    0    0    0  501  0.00000000000E+00  0.00000000000E+00 -0.14110452846E+04  0.14110452846E+04  0.25500000920E-02 0.  1.
    10030    2    1    2    0    0  0.00000000000E+00  0.00000000000E+00  0.27870811503E+03  0.31007986842E+04  0.30882477664E+04 0.  0.
        1    1    3    3  502    0 -0.12935188946E+04 -0.65301540065E+03  0.67509383038E+03  0.15985530720E+04  0.50400001928E-02 0. -1.
       -1    1    3    3    0  502  0.12935188946E+04  0.65301540065E+03 -0.39638571536E+03  0.15022456122E+04  0.50400001928E-02 0.  1.
</event>
<event>
 5   0  0.5248309E-07  0.3092824E+04  0.7818609E-02  0.8217710E-01
        2   -1    0    0  501    0  0.00000000000E+00  0.00000000000E+00  0.14605441435E+04  0.14605441435E+04  0.25500000920E-02 0.  1.
       -2   -1    0    0    0  501  0.00000000000E+00  0.00000000000E+00 -0.16373279299E+04  0.16373279299E+04  0.25500000920E-02 0. -1.
    10030    2    1    2    0    0  0.00000000000E+00  0.00000000000E+00 -0.17678378635E+03  0.30978720734E+04  0.30928237706E+04 0.  0.
        4    1    3    3  502    0 -0.56012089168E+03 -0.43332302538E+03 -0.14653662792E+04  0.16275147320E+04  0.12699999809E+01 0. -1.
       -4    1    3    3    0  502  0.56012089168E+03  0.43332302538E+03  0.12885824929E+04  0.14703573414E+04  0.12699999809E+01 0.  1.
</event>
<event>
 5   0  0.5248309E-07  0.3096901E+04  0.7818609E-02  0.8216589E-01
        2   -1    0    0  501    0  0.00000000000E+00  0.00000000000E+00  0.15744202927E+04  0.15744202927E+04  0.25500000920E-02 0. -1.
       -2   -1    0    0    0  501  0.00000000000E+00  0.00000000000E+00 -0.15229093076E+04  0.15229093076E+04  0.25500000920E-02 0.  1.
    10030    2    1    2    0    0  0.00000000000E+00  0.00000000000E+00  0.51510985107E+02  0.30973296004E+04  0.30969012370E+04 0.  0.
        4    1    3    3  502    0  0.57914752019E+03 -0.39047661629E+03 -0.13563958141E+04  0.15256785557E+04  0.12699999809E+01 0.  1.
       -4    1    3    3    0  502 -0.57914752019E+03  0.39047661629E+03  0.14079067992E+04  0.15716510446E+04  0.12699999809E+01 0. -1.
</event>
<event>
 5   0  0.1875284E-07  0.3098520E+04  0.7818609E-02  0.8216144E-01
        1   -1    0    0  501    0  0.00000000000E+00  0.00000000000E+00  0.12094405285E+04  0.12094405285E+04  0.50400001928E-02 0. -1.
       -1   -1    0    0    0  501  0.00000000000E+00  0.00000000000E+00 -0.19845597885E+04  0.19845597885E+04  0.50400001928E-02 0.  1.
    10030    2    1    2    0    0  0.00000000000E+00  0.00000000000E+00 -0.77511926001E+03  0.31940003170E+04  0.30985203174E+04 0.  0.
        4    1    3    3  502    0 -0.72776065160E+03  0.13385603167E+04 -0.98148163258E+02  0.15267658505E+04  0.12699999809E+01 0.  1.
       -4    1    3    3    0  502  0.72776065160E+03 -0.13385603167E+04 -0.67697109675E+03  0.16672344665E+04  0.12699999809E+01 0. -1.
</event>
<event>
 5   0  0.1830902E-07  0.3097162E+04  0.7818609E-02  0.8216517E-01
       -1   -1    0    0    0  501  0.00000000000E+00  0.00000000000E+00  0.14038672389E+04  0.14038672389E+04  0.50400001928E-02 0. -1.
        1   -1    0    0  501    0  0.00000000000E+00  0.00000000000E+00 -0.17082122154E+04  0.17082122155E+04  0.50400001928E-02 0.  1.
    10030    2    1    2    0    0  0.00000000000E+00  0.00000000000E+00 -0.30434497657E+03  0.31120794543E+04  0.30971620341E+04 0.  0.
        3    1    3    3  502    0 -0.10034442486E+03 -0.36001717022E+03  0.13578703821E+04  0.14083654892E+04  0.10100000352E+00 0. -1.
       -3    1    3    3    0  502  0.10034442486E+03  0.36001717022E+03 -0.16622153586E+04  0.17037139652E+04  0.10100000352E+00 0.  1.
</event>
<event>
 5   0  0.1830902E-07  0.3109952E+04  0.7818609E-02  0.8213012E-01
        1   -1    0    0  501    0  0.00000000000E+00  0.00000000000E+00  0.13566782085E+04  0.13566782085E+04  0.50400001928E-02 0.  1.
       -1   -1    0    0    0  501  0.00000000000E+00  0.00000000000E+00 -0.17822578827E+04  0.17822578827E+04  0.50400001928E-02 0. -1.
    10030    2    1    2    0    0  0.00000000000E+00  0.00000000000E+00 -0.42557967424E+03  0.31389360912E+04  0.31099520456E+04 0.  0.
        3    1    3    3  502    0 -0.11980849504E+04 -0.75443397906E+03  0.43614253173E+03  0.14814852329E+04  0.10100000352E+00 0.  1.
       -3    1    3    3    0  502  0.11980849504E+04  0.75443397906E+03 -0.86172220597E+03  0.16574508583E+04  0.10100000352E+00 0. -1.
</event>
<event>
 5   0  0.5248309E-07  0.3098924E+04  0.7818609E-02  0.8216033E-01
       -2   -1    0    0    0  501  0.00000000000E+00  0.00000000000E+00  0.15412383164E+04  0.15412383164E+04  0.25500000920E-02 0. -1.
        2   -1    0    0  501    0  0.00000000000E+00  0.00000000000E+00 -0.15577299573E+04  0.15577299573E+04  0.25500000920E-02 0.  1.
    10030    2    1    2    0    0  0.00000000000E+00  0.00000000000E+00 -0.16491640868E+02  0.30989682737E+04  0.30989243920E+04 0.  0.
        4    1    3    3  502    0  0.72486413889E+03 -0.41667084067E+03 -0.13127905957E+04  0.15564264744E+04  0.12699999809E+01 0.  1.
       -4    1    3    3    0  502 -0.72486413889E+03  0.41667084067E+03  0.12962989548E+04  0.15425417993E+04  0.12699999809E+01 0. -1.
</event>
<event>
 5   0  0.1875284E-07  0.3097656E+04  0.7818609E-02  0.8216381E-01
        1   -1    0    0  501    0  0.00000000000E+00  0.00000000000E+00  0.11976792482E+04  0.11976792482E+04  0.50400001928E-02 0. -1.
       -1   -1    0    0    0  501  0.00000000000E+00  0.00000000000E+00 -0.20029305487E+04  0.20029305487E+04  0.50400001928E-02 0.  1.
    10030    2    1    2    0    0  0.00000000000E+00  0.00000000000E+00 -0.80525130055E+03  0.32006097969E+04  0.30976561163E+04 0.  0.
        4    1    3    3  502    0 -0.34819800387E+03 -0.10972683723E+04 -0.14732231910E+04  0.18696598391E+04  0.12699999809E+01 0.  1.
       -4    1    3    3    0  502  0.34819800387E+03  0.10972683723E+04  0.66797189040E+03  0.13309499578E+04  0.12699999809E+01 0. -1.
</event>
<event>
 5   0  0.5154105E-07  0.3098610E+04  0.7818609E-02  0.8216119E-01
        2   -1    0    0  501    0  0.00000000000E+00  0.00000000000E+00  0.16459138981E+04  0.16459138981E+04  0.25500000920E-02 0.  1.
       -2   -1    0    0    0  501  0.00000000000E+00  0.00000000000E+00 -0.14583669682E+04  0.14583669682E+04  0.25500000920E-02 0. -1.
    10030    2    1    2    0    0  0.00000000000E+00  0.00000000000E+00  0.18754692992E+03  0.31042808663E+04  0.30986103088E+04 0.  0.
        1    1    3    3  502    0  0.40603490825E+03 -0.11449030904E+04  0.10571355518E+04  0.16103425127E+04  0.50400001928E-02 0.  1.
       -1    1    3    3    0  502 -0.40603490825E+03  0.11449030904E+04 -0.86958862184E+03  0.14939383536E+04  0.50400001928E-02 0. -1.
</event>
<event>
 5   0  0.1814075E-07  0.3095189E+04  0.7818609E-02  0.8217059E-01
       -1   -1    0    0    0  501  0.00000000000E+00  0.00000000000E+00  0.11484397654E+04  0.11484397654E+04  0.50400001928E-02 0. -1.
        1   -1    0    0  501    0  0.00000000000E+00  0.00000000000E+00 -0.20854807134E+04  0.20854807134E+04  0.50400001928E-02 0.  1.
    10030    2    1    2    0    0  0.00000000000E+00  0.00000000000E+00 -0.93704094798E+03  0.32339204788E+04  0.30951891582E+04 0.  0.
        5    1    3    3  502    0  0.96827116422E+03  0.80782585979E+03 -0.14058921278E+04  0.18885672961E+04  0.46999998093E+01 0.  1.
       -5    1    3    3    0  502 -0.96827116422E+03 -0.80782585979E+03  0.46885117977E+03  0.13453531826E+04  0.46999998093E+01 0. -1.
</event>
<event>
 5   0  0.5342534E-07  0.3101298E+04  0.7818609E-02  0.8215382E-01
       -2   -1    0    0    0  501  0.00000000000E+00  0.00000000000E+00  0.15455539027E+04  0.15455539027E+04  0.25500000920E-02 0. -1.
        2   -1    0    0  501    0  0.00000000000E+00  0.00000000000E+00 -0.15557613767E+04  0.15557613767E+04  0.25500000920E-02 0.  1.
    10030    2    1    2    0    0  0.00000000000E+00  0.00000000000E+00 -0.10207474076E+02  0.31013152794E+04  0.31012984812E+04 0.  0.
        3    1    3    3  502    0 -0.48763020394E+03  0.14719666512E+04  0.15309872574E+01  0.15506358026E+04  0.10100000352E+00 0. -1.
       -3    1    3    3    0  502  0.48763020394E+03 -0.14719666512E+04 -0.11738461333E+02  0.15506794768E+04  0.10100000352E+00 0.  1.
</event>
<event>
 5   0  0.5154105E-07  0.3076192E+04  0.7818609E-02  0.8222302E-01
        2   -1    0    0  501    0  0.00000000000E+00  0.00000000000E+00  0.16051149793E+04  0.16051149793E+04  0.25500000920E-02 0. -1.
       -2   -1    0    0    0  501  0.00000000000E+00  0.00000000000E+00 -0.14738751978E+04  0.14738751978E+04  0.25500000920E-02 0.  1.
    10030    2    1    2    0    0  0.00000000000E+00  0.00000000000E+00  0.13123978156E+03  0.30789901771E+04  0.30761919041E+04 0.  0.
        1    1    3    3  502    0 -0.72405708748E+02 -0.14411900093E+04 -0.46728148703E+03  0.15167805437E+04  0.50400001928E-02 0. -1.
       -1    1    3    3    0  502  0.72405708748E+02  0.14411900093E+04  0.59852126859E+03  0.15622096334E+04  0.50400001928E-02 0.  1.
</event>
<event>
 5   0  0.1814075E-07  0.3104056E+04  0.7818609E-02  0.8214626E-01
        1   -1    0    0  501    0  0.00000000000E+00  0.00000000000E+00  0.81520077911E+03  0.81520077912E+03  0.50400001928E-02 0.  1.
       -1   -1    0    0    0  501  0.00000000000E+00  0.00000000000E+00 -0.29548440111E+04  0.29548440111E+04  0.50400001928E-02 0. -1.
    10030    2    1    2    0    0  0.00000000000E+00  0.00000000000E+00 -0.21396432320E+04  0.37700447902E+04  0.31040561464E+04 0.  0.
        5    1    3    3  502    0 -0.64801577306E+03 -0.11798095260E+04 -0.13147005411E+03  0.13524723379E+04  0.46999998093E+01 0.  1.
       -5    1    3    3    0  502  0.64801577306E+03  0.11798095260E+04 -0.20081731779E+04  0.24175724523E+04  0.46999998093E+01 0. -1.
</event>
<event>
 5   0  0.1845123E-07  0.3099883E+04  0.7818609E-02  0.8215770E-01
        1   -1    0    0  501    0  0.00000000000E+00  0.00000000000E+00  0.16604662942E+04  0.16604662942E+04  0.50400001928E-02 0. -1.
       -1   -1    0    0    0  501  0.00000000000E+00  0.00000000000E+00 -0.14467732032E+04  0.14467732032E+04  0.50400001928E-02 0.  1.
    10030    2    1    2    0    0  0.00000000000E+00  0.00000000000E+00  0.21369309096E+03  0.31072394974E+04  0.30998826683E+04 0.  0.
        2    1    3    3  502    0 -0.14218621408E+04 -0.36294549199E+03  0.60692609630E+03  0.15880115441E+04  0.25500000920E-02 0. -1.
       -2    1    3    3    0  502  0.14218621408E+04  0.36294549199E+03 -0.39323300534E+03  0.15192279533E+04  0.25500000920E-02 0.  1.
</event>
<event>
 5   0  0.5055900E-07  0.3100556E+04  0.7818609E-02  0.8215585E-01
       -2   -1    0    0    0  501  0.00000000000E+00  0.00000000000E+00  0.12257859625E+04  0.12257859625E+04  0.25500000920E-02 0.  1.
        2   -1    0    0  501    0  0.00000000000E+00  0.00000000000E+00 -0.19606703871E+04  0.19606703871E+04  0.25500000920E-02 0. -1.
    10030    2    1    2    0    0  0.00000000000E+00  0.00000000000E+00 -0.73488442457E+03  0.31864563496E+04  0.31005562324E+04 0.  0.
        2    1    3    3  502    0  0.10076914878E+03  0.26643412114E+03 -0.19335444318E+04  0.19544143961E+04  0.25500000920E-02 0. -1.
       -2    1    3    3    0  502 -0.10076914878E+03 -0.26643412114E+03  0.11986600072E+04  0.12320419535E+04  0.25500000920E-02 0.  1.
</event>
<event>
 5   0  0.5055900E-07  0.3084368E+04  0.7818609E-02  0.8220041E-01
        2   -1    0    0  501    0  0.00000000000E+00  0.00000000000E+00  0.15633593470E+04  0.15633593470E+04  0.25500000920E-02 0.  1.
       -2   -1    0    0    0  501  0.00000000000E+00  0.00000000000E+00 -0.15212951809E+04  0.15212951809E+04  0.25500000920E-02 0. -1.
    10030    2    1    2    0    0  0.00000000000E+00  0.00000000000E+00  0.42064166041E+02  0.30846545279E+04  0.30843677087E+04 0.  0.
        2    1    3    3  502    0 -0.34532833651E+03 -0.15004829489E+04  0.10839179865E+03  0.15435185525E+04  0.25500000920E-02 0.  1.
       -2    1    3    3    0  502  0.34532833651E+03  0.15004829489E+04 -0.66327632604E+02  0.15411359754E+04  0.25500000920E-02 0. -1.
</event>
<event>
 5   0  0.1830902E-07  0.3106736E+04  0.7818609E-02  0.8213892E-01
        1   -1    0    0  501    0  0.00000000000E+00  0.00000000000E+00  0.22662022950E+04  0.22662022950E+04  0.50400001928E-02 0.  1.
       -1   -1    0    0    0  501  0.00000000000E+00  0.00000000000E+00 -0.10647556174E+04  0.10647556174E+04  0.50400001928E-02 0. -1.
    10030    2    1    2    0    0  0.00000000000E+00  0.00000000000E+00  0.12014466776E+04  0.33309579124E+04  0.31067356654E+04 0.  0.
        3    1    3    3  502    0  0.23222147591E+03  0.62511758619E+03 -0.90347561203E+03  0.11229278704E+04  0.10100000352E+00 0. -1.
       -3    1    3    3    0  502 -0.23222147591E+03 -0.62511758619E+03  0.21049222896E+04  0.22080300419E+04  0.10100000352E+00 0.  1.
</event>
<event>
 5   0  0.1845123E-07  0.3098888E+04  0.7818609E-02  0.8216043E-01
        1   -1    0    0  501    0  0.00000000000E+00  0.00000000000E+00  0.16119048985E+04  0.16119048985E+04  0.50400001928E-02 0. -1.
       -1   -1    0    0    0  501  0.00000000000E+00  0.00000000000E+00 -0.14894034252E+04  0.14894034252E+04  0.50400001928E-02 0.  1.
    10030    2    1    2    0    0  0.00000000000E+00  0.00000000000E+00  0.12250147338E+03  0.31013083237E+04  0.30988879792E+04 0.  0.
        2    1    3    3  502    0  0.13947605895E+04 -0.55565211344E+03 -0.32202397272E+03  0.15355148362E+04  0.25500000920E-02 0.  1.
       -2    1    3    3    0  502 -0.13947605895E+04  0.55565211344E+03  0.44452544610E+03  0.15657934875E+04  0.25500000920E-02 0. -1.
</event>
<event>
 5   0  0.5154105E-07  0.3103719E+04  0.7818609E-02  0.8214718E-01
       -2   -1    0    0    0  501  0.00000000000E+00  0.00000000000E+00  0.13103039646E+04  0.13103039646E+04  0.25500000920E-02 0.  1.
        2   -1    0    0  501    0  0.00000000000E+00  0.00000000000E+00 -0.18379456140E+04  0.18379456140E+04  0.25500000920E-02 0. -1.
    10030    2    1    2    0    0  0.00000000000E+00  0.00000000000E+00 -0.52764164942E+03  0.31482495785E+04  0.31037186887E+04 0.  0.
        1    1    3    3  502    0 -0.14334708911E+04 -0.59336943863E+03 -0.30097057883E+03  0.15803510293E+04  0.50400001928E-02 0.  1.
       -1    1    3    3    0  502  0.14334708911E+04  0.59336943863E+03 -0.22667107059E+03  0.15678985492E+04  0.50400001928E-02 0. -1.
</event>
<event>
 5   0  0.1875284E-07  0.3099641E+04  0.7818609E-02  0.8215836E-01
       -1   -1    0    0    0  501  0.00000000000E+00  0.00000000000E+00  0.10848340702E+04  0.10848340702E+04  0.50400001928E-02 0.  1.
        1   -1    0    0  501    0  0.00000000000E+00  0.00000000000E+00 -0.22141119525E+04  0.22141119525E+04  0.50400001928E-02 0. -1.
    10030    2    1    2    0    0  0.00000000000E+00  0.00000000000E+00 -0.11292778823E+04  0.32989460227E+04  0.30996413220E+04 0.  0.
        4    1    3    3  502    0 -0.12046024799E+04  0.89276257173E+01  0.47314598091E+03  0.12942239254E+04  0.12699999809E+01 0.  1.
       -4    1    3    3    0  502  0.12046024799E+04 -0.89276257173E+01 -0.16024238632E+04  0.20047220972E+04  0.12699999809E+01 0. -1.
</event>
<event>
 5   0  0.5154105E-07  0.3099762E+04  0.7818609E-02  0.8215803E-01
        2   -1    0    0  501    0  0.00000000000E+00  0.00000000000E+00  0.12835669587E+04  0.12835669587E+04  0.25500000920E-02 0. -1.
       -2   -1    0    0    0  501  0.00000000000E+00  0.00000000000E+00 -0.18714499776E+04  0.18714499776E+04  0.25500000920E-02 0.  1.
    10030    2    1    2    0    0  0.00000000000E+00  0.00000000000E+00 -0.58788301897E+03  0.31550169363E+04  0.30997621561E+04 0.  0.
        1    1    3    3  502    0 -0.32794635361E+03  0.14719204385E+03 -0.18284352319E+04  0.18634349213E+04  0.50400001928E-02 0.  1.
       -1    1    3    3    0  502  0.32794635361E+03 -0.14719204385E+03  0.12405522129E+04  0.12915820150E+04  0.50400001928E-02 0. -1.
</event>
<event>
 5   0  0.1840359E-07  0.3130646E+04  0.7818609E-02  0.8207377E-01
        1   -1    0    0  501    0  0.00000000000E+00  0.00000000000E+00  0.14858152135E+04  0.14858152135E+04  0.50400001928E-02 0.  1.
       -1   -1    0    0    0  501  0.00000000000E+00  0.00000000000E+00 -0.16490850239E+04  0.16490850239E+04  0.50400001928E-02 0. -1.
    10030    2    1    2    0    0  0.00000000000E+00  0.00000000000E+00 -0.16326981041E+03  0.31349002375E+04  0.31306456950E+04 0.  0.
        1    1    3    3  502    0 -0.70386993518E+03 -0.17061304018E+03  0.13079447104E+04  0.14950789480E+04  0.50400001928E-02 0.  1.
       -1    1    3    3    0  502  0.70386993518E+03  0.17061304018E+03 -0.14712145208E+04  0.16398212895E+04  0.50400001928E-02 0. -1.
</event>
<event>
 5   0  0.5248309E-07  0.3101961E+04  0.7818609E-02  0.8215200E-01
       -2   -1    0    0    0  501  0.00000000000E+00  0.00000000000E+00  0.12744733554E+04  0.12744733554E+04  0.25500000920E-02 0. -1.
        2   -1    0    0  501    0  0.00000000000E+00  0.00000000000E+00 -0.18874784852E+04  0.18874784852E+04  0.25500000920E-02 0.  1.
    10030    2    1    2    0    0  0.00000000000E+00  0.00000000000E+00 -0.61300512978E+03  0.31619518406E+04  0.31019613397E+04 0.  0.
        4    1    3    3  502    0  0.45829792596E+03  0.32165779912E+03  0.11678580702E+04  0.12951427773E+04  0.12699999809E+01 0. -1.
       -4    1    3    3    0  502 -0.45829792596E+03 -0.32165779912E+03 -0.17808632000E+04  0.18668090632E+04  0.12699999809E+01 0.  1.
</event>
<event>
 5   0  0.1814075E-07  0.3098453E+04  0.7818609E-02  0.8216163E-01
        1   -1    0    0  501    0  0.00000000000E+00  0.00000000000E+00  0.27586995188E+04  0.27586995188E+04  0.50400001928E-02 0. -1.
       -1   -1    0    0    0  501  0.00000000000E+00  0.00000000000E+00 -0.87001227401E+03  0.87001227402E+03  0.50400001928E-02 0.  1.
    10030    2    1    2    0    0  0.00000000000E+00  0.00000000000E+00  0.18886872448E+04  0.36287117928E+04  0.30984528021E+04 0.  0.
        5    1    3    3  502    0  0.13495217262E+03  0.15429186291E+04  0.90260172662E+03  0.17926298981E+04  0.46999998093E+01 0. -1.
       -5    1    3    3    0  502 -0.13495217262E+03 -0.15429186291E+04  0.98608551816E+03  0.18360818947E+04  0.46999998093E+01 0.  1.
</event>
<event>
 5   0  0.5342534E-07  0.3101656E+04  0.7818609E-02  0.8215284E-01
        2   -1    0    0  501    0  0.00000000000E+00  0.00000000000E+00  0.14345981604E+04  0.14345981604E+04  0.25500000920E-02 0. -1.
       -2   -1    0    0    0  501  0.00000000000E+00  0.00000000000E+00 -0.16764746258E+04  0.16764746258E+04  0.25500000920E-02 0.  1.
    10030    2    1    2    0    0  0.00000000000E+00  0.00000000000E+00 -0.24187646536E+03  0.31110727862E+04  0.31016559539E+04 0.  0.
        3    1    3    3  502    0  0.48558971808E+03  0.14619032022E+04 -0.30067226816E+03  0.15695101688E+04  0.10100000352E+00 0. -1.
       -3    1    3    3    0  502 -0.48558971808E+03 -0.14619032022E+04  0.58795802801E+02  0.15415626174E+04  0.10100000352E+00 0.  1.
</event>
<event>
 5   0  0.5055900E-07  0.3097181E+04  0.7818609E-02  0.8216512E-01
       -2   -1    0    0    0  501  0.00000000000E+00  0.00000000000E+00  0.22353487866E+04  0.22353487866E+04  0.25500000920E-02 0.  1.
        2   -1    0    0  501    0  0.00000000000E+00  0.00000000000E+00 -0.10728225735E+04  0.10728225735E+04  0.25500000920E-02 0. -1.
    10030    2    1    2    0    0  0.00000000000E+00  0.00000000000E+00  0.11625262131E+04  0.33081713601E+04  0.30971810654E+04 0.  0.
        2    1    3    3  502    0  0.87305011929E+03 -0.11676003542E+04  0.11389682777E+04  0.18500691435E+04  0.25500000920E-02 0.  1.
       -2    1    3    3    0  502 -0.87305011929E+03  0.11676003542E+04  0.23557935438E+02  0.14581022167E+04  0.25500000920E-02 0. -1.
</event>
<event>
 5   0  0.5154105E-07  0.3098884E+04  0.7818609E-02  0.8216044E-01
        2   -1    0    0  501    0  0.00000000000E+00  0.00000000000E+00  0.17364735820E+04  0.17364735820E+04  0.25500000920E-02 0. -1.
       -2   -1    0    0    0  501  0.00000000000E+00  0.00000000000E+00 -0.13825555797E+04  0.13825555797E+04  0.25500000920E-02 0.  1.
    10030    2    1    2    0    0  0.00000000000E+00  0.00000000000E+00  0.35391800230E+03  0.31190291618E+04  0.30988844702E+04 0.  0.
        1    1    3    3  502    0 -0.57578321368E+02  0.96043541474E+03 -0.10454399636E+04  0.14208082793E+04  0.50400001928E-02 0.  1.
       -1    1    3    3    0  502  0.57578321368E+02 -0.96043541474E+03  0.13993579659E+04  0.16982208825E+04  0.50400001928E-02 0. -1.
</event>
<event>
 5   0  0.1845123E-07  0.3097243E+04  0.7818609E-02  0.8216495E-01
        1   -1    0    0  501    0  0.00000000000E+00  0.00000000000E+00  0.80241054589E+03  0.80241054590E+03  0.50400001928E-02 0. -1.
       -1   -1    0    0    0  501  0.00000000000E+00  0.00000000000E+00 -0.29887804278E+04  0.29887804278E+04  0.50400001928E-02 0.  1.
    10030    2    1    2    0    0  0.00000000000E+00  0.00000000000E+00 -0.21863698819E+04  0.37911909737E+04  0.30972432482E+04 0.  0.
        2    1    3    3  502    0  0.47589700967E+03  0.26836416567E+03 -0.28668934261E+04  0.29184885139E+04  0.25500000920E-02 0.  1.
       -2    1    3    3    0  502 -0.47589700967E+03 -0.26836416567E+03  0.68052354415E+03  0.87270245982E+03  0.25500000920E-02 0. -1.
</event>
<event>
 5   0  0.5055900E-07  0.3100849E+04  0.7818609E-02  0.8215505E-01
       -2   -1    0    0    0  501  0.00000000000E+00  0.00000000000E+00  0.99637106936E+03  0.99637106936E+03  0.25500000920E-02 0. -1.
        2   -1    0    0  501    0  0.00000000000E+00  0.00000000000E+00 -0.24125713941E+04  0.24125713941E+04  0.25500000920E-02 0.  1.
    10030    2    1    2    0    0  0.00000000000E+00  0.00000000000E+00 -0.14162003247E+04  0.34089424634E+04  0.31008491352E+04 0.  0.
        2    1    3    3  502    0 -0.55843741354E+03  0.12126206299E+04  0.15859208601E+03  0.13444153326E+04  0.25500000920E-02 0. -1.
       -2    1    3    3    0  502  0.55843741354E+03 -0.12126206299E+04 -0.15747924107E+04  0.20645271308E+04  0.25500000920E-02 0.  1.
</event>
<event>
 5   0  0.1830902E-07  0.3095566E+04  0.7818609E-02  0.8216956E-01
        1   -1    0    0  501    0  0.00000000000E+00  0.00000000000E+00  0.22279611901E+04  0.22279611901E+04  0.50400001928E-02 0. -1.
       -1   -1    0    0    0  501  0.00000000000E+00  0.00000000000E+00 -0.10752573616E+04  0.10752573616E+04  0.50400001928E-02 0.  1.
    10030    2    1    2    0    0  0.00000000000E+00  0.00000000000E+00  0.11527038286E+04  0.33032185517E+04  0.30955656484E+04 0.  0.
        3    1    3    3  502    0  0.42370551837E+03  0.10424761233E+04  0.17103474448E+04  0.20473327102E+04  0.10100000352E+00 0. -1.
       -3    1    3    3    0  502 -0.42370551837E+03 -0.10424761233E+04 -0.55764361627E+03  0.12558858415E+04  0.10100000352E+00 0.  1.
</event>
<event>
 5   0  0.1875284E-07  0.3113471E+04  0.7818609E-02  0.8212051E-01
       -1   -1    0    0    0  501  0.00000000000E+00  0.00000000000E+00  0.27253841260E+04  0.27253841260E+04  0.50400001928E-02 0.  1.
        1   -1    0    0  501    0  0.00000000000E+00  0.00000000000E+00 -0.88920532902E+03  0.88920532903E+03  0.50400001928E-02 0. -1.
    10030    2    1    2    0    0  0.00000000000E+00  0.00000000000E+00  0.18361787970E+04  0.36145894550E+04  0.31134714314E+04 0.  0.
        4    1    3    3  502    0  0.12709212023E+04  0.20291675688E+03  0.19348394392E+04  0.23237945651E+04  0.12699999809E+01 0.  1.
       -4    1    3    3    0  502 -0.12709212023E+04 -0.20291675688E+03 -0.98660642220E+02  0.12907948899E+04  0.12699999809E+01 0. -1.
</event>
<event>
 5   0  0.1845123E-07  0.3099013E+04  0.7818609E-02  0.8216009E-01
        1   -1    0    0  501    0  0.00000000000E+00  0.00000000000E+00  0.17752386284E+04  0.17752386284E+04  0.50400001928E-02 0.  1.
       -1   -1    0    0    0  501  0.00000000000E+00  0.00000000000E+00 -0.13524774904E+04  0.13524774904E+04  0.50400001928E-02 0. -1.
    10030    2    1    2    0    0  0.00000000000E+00  0.00000000000E+00  0.42276113793E+03  0.31277161188E+04  0.30990129300E+04 0.  0.
        2    1    3    3  502    0  0.10978164188E+04 -0.91371145971E+03 -0.39493377231E+03  0.14819049246E+04  0.25500000920E-02 0. -1.
       -2    1    3    3    0  502 -0.10978164188E+04  0.91371145971E+03  0.81769491023E+03  0.16458111943E+04  0.25500000920E-02 0.  1.
</event>
<event>
 5   0  0.1814075E-07  0.3099043E+04  0.7818609E-02  0.8216001E-01
       -1   -1    0    0    0  501  0.00000000000E+00  0.00000000000E+00  0.10256910446E+04  0.10256910447E+04  0.50400001928E-02 0. -1.
        1   -1    0    0  501    0  0.00000000000E+00  0.00000000000E+00 -0.23408777180E+04  0.23408777180E+04  0.50400001928E-02 0.  1.
    10030    2    1    2    0    0  0.00000000000E+00  0.00000000000E+00 -0.13151866733E+04  0.33665687626E+04  0.30990432794E+04 0.  0.
        5    1    3    3  502    0 -0.81859761889E+03 -0.12483076911E+04 -0.11089363752E+04  0.18596064443E+04  0.46999998093E+01 0.  1.
       -5    1    3    3    0  502  0.81859761889E+03  0.12483076911E+04 -0.20625029809E+03  0.15069623183E+04  0.46999998093E+01 0. -1.
</event>
<event>
 5   0  0.5154105E-07  0.3099687E+04  0.7818609E-02  0.8215824E-01
       -2   -1    0    0    0  501  0.00000000000E+00  0.00000000000E+00  0.10214632967E+04  0.10214632967E+04  0.25500000920E-02 0. -1.
        2   -1    0    0  501    0  0.00000000000E+00  0.00000000000E+00 -0.23515422507E+04  0.23515422507E+04  0.25500000920E-02 0.  1.
    10030    2    1    2    0    0  0.00000000000E+00  0.00000000000E+00 -0.13300789541E+04  0.33730055474E+04  0.30996865001E+04 0.  0.
        1    1    3    3  502    0 -0.10559620888E+04 -0.87272280431E+03 -0.14537332071E+04  0.19975087643E+04  0.50400001928E-02 0.  1.
       -1    1    3    3    0  502  0.10559620888E+04  0.87272280431E+03  0.12365425301E+03  0.13754967831E+04  0.50400001928E-02 0. -1.
</event>
<event>
 5   0  0.5248309E-07  0.3097691E+04  0.7818609E-02  0.8216372E-01
        2   -1    0    0  501    0  0.00000000000E+00  0.00000000000E+00  0.15648500328E+04  0.15648500328E+04  0.25500000920E-02 0. -1.
       -2   -1    0    0    0  501  0.00000000000E+00  0.00000000000E+00 -0.15330049319E+04  0.15330049319E+04  0.25500000920E-02 0.  1.
    10030    2    1    2    0    0  0.00000000000E+00  0.00000000000E+00  0.31845100984E+02  0.30978549647E+04  0.30976912809E+04 0.  0.
        4    1    3    3  502    0 -0.28655821973E+03 -0.94856001554E+03  0.12063801293E+04  0.15611650604E+04  0.12699999809E+01 0. -1.
       -4    1    3    3    0  502  0.28655821973E+03  0.94856001554E+03 -0.11745350283E+04  0.15366899043E+04  0.12699999809E+01 0.  1.
</event>
<event>
 5   0  0.5342534E-07  0.3099385E+04  0.7818609E-02  0.8215907E-01
        2   -1    0    0  501    0  0.00000000000E+00  0.00000000000E+00  0.15265115154E+04  0.15265115154E+04  0.25500000920E-02 0.  1.
       -2   -1    0    0    0  501  0.00000000000E+00  0.00000000000E+00 -0.15732255750E+04  0.15732255750E+04  0.25500000920E-02 0. -1.
    10030    2    1    2    0    0  0.00000000000E+00  0.00000000000E+00 -0.46714059661E+02  0.30997370904E+04  0.30993850723E+04 0.  0.
        3    1    3    3  502    0  0.12075924595E+03  0.23308014990E+03  0.15041139819E+04  0.15268490536E+04  0.10100000352E+00 0.  1.
       -3    1    3    3    0  502 -0.12075924595E+03 -0.23308014990E+03 -0.15508280416E+04  0.15728880368E+04  0.10100000352E+00 0. -1.
</event>
<event>
 5   0  0.1845123E-07  0.3093724E+04  0.7818609E-02  0.8217462E-01
        1   -1    0    0  501    0  0.00000000000E+00  0.00000000000E+00  0.11396345271E+04  0.11396345271E+04  0.50400001928E-02 0. -1.
       -1   -1    0    0    0  501  0.00000000000E+00  0.00000000000E+00 -0.20996043029E+04  0.20996043030E+04  0.50400001928E-02 0.  1.
    10030    2    1    2    0    0  0.00000000000E+00  0.00000000000E+00 -0.95996977584E+03  0.32392388301E+04  0.30937236832E+04 0.  0.
        2    1    3    3  502    0  0.60584670289E+03 -0.13211662819E+04 -0.10342723076E+04  0.17838861449E+04  0.25500000920E-02 0.  1.
       -2    1    3    3    0  502 -0.60584670289E+03  0.13211662819E+04  0.74302531717E+02  0.14553526851E+04  0.25500000920E-02 0. -1.
</event>
<event>
 5   0  0.1845123E-07  0.3103548E+04  0.7818609E-02  0.8214765E-01
        1   -1    0    0  501    0  0.00000000000E+00  0.00000000000E+00  0.17980368693E+04  0.17980368693E+04  0.50400001928E-02 0.  1.
       -1   -1    0    0    0  501  0.00000000000E+00  0.00000000000E+00 -0.13392393842E+04  0.13392393842E+04  0.50400001928E-02 0. -1.
    10030    2    1    2    0    0  0.00000000000E+00  0.00000000000E+00  0.45879748513E+03  0.31372762536E+04  0.31035475119E+04 0.  0.
        2    1    3    3  502    0  0.65597285705E+03  0.14005970023E+04  0.10141538322E+03  0.15499217503E+04  0.25500000920E-02 0.  1.
       -2    1    3    3    0  502 -0.65597285705E+03 -0.14005970023E+04  0.35738210190E+03  0.15873545032E+04  0.25500000920E-02 0. -1.
</event>
<event>
 5   0  0.1727000E-07  0.3097833E+04  0.7818609E-02  0.8216333E-01
        3   -1    0    0  501    0  0.00000000000E+00  0.00000000000E+00  0.17862464585E+04  0.17862464613E+04  0.10100000352E+00 0.  1.
       -3   -1    0    0    0  501  0.00000000000E+00  0.00000000000E+00 -0.13431196908E+04  0.13431196946E+04  0.10100000352E+00 0. -1.
    10030    2    1    2    0    0  0.00000000000E+00  0.00000000000E+00  0.44312676769E+03  0.31293661559E+04  0.30978333083E+04 0.  0.
        4    1    3    3  502    0  0.89918635168E+03  0.70509538944E+03 -0.83476007343E+03  0.14151048005E+04  0.12699999809E+01 0. -1.
       -4    1    3    3    0  502 -0.89918635168E+03 -0.70509538944E+03  0.12778868411E+04  0.17142613555E+04  0.12699999809E+01 0.  1.
</event>
<event>
 5   0  0.1814075E-07  0.3100442E+04  0.7818609E-02  0.8215617E-01
        1   -1    0    0  501    0  0.00000000000E+00  0.00000000000E+00  0.19371783909E+04  0.19371783909E+04  0.50400001928E-02 0.  1.
       -1   -1    0    0    0  501  0.00000000000E+00  0.00000000000E+00 -0.12405593521E+04  0.12405593521E+04  0.50400001928E-02 0. -1.
    10030    2    1    2    0    0  0.00000000000E+00  0.00000000000E+00  0.69661903881E+03  0.31777377430E+04  0.31004417553E+04 0.  0.
        5    1    3    3  502    0  0.65325140199E+03  0.94494712235E+02 -0.10893346522E+04  0.12737106105E+04  0.46999998093E+01 0. -1.
       -5    1    3    3    0  502 -0.65325140199E+03 -0.94494712235E+02  0.17859536910E+04  0.19040271325E+04  0.46999998093E+01 0.  1.
</event>
<event>
 5   0  0.1875284E-07  0.3160292E+04  0.7818609E-02  0.8199383E-01
        1   -1    0    0  501    0  0.00000000000E+00  0.00000000000E+00  0.20893710523E+04  0.20893710523E+04  0.50400001928E-02 0.  1.
       -1   -1    0    0    0  501  0.00000000000E+00  0.00000000000E+00 -0.11950303979E+04  0.11950303979E+04  0.50400001928E-02 0. -1.
    10030    2    1    2    0    0  0.00000000000E+00  0.00000000000E+00  0.89434065440E+03  0.32844014502E+04  0.31602923409E+04 0.  0.
        4    1    3    3  502    0 -0.14303138042E+04 -0.57339527468E+03  0.83751238393E+02  0.15432419131E+04  0.12699999809E+01 0. -1.
       -4    1    3    3    0  502  0.14303138042E+04  0.57339527468E+03  0.81058941601E+03  0.17411595371E+04  0.12699999809E+01 0.  1.
</event>
<event>
 5   0  0.1840359E-07  0.3100694E+04  0.7818609E-02  0.8215548E-01
       -1   -1    0    0    0  501  0.00000000000E+00  0.00000000000E+00  0.99829637073E+03  0.99829637075E+03  0.50400001928E-02 0.  1.
        1   -1    0    0  501    0  0.00000000000E+00  0.00000000000E+00 -0.24076769191E+04  0.24076769191E+04  0.50400001928E-02 0. -1.
    10030    2    1    2    0    0  0.00000000000E+00  0.00000000000E+00 -0.14093805483E+04  0.34059732898E+04  0.31006935548E+04 0.  0.
        1    1    3    3  502    0 -0.24066031822E+03 -0.12475814276E+04  0.27114265280E+03  0.12991901883E+04  0.50400001928E-02 0.  1.
       -1    1    3    3    0  502  0.24066031822E+03  0.12475814276E+04 -0.16805232011E+04  0.21067831015E+04  0.50400001928E-02 0. -1.
</event>
<event>
 5   0  0.5248309E-07  0.3107172E+04  0.7818609E-02  0.8213772E-01
       -2   -1    0    0    0  501  0.00000000000E+00  0.00000000000E+00  0.16688871677E+04  0.16688871677E+04  0.25500000920E-02 0.  1.
        2   -1    0    0  501    0  0.00000000000E+00  0.00000000000E+00 -0.14462507305E+04  0.14462507305E+04  0.25500000920E-02 0. -1.
    10030    2    1    2    0    0  0.00000000000E+00  0.00000000000E+00  0.22263643716E+03  0.31151378982E+04  0.31071718880E+04 0.  0.
        4    1    3    3  502    0 -0.10359953984E+04 -0.29785695125E+03  0.12329457695E+04  0.16377307814E+04  0.12699999809E+01 0. -1.
       -4    1    3    3    0  502  0.10359953984E+04  0.29785695125E+03 -0.10103093324E+04  0.14774071168E+04  0.12699999809E+01 0.  1.
</event>
<event>
 5   0  0.5376678E-07  0.3065407E+04  0.7818609E-02  0.8225296E-01
       -2   -1    0    0    0  501  0.00000000000E+00  0.00000000000E+00  0.18406948768E+04  0.18406948768E+04  0.25500000920E-02 0. -1.
        2   -1    0    0  501    0  0.00000000000E+00  0.00000000000E+00 -0.12762460667E+04  0.12762460667E+04  0.25500000920E-02 0.  1.
    10030    2    1    2    0    0  0.00000000000E+00  0.00000000000E+00  0.56444881002E+03  0.31169409435E+04  0.30654067244E+04 0.  0.
        5    1    3    3  502    0 -0.11158405386E+02  0.74802400422E+03  0.16424328923E+04  0.18047914884E+04  0.46999998093E+01 0. -1.
       -5    1    3    3    0  502  0.11158405386E+02 -0.74802400422E+03 -0.10779840823E+04  0.13121494551E+04  0.46999998093E+01 0.  1.
</event>
<event>
 5   0  0.1814075E-07  0.3100098E+04  0.7818609E-02  0.8215711E-01
        1   -1    0    0  501    0  0.00000000000E+00  0.00000000000E+00  0.12766426042E+04  0.12766426042E+04  0.50400001928E-02 0. -1.
       -1   -1    0    0    0  501  0.00000000000E+00  0.00000000000E+00 -0.18820088038E+04  0.18820088038E+04  0.50400001928E-02 0.  1.
    10030    2    1    2    0    0  0.00000000000E+00  0.00000000000E+00 -0.60536619960E+03  0.31586514080E+04  0.31000984632E+04 0.  0.
        5    1    3    3  502    0  0.13752313460E+04  0.66260220576E+03 -0.28665652897E+02  0.15268093358E+04  0.46999998093E+01 0. -1.
       -5    1    3    3    0  502 -0.13752313460E+04 -0.66260220576E+03 -0.57670054671E+03  0.16318420722E+04  0.46999998093E+01 0.  1.
</event>
<event>
 5   0  0.5154105E-07  0.3093431E+04  0.7818609E-02  0.8217543E-01
       -2   -1    0    0    0  501  0.00000000000E+00  0.00000000000E+00  0.21693323432E+04  0.21693323432E+04  0.25500000920E-02 0. -1.
        2   -1    0    0  501    0  0.00000000000E+00  0.00000000000E+00 -0.11027951847E+04  0.11027951847E+04  0.25500000920E-02 0.  1.
    10030    2    1    2    0    0  0.00000000000E+00  0.00000000000E+00  0.10665371585E+04  0.32721275279E+04  0.30934312742E+04 0.  0.
        1    1    3    3  502    0 -0.50894021325E+03 -0.36090219915E+03 -0.96378240291E+03  0.11481058567E+04  0.50400001928E-02 0.  1.
       -1    1    3    3    0  502  0.50894021325E+03  0.36090219915E+03  0.20303195615E+04  0.21240216712E+04  0.50400001928E-02 0. -1.
</event>
<event>
 5   0  0.5055900E-07  0.3096373E+04  0.7818609E-02  0.8216734E-01
       -2   -1    0    0    0  501  0.00000000000E+00  0.00000000000E+00  0.12939218004E+04  0.12939218004E+04  0.25500000920E-02 0. -1.
        2   -1    0    0  501    0  0.00000000000E+00  0.00000000000E+00 -0.18524158748E+04  0.18524158748E+04  0.25500000920E-02 0.  1.
    10030    2    1    2    0    0  0.00000000000E+00  0.00000000000E+00 -0.55849407433E+03  0.31463376752E+04  0.30963728999E+04 0.  0.
        2    1    3    3  502    0  0.11828621610E+03 -0.51337807146E+03 -0.17585312871E+04  0.18357507894E+04  0.25500000920E-02 0.  1.
       -2    1    3    3    0  502 -0.11828621610E+03  0.51337807146E+03  0.12000372128E+04  0.13105868858E+04  0.25500000920E-02 0. -1.
</event>
<event>
 5   0  0.5055900E-07  0.3091335E+04  0.7818609E-02  0.8218120E-01
        2   -1    0    0  501    0  0.00000000000E+00  0.00000000000E+00  0.12643524296E+04  0.12643524296E+04  0.25500000920E-02 0. -1.
       -2   -1    0    0    0  501  0.00000000000E+00  0.00000000000E+00 -0.18895743493E+04  0.18895743493E+04  0.25500000920E-02 0.  1.
    10030    2    1    2    0    0  0.00000000000E+00  0.00000000000E+00 -0.62522191974E+03  0.31539267789E+04  0.30913349345E+04 0.  0.
        2    1    3    3  502    0  0.72507704752E+03  0.13647876351E+04 -0.28550412087E+03  0.15715898373E+04  0.25500000920E-02 0. -1.
       -2    1    3    3    0  502 -0.72507704752E+03 -0.13647876351E+04 -0.33971779887E+03  0.15823369415E+04  0.25500000920E-02 0.  1.
</event>
<event>
 5   0  0.1875284E-07  0.3115009E+04  0.7818609E-02  0.8211631E-01
        1   -1    0    0  501    0  0.00000000000E+00  0.00000000000E+00  0.12255542571E+04  0.12255542571E+04  0.50400001928E-02 0. -1.
       -1   -1    0    0    0  501  0.00000000000E+00  0.00000000000E+00 -0.19793661678E+04  0.19793661678E+04  0.50400001928E-02 0.  1.
    10030    2    1    2    0    0  0.00000000000E+00  0.00000000000E+00 -0.75381191066E+03  0.32049204249E+04  0.31150092348E+04 0.  0.
        4    1    3    3  502    0  0.15829421318E+03  0.76693573560E+03  0.10082717429E+04  0.12766600961E+04  0.12699999809E+01 0. -1.
       -4    1    3    3    0  502 -0.15829421318E+03 -0.76693573560E+03 -0.17620836536E+04  0.19282603288E+04  0.12699999809E+01 0.  1.
</event>
<event>
 5   0  0.1840359E-07  0.3101488E+04  0.7818609E-02  0.8215330E-01
        1   -1    0    0  501    0  0.00000000000E+00  0.00000000000E+00  0.14376645960E+04  0.14376645960E+04  0.50400001928E-02 0.  1.
       -1   -1    0    0    0  501  0.00000000000E+00  0.00000000000E+00 -0.16727176330E+04  0.16727176330E+04  0.50400001928E-02 0. -1.
    10030    2    1    2    0    0  0.00000000000E+00  0.00000000000E+00 -0.23505303697E+03  0.31103822290E+04  0.31014879784E+04 0.  0.
        1    1    3    3  502    0  0.38698512517E+03 -0.52420841052E+03 -0.15287773679E+04  0.16618400000E+04  0.50400001928E-02 0. -1.
       -1    1    3    3    0  502 -0.38698512517E+03  0.52420841052E+03  0.12937243310E+04  0.14485422290E+04  0.50400001928E-02 0.  1.
</event>
<event>
 5   0  0.5376678E-07  0.3112525E+04  0.7818609E-02  0.8212309E-01
       -2   -1    0    0    0  501  0.00000000000E+00  0.00000000000E+00  0.90687729249E+03  0.90687729250E+03  0.25500000920E-02 0. -1.
        2   -1    0    0  501    0  0.00000000000E+00  0.00000000000E+00 -0.26706513218E+04  0.26706513218E+04  0.25500000920E-02 0.  1.
    10030    2    1    2    0    0  0.00000000000E+00  0.00000000000E+00 -0.17637740293E+04  0.35775286143E+04  0.31125250456E+04 0.  0.
        5    1    3    3  502    0 -0.32171856862E+03 -0.14848565040E+04 -0.12693367595E+04  0.19797827088E+04  0.46999998093E+01 0. -1.
       -5    1    3    3    0  502  0.32171856862E+03  0.14848565040E+04 -0.49443726978E+03  0.15977459055E+04  0.46999998093E+01 0.  1.
</event>
<event>
 5   0  0.1814075E-07  0.3114993E+04  0.7818609E-02  0.8211635E-01
        1   -1    0    0  501    0  0.00000000000E+00  0.00000000000E+00  0.29210294176E+04  0.29210294177E+04  0.50400001928E-02 0.  1.
       -1   -1    0    0    0  501  0.00000000000E+00  0.00000000000E+00 -0.83045913592E+03  0.83045913594E+03  0.50400001928E-02 0. -1.
    10030    2    1    2    0    0  0.00000000000E+00  0.00000000000E+00  0.20905702817E+04  0.37514885536E+04  0.31149931404E+04 0.  0.
        5    1    3    3  502    0  0.90601977301E+03  0.88468613990E+03 -0.46767918519E+02  0.12671821982E+04  0.46999998093E+01 0. -1.
       -5    1    3    3    0  502 -0.90601977301E+03 -0.88468613990E+03  0.21373382002E+04  0.24843063554E+04  0.46999998093E+01 0.  1.
</event>
<event>
 5   0  0.5055900E-07  0.3097027E+04  0.7818609E-02  0.8216554E-01
       -2   -1    0    0    0  501  0.00000000000E+00  0.00000000000E+00  0.12966016870E+04  0.12966016870E+04  0.25500000920E-02 0.  1.
        2   -1    0    0  501    0  0.00000000000E+00  0.00000000000E+00 -0.18493681268E+04  0.18493681268E+04  0.25500000920E-02 0. -1.
    10030    2    1    2    0    0  0.00000000000E+00  0.00000000000E+00 -0.55276643985E+03  0.31459698138E+04  0.30970268537E+04 0.  0.
        2    1    3    3  502    0 -0.26975494719E+02  0.48595966296E+03  0.12168852814E+04  0.13106083547E+04  0.25500000920E-02 0.  1.
       -2    1    3    3    0  502  0.26975494719E+02 -0.48595966296E+03 -0.17696517212E+04  0.18353614591E+04  0.25500000920E-02 0. -1.
</event>
<event>
 5   0  0.5248309E-07  0.3100345E+04  0.7818609E-02  0.8215643E-01
        2   -1    0    0  501    0  0.00000000000E+00  0.00000000000E+00  0.19315679528E+04  0.19315679528E+04  0.25500000920E-02 0. -1.
       -2   -1    0    0    0  501  0.00000000000E+00  0.00000000000E+00 -0.12440852073E+04  0.12440852073E+04  0.25500000920E-02 0.  1.
    10030    2    1    2    0    0  0.00000000000E+00  0.00000000000E+00  0.68748274553E+03  0.31756531601E+04  0.31003452175E+04 0.  0.
        4    1    3    3  502    0 -0.19958705529E+03 -0.14891354864E+04  0.73468492396E+03  0.16724601758E+04  0.12699999809E+01 0. -1.
       -4    1    3    3    0  502  0.19958705529E+03  0.14891354864E+04 -0.47202178423E+02  0.15031929843E+04  0.12699999809E+01 0.  1.
</event>
<event>
 5   0  0.1875284E-07  0.3090338E+04  0.7818609E-02  0.8218394E-01
        1   -1    0    0  501    0  0.00000000000E+00  0.00000000000E+00  0.16243263255E+04  0.16243263255E+04  0.50400001928E-02 0.  1.
       -1   -1    0    0    0  501  0.00000000000E+00  0.00000000000E+00 -0.14698696012E+04  0.14698696012E+04  0.50400001928E-02 0. -1.
    10030    2    1    2    0    0  0.00000000000E+00  0.00000000000E+00  0.15445672428E+03  0.30941959267E+04  0.30903384205E+04 0.  0.
        4    1    3    3  502    0  0.68261878255E+03  0.41309706427E+03  0.14021066963E+04  0.16132335192E+04  0.12699999809E+01 0.  1.
       -4    1    3    3    0  502 -0.68261878255E+03 -0.41309706427E+03 -0.12476499720E+04  0.14809624075E+04  0.12699999809E+01 0. -1.
</event>
<event>
 5   0  0.5376678E-07  0.3102114E+04  0.7818609E-02  0.8215158E-01
       -2   -1    0    0    0  501  0.00000000000E+00  0.00000000000E+00  0.14144767108E+04  0.14144767108E+04  0.25500000920E-02 0. -1.
        2   -1    0    0  501    0  0.00000000000E+00  0.00000000000E+00 -0.17008252177E+04  0.17008252177E+04  0.25500000920E-02 0.  1.
    10030    2    1    2    0    0  0.00000000000E+00  0.00000000000E+00 -0.28634850699E+03  0.31153019285E+04  0.31021138983E+04 0.  0.
        5    1    3    3  502    0  0.18456570471E+03 -0.70106852384E+03  0.12338568030E+04  0.14310787102E+04  0.46999998093E+01 0. -1.
       -5    1    3    3    0  502 -0.18456570471E+03  0.70106852384E+03 -0.15202053100E+04  0.16842232183E+04  0.46999998093E+01 0.  1.
</event>
<event>
 5   0  0.5342534E-07  0.3102228E+04  0.7818609E-02  0.8215127E-01
        2   -1    0    0  501    0  0.00000000000E+00  0.00000000000E+00  0.23171175590E+04  0.23171175590E+04  0.25500000920E-02 0. -1.
       -2   -1    0    0    0  501  0.00000000000E+00  0.00000000000E+00 -0.10383394955E+04  0.10383394955E+04  0.25500000920E-02 0.  1.
    10030    2    1    2    0    0  0.00000000000E+00  0.00000000000E+00  0.12787780635E+04  0.33554570544E+04  0.31022280233E+04 0.  0.
        3    1    3    3  502    0  0.58116130004E+03  0.14377279259E+04  0.60279511500E+03  0.16637824396E+04  0.10100000352E+00 0. -1.
       -3    1    3    3    0  502 -0.58116130004E+03 -0.14377279259E+04  0.67598294850E+03  0.16916746148E+04  0.10100000352E+00 0.  1.
</event>
<event>
 5   0  0.5248309E-07  0.3095587E+04  0.7818609E-02  0.8216950E-01
       -2   -1    0    0    0  501  0.00000000000E+00  0.00000000000E+00  0.11157281716E+04  0.11157281716E+04  0.25500000920E-02 0.  1.
        2   -1    0    0  501    0  0.00000000000E+00  0.00000000000E+00 -0.21471759357E+04  0.21471759357E+04  0.25500000920E-02 0. -1.
    10030    2    1    2    0    0  0.00000000000E+00  0.00000000000E+00 -0.10314477640E+04  0.32629041073E+04  0.30955869756E+04 0.  0.
        4    1    3    3  502    0 -0.81715689013E+03  0.63832354208E+02 -0.18996412804E+04  0.20689269102E+04  0.12699999809E+01 0. -1.
       -4    1    3    3    0  502  0.81715689013E+03 -0.63832354208E+02  0.86819351635E+03  0.11939771971E+04  0.12699999809E+01 0.  1.
</event>
<event>
 5   0  0.1845123E-07  0.3101939E+04  0.7818609E-02  0.8215206E-01
       -1   -1    0    0    0  501  0.00000000000E+00  0.00000000000E+00  0.31102285897E+04  0.31102285897E+04  0.50400001928E-02 0. -1.
        1   -1    0    0  501    0  0.00000000000E+00  0.00000000000E+00 -0.77341782362E+03  0.77341782364E+03  0.50400001928E-02 0.  1.
    10030    2    1    2    0    0  0.00000000000E+00  0.00000000000E+00  0.23368107661E+04  0.38836464133E+04  0.31019388949E+04 0.  0.
        2    1    3    3  502    0 -0.11721481914E+04  0.77827142091E+03  0.35136377700E+03  0.14502049134E+04  0.25500000920E-02 0. -1.
       -2    1    3    3    0  502  0.11721481914E+04 -0.77827142091E+03  0.19854469891E+04  0.24334414999E+04  0.25500000920E-02 0.  1.
</event>
<event>
 5   0  0.5342534E-07  0.3089562E+04  0.7818609E-02  0.8218608E-01
        2   -1    0    0  501    0  0.00000000000E+00  0.00000000000E+00  0.20488651207E+04  0.20488651207E+04  0.25500000920E-02 0. -1.
       -2   -1    0    0    0  501  0.00000000000E+00  0.00000000000E+00 -0.11647170806E+04  0.11647170806E+04  0.25500000920E-02 0.  1.
    10030    2    1    2    0    0  0.00000000000E+00  0.00000000000E+00  0.88414804004E+03  0.32135822013E+04  0.30895619119E+04 0.  0.
        3    1    3    3  502    0  0.10730004705E+04  0.11112663048E+04  0.45275167283E+03  0.16097288272E+04  0.10100000352E+00 0.  1.
       -3    1    3    3    0  502 -0.10730004705E+04 -0.11112663048E+04  0.43139636721E+03  0.16038533741E+04  0.10100000352E+00 0. -1.
</event>
<event>
 5   0  0.1830902E-07  0.3099015E+04  0.7818609E-02  0.8216008E-01
        1   -1    0    0  501    0  0.00000000000E+00  0.00000000000E+00  0.15563747989E+04  0.15563747989E+04  0.50400001928E-02 0. -1.
       -1   -1    0    0    0  501  0.00000000000E+00  0.00000000000E+00 -0.15426703996E+04  0.15426703996E+04  0.50400001928E-02 0.  1.
    10030    2    1    2    0    0  0.00000000000E+00  0.00000000000E+00  0.13704399319E+02  0.30990451985E+04  0.30990148970E+04 0.  0.
        3    1    3    3  502    0 -0.75600738765E+03  0.19211850077E+03  0.13457142867E+04  0.15554432295E+04  0.10100000352E+00 0. -1.
       -3    1    3    3    0  502  0.75600738765E+03 -0.19211850077E+03 -0.13320098874E+04  0.15436019690E+04  0.10100000352E+00 0.  1.
</event>
<event>
 5   0  0.5248309E-07  0.3075534E+04  0.7818609E-02  0.8222485E-01
        2   -1    0    0  501    0  0.00000000000E+00  0.00000000000E+00  0.15840594203E+04  0.15840594203E+04  0.25500000920E-02 0. -1.
       -2   -1    0    0    0  501  0.00000000000E+00  0.00000000000E+00 -0.14928277764E+04  0.14928277764E+04  0.25500000920E-02 0.  1.
    10030    2    1    2    0    0  0.00000000000E+00  0.00000000000E+00  0.91231643938E+02  0.30768871967E+04  0.30755343615E+04 0.  0.
        4    1    3    3  502    0 -0.15066645248E+04 -0.29618599592E+03  0.12909205250E+03  0.15409187212E+04  0.12699999809E+01 0.  1.
       -4    1    3    3    0  502  0.15066645248E+04  0.29618599592E+03 -0.37860408565E+02  0.15359684755E+04  0.12699999809E+01 0. -1.
</event>
<event>
 5   0  0.1840359E-07  0.3099225E+04  0.7818609E-02  0.8215951E-01
        1   -1    0    0  501    0  0.00000000000E+00  0.00000000000E+00  0.99193426502E+03  0.99193426504E+03  0.50400001928E-02 0. -1.
       -1   -1    0    0    0  501  0.00000000000E+00  0.00000000000E+00 -0.24208246830E+04  0.24208246830E+04  0.50400001928E-02 0.  1.
    10030    2    1    2    0    0  0.00000000000E+00  0.00000000000E+00 -0.14288904180E+04  0.34127589481E+04  0.30992250339E+04 0.  0.
        1    1    3    3  502    0  0.15768686117E+03 -0.13165463494E+04  0.16864506161E+03  0.13366377943E+04  0.50400001928E-02 0. -1.
       -1    1    3    3    0  502 -0.15768686117E+03  0.13165463494E+04 -0.15975354796E+04  0.20761211538E+04  0.50400001928E-02 0.  1.
</event>
<event>
 5   0  0.5376678E-07  0.3099240E+04  0.7818609E-02  0.8215947E-01
        2   -1    0    0  501    0  0.00000000000E+00  0.00000000000E+00  0.13749513739E+04  0.13749513739E+04  0.25500000920E-02 0.  1.
       -2   -1    0    0    0  501  0.00000000000E+00  0.00000000000E+00 -0.17464778051E+04  0.17464778051E+04  0.25500000920E-02 0. -1.
    10030    2    1    2    0    0  0.00000000000E+00  0.00000000000E+00 -0.37152643124E+03  0.31214291790E+04  0.30992399440E+04 0.  0.
        5    1    3    3  502    0  0.37399424217E+03 -0.90476339061E+03 -0.13955423505E+04  0.17047079012E+04  0.46999998093E+01 0. -1.
       -5    1    3    3    0  502 -0.37399424217E+03  0.90476339061E+03  0.10240159193E+04  0.14167212779E+04  0.46999998093E+01 0.  1.
</event>
<event>
 5   0  0.1814075E-07  0.3102625E+04  0.7818609E-02  0.8215018E-01
       -1   -1    0    0    0  501  0.00000000000E+00  0.00000000000E+00  0.12058327151E+04  0.12058327151E+04  0.50400001928E-02 0. -1.
        1   -1    0    0  501    0  0.00000000000E+00  0.00000000000E+00 -0.19957753707E+04  0.19957753708E+04  0.50400001928E-02 0.  1.
    10030    2    1    2    0    0  0.00000000000E+00  0.00000000000E+00 -0.78994265566E+03  0.32016080858E+04  0.31026254908E+04 0.  0.
        5    1    3    3  502    0 -0.63156863074E+03  0.13904524721E+04 -0.11367201535E+03  0.15313981944E+04  0.46999998093E+01 0. -1.
       -5    1    3    3    0  502  0.63156863074E+03 -0.13904524721E+04 -0.67627064031E+03  0.16702098915E+04  0.46999998093E+01 0.  1.
</event>
<event>
 5   0  0.1814075E-07  0.3102213E+04  0.7818609E-02  0.8215131E-01
        1   -1    0    0  501    0  0.00000000000E+00  0.00000000000E+00  0.16690571023E+04  0.16690571023E+04  0.50400001928E-02 0. -1.
       -1   -1    0    0    0  501  0.00000000000E+00  0.00000000000E+00 -0.14414914525E+04  0.14414914525E+04  0.50400001928E-02 0.  1.
    10030    2    1    2    0    0  0.00000000000E+00  0.00000000000E+00  0.22756564986E+03  0.31105485548E+04  0.31022131111E+04 0.  0.
        5    1    3    3  502    0 -0.17181767076E+03 -0.76536557821E+03  0.14555127060E+04  0.16534343373E+04  0.46999998093E+01 0. -1.
       -5    1    3    3    0  502  0.17181767076E+03  0.76536557821E+03 -0.12279470562E+04  0.14571142176E+04  0.46999998093E+01 0.  1.
</event>
<event>
 5   0  0.5376678E-07  0.3096561E+04  0.7818609E-02  0.8216682E-01
       -2   -1    0    0    0  501  0.00000000000E+00  0.00000000000E+00  0.17840056209E+04  0.17840056209E+04  0.25500000920E-02 0.  1.
        2   -1    0    0  501    0  0.00000000000E+00  0.00000000000E+00 -0.13437023714E+04  0.13437023714E+04  0.25500000920E-02 0. -1.
    10030    2    1    2    0    0  0.00000000000E+00  0.00000000000E+00  0.44030324956E+03  0.31277079923E+04  0.30965610496E+04 0.  0.
        5    1    3    3  502    0 -0.26778185524E+03  0.14933290732E+04 -0.91843104748E+02  0.15199329225E+04  0.46999998093E+01 0.  1.
       -5    1    3    3    0  502  0.26778185524E+03 -0.14933290732E+04  0.53214635431E+03  0.16077750699E+04  0.46999998093E+01 0. -1.
</event>
<event>
 5   0  0.1875284E-07  0.3097321E+04  0.7818609E-02  0.8216473E-01
       -1   -1    0    0    0  501  0.00000000000E+00  0.00000000000E+00  0.14702759291E+04  0.14702759291E+04  0.50400001928E-02 0.  1.
        1   -1    0    0  501    0  0.00000000000E+00  0.00000000000E+00 -0.16312242732E+04  0.16312242732E+04  0.50400001928E-02 0. -1.
    10030    2    1    2    0    0  0.00000000000E+00  0.00000000000E+00 -0.16094834408E+03  0.31015002023E+04  0.30973212838E+04 0.  0.
        4    1    3    3  502    0  0.85073299442E+03  0.16059193663E+03  0.12053189456E+04  0.14840255293E+04  0.12699999809E+01 0.  1.
       -4    1    3    3    0  502 -0.85073299442E+03 -0.16059193663E+03 -0.13662672897E+04  0.16174746730E+04  0.12699999809E+01 0. -1.
</event>
<event>
 5   0  0.1875284E-07  0.3145575E+04  0.7818609E-02  0.8203340E-01
       -1   -1    0    0    0  501  0.00000000000E+00  0.00000000000E+00  0.95388127467E+03  0.95388127469E+03  0.50400001928E-02 0. -1.
        1   -1    0    0  501    0  0.00000000000E+00  0.00000000000E+00 -0.25932577698E+04  0.25932577698E+04  0.50400001928E-02 0.  1.
    10030    2    1    2    0    0  0.00000000000E+00  0.00000000000E+00 -0.16393764951E+04  0.35471390445E+04  0.31455746865E+04 0.  0.
        4    1    3    3  502    0  0.12535521884E+04 -0.25466995755E+03 -0.18516103242E+04  0.22504915645E+04  0.12699999809E+01 0.  1.
       -4    1    3    3    0  502 -0.12535521884E+04  0.25466995755E+03  0.21223382908E+03  0.12966474800E+04  0.12699999809E+01 0. -1.
</event>
<event>
 5   0  0.1814075E-07  0.3104521E+04  0.7818609E-02  0.8214498E-01
        1   -1    0    0  501    0  0.00000000000E+00  0.00000000000E+00  0.73662078274E+03  0.73662078276E+03  0.50400001928E-02 0.  1.
       -1   -1    0    0    0  501  0.00000000000E+00  0.00000000000E+00 -0.32710346362E+04  0.32710346362E+04  0.50400001928E-02 0. -1.
    10030    2    1    2    0    0  0.00000000000E+00  0.00000000000E+00 -0.25344138535E+04  0.40076554190E+04  0.31045206356E+04 0.  0.
        5    1    3    3  502    0 -0.78888242749E+03 -0.13940810774E+03  0.44913000647E+03  0.91842798172E+03  0.46999998093E+01 0.  1.
       -5    1    3    3    0  502  0.78888242749E+03  0.13940810774E+03 -0.29835438599E+04  0.30892274372E+04  0.46999998093E+01 0. -1.
</event>
<event>
 5   0  0.1875284E-07  0.3087007E+04  0.7818609E-02  0.8219313E-01
       -1   -1    0    0    0  501  0.00000000000E+00  0.00000000000E+00  0.19829174884E+04  0.19829174884E+04  0.50400001928E-02 0. -1.
        1   -1    0    0  501    0  0.00000000000E+00  0.00000000000E+00 -0.12014636292E+04  0.12014636292E+04  0.50400001928E-02 0.  1.
    10030    2    1    2    0    0  0.00000000000E+00  0.00000000000E+00  0.78145385918E+03  0.31843811176E+04  0.30870071215E+04 0.  0.
        4    1    3    3  502    0 -0.58606020581E+03  0.11453994469E+04  0.12702620217E+04  0.18080303300E+04  0.12699999809E+01 0.  1.
       -4    1    3    3    0  502  0.58606020581E+03 -0.11453994469E+04 -0.48880816248E+03  0.13763507876E+04  0.12699999809E+01 0. -1.
</event>
<event>
 5   0  0.1875284E-07  0.3097131E+04  0.7818609E-02  0.8216526E-01
       -1   -1    0    0    0  501  0.00000000000E+00  0.00000000000E+00  0.10462534593E+04  0.10462534593E+04  0.50400001928E-02 0. -1.
        1   -1    0    0  501    0  0.00000000000E+00  0.00000000000E+00 -0.22920398204E+04  0.22920398204E+04  0.50400001928E-02 0.  1.
    10030    2    1    2    0    0  0.00000000000E+00  0.00000000000E+00 -0.12457863611E+04  0.33382932798E+04  0.30971306663E+04 0.  0.
        4    1    3    3  502    0 -0.37830379503E+03 -0.60670313497E+03 -0.21034794176E+04  0.22216727321E+04  0.12699999809E+01 0.  1.
       -4    1    3    3    0  502  0.37830379503E+03  0.60670313497E+03  0.85769305653E+03  0.11166205477E+04  0.12699999809E+01 0. -1.
</event>
<event>
 5   0  0.1875284E-07  0.3099977E+04  0.7818609E-02  0.8215744E-01
       -1   -1    0    0    0  501  0.00000000000E+00  0.00000000000E+00  0.94236648198E+03  0.94236648199E+03  0.50400001928E-02 0.  1.
        1   -1    0    0  501    0  0.00000000000E+00  0.00000000000E+00 -0.25493947788E+04  0.25493947788E+04  0.50400001928E-02 0. -1.
    10030    2    1    2    0    0  0.00000000000E+00  0.00000000000E+00 -0.16070282968E+04  0.34917612608E+04  0.30999768960E+04 0.  0.
        4    1    3    3  502    0  0.62163849325E+03 -0.10615167469E+04 -0.18656702329E+04  0.22347212916E+04  0.12699999809E+01 0. -1.
       -4    1    3    3    0  502 -0.62163849325E+03  0.10615167469E+04  0.25864193609E+03  0.12570399692E+04  0.12699999809E+01 0.  1.
</event>
<event>
 5   0  0.1840359E-07  0.3098595E+04  0.7818609E-02  0.8216124E-01
       -1   -1    0    0    0  501  0.00000000000E+00  0.00000000000E+00  0.10595574996E+04  0.10595574997E+04  0.50400001928E-02 0.  1.
        1   -1    0    0  501    0  0.00000000000E+00  0.00000000000E+00 -0.22654015933E+04  0.22654015933E+04  0.50400001928E-02 0. -1.
    10030    2    1    2    0    0  0.00000000000E+00  0.00000000000E+00 -0.12058440937E+04  0.33249590930E+04  0.30985953256E+04 0.  0.
        1    1    3    3  502    0 -0.11670396478E+04  0.42699820551E+03  0.38987834530E+03  0.13024262479E+04  0.50400001928E-02 0.  1.
       -1    1    3    3    0  502  0.11670396478E+04 -0.42699820551E+03 -0.15957224390E+04  0.20225328451E+04  0.50400001928E-02 0. -1.
</event>
<event>
 5   0  0.5055900E-07  0.3105201E+04  0.7818609E-02  0.8214312E-01
        2   -1    0    0  501    0  0.00000000000E+00  0.00000000000E+00  0.18847003846E+04  0.18847003846E+04  0.25500000920E-02 0.  1.
       -2   -1    0    0    0  501  0.00000000000E+00  0.00000000000E+00 -0.12790190588E+04  0.12790190588E+04  0.25500000920E-02 0. -1.
    10030    2    1    2    0    0  0.00000000000E+00  0.00000000000E+00  0.60568132583E+03  0.31637194433E+04  0.31052006131E+04 0.  0.
        2    1    3    3  502    0  0.64085229622E+03 -0.97407714491E+03 -0.74168698384E+03  0.13818891170E+04  0.25500000920E-02 0. -1.
       -2    1    3    3    0  502 -0.64085229622E+03  0.97407714491E+03  0.13473683097E+04  0.17818303263E+04  0.25500000920E-02 0.  1.
</event>
<event>
 5   0  0.1840359E-07  0.3102494E+04  0.7818609E-02  0.8215054E-01
       -1   -1    0    0    0  501  0.00000000000E+00  0.00000000000E+00  0.32431663225E+04  0.32431663225E+04  0.50400001928E-02 0.  1.
        1   -1    0    0  501    0  0.00000000000E+00  0.00000000000E+00 -0.74198073907E+03  0.74198073908E+03  0.50400001928E-02 0. -1.
    10030    2    1    2    0    0  0.00000000000E+00  0.00000000000E+00  0.25011855835E+04  0.39851470616E+04  0.31024938001E+04 0.  0.
        1    1    3    3  502    0 -0.15350761058E+04 -0.26118312266E+02  0.96560171087E+03  0.18137054560E+04  0.50400001928E-02 0. -1.
       -1    1    3    3    0  502  0.15350761058E+04  0.26118312266E+02  0.15355838726E+04  0.21714416056E+04  0.50400001928E-02 0.  1.
</event>
<event>
 5   0  0.1875284E-07  0.3102063E+04  0.7818609E-02  0.8215172E-01
       -1   -1    0    0    0  501  0.00000000000E+00  0.00000000000E+00  0.18706198737E+04  0.18706198737E+04  0.50400001928E-02 0. -1.
        1   -1    0    0  501    0  0.00000000000E+00  0.00000000000E+00 -0.12860437782E+04  0.12860437782E+04  0.50400001928E-02 0.  1.
    10030    2    1    2    0    0  0.00000000000E+00  0.00000000000E+00  0.58457609547E+03  0.31566636518E+04  0.31020632166E+04 0.  0.
        4    1    3    3  502    0 -0.15466991757E+04  0.11884771754E+02  0.17503030512E+03  0.15566171040E+04  0.12699999809E+01 0.  1.
       -4    1    3    3    0  502  0.15466991757E+04 -0.11884771754E+02  0.40954579035E+03  0.16000465478E+04  0.12699999809E+01 0. -1.
</event>
<event>
 5   0  0.5376678E-07  0.3099671E+04  0.7818609E-02  0.8215828E-01
       -2   -1    0    0    0  501  0.00000000000E+00  0.00000000000E+00  0.89385796955E+03  0.89385796955E+03  0.25500000920E-02 0. -1.
        2   -1    0    0  501    0  0.00000000000E+00  0.00000000000E+00 -0.26872166746E+04  0.26872166746E+04  0.25500000920E-02 0.  1.
    10030    2    1    2    0    0  0.00000000000E+00  0.00000000000E+00 -0.17933587050E+04  0.35810746441E+04  0.30996709764E+04 0.  0.
        5    1    3    3  502    0 -0.21114768082E+00 -0.80299387493E+03  0.63477660404E+03  0.10236027720E+04  0.46999998093E+01 0. -1.
       -5    1    3    3    0  502  0.21114768082E+00  0.80299387493E+03 -0.24281353091E+04  0.25574718722E+04  0.46999998093E+01 0.  1.
</event>
<event>
 5   0  0.5376678E-07  0.3100643E+04  0.7818609E-02  0.8215561E-01
       -2   -1    0    0    0  501  0.00000000000E+00  0.00000000000E+00  0.12502699847E+04  0.12502699847E+04  0.25500000920E-02 0. -1.
        2   -1    0    0  501    0  0.00000000000E+00  0.00000000000E+00 -0.19223820885E+04  0.19223820885E+04  0.25500000920E-02 0.  1.
    10030    2    1    2    0    0  0.00000000000E+00  0.00000000000E+00 -0.67211210379E+03  0.31726520731E+04  0.31006429167E+04 0.  0.
        5    1    3    3  502    0  0.14529595954E+04 -0.58884994036E+01  0.21719336049E+03  0.14691226314E+04  0.46999998093E+01 0.  1.
       -5    1    3    3    0  502 -0.14529595954E+04  0.58884994036E+01 -0.88930546428E+03  0.17035294418E+04  0.46999998093E+01 0. -1.
</event>
<event>
 5   0  0.1830902E-07  0.3098860E+04  0.7818609E-02  0.8216051E-01
        1   -1    0    0  501    0  0.00000000000E+00  0.00000000000E+00  0.18458915249E+04  0.18458915249E+04  0.50400001928E-02 0.  1.
       -1   -1    0    0    0  501  0.00000000000E+00  0.00000000000E+00 -0.13005821836E+04  0.13005821836E+04  0.50400001928E-02 0. -1.
    10030    2    1    2    0    0  0.00000000000E+00  0.00000000000E+00  0.54530934134E+03  0.31464737085E+04  0.30988601970E+04 0.  0.
        3    1    3    3  502    0  0.14644140010E+04  0.16653102171E+03 -0.21269893687E+03  0.14891211487E+04  0.10100000352E+00 0. -1.
       -3    1    3    3    0  502 -0.14644140010E+04 -0.16653102171E+03  0.75800827822E+03  0.16573525598E+04  0.10100000352E+00 0.  1.
</event>
<event>
 5   0  0.1875284E-07  0.3100174E+04  0.7818609E-02  0.8215690E-01
       -1   -1    0    0    0  501  0.00000000000E+00  0.00000000000E+00  0.15998271637E+04  0.15998271637E+04  0.50400001928E-02 0. -1.
        1   -1    0    0  501    0  0.00000000000E+00  0.00000000000E+00 -0.15018928377E+04  0.15018928378E+04  0.50400001928E-02 0.  1.
    10030    2    1    2    0    0  0.00000000000E+00  0.00000000000E+00  0.97934325966E+02  0.31017200015E+04  0.31001735170E+04 0.  0.
        4    1    3    3  502    0 -0.14213245292E+03 -0.14162162826E+04 -0.56525858366E+03  0.15314663145E+04  0.12699999809E+01 0.  1.
       -4    1    3    3    0  502  0.14213245292E+03  0.14162162826E+04  0.66319290962E+03  0.15702536870E+04  0.12699999809E+01 0. -1.
</event>
<event>
 5   0  0.1875284E-07  0.3099250E+04  0.7818609E-02  0.8215944E-01
        1   -1    0    0  501    0  0.00000000000E+00  0.00000000000E+00  0.99759862492E+03  0.99759862494E+03  0.50400001928E-02 0. -1.
       -1   -1    0    0    0  501  0.00000000000E+00  0.00000000000E+00 -0.24071184243E+04  0.24071184243E+04  0.50400001928E-02 0.  1.
    10030    2    1    2    0    0  0.00000000000E+00  0.00000000000E+00 -0.14095197994E+04  0.34047170493E+04  0.30992502514E+04 0.  0.
        4    1    3    3  502    0 -0.84327918378E+03 -0.10225529843E+04 -0.15867632092E+04  0.20674993307E+04  0.12699999809E+01 0.  1.
       -4    1    3    3    0  502  0.84327918378E+03  0.10225529843E+04  0.17724340978E+03  0.13372177186E+04  0.12699999809E+01 0. -1.
</event>
<event>
 5   0  0.5248309E-07  0.3100491E+04  0.7818609E-02  0.8215603E-01
        2   -1    0    0  501    0  0.00000000000E+00  0.00000000000E+00  0.15667308228E+04  0.15667308228E+04  0.25500000920E-02 0.  1.
       -2   -1    0    0    0  501  0.00000000000E+00  0.00000000000E+00 -0.15339339565E+04  0.15339339565E+04  0.25500000920E-02 0. -1.
    10030    2    1    2    0    0  0.00000000000E+00  0.00000000000E+00  0.32796866288E+02  0.31006647793E+04  0.31004913222E+04 0.  0.
        4    1    3    3  502    0 -0.70091289181E+03  0.64666272461E+03  0.12386813720E+04  0.15632609237E+04  0.12699999809E+01 0.  1.
       -4    1    3    3    0  502  0.70091289181E+03 -0.64666272461E+03 -0.12058845057E+04  0.15374038556E+04  0.12699999809E+01 0. -1.
</event>
<event>
 5   0  0.1727000E-07  0.3101396E+04  0.7818609E-02  0.8215355E-01
       -3   -1    0    0    0  501  0.00000000000E+00  0.00000000000E+00  0.96108345816E+03  0.96108346346E+03  0.10100000352E+00 0.  1.
        3   -1    0    0  501    0  0.00000000000E+00  0.00000000000E+00 -0.25020347746E+04  0.25020347766E+04  0.10100000352E+00 0. -1.
    10030    2    1    2    0    0  0.00000000000E+00  0.00000000000E+00 -0.15409513164E+04  0.34631182401E+04  0.31013959736E+04 0.  0.
        4    1    3    3  502    0 -0.12161070851E+04 -0.64235718635E+03 -0.15703486383E+04  0.20874711150E+04  0.12699999809E+01 0. -1.
       -4    1    3    3    0  502  0.12161070851E+04  0.64235718635E+03  0.29397321913E+02  0.13756471251E+04  0.12699999809E+01 0.  1.
</event>
<event>
 5   0  0.1830902E-07  0.3097419E+04  0.7818609E-02  0.8216447E-01
       -1   -1    0    0    0  501  0.00000000000E+00  0.00000000000E+00  0.91880073107E+03  0.91880073108E+03  0.50400001928E-02 0.  1.
        1   -1    0    0  501    0  0.00000000000E+00  0.00000000000E+00 -0.26104695032E+04  0.26104695032E+04  0.50400001928E-02 0. -1.
    10030    2    1    2    0    0  0.00000000000E+00  0.00000000000E+00 -0.16916687721E+04  0.35292702343E+04  0.30974191115E+04 0.  0.
        3    1    3    3  502    0  0.11169561063E+04 -0.75630364286E+03  0.21112300865E+02  0.13490855729E+04  0.10100000352E+00 0.  1.
       -3    1    3    3    0  502 -0.11169561063E+04  0.75630364286E+03 -0.17127810730E+04  0.21801846614E+04  0.10100000352E+00 0. -1.
</event>
<event>
 5   0  0.5055900E-07  0.3108961E+04  0.7818609E-02  0.8213283E-01
        2   -1    0    0  501    0  0.00000000000E+00  0.00000000000E+00  0.15466435270E+04  0.15466435270E+04  0.25500000920E-02 0. -1.
       -2   -1    0    0    0  501  0.00000000000E+00  0.00000000000E+00 -0.15623570446E+04  0.15623570446E+04  0.25500000920E-02 0.  1.
    10030    2    1    2    0    0  0.00000000000E+00  0.00000000000E+00 -0.15713517572E+02  0.31090005716E+04  0.31089608617E+04 0.  0.
        2    1    3    3  502    0  0.83231915804E+03 -0.55800727410E+03  0.11805531825E+04  0.15484938216E+04  0.25500000920E-02 0. -1.
       -2    1    3    3    0  502 -0.83231915804E+03  0.55800727410E+03 -0.11962667001E+04  0.15605067499E+04  0.25500000920E-02 0.  1.
</event>
<event>
 5   0  0.5376678E-07  0.3111096E+04  0.7818609E-02  0.8212699E-01
       -2   -1    0    0    0  501  0.00000000000E+00  0.00000000000E+00  0.18715421789E+04  0.18715421789E+04  0.25500000920E-02 0. -1.
        2   -1    0    0  501    0  0.00000000000E+00  0.00000000000E+00 -0.12929068130E+04  0.12929068130E+04  0.25500000920E-02 0.  1.
    10030    2    1    2    0    0  0.00000000000E+00  0.00000000000E+00  0.57863536589E+03  0.31644489918E+04  0.31110960344E+04 0.  0.
        5    1    3    3  502    0 -0.44004091089E+03 -0.89503916516E+03 -0.92487754961E+03  0.13602028092E+04  0.46999998093E+01 0.  1.
       -5    1    3    3    0  502  0.44004091089E+03  0.89503916516E+03  0.15035129155E+04  0.18042461826E+04  0.46999998093E+01 0. -1.
</event>
<event>
 5   0  0.5342534E-07  0.3095815E+04  0.7818609E-02  0.8216887E-01
       -2   -1    0    0    0  501  0.00000000000E+00  0.00000000000E+00  0.14620734182E+04  0.14620734182E+04  0.25500000920E-02 0. -1.
        2   -1    0    0  501    0  0.00000000000E+00  0.00000000000E+00 -0.16387806809E+04  0.16387806809E+04  0.25500000920E-02 0.  1.
    10030    2    1    2    0    0  0.00000000000E+00  0.00000000000E+00 -0.17670726265E+03  0.31008540991E+04  0.30958150280E+04 0.  0.
        3    1    3    3  502    0 -0.60570484135E+02  0.14600510742E+04  0.42296699979E+03  0.15212886038E+04  0.10100000352E+00 0. -1.
       -3    1    3    3    0  502  0.60570484135E+02 -0.14600510742E+04 -0.59967426245E+03  0.15795654954E+04  0.10100000352E+00 0.  1.
</event>
<event>
 5   0  0.1845123E-07  0.3099484E+04  0.7818609E-02  0.8215879E-01
        1   -1    0    0  501    0  0.00000000000E+00  0.00000000000E+00  0.26327627470E+04  0.26327627470E+04  0.50400001928E-02 0.  1.
       -1   -1    0    0    0  501  0.00000000000E+00  0.00000000000E+00 -0.91223593661E+03  0.91223593663E+03  0.50400001928E-02 0. -1.
    10030    2    1    2    0    0  0.00000000000E+00  0.00000000000E+00  0.17205268103E+04  0.35449986836E+04  0.30994843380E+04 0.  0.
        2    1    3    3  502    0  0.12027468672E+04 -0.34834681206E+03 -0.18408624621E+03  0.12656355218E+04  0.25500000920E-02 0. -1.
       -2    1    3    3    0  502 -0.12027468672E+04  0.34834681206E+03  0.19046130565E+04  0.22793631618E+04  0.25500000920E-02 0.  1.
</event>
<event>
 5   0  0.5342534E-07  0.3096393E+04  0.7818609E-02  0.8216728E-01
       -2   -1    0    0    0  501  0.00000000000E+00  0.00000000000E+00  0.13639931008E+04  0.13639931008E+04  0.25500000920E-02 0. -1.
        2   -1    0    0  501    0  0.00000000000E+00  0.00000000000E+00 -0.17572764463E+04  0.17572764463E+04  0.25500000920E-02 0.  1.
    10030    2    1    2    0    0  0.00000000000E+00  0.00000000000E+00 -0.39328334548E+03  0.31212695471E+04  0.30963933529E+04 0.  0.
        3    1    3    3  502    0  0.54652051671E+03  0.87766037583E+03 -0.13582626909E+04  0.17070002807E+04  0.10100000352E+00 0.  1.
       -3    1    3    3    0  502 -0.54652051671E+03 -0.87766037583E+03  0.96497934547E+03  0.14142692664E+04  0.10100000352E+00 0. -1.
</event>
<event>
 5   0  0.1814075E-07  0.3112339E+04  0.7818609E-02  0.8212360E-01
        1   -1    0    0  501    0  0.00000000000E+00  0.00000000000E+00  0.86630202995E+03  0.86630202996E+03  0.50400001928E-02 0.  1.
       -1   -1    0    0    0  501  0.00000000000E+00  0.00000000000E+00 -0.27954028134E+04  0.27954028134E+04  0.50400001928E-02 0. -1.
    10030    2    1    2    0    0  0.00000000000E+00  0.00000000000E+00 -0.19291007834E+04  0.36617048433E+04  0.31123387552E+04 0.  0.
        5    1    3    3  502    0 -0.14440537828E+03 -0.14322194496E+03  0.85058947907E+03  0.87457989383E+03  0.46999998093E+01 0.  1.
       -5    1    3    3    0  502  0.14440537828E+03  0.14322194496E+03 -0.27796902625E+04  0.27871249495E+04  0.46999998093E+01 0. -1.
</event>
<event>
 5   0  0.1830902E-07  0.3105235E+04  0.7818609E-02  0.8214303E-01
        1   -1    0    0  501    0  0.00000000000E+00  0.00000000000E+00  0.21060516202E+04  0.21060516202E+04  0.50400001928E-02 0. -1.
       -1   -1    0    0    0  501  0.00000000000E+00  0.00000000000E+00 -0.11446160446E+04  0.11446160446E+04  0.50400001928E-02 0.  1.
    10030    2    1    2    0    0  0.00000000000E+00  0.00000000000E+00  0.96143557557E+03  0.32506676648E+04  0.31052345968E+04 0.  0.
        3    1    3    3  502    0  0.12957780861E+04 -0.31806952354E+03 -0.35045282993E+03  0.13795021807E+04  0.10100000352E+00 0.  1.
       -3    1    3    3    0  502 -0.12957780861E+04  0.31806952354E+03  0.13118884055E+04  0.18711654841E+04  0.10100000352E+00 0. -1.
</event>
<event>
 5   0  0.1875284E-07  0.3104018E+04  0.7818609E-02  0.8214636E-01
       -1   -1    0    0    0  501  0.00000000000E+00  0.00000000000E+00  0.16164776477E+04  0.16164776477E+04  0.50400001928E-02 0. -1.
        1   -1    0    0  501    0  0.00000000000E+00  0.00000000000E+00 -0.14901117023E+04  0.14901117023E+04  0.50400001928E-02 0.  1.
    10030    2    1    2    0    0  0.00000000000E+00  0.00000000000E+00  0.12636594539E+03  0.31065893500E+04  0.31040182083E+04 0.  0.
        4    1    3    3  502    0  0.13387545159E+03  0.26211428339E+03 -0.14619244426E+04  0.14912582683E+04  0.12699999809E+01 0.  1.
       -4    1    3    3    0  502 -0.13387545159E+03 -0.26211428339E+03  0.15882903880E+04  0.16153310817E+04  0.12699999809E+01 0. -1.
</event>
<event>
 5   0  0.5248309E-07  0.3114317E+04  0.7818609E-02  0.8211820E-01
       -2   -1    0    0    0  501  0.00000000000E+00  0.00000000000E+00  0.19386384398E+04  0.19386384398E+04  0.25500000920E-02 0. -1.
        2   -1    0    0  501    0  0.00000000000E+00  0.00000000000E+00 -0.12507453492E+04  0.12507453493E+04  0.25500000920E-02 0.  1.
    10030    2    1    2    0    0  0.00000000000E+00  0.00000000000E+00  0.68789309052E+03  0.31893837890E+04  0.31143172686E+04 0.  0.
        4    1    3    3  502    0  0.41010941125E+03  0.53194673225E+03 -0.10947585255E+04  0.12843889197E+04  0.12699999809E+01 0.  1.
       -4    1    3    3    0  502 -0.41010941125E+03 -0.53194673225E+03  0.17826516160E+04  0.19049948693E+04  0.12699999809E+01 0. -1.
</event>
<event>
 5   0  0.1875284E-07  0.3099276E+04  0.7818609E-02  0.8215937E-01
       -1   -1    0    0    0  501  0.00000000000E+00  0.00000000000E+00  0.18502918257E+04  0.18502918257E+04  0.50400001928E-02 0.  1.
        1   -1    0    0  501    0  0.00000000000E+00  0.00000000000E+00 -0.12978375729E+04  0.12978375729E+04  0.50400001928E-02 0. -1.
    10030    2    1    2    0    0  0.00000000000E+00  0.00000000000E+00  0.55245425282E+03  0.31481293986E+04  0.30992762073E+04 0.  0.
        4    1    3    3  502    0 -0.22830723516E+03 -0.47163647309E+02 -0.12799227818E+04  0.13009813771E+04  0.12699999809E+01 0. -1.
       -4    1    3    3    0  502  0.22830723516E+03  0.47163647309E+02  0.18323770347E+04  0.18471480215E+04  0.12699999809E+01 0.  1.
</event>
<event>
 5   0  0.5376678E-07  0.3099374E+04  0.7818609E-02  0.8215910E-01
       -2   -1    0    0    0  501  0.00000000000E+00  0.00000000000E+00  0.14369524703E+04  0.14369524703E+04  0.25500000920E-02 0.  1.
        2   -1    0    0  501    0  0.00000000000E+00  0.00000000000E+00 -0.16712657851E+04  0.16712657851E+04  0.25500000920E-02 0. -1.
    10030    2    1    2    0    0  0.00000000000E+00  0.00000000000E+00 -0.23431331483E+03  0.31082182554E+04  0.30993738067E+04 0.  0.
        5    1    3    3  502    0 -0.92558650749E+03 -0.77255489670E+03  0.85925201575E+03  0.14805024714E+04  0.46999998093E+01 0.  1.
       -5    1    3    3    0  502  0.92558650749E+03  0.77255489670E+03 -0.10935653306E+04  0.16277157840E+04  0.46999998093E+01 0. -1.
</event>
<event>
 5   0  0.1830902E-07  0.3112013E+04  0.7818609E-02  0.8212449E-01
       -1   -1    0    0    0  501  0.00000000000E+00  0.00000000000E+00  0.94362432919E+03  0.94362432920E+03  0.50400001928E-02 0.  1.
        1   -1    0    0  501    0  0.00000000000E+00  0.00000000000E+00 -0.25658046507E+04  0.25658046507E+04  0.50400001928E-02 0. -1.
    10030    2    1    2    0    0  0.00000000000E+00  0.00000000000E+00 -0.16221803215E+04  0.35094289799E+04  0.31120126558E+04 0.  0.
        3    1    3    3  502    0  0.28434680555E+03 -0.46953426184E+03  0.83080967963E+03  0.99577119000E+03  0.10100000352E+00 0.  1.
       -3    1    3    3    0  502 -0.28434680555E+03  0.46953426184E+03 -0.24529900012E+04  0.25136577899E+04  0.10100000352E+00 0. -1.
</event>
<event>
 5   0  0.5055900E-07  0.3099065E+04  0.7818609E-02  0.8215995E-01
        2   -1    0    0  501    0  0.00000000000E+00  0.00000000000E+00  0.21067931873E+04  0.21067931873E+04  0.25500000920E-02 0. -1.
       -2   -1    0    0    0  501  0.00000000000E+00  0.00000000000E+00 -0.11396710849E+04  0.11396710849E+04  0.25500000920E-02 0.  1.
    10030    2    1    2    0    0  0.00000000000E+00  0.00000000000E+00  0.96712210240E+03  0.32464642722E+04  0.30990651993E+04 0.  0.
        2    1    3    3  502    0  0.61494297508E+03 -0.10675714970E+04 -0.50091776335E+03  0.13299557772E+04  0.25500000920E-02 0.  1.
       -2    1    3    3    0  502 -0.61494297508E+03  0.10675714970E+04  0.14680398658E+04  0.19165084949E+04  0.25500000920E-02 0. -1.
</event>
<event>
 5   0  0.5248309E-07  0.3085335E+04  0.7818609E-02  0.8219774E-01
       -2   -1    0    0    0  501  0.00000000000E+00  0.00000000000E+00  0.11050478852E+04  0.11050478852E+04  0.25500000920E-02 0. -1.
        2   -1    0    0  501    0  0.00000000000E+00  0.00000000000E+00 -0.21535924222E+04  0.21535924222E+04  0.25500000920E-02 0.  1.
    10030    2    1    2    0    0  0.00000000000E+00  0.00000000000E+00 -0.10485445370E+04  0.32586403074E+04  0.30853348290E+04 0.  0.
        4    1    3    3  502    0  0.15346579672E+04  0.15563858313E+03 -0.50255790226E+03  0.16223330432E+04  0.12699999809E+01 0.  1.
       -4    1    3    3    0  502 -0.15346579672E+04 -0.15563858313E+03 -0.54598663479E+03  0.16363072643E+04  0.12699999809E+01 0. -1.
</event>
<event>
 5   0  0.5055900E-07  0.3100388E+04  0.7818609E-02  0.8215631E-01
       -2   -1    0    0    0  501  0.00000000000E+00  0.00000000000E+00  0.10675290260E+04  0.10675290260E+04  0.25500000920E-02 0. -1.
        2   -1    0    0  501    0  0.00000000000E+00  0.00000000000E+00 -0.22510883803E+04  0.22510883803E+04  0.25500000920E-02 0.  1.
    10030    2    1    2    0    0  0.00000000000E+00  0.00000000000E+00 -0.11835593544E+04  0.33186174063E+04  0.31003884828E+04 0.  0.
        2    1    3    3  502    0  0.64772042893E+02 -0.44655365042E+03  0.99568006301E+03  0.10931534056E+04  0.25500000920E-02 0. -1.
       -2    1    3    3    0  502 -0.64772042893E+02  0.44655365042E+03 -0.21792394174E+04  0.22254640007E+04  0.25500000920E-02 0.  1.
</event>
<event>
 5   0  0.1875284E-07  0.3100553E+04  0.7818609E-02  0.8215586E-01
        1   -1    0    0  501    0  0.00000000000E+00  0.00000000000E+00  0.19250861980E+04  0.19250861981E+04  0.50400001928E-02 0.  1.
       -1   -1    0    0    0  501  0.00000000000E+00  0.00000000000E+00 -0.12484411181E+04  0.12484411181E+04  0.50400001928E-02 0. -1.
    10030    2    1    2    0    0  0.00000000000E+00  0.00000000000E+00  0.67664507998E+03  0.31735273161E+04  0.31005527027E+04 0.  0.
        4    1    3    3  502    0 -0.15340904584E+04  0.10648294375E+03  0.13727390752E+03  0.15438969818E+04  0.12699999809E+01 0. -1.
       -4    1    3    3    0  502  0.15340904584E+04 -0.10648294375E+03  0.53937117245E+03  0.16296303343E+04  0.12699999809E+01 0.  1.
</event>
<event>
 5   0  0.5376678E-07  0.3098782E+04  0.7818609E-02  0.8216072E-01
        2   -1    0    0  501    0  0.00000000000E+00  0.00000000000E+00  0.83312865166E+03  0.83312865166E+03  0.25500000920E-02 0.  1.
       -2   -1    0    0    0  501  0.00000000000E+00  0.00000000000E+00 -0.28814435023E+04  0.28814435023E+04  0.25500000920E-02 0. -1.
    10030    2    1    2    0    0  0.00000000000E+00  0.00000000000E+00 -0.20483148507E+04  0.37145721540E+04  0.30987824318E+04 0.  0.
        5    1    3    3  502    0  0.15104198830E+04 -0.33672554188E+03 -0.93256128913E+03  0.18067775074E+04  0.46999998093E+01 0.  1.
       -5    1    3    3    0  502 -0.15104198830E+04  0.33672554188E+03 -0.11157535616E+04  0.19077946466E+04  0.46999998093E+01 0. -1.
</event>
<event>
 5   0  0.1845123E-07  0.3100515E+04  0.7818609E-02  0.8215597E-01
        1   -1    0    0  501    0  0.00000000000E+00  0.00000000000E+00  0.15355356694E+04  0.15355356694E+04  0.50400001928E-02 0.  1.
       -1   -1    0    0    0  501  0.00000000000E+00  0.00000000000E+00 -0.15651201393E+04  0.15651201393E+04  0.50400001928E-02 0. -1.
    10030    2    1    2    0    0  0.00000000000E+00  0.00000000000E+00 -0.29584469859E+02  0.31006558087E+04  0.31005146674E+04 0.  0.
        2    1    3    3  502    0 -0.11988955951E+04  0.97380966799E+03 -0.14762103242E+03  0.15515952716E+04  0.25500000920E-02 0. -1.
       -2    1    3    3    0  502  0.11988955951E+04 -0.97380966799E+03  0.11803656256E+03  0.15490605371E+04  0.25500000920E-02 0.  1.
</event>
<event>
 5   0  0.1840359E-07  0.3116427E+04  0.7818609E-02  0.8211244E-01
        1   -1    0    0  501    0  0.00000000000E+00  0.00000000000E+00  0.22752899097E+04  0.22752899098E+04  0.50400001928E-02 0. -1.
       -1   -1    0    0    0  501  0.00000000000E+00  0.00000000000E+00 -0.10671294055E+04  0.10671294055E+04  0.50400001928E-02 0.  1.
    10030    2    1    2    0    0  0.00000000000E+00  0.00000000000E+00  0.12081605042E+04  0.33424193153E+04  0.31164266516E+04 0.  0.
        1    1    3    3  502    0 -0.95339831711E+03 -0.10548743386E+04 -0.79560158463E+02  0.14240990275E+04  0.50400001928E-02 0.  1.
       -1    1    3    3    0  502  0.95339831711E+03  0.10548743386E+04  0.12877206627E+04  0.19183202878E+04  0.50400001928E-02 0. -1.
</event>
<event>
 5   0  0.1814075E-07  0.3076246E+04  0.7818609E-02  0.8222287E-01
        1   -1    0    0  501    0  0.00000000000E+00  0.00000000000E+00  0.24012179634E+04  0.24012179634E+04  0.50400001928E-02 0.  1.
       -1   -1    0    0    0  501  0.00000000000E+00  0.00000000000E+00 -0.98525935686E+03  0.98525935688E+03  0.50400001928E-02 0. -1.
    10030    2    1    2    0    0  0.00000000000E+00  0.00000000000E+00  0.14159586065E+04  0.33864773203E+04  0.30762460671E+04 0.  0.
        5    1    3    3  502    0 -0.29815269634E+03  0.76079218195E+03 -0.72654796479E+03  0.10934321239E+04  0.46999998093E+01 0. -1.
       -5    1    3    3    0  502  0.29815269634E+03 -0.76079218195E+03  0.21425065713E+04  0.22930451964E+04  0.46999998093E+01 0.  1.
</event>
<event>
 5   0  0.1875284E-07  0.3099949E+04  0.7818609E-02  0.8215752E-01
        1   -1    0    0  501    0  0.00000000000E+00  0.00000000000E+00  0.15264557842E+04  0.15264557842E+04  0.50400001928E-02 0. -1.
       -1   -1    0    0    0  501  0.00000000000E+00  0.00000000000E+00 -0.15738553455E+04  0.15738553455E+04  0.50400001928E-02 0.  1.
    10030    2    1    2    0    0  0.00000000000E+00  0.00000000000E+00 -0.47399561260E+02  0.31003111297E+04  0.30999487710E+04 0.  0.
        4    1    3    3  502    0  0.68693426313E+03  0.11537270743E+04 -0.79803452072E+03  0.15619940951E+04  0.12699999809E+01 0.  1.
       -4    1    3    3    0  502 -0.68693426313E+03 -0.11537270743E+04  0.75063495946E+03  0.15383170347E+04  0.12699999809E+01 0. -1.
</event>
<event>
 5   0  0.5154105E-07  0.3095436E+04  0.7818609E-02  0.8216992E-01
       -2   -1    0    0    0  501  0.00000000000E+00  0.00000000000E+00  0.13986092761E+04  0.13986092762E+04  0.25500000920E-02 0.  1.
        2   -1    0    0  501    0  0.00000000000E+00  0.00000000000E+00 -0.17127234155E+04  0.17127234155E+04  0.25500000920E-02 0. -1.
    10030    2    1    2    0    0  0.00000000000E+00  0.00000000000E+00 -0.31411413934E+03  0.31113326916E+04  0.30954359023E+04 0.  0.
        1    1    3    3  502    0  0.12323856610E+04 -0.48779542966E+03 -0.96035601042E+03  0.16367658554E+04  0.50400001928E-02 0. -1.
       -1    1    3    3    0  502 -0.12323856610E+04  0.48779542966E+03  0.64624187108E+03  0.14745668362E+04  0.50400001928E-02 0.  1.
</event>
<event>
 5   0  0.1840359E-07  0.3106084E+04  0.7818609E-02  0.8214070E-01
       -1   -1    0    0    0  501  0.00000000000E+00  0.00000000000E+00  0.15320605261E+04  0.15320605261E+04  0.50400001928E-02 0. -1.
        1   -1    0    0  501    0  0.00000000000E+00  0.00000000000E+00 -0.15743105996E+04  0.15743105996E+04  0.50400001928E-02 0.  1.
    10030    2    1    2    0    0  0.00000000000E+00  0.00000000000E+00 -0.42250073501E+02  0.31063711257E+04  0.31060837886E+04 0.  0.
        1    1    3    3  502    0  0.63481368024E+03  0.11447640896E+04  0.81469499720E+03  0.15418174885E+04  0.50400001928E-02 0. -1.
       -1    1    3    3    0  502 -0.63481368024E+03 -0.11447640896E+04 -0.85694507070E+03  0.15645536372E+04  0.50400001928E-02 0.  1.
</event>
<event>
 5   0  0.5342534E-07  0.3098649E+04  0.7818609E-02  0.8216109E-01
        2   -1    0    0  501    0  0.00000000000E+00  0.00000000000E+00  0.28712121727E+04  0.28712121727E+04  0.25500000920E-02 0. -1.
       -2   -1    0    0    0  501  0.00000000000E+00  0.00000000000E+00 -0.83602567359E+03  0.83602567359E+03  0.25500000920E-02 0.  1.
    10030    2    1    2    0    0  0.00000000000E+00  0.00000000000E+00  0.20351864991E+04  0.37072378463E+04  0.30986494418E+04 0.  0.
        3    1    3    3  502    0  0.95532955846E+03 -0.68782287327E+03 -0.18754426788E+03  0.11920267333E+04  0.10100000352E+00 0.  1.
       -3    1    3    3    0  502 -0.95532955846E+03  0.68782287327E+03  0.22227307670E+04  0.25152111130E+04  0.10100000352E+00 0. -1.
</event>
<event>
 5   0  0.5154105E-07  0.3105596E+04  0.7818609E-02  0.8214204E-01
        2   -1    0    0  501    0  0.00000000000E+00  0.00000000000E+00  0.11376247059E+04  0.11376247059E+04  0.25500000920E-02 0.  1.
       -2   -1    0    0    0  501  0.00000000000E+00  0.00000000000E+00 -0.21194878657E+04  0.21194878657E+04  0.25500000920E-02 0. -1.
    10030    2    1    2    0    0  0.00000000000E+00  0.00000000000E+00 -0.98186315977E+03  0.32571125716E+04  0.31055960844E+04 0.  0.
        1    1    3    3  502    0  0.13579736262E+04  0.71839519052E+03 -0.72777605928E+03  0.16999535322E+04  0.50400001928E-02 0. -1.
       -1    1    3    3    0  502 -0.13579736262E+04 -0.71839519052E+03 -0.25408710049E+03  0.15571590394E+04  0.50400001928E-02 0.  1.
</event>
<event>
 5   0  0.5154105E-07  0.3103478E+04  0.7818609E-02  0.8214784E-01
       -2   -1    0    0    0  501  0.00000000000E+00  0.00000000000E+00  0.15559525948E+04  0.15559525948E+04  0.25500000920E-02 0. -1.
        2   -1    0    0  501    0  0.00000000000E+00  0.00000000000E+00 -0.15475371085E+04  0.15475371085E+04  0.25500000920E-02 0.  1.
    10030    2    1    2    0    0  0.00000000000E+00  0.00000000000E+00  0.84154862701E+01  0.31034897032E+04  0.31034782934E+04 0.  0.
        1    1    3    3  502    0 -0.27161921839E+03 -0.12098868786E+04 -0.92868963590E+03  0.15492151880E+04  0.50400001928E-02 0.  1.
       -1    1    3    3    0  502  0.27161921839E+03  0.12098868786E+04  0.93710512217E+03  0.15542745153E+04  0.50400001928E-02 0. -1.
</event>
<event>
 5   0  0.5376678E-07  0.3128692E+04  0.7818609E-02  0.8207907E-01
       -2   -1    0    0    0  501  0.00000000000E+00  0.00000000000E+00  0.88930568792E+03  0.88930568793E+03  0.25500000920E-02 0.  1.
        2   -1    0    0  501    0  0.00000000000E+00  0.00000000000E+00 -0.27517857174E+04  0.27517857174E+04  0.25500000920E-02 0. -1.
    10030    2    1    2    0    0  0.00000000000E+00  0.00000000000E+00 -0.18624800295E+04  0.36410914054E+04  0.31286921807E+04 0.  0.
        5    1    3    3  502    0 -0.12217614568E+04 -0.60572500951E+03 -0.18232961378E+04  0.22768475445E+04  0.46999998093E+01 0. -1.
       -5    1    3    3    0  502  0.12217614568E+04  0.60572500951E+03 -0.39183891668E+02  0.13642438609E+04  0.46999998093E+01 0.  1.
</event>
<event>
 5   0  0.1814075E-07  0.3088243E+04  0.7818609E-02  0.8218972E-01
        1   -1    0    0  501    0  0.00000000000E+00  0.00000000000E+00  0.16673715786E+04  0.16673715786E+04  0.50400001928E-02 0. -1.
       -1   -1    0    0    0  501  0.00000000000E+00  0.00000000000E+00 -0.14299823065E+04  0.14299823065E+04  0.50400001928E-02 0.  1.
    10030    2    1    2    0    0  0.00000000000E+00  0.00000000000E+00  0.23738927209E+03  0.30973538851E+04  0.30882434203E+04 0.  0.
        5    1    3    3  502    0 -0.14586149285E+04 -0.34054004793E+02 -0.38833860507E+03  0.15098165938E+04  0.46999998093E+01 0.  1.
       -5    1    3    3    0  502  0.14586149285E+04  0.34054004793E+02  0.62572787716E+03  0.15875372912E+04  0.46999998093E+01 0. -1.
</event>
<event>
 5   0  0.5342534E-07  0.3102047E+04  0.7818609E-02  0.8215176E-01
        2   -1    0    0  501    0  0.00000000000E+00  0.00000000000E+00  0.19203800083E+04  0.19203800083E+04  0.25500000920E-02 0. -1.
       -2   -1    0    0    0  501  0.00000000000E+00  0.00000000000E+00 -0.12527070133E+04  0.12527070133E+04  0.25500000920E-02 0.  1.
    10030    2    1    2    0    0  0.00000000000E+00  0.00000000000E+00  0.66767299507E+03  0.31730870216E+04  0.31020467466E+04 0.  0.
        3    1    3    3  502    0 -0.69780888600E+03  0.75378687210E+03  0.15225785552E+04  0.18366756265E+04  0.10100000352E+00 0. -1.
       -3    1    3    3    0  502  0.69780888600E+03 -0.75378687210E+03 -0.85490556016E+03  0.13364113951E+04  0.10100000352E+00 0.  1.
</event>
<event>
 5   0  0.1845123E-07  0.3100581E+04  0.7818609E-02  0.8215579E-01
        1   -1    0    0  501    0  0.00000000000E+00  0.00000000000E+00  0.12225830127E+04  0.12225830127E+04  0.50400001928E-02 0.  1.
       -1   -1    0    0    0  501  0.00000000000E+00  0.00000000000E+00 -0.19658380843E+04  0.19658380843E+04  0.50400001928E-02 0. -1.
    10030    2    1    2    0    0  0.00000000000E+00  0.00000000000E+00 -0.74325507155E+03  0.31884210970E+04  0.31005807505E+04 0.  0.
        2    1    3    3  502    0 -0.68149582182E+03 -0.97875309262E+03  0.64688991949E+03  0.13567832323E+04  0.25500000920E-02 0.  1.
       -2    1    3    3    0  502  0.68149582182E+03  0.97875309262E+03 -0.13901449910E+04  0.18316378648E+04  0.25500000920E-02 0. -1.
</event>
<event>
 5   0  0.1840359E-07  0.3097599E+04  0.7818609E-02  0.8216397E-01
        1   -1    0    0  501    0  0.00000000000E+00  0.00000000000E+00  0.17152044246E+04  0.17152044246E+04  0.50400001928E-02 0.  1.
       -1   -1    0    0    0  501  0.00000000000E+00  0.00000000000E+00 -0.13985383855E+04  0.13985383855E+04  0.50400001928E-02 0. -1.
    10030    2    1    2    0    0  0.00000000000E+00  0.00000000000E+00  0.31666603917E+03  0.31137428101E+04  0.30975985710E+04 0.  0.
        1    1    3    3  502    0  0.10922483353E+04  0.34324068349E+03  0.12068218154E+04  0.16635021753E+04  0.50400001928E-02 0.  1.
       -1    1    3    3    0  502 -0.10922483353E+04 -0.34324068349E+03 -0.89015577626E+03  0.14502406348E+04  0.50400001928E-02 0. -1.
</event>
<event>
 5   0  0.1830902E-07  0.3103400E+04  0.7818609E-02  0.8214805E-01
        1   -1    0    0  501    0  0.00000000000E+00  0.00000000000E+00  0.16457791941E+04  0.16457791941E+04  0.50400001928E-02 0. -1.
       -1   -1    0    0    0  501  0.00000000000E+00  0.00000000000E+00 -0.14629987987E+04  0.14629987987E+04  0.50400001928E-02 0.  1.
    10030    2    1    2    0    0  0.00000000000E+00  0.00000000000E+00  0.18278039545E+03  0.31087779928E+04  0.31034000605E+04 0.  0.
        3    1    3    3  502    0 -0.80418653055E+03 -0.86923894146E+03 -0.91308404651E+03  0.14953310000E+04  0.10100000352E+00 0.  1.
       -3    1    3    3    0  502  0.80418653055E+03  0.86923894146E+03  0.10958644420E+04  0.16134469928E+04  0.10100000352E+00 0. -1.
</event>
<event>
 5   0  0.1830902E-07  0.3105361E+04  0.7818609E-02  0.8214268E-01
       -1   -1    0    0    0  501  0.00000000000E+00  0.00000000000E+00  0.14986632263E+04  0.14986632263E+04  0.50400001928E-02 0.  1.
        1   -1    0    0  501    0  0.00000000000E+00  0.00000000000E+00 -0.16086443664E+04  0.16086443665E+04  0.50400001928E-02 0. -1.
    10030    2    1    2    0    0  0.00000000000E+00  0.00000000000E+00 -0.10998114018E+03  0.31073075927E+04  0.31053606271E+04 0.  0.
        3    1    3    3  502    0 -0.30515758180E+03 -0.55011405238E+03 -0.14754120184E+04  0.16039286938E+04  0.10100000352E+00 0. -1.
       -3    1    3    3    0  502  0.30515758180E+03  0.55011405238E+03  0.13654308782E+04  0.15033788990E+04  0.10100000352E+00 0.  1.
</event>
<event>
 5   0  0.5055900E-07  0.3086766E+04  0.7818609E-02  0.8219379E-01
        2   -1    0    0  501    0  0.00000000000E+00  0.00000000000E+00  0.16456247961E+04  0.16456247961E+04  0.25500000920E-02 0.  1.
       -2   -1    0    0    0  501  0.00000000000E+00  0.00000000000E+00 -0.14474937863E+04  0.14474937863E+04  0.25500000920E-02 0. -1.
    10030    2    1    2    0    0  0.00000000000E+00  0.00000000000E+00  0.19813100980E+03  0.30931185823E+04  0.30867663772E+04 0.  0.
        2    1    3    3  502    0 -0.12839073196E+03 -0.13723130642E+04 -0.59684500309E+03  0.15019824513E+04  0.25500000920E-02 0. -1.
       -2    1    3    3    0  502  0.12839073196E+03  0.13723130642E+04  0.79497601289E+03  0.15911361310E+04  0.25500000920E-02 0.  1.
</event>
<event>
 5   0  0.1814075E-07  0.3100098E+04  0.7818609E-02  0.8215711E-01
        1   -1    0    0  501    0  0.00000000000E+00  0.00000000000E+00  0.16860411268E+04  0.16860411268E+04  0.50400001928E-02 0. -1.
       -1   -1    0    0    0  501  0.00000000000E+00  0.00000000000E+00 -0.14250259801E+04  0.14250259801E+04  0.50400001928E-02 0.  1.
    10030    2    1    2    0    0  0.00000000000E+00  0.00000000000E+00  0.26101514670E+03  0.31110671068E+04  0.31000983269E+04 0.  0.
        5    1    3    3  502    0 -0.11161635479E+04  0.10755419025E+04  0.12614832580E+03  0.15551678173E+04  0.46999998093E+01 0. -1.
       -5    1    3    3    0  502  0.11161635479E+04 -0.10755419025E+04  0.13486682090E+03  0.15558992896E+04  0.46999998093E+01 0.  1.
</event>
<event>
 5   0  0.5376678E-07  0.3101770E+04  0.7818609E-02  0.8215252E-01
       -2   -1    0    0    0  501  0.00000000000E+00  0.00000000000E+00  0.18296595946E+04  0.18296595946E+04  0.25500000920E-02 0.  1.
        2   -1    0    0  501    0  0.00000000000E+00  0.00000000000E+00 -0.13145857462E+04  0.13145857462E+04  0.25500000920E-02 0. -1.
    10030    2    1    2    0    0  0.00000000000E+00  0.00000000000E+00  0.51507384841E+03  0.31442453408E+04  0.31017700904E+04 0.  0.
        5    1    3    3  502    0 -0.69341413082E+03 -0.13839214724E+04  0.35455825747E+03  0.15880161984E+04  0.46999998093E+01 0. -1.
       -5    1    3    3    0  502  0.69341413082E+03  0.13839214724E+04  0.16051559094E+03  0.15562291423E+04  0.46999998093E+01 0.  1.
</event>
<event>
 5   0  0.1845123E-07  0.3102183E+04  0.7818609E-02  0.8215139E-01
       -1   -1    0    0    0  501  0.00000000000E+00  0.00000000000E+00  0.17515136224E+04  0.17515136224E+04  0.50400001928E-02 0. -1.
        1   -1    0    0  501    0  0.00000000000E+00  0.00000000000E+00 -0.13736031558E+04  0.13736031558E+04  0.50400001928E-02 0.  1.
    10030    2    1    2    0    0  0.00000000000E+00  0.00000000000E+00  0.37791046659E+03  0.31251167782E+04  0.31021828696E+04 0.  0.
        2    1    3    3  502    0  0.10260501747E+04 -0.67957658717E+02  0.13587840283E+04  0.17040220774E+04  0.25500000920E-02 0. -1.
       -2    1    3    3    0  502 -0.10260501747E+04  0.67957658717E+02 -0.98087356176E+03  0.14210947008E+04  0.25500000920E-02 0.  1.
</event>
<event>
 5   0  0.5376678E-07  0.3098325E+04  0.7818609E-02  0.8216198E-01
       -2   -1    0    0    0  501  0.00000000000E+00  0.00000000000E+00  0.15626254528E+04  0.15626254528E+04  0.25500000920E-02 0.  1.
        2   -1    0    0  501    0  0.00000000000E+00  0.00000000000E+00 -0.15358156870E+04  0.15358156870E+04  0.25500000920E-02 0. -1.
    10030    2    1    2    0    0  0.00000000000E+00  0.00000000000E+00  0.26809765796E+02  0.30984411398E+04  0.30983251497E+04 0.  0.
        5    1    3    3  502    0  0.87139411304E+03 -0.12489037868E+04 -0.27084900661E+03  0.15467610169E+04  0.46999998093E+01 0. -1.
       -5    1    3    3    0  502 -0.87139411304E+03  0.12489037868E+04  0.29765877240E+03  0.15516801229E+04  0.46999998093E+01 0.  1.
</event>
<event>
 5   0  0.1840359E-07  0.3106024E+04  0.7818609E-02  0.8214087E-01
       -1   -1    0    0    0  501  0.00000000000E+00  0.00000000000E+00  0.10479932429E+04  0.10479932429E+04  0.50400001928E-02 0. -1.
        1   -1    0    0  501    0  0.00000000000E+00  0.00000000000E+00 -0.23013946571E+04  0.23013946571E+04  0.50400001928E-02 0.  1.
    10030    2    1    2    0    0  0.00000000000E+00  0.00000000000E+00 -0.12534014142E+04  0.33493879000E+04  0.31060238569E+04 0.  0.
        1    1    3    3  502    0  0.11691391846E+04  0.42463797010E+03  0.37601744442E+03  0.12994587170E+04  0.50400001928E-02 0. -1.
       -1    1    3    3    0  502 -0.11691391846E+04 -0.42463797010E+03 -0.16294188586E+04  0.20499291831E+04  0.50400001928E-02 0.  1.
</event>
<event>
 5   0  0.1845123E-07  0.3106076E+04  0.7818609E-02  0.8214072E-01
        1   -1    0    0  501    0  0.00000000000E+00  0.00000000000E+00  0.31715881380E+04  0.31715881381E+04  0.50400001928E-02 0.  1.
       -1   -1    0    0    0  501  0.00000000000E+00  0.00000000000E+00 -0.76047940627E+03  0.76047940629E+03  0.50400001928E-02 0. -1.
    10030    2    1    2    0    0  0.00000000000E+00  0.00000000000E+00  0.24111087318E+04  0.39320675443E+04  0.31060762799E+04 0.  0.
        2    1    3    3  502    0  0.23870938275E+03 -0.52372911633E+03 -0.62047892962E+03  0.84632644932E+03  0.25500000920E-02 0. -1.
       -2    1    3    3    0  502 -0.23870938275E+03  0.52372911633E+03  0.30315876614E+04  0.30857410950E+04  0.25500000920E-02 0.  1.
</event>
<event>
 5   0  0.5154105E-07  0.3099711E+04  0.7818609E-02  0.8215817E-01
        2   -1    0    0  501    0  0.00000000000E+00  0.00000000000E+00  0.17365539864E+04  0.17365539864E+04  0.25500000920E-02 0.  1.
       -2   -1    0    0    0  501  0.00000000000E+00  0.00000000000E+00 -0.13832288225E+04  0.13832288225E+04  0.25500000920E-02 0. -1.
    10030    2    1    2    0    0  0.00000000000E+00  0.00000000000E+00  0.35332516391E+03  0.31197828089E+04  0.30997106483E+04 0.  0.
        1    1    3    3  502    0 -0.39895747168E+03 -0.11737805260E+04 -0.75948068892E+03  0.14538702501E+04  0.50400001928E-02 0. -1.
       -1    1    3    3    0  502  0.39895747168E+03  0.11737805260E+04  0.11128058528E+04  0.16659125588E+04  0.50400001928E-02 0.  1.
</event>
<event>
 5   0  0.5154105E-07  0.3150914E+04  0.7818609E-02  0.8201902E-01
        2   -1    0    0  501    0  0.00000000000E+00  0.00000000000E+00  0.18337730353E+04  0.18337730353E+04  0.25500000920E-02 0.  1.
       -2   -1    0    0    0  501  0.00000000000E+00  0.00000000000E+00 -0.13535292714E+04  0.13535292714E+04  0.25500000920E-02 0. -1.
    10030    2    1    2    0    0  0.00000000000E+00  0.00000000000E+00  0.48024376397E+03  0.31873023067E+04  0.31509144580E+04 0.  0.
        1    1    3    3  502    0 -0.20149320408E+03 -0.12629312202E+04 -0.69054146386E+03  0.14534243329E+04  0.50400001928E-02 0. -1.
       -1    1    3    3    0  502  0.20149320408E+03  0.12629312202E+04  0.11707852278E+04  0.17338779738E+04  0.50400001928E-02 0.  1.
</event>
<event>
 5   0  0.1727000E-07  0.3099185E+04  0.7818609E-02  0.8215962E-01
        3   -1    0    0  501    0  0.00000000000E+00  0.00000000000E+00  0.16780468629E+04  0.16780468660E+04  0.10100000352E+00 0. -1.
       -3   -1    0    0    0  501  0.00000000000E+00  0.00000000000E+00 -0.14309710180E+04  0.14309710216E+04  0.10100000352E+00 0.  1.
    10030    2    1    2    0    0  0.00000000000E+00  0.00000000000E+00  0.24707584491E+03  0.31090178876E+04  0.30991846915E+04 0.  0.
        4    1    3    3  502    0 -0.27384371267E+03 -0.35723037746E+03 -0.13639447884E+04  0.14362976434E+04  0.12699999809E+01 0.  1.
       -4    1    3    3    0  502  0.27384371267E+03  0.35723037746E+03  0.16110206333E+04  0.16727202442E+04  0.12699999809E+01 0. -1.
</event>
<event>
 5   0  0.1875284E-07  0.3109640E+04  0.7818609E-02  0.8213097E-01
        1   -1    0    0  501    0  0.00000000000E+00  0.00000000000E+00  0.15667204168E+04  0.15667204168E+04  0.50400001928E-02 0. -1.
       -1   -1    0    0    0  501  0.00000000000E+00  0.00000000000E+00 -0.15430099681E+04  0.15430099681E+04  0.50400001928E-02 0.  1.
    10030    2    1    2    0    0  0.00000000000E+00  0.00000000000E+00  0.23710448691E+02  0.31097303848E+04  0.31096399922E+04 0.  0.
        4    1    3    3  502    0 -0.64266709317E+03  0.12517280793E+04 -0.64969210772E+03  0.15498211590E+04  0.12699999809E+01 0.  1.
       -4    1    3    3    0  502  0.64266709317E+03 -0.12517280793E+04  0.67340255641E+03  0.15599092259E+04  0.12699999809E+01 0. -1.
</event>
<event>
 5   0  0.5376678E-07  0.3098077E+04  0.7818609E-02  0.8216266E-01
        2   -1    0    0  501    0  0.00000000000E+00  0.00000000000E+00  0.11938622700E+04  0.11938622700E+04  0.25500000920E-02 0. -1.
       -2   -1    0    0    0  501  0.00000000000E+00  0.00000000000E+00 -0.20098799954E+04  0.20098799954E+04  0.25500000920E-02 0.  1.
    10030    2    1    2    0    0  0.00000000000E+00  0.00000000000E+00 -0.81601772540E+03  0.32037422654E+04  0.30980767542E+04 0.  0.
        5    1    3    3  502    0  0.15223996312E+04 -0.25549885527E+03 -0.27510500777E+03  0.15680195016E+04  0.46999998093E+01 0.  1.
       -5    1    3    3    0  502 -0.15223996312E+04  0.25549885527E+03 -0.54091271762E+03  0.16357227638E+04  0.46999998093E+01 0. -1.
</event>
<event>
 5   0  0.1814075E-07  0.3102366E+04  0.7818609E-02  0.8215089E-01
        1   -1    0    0  501    0  0.00000000000E+00  0.00000000000E+00  0.19641172786E+04  0.19641172786E+04  0.50400001928E-02 0. -1.
       -1   -1    0    0    0  501  0.00000000000E+00  0.00000000000E+00 -0.12250638774E+04  0.12250638774E+04  0.50400001928E-02 0.  1.
    10030    2    1    2    0    0  0.00000000000E+00  0.00000000000E+00  0.73905340119E+03  0.31891811560E+04  0.31023662769E+04 0.  0.
        5    1    3    3  502    0  0.12643153239E+04 -0.85904427643E+02 -0.55008721527E+03  0.13814813945E+04  0.46999998093E+01 0.  1.
       -5    1    3    3    0  502 -0.12643153239E+04  0.85904427643E+02  0.12891406165E+04  0.18076997615E+04  0.46999998093E+01 0. -1.
</event>
<event>
 5   0  0.1845123E-07  0.3107538E+04  0.7818609E-02  0.8213672E-01
        1   -1    0    0  501    0  0.00000000000E+00  0.00000000000E+00  0.16592102820E+04  0.16592102820E+04  0.50400001928E-02 0. -1.
       -1   -1    0    0    0  501  0.00000000000E+00  0.00000000000E+00 -0.14550285998E+04  0.14550285998E+04  0.50400001928E-02 0.  1.
    10030    2    1    2    0    0  0.00000000000E+00  0.00000000000E+00  0.20418168225E+03  0.31142388818E+04  0.31075381982E+04 0.  0.
        2    1    3    3  502    0 -0.92971170956E+03 -0.12208777027E+04 -0.14193407706E+03  0.15411202128E+04  0.25500000920E-02 0. -1.
       -2    1    3    3    0  502  0.92971170956E+03  0.12208777027E+04  0.34611575931E+03  0.15731186690E+04  0.25500000920E-02 0.  1.
</event>
<event>
 5   0  0.5376678E-07  0.3102287E+04  0.7818609E-02  0.8215111E-01
       -2   -1    0    0    0  501  0.00000000000E+00  0.00000000000E+00  0.16665889616E+04  0.16665889616E+04  0.25500000920E-02 0.  1.
        2   -1    0    0  501    0  0.00000000000E+00  0.00000000000E+00 -0.14436950619E+04  0.14436950619E+04  0.25500000920E-02 0. -1.
    10030    2    1    2    0    0  0.00000000000E+00  0.00000000000E+00  0.22289389965E+03  0.31102840235E+04  0.31022870622E+04 0.  0.
        5    1    3    3  502    0 -0.12514762625E+04  0.83273851241E+03  0.49502683215E+03  0.15826306961E+04  0.46999998093E+01 0.  1.
       -5    1    3    3    0  502  0.12514762625E+04 -0.83273851241E+03 -0.27213293251E+03  0.15276533274E+04  0.46999998093E+01 0. -1.
</event>
<event>
 5   0  0.5154105E-07  0.3100599E+04  0.7818609E-02  0.8215573E-01
       -2   -1    0    0    0  501  0.00000000000E+00  0.00000000000E+00  0.20905577597E+04  0.20905577597E+04  0.25500000920E-02 0.  1.
        2   -1    0    0  501    0  0.00000000000E+00  0.00000000000E+00 -0.11496592461E+04  0.11496592461E+04  0.25500000920E-02 0. -1.
    10030    2    1    2    0    0  0.00000000000E+00  0.00000000000E+00  0.94089851354E+03  0.32402170058E+04  0.31005993343E+04 0.  0.
        1    1    3    3  502    0  0.11471246814E+04  0.67812019547E+03  0.12983914639E+04  0.18605274596E+04  0.50400001928E-02 0.  1.
       -1    1    3    3    0  502 -0.11471246814E+04 -0.67812019547E+03 -0.35749295039E+03  0.13796895462E+04  0.50400001928E-02 0. -1.
</event>
<event>
 5   0  0.1845123E-07  0.3098603E+04  0.7818609E-02  0.8216121E-01
        1   -1    0    0  501    0  0.00000000000E+00  0.00000000000E+00  0.20188159027E+04  0.20188159027E+04  0.50400001928E-02 0.  1.
       -1   -1    0    0    0  501  0.00000000000E+00  0.00000000000E+00 -0.11889819660E+04  0.11889819660E+04  0.50400001928E-02 0. -1.
    10030    2    1    2    0    0  0.00000000000E+00  0.00000000000E+00  0.82983393671E+03  0.32077978687E+04  0.30986033635E+04 0.  0.
        2    1    3    3  502    0  0.18060124618E+03 -0.85606288287E+03  0.17385979031E+04  0.19463255479E+04  0.25500000920E-02 0.  1.
       -2    1    3    3    0  502 -0.18060124618E+03  0.85606288287E+03 -0.90876396642E+03  0.12614723208E+04  0.25500000920E-02 0. -1.
</event>
<event>
 5   0  0.1814075E-07  0.3100824E+04  0.7818609E-02  0.8215512E-01
        1   -1    0    0  501    0  0.00000000000E+00  0.00000000000E+00  0.21578810895E+04  0.21578810895E+04  0.50400001928E-02 0.  1.
       -1   -1    0    0    0  501  0.00000000000E+00  0.00000000000E+00 -0.11139527063E+04  0.11139527063E+04  0.50400001928E-02 0. -1.
    10030    2    1    2    0    0  0.00000000000E+00  0.00000000000E+00  0.10439283831E+04  0.32718337958E+04  0.31008240708E+04 0.  0.
        5    1    3    3  502    0  0.75613013874E+03  0.75514362960E+03  0.17072035036E+04  0.20140855446E+04  0.46999998093E+01 0.  1.
       -5    1    3    3    0  502 -0.75613013874E+03 -0.75514362960E+03 -0.66327512048E+03  0.12577482512E+04  0.46999998093E+01 0. -1.
</event>
<event>
 5   0  0.1830902E-07  0.3096169E+04  0.7818609E-02  0.8216790E-01
       -1   -1    0    0    0  501  0.00000000000E+00  0.00000000000E+00  0.12319736987E+04  0.12319736987E+04  0.50400001928E-02 0.  1.
        1   -1    0    0  501    0  0.00000000000E+00  0.00000000000E+00 -0.19453054188E+04  0.19453054188E+04  0.50400001928E-02 0. -1.
    10030    2    1    2    0    0  0.00000000000E+00  0.00000000000E+00 -0.71333172003E+03  0.31772791175E+04  0.30961686724E+04 0.  0.
        3    1    3    3  502    0 -0.10879811453E+04 -0.24264934955E+03  0.74571214973E+03  0.13411443993E+04  0.10100000352E+00 0.  1.
       -3    1    3    3    0  502  0.10879811453E+04  0.24264934955E+03 -0.14590438698E+04  0.18361347182E+04  0.10100000352E+00 0. -1.
</event>
<event>
 5   0  0.1830902E-07  0.3094877E+04  0.7818609E-02  0.8217145E-01
       -1   -1    0    0    0  501  0.00000000000E+00  0.00000000000E+00  0.15749095820E+04  0.15749095820E+04  0.50400001928E-02 0.  1.
        1   -1    0    0  501    0  0.00000000000E+00  0.00000000000E+00 -0.15204465959E+04  0.15204465959E+04  0.50400001928E-02 0. -1.
    10030    2    1    2    0    0  0.00000000000E+00  0.00000000000E+00  0.54462986168E+02  0.30953561779E+04  0.30948770010E+04 0.  0.
        3    1    3    3  502    0  0.10820557668E+04 -0.11035930427E+04  0.10342475788E+03  0.15490187142E+04  0.10100000352E+00 0. -1.
       -3    1    3    3    0  502 -0.10820557668E+04  0.11035930427E+04 -0.48961771714E+02  0.15463374637E+04  0.10100000352E+00 0.  1.
</event>
<event>
 5   0  0.1814075E-07  0.3105309E+04  0.7818609E-02  0.8214283E-01
       -1   -1    0    0    0  501  0.00000000000E+00  0.00000000000E+00  0.13482043194E+04  0.13482043194E+04  0.50400001928E-02 0.  1.
        1   -1    0    0  501    0  0.00000000000E+00  0.00000000000E+00 -0.17881082456E+04  0.17881082456E+04  0.50400001928E-02 0. -1.
    10030    2    1    2    0    0  0.00000000000E+00  0.00000000000E+00 -0.43990392614E+03  0.31363125650E+04  0.31053085259E+04 0.  0.
        5    1    3    3  502    0 -0.39602048436E+02 -0.38253604730E+03 -0.17392351259E+04  0.17812532282E+04  0.46999998093E+01 0. -1.
       -5    1    3    3    0  502  0.39602048436E+02  0.38253604730E+03  0.12993311997E+04  0.13550593368E+04  0.46999998093E+01 0.  1.
</event>
<event>
 5   0  0.1875284E-07  0.3092334E+04  0.7818609E-02  0.8217845E-01
       -1   -1    0    0    0  501  0.00000000000E+00  0.00000000000E+00  0.19544539278E+04  0.19544539278E+04  0.50400001928E-02 0. -1.
        1   -1    0    0  501    0  0.00000000000E+00  0.00000000000E+00 -0.12231712777E+04  0.12231712777E+04  0.50400001928E-02 0.  1.
    10030    2    1    2    0    0  0.00000000000E+00  0.00000000000E+00  0.73128265010E+03  0.31776252055E+04  0.30923336870E+04 0.  0.
        4    1    3    3  502    0  0.24812745522E+03 -0.50516759848E+03 -0.11141720722E+04  0.12482558055E+04  0.12699999809E+01 0.  1.
       -4    1    3    3    0  502 -0.24812745522E+03  0.50516759848E+03  0.18454547223E+04  0.19293694000E+04  0.12699999809E+01 0. -1.
</event>
<event>
 5   0  0.1814075E-07  0.3099527E+04  0.7818609E-02  0.8215868E-01
        1   -1    0    0  501    0  0.00000000000E+00  0.00000000000E+00  0.24002921719E+04  0.24002921719E+04  0.50400001928E-02 0.  1.
       -1   -1    0    0    0  501  0.00000000000E+00  0.00000000000E+00 -0.10006147068E+04  0.10006147069E+04  0.50400001928E-02 0. -1.
    10030    2    1    2    0    0  0.00000000000E+00  0.00000000000E+00  0.13996774651E+04  0.34009068788E+04  0.30995274788E+04 0.  0.
        5    1    3    3  502    0  0.27668130536E+03  0.11568492997E+04  0.17898581144E+04  0.21490618899E+04  0.46999998093E+01 0.  1.
       -5    1    3    3    0  502 -0.27668130536E+03 -0.11568492997E+04 -0.39018064933E+03  0.12518449889E+04  0.46999998093E+01 0. -1.
</event>
<event>
 5   0  0.5248309E-07  0.3097540E+04  0.7818609E-02  0.8216413E-01
       -2   -1    0    0    0  501  0.00000000000E+00  0.00000000000E+00  0.86872019352E+03  0.86872019352E+03  0.25500000920E-02 0. -1.
        2   -1    0    0  501    0  0.00000000000E+00  0.00000000000E+00 -0.27611745438E+04  0.27611745438E+04  0.25500000920E-02 0.  1.
    10030    2    1    2    0    0  0.00000000000E+00  0.00000000000E+00 -0.18924543503E+04  0.36298947373E+04  0.30975397231E+04 0.  0.
        4    1    3    3  502    0  0.13213990908E+04 -0.75800891931E+03 -0.12735390245E+04  0.19855921884E+04  0.12699999809E+01 0. -1.
       -4    1    3    3    0  502 -0.13213990908E+04  0.75800891931E+03 -0.61891532580E+03  0.16443025489E+04  0.12699999809E+01 0.  1.
</event>
<event>
 5   0  0.1830902E-07  0.3092619E+04  0.7818609E-02  0.8217766E-01
        1   -1    0    0  501    0  0.00000000000E+00  0.00000000000E+00  0.19948346622E+04  0.19948346622E+04  0.50400001928E-02 0. -1.
       -1   -1    0    0    0  501  0.00000000000E+00  0.00000000000E+00 -0.11986323703E+04  0.11986323703E+04  0.50400001928E-02 0.  1.
    10030    2    1    2    0    0  0.00000000000E+00  0.00000000000E+00  0.79620229190E+03  0.31934670325E+04  0.30926192133E+04 0.  0.
        3    1    3    3  502    0  0.96814209548E+03 -0.11917147565E+04  0.20884832745E+03  0.15495485833E+04  0.10100000352E+00 0.  1.
       -3    1    3    3    0  502 -0.96814209548E+03  0.11917147565E+04  0.58735396445E+03  0.16439184492E+04  0.10100000352E+00 0. -1.
</event>
<event>
 5   0  0.5342534E-07  0.3099541E+04  0.7818609E-02  0.8215864E-01
       -2   -1    0    0    0  501  0.00000000000E+00  0.00000000000E+00  0.14714474679E+04  0.14714474679E+04  0.25500000920E-02 0.  1.
        2   -1    0    0  501    0  0.00000000000E+00  0.00000000000E+00 -0.16322623177E+04  0.16322623177E+04  0.25500000920E-02 0. -1.
    10030    2    1    2    0    0  0.00000000000E+00  0.00000000000E+00 -0.16081484980E+03  0.31037097857E+04  0.30995407753E+04 0.  0.
        3    1    3    3  502    0  0.77333561487E+03  0.10306950589E+02 -0.14252082374E+04  0.16215340689E+04  0.10100000352E+00 0. -1.
       -3    1    3    3    0  502 -0.77333561487E+03 -0.10306950589E+02  0.12643933876E+04  0.14821757167E+04  0.10100000352E+00 0.  1.
</event>
<event>
 5   0  0.5342534E-07  0.3053277E+04  0.7818609E-02  0.8228679E-01
       -2   -1    0    0    0  501  0.00000000000E+00  0.00000000000E+00  0.15432351741E+04  0.15432351741E+04  0.25500000920E-02 0.  1.
        2   -1    0    0  501    0  0.00000000000E+00  0.00000000000E+00 -0.15102202086E+04  0.15102202086E+04  0.25500000920E-02 0. -1.
    10030    2    1    2    0    0  0.00000000000E+00  0.00000000000E+00  0.33014965548E+02  0.30534553827E+04  0.30532768932E+04 0.  0.
        3    1    3    3  502    0  0.97090406187E+03  0.38105096840E+03 -0.10983538106E+04  0.15146734438E+04  0.10100000352E+00 0. -1.
       -3    1    3    3    0  502 -0.97090406187E+03 -0.38105096840E+03  0.11313687761E+04  0.15387819390E+04  0.10100000352E+00 0.  1.
</event>
<event>
 5   0  0.1727000E-07  0.3081376E+04  0.7818609E-02  0.8220868E-01
       -4   -1    0    0    0  501  0.00000000000E+00  0.00000000000E+00  0.14197254026E+04  0.14197259707E+04  0.12699999809E+01 0.  1.
        4   -1    0    0  501    0  0.00000000000E+00  0.00000000000E+00 -0.16719553626E+04  0.16719558450E+04  0.12699999809E+01 0. -1.
    10030    2    1    2    0    0  0.00000000000E+00  0.00000000000E+00 -0.25222996000E+03  0.30916818156E+04  0.30813757474E+04 0.  0.
        1    1    3    3  502    0  0.26973586754E+02  0.85644058578E+03  0.11585976217E+04  0.14410296667E+04  0.50400001928E-02 0.  1.
       -1    1    3    3    0  502 -0.26973586754E+02 -0.85644058578E+03 -0.14108275817E+04  0.16506521489E+04  0.50400001928E-02 0. -1.
</event>
<event>
 5   0  0.5376678E-07  0.3105161E+04  0.7818609E-02  0.8214323E-01
       -2   -1    0    0    0  501  0.00000000000E+00  0.00000000000E+00  0.98955856412E+03  0.98955856412E+03  0.25500000920E-02 0.  1.
        2   -1    0    0  501    0  0.00000000000E+00  0.00000000000E+00 -0.24359413260E+04  0.24359413260E+04  0.25500000920E-02 0. -1.
    10030    2    1    2    0    0  0.00000000000E+00  0.00000000000E+00 -0.14463827618E+04  0.34254998901E+04  0.31051612524E+04 0.  0.
        5    1    3    3  502    0 -0.10278378779E+04  0.10701807364E+04 -0.21916888570E+03  0.14999315325E+04  0.46999998093E+01 0.  1.
       -5    1    3    3    0  502  0.10278378779E+04 -0.10701807364E+04 -0.12272138761E+04  0.19255683576E+04  0.46999998093E+01 0. -1.
</event>
<event>
 5   0  0.1814075E-07  0.3099322E+04  0.7818609E-02  0.8215924E-01
        1   -1    0    0  501    0  0.00000000000E+00  0.00000000000E+00  0.11793961806E+04  0.11793961806E+04  0.50400001928E-02 0.  1.
       -1   -1    0    0    0  501  0.00000000000E+00  0.00000000000E+00 -0.20361677347E+04  0.20361677347E+04  0.50400001928E-02 0. -1.
    10030    2    1    2    0    0  0.00000000000E+00  0.00000000000E+00 -0.85677155409E+03  0.32155639153E+04  0.30993215060E+04 0.  0.
        5    1    3    3  502    0 -0.63200102774E+03 -0.38966613807E+03  0.98283616396E+03  0.12317686526E+04  0.46999998093E+01 0.  1.
       -5    1    3    3    0  502  0.63200102774E+03  0.38966613807E+03 -0.18396077180E+04  0.19837952628E+04  0.46999998093E+01 0. -1.
</event>
<event>
 5   0  0.1845123E-07  0.3091115E+04  0.7818609E-02  0.8218180E-01
       -1   -1    0    0    0  501  0.00000000000E+00  0.00000000000E+00  0.98313811042E+03  0.98313811043E+03  0.50400001928E-02 0.  1.
        1   -1    0    0  501    0  0.00000000000E+00  0.00000000000E+00 -0.24297182999E+04  0.24297182999E+04  0.50400001928E-02 0. -1.
    10030    2    1    2    0    0  0.00000000000E+00  0.00000000000E+00 -0.14465801895E+04  0.34128564104E+04  0.30911154351E+04 0.  0.
        2    1    3    3  502    0 -0.80924983585E+03 -0.65433287253E+03 -0.19849039974E+04  0.22411784141E+04  0.25500000920E-02 0. -1.
       -2    1    3    3    0  502  0.80924983585E+03  0.65433287253E+03  0.53832380786E+03  0.11716779963E+04  0.25500000920E-02 0.  1.
</event>
<event>
 5   0  0.5376678E-07  0.3096915E+04  0.7818609E-02  0.8216585E-01
        2   -1    0    0  501    0  0.00000000000E+00  0.00000000000E+00  0.18134834856E+04  0.18134834856E+04  0.25500000920E-02 0. -1.
       -2   -1    0    0    0  501  0.00000000000E+00  0.00000000000E+00 -0.13221630300E+04  0.13221630300E+04  0.25500000920E-02 0.  1.
    10030    2    1    2    0    0  0.00000000000E+00  0.00000000000E+00  0.49132045558E+03  0.31356465156E+04  0.30969151233E+04 0.  0.
        5    1    3    3  502    0  0.12098981688E+04  0.45914028007E+03 -0.61528904266E+03  0.14329222141E+04  0.46999998093E+01 0.  1.
       -5    1    3    3    0  502 -0.12098981688E+04 -0.45914028007E+03  0.11066094982E+04  0.17027243016E+04  0.46999998093E+01 0. -1.
</event>
<event>
 5   0  0.5154105E-07  0.3101179E+04  0.7818609E-02  0.8215415E-01
       -2   -1    0    0    0  501  0.00000000000E+00  0.00000000000E+00  0.95609847642E+03  0.95609847642E+03  0.25500000920E-02 0.  1.
        2   -1    0    0  501    0  0.00000000000E+00  0.00000000000E+00 -0.25147276588E+04  0.25147276588E+04  0.25500000920E-02 0. -1.
    10030    2    1    2    0    0  0.00000000000E+00  0.00000000000E+00 -0.15586291823E+04  0.34708261352E+04  0.31011786683E+04 0.  0.
        1    1    3    3  502    0  0.12716853235E+04 -0.79510143329E+03 -0.12198819080E+04  0.19332567653E+04  0.50400001928E-02 0. -1.
       -1    1    3    3    0  502 -0.12716853235E+04  0.79510143329E+03 -0.33874727432E+03  0.15375693698E+04  0.50400001928E-02 0.  1.
</event>
<event>
 5   0  0.1845123E-07  0.3136547E+04  0.7818609E-02  0.8205779E-01
        1   -1    0    0  501    0  0.00000000000E+00  0.00000000000E+00  0.12351505407E+04  0.12351505407E+04  0.50400001928E-02 0. -1.
       -1   -1    0    0    0  501  0.00000000000E+00  0.00000000000E+00 -0.19912409485E+04  0.19912409485E+04  0.50400001928E-02 0.  1.
    10030    2    1    2    0    0  0.00000000000E+00  0.00000000000E+00 -0.75609040784E+03  0.32263914892E+04  0.31365473593E+04 0.  0.
        2    1    3    3  502    0 -0.35098734299E+03 -0.13408035823E+04  0.37682550385E+03  0.14362951722E+04  0.25500000920E-02 0. -1.
       -2    1    3    3    0  502  0.35098734299E+03  0.13408035823E+04 -0.11329159117E+04  0.17900963170E+04  0.25500000920E-02 0.  1.
</event>
<event>
 5   0  0.5154105E-07  0.3101562E+04  0.7818609E-02  0.8215309E-01
       -2   -1    0    0    0  501  0.00000000000E+00  0.00000000000E+00  0.27241493215E+04  0.27241493215E+04  0.25500000920E-02 0.  1.
        2   -1    0    0  501    0  0.00000000000E+00  0.00000000000E+00 -0.88281573200E+03  0.88281573201E+03  0.25500000920E-02 0. -1.
    10030    2    1    2    0    0  0.00000000000E+00  0.00000000000E+00  0.18413335895E+04  0.36069650535E+04  0.31015621079E+04 0.  0.
        1    1    3    3  502    0  0.85118975501E+03 -0.86263208281E+03  0.20459466935E+04  0.23779310297E+04  0.50400001928E-02 0.  1.
       -1    1    3    3    0  502 -0.85118975501E+03  0.86263208281E+03 -0.20461310400E+03  0.12290340238E+04  0.50400001928E-02 0. -1.
</event>
<event>
 5   0  0.1875284E-07  0.3134575E+04  0.7818609E-02  0.8206313E-01
       -1   -1    0    0    0  501  0.00000000000E+00  0.00000000000E+00  0.17298526381E+04  0.17298526381E+04  0.50400001928E-02 0. -1.
        1   -1    0    0  501    0  0.00000000000E+00  0.00000000000E+00 -0.14199995005E+04  0.14199995006E+04  0.50400001928E-02 0.  1.
    10030    2    1    2    0    0  0.00000000000E+00  0.00000000000E+00  0.30985313753E+03  0.31498521386E+04  0.31345748561E+04 0.  0.
        4    1    3    3  502    0 -0.89059774316E+03  0.12682096379E+04  0.39030791949E+03  0.15980806959E+04  0.12699999809E+01 0.  1.
       -4    1    3    3    0  502  0.89059774316E+03 -0.12682096379E+04 -0.80454781952E+02  0.15517714427E+04  0.12699999809E+01 0. -1.
</event>
<event>
 5   0  0.5342534E-07  0.3101894E+04  0.7818609E-02  0.8215218E-01
       -2   -1    0    0    0  501  0.00000000000E+00  0.00000000000E+00  0.15893046985E+04  0.15893046985E+04  0.25500000920E-02 0. -1.
        2   -1    0    0  501    0  0.00000000000E+00  0.00000000000E+00 -0.15135155200E+04  0.15135155200E+04  0.25500000920E-02 0.  1.
    10030    2    1    2    0    0  0.00000000000E+00  0.00000000000E+00  0.75789178505E+02  0.31028202185E+04  0.31018944709E+04 0.  0.
        3    1    3    3  502    0 -0.10629496051E+04 -0.78291990145E+03  0.85214728254E+03  0.15712989647E+04  0.10100000352E+00 0. -1.
       -3    1    3    3    0  502  0.10629496051E+04  0.78291990145E+03 -0.77635810404E+03  0.15315212538E+04  0.10100000352E+00 0.  1.
</event>
<event>
 5   0  0.1875284E-07  0.3105785E+04  0.7818609E-02  0.8214152E-01
        1   -1    0    0  501    0  0.00000000000E+00  0.00000000000E+00  0.15792005124E+04  0.15792005125E+04  0.50400001928E-02 0. -1.
       -1   -1    0    0    0  501  0.00000000000E+00  0.00000000000E+00 -0.15270223968E+04  0.15270223968E+04  0.50400001928E-02 0.  1.
    10030    2    1    2    0    0  0.00000000000E+00  0.00000000000E+00  0.52178115661E+02  0.31062229093E+04  0.31057846362E+04 0.  0.
        4    1    3    3  502    0  0.53652175850E+03  0.90990412550E+03  0.11645342839E+04  0.15722349781E+04  0.12699999809E+01 0. -1.
       -4    1    3    3    0  502 -0.53652175850E+03 -0.90990412550E+03 -0.11123561683E+04  0.15339879312E+04  0.12699999809E+01 0.  1.
</event>
<event>
 5   0  0.5342534E-07  0.3102171E+04  0.7818609E-02  0.8215142E-01
        2   -1    0    0  501    0  0.00000000000E+00  0.00000000000E+00  0.19122122542E+04  0.19122122542E+04  0.25500000920E-02 0. -1.
       -2   -1    0    0    0  501  0.00000000000E+00  0.00000000000E+00 -0.12581582788E+04  0.12581582788E+04  0.25500000920E-02 0.  1.
    10030    2    1    2    0    0  0.00000000000E+00  0.00000000000E+00  0.65405397535E+03  0.31703705330E+04  0.31021706455E+04 0.  0.
        3    1    3    3  502    0  0.70061121859E+03  0.71528228801E+03  0.15377146308E+04  0.18349526226E+04  0.10100000352E+00 0. -1.
       -3    1    3    3    0  502 -0.70061121859E+03 -0.71528228801E+03 -0.88366065548E+03  0.13354179104E+04  0.10100000352E+00 0.  1.
</event>
<event>
 5   0  0.5248309E-07  0.3099355E+04  0.7818609E-02  0.8215915E-01
        2   -1    0    0  501    0  0.00000000000E+00  0.00000000000E+00  0.80629109062E+03  0.80629109062E+03  0.25500000920E-02 0. -1.
       -2   -1    0    0    0  501  0.00000000000E+00  0.00000000000E+00 -0.29784530970E+04  0.29784530970E+04  0.25500000920E-02 0.  1.
    10030    2    1    2    0    0  0.00000000000E+00  0.00000000000E+00 -0.21721620064E+04  0.37847441876E+04  0.30993548980E+04 0.  0.
        4    1    3    3  502    0  0.11776855504E+03  0.13574223256E+04 -0.19876042539E+04  0.24097794682E+04  0.12699999809E+01 0.  1.
       -4    1    3    3    0  502 -0.11776855504E+03 -0.13574223256E+04 -0.18455775250E+03  0.13749647194E+04  0.12699999809E+01 0. -1.
</event>
<event>
 5   0  0.5055900E-07  0.3096106E+04  0.7818609E-02  0.8216808E-01
        2   -1    0    0  501    0  0.00000000000E+00  0.00000000000E+00  0.14487851734E+04  0.14487851734E+04  0.25500000920E-02 0.  1.
       -2   -1    0    0    0  501  0.00000000000E+00  0.00000000000E+00 -0.16541220307E+04  0.16541220307E+04  0.25500000920E-02 0. -1.
    10030    2    1    2    0    0  0.00000000000E+00  0.00000000000E+00 -0.20533685733E+03  0.31029072041E+04  0.30961056010E+04 0.  0.
        2    1    3    3  502    0 -0.58516995457E+03 -0.44872388287E+03  0.12614574783E+04  0.14611817027E+04  0.25500000920E-02 0.  1.
       -2    1    3    3    0  502  0.58516995457E+03  0.44872388287E+03 -0.14667943357E+04  0.16417255014E+04  0.25500000920E-02 0. -1.
</event>
<event>
 5   0  0.5055900E-07  0.3111563E+04  0.7818609E-02  0.8212572E-01
       -2   -1    0    0    0  501  0.00000000000E+00  0.00000000000E+00  0.20951704087E+04  0.20951704087E+04  0.25500000920E-02 0. -1.
        2   -1    0    0  501    0  0.00000000000E+00  0.00000000000E+00 -0.11552551677E+04  0.11552551677E+04  0.25500000920E-02 0.  1.
    10030    2    1    2    0    0  0.00000000000E+00  0.00000000000E+00  0.93991524095E+03  0.32504255764E+04  0.31115632354E+04 0.  0.
        2    1    3    3  502    0  0.10683025648E+04 -0.11198890280E+04  0.63524216451E+03  0.16730075949E+04  0.25500000920E-02 0. -1.
       -2    1    3    3    0  502 -0.10683025648E+04  0.11198890280E+04  0.30467307644E+03  0.15774179815E+04  0.25500000920E-02 0.  1.
</event>
<event>
 5   0  0.1875284E-07  0.3099554E+04  0.7818609E-02  0.8215860E-01
        1   -1    0    0  501    0  0.00000000000E+00  0.00000000000E+00  0.12954638983E+04  0.12954638983E+04  0.50400001928E-02 0.  1.
       -1   -1    0    0    0  501  0.00000000000E+00  0.00000000000E+00 -0.18540141078E+04  0.18540141078E+04  0.50400001928E-02 0. -1.
    10030    2    1    2    0    0  0.00000000000E+00  0.00000000000E+00 -0.55855020948E+03  0.31494780062E+04  0.30995537380E+04 0.  0.
        4    1    3    3  502    0 -0.12395667713E+04  0.25802730235E+02  0.66554871793E+03  0.14071774125E+04  0.12699999809E+01 0.  1.
       -4    1    3    3    0  502  0.12395667713E+04 -0.25802730235E+02 -0.12240989274E+04  0.17423005936E+04  0.12699999809E+01 0. -1.
</event>
<event>
 5   0  0.5055900E-07  0.3104843E+04  0.7818609E-02  0.8214410E-01
        2   -1    0    0  501    0  0.00000000000E+00  0.00000000000E+00  0.22661147026E+04  0.22661147026E+04  0.25500000920E-02 0. -1.
       -2   -1    0    0    0  501  0.00000000000E+00  0.00000000000E+00 -0.10634997894E+04  0.10634997894E+04  0.25500000920E-02 0.  1.
    10030    2    1    2    0    0  0.00000000000E+00  0.00000000000E+00  0.12026149132E+04  0.33296144919E+04  0.31048429969E+04 0.  0.
        2    1    3    3  502    0  0.13099388337E+04  0.65018441990E+03  0.42701449011E+02  0.14630457757E+04  0.25500000920E-02 0.  1.
       -2    1    3    3    0  502 -0.13099388337E+04 -0.65018441990E+03  0.11599134642E+04  0.18665687162E+04  0.25500000920E-02 0. -1.
</event>
<event>
 5   0  0.5376678E-07  0.3149275E+04  0.7818609E-02  0.8202343E-01
        2   -1    0    0  501    0  0.00000000000E+00  0.00000000000E+00  0.16209828808E+04  0.16209828808E+04  0.25500000920E-02 0.  1.
       -2   -1    0    0    0  501  0.00000000000E+00  0.00000000000E+00 -0.15296171516E+04  0.15296171516E+04  0.25500000920E-02 0. -1.
    10030    2    1    2    0    0  0.00000000000E+00  0.00000000000E+00  0.91365729218E+02  0.31506000325E+04  0.31492749750E+04 0.  0.
        5    1    3    3  502    0  0.61158307790E+03 -0.37756322504E+03 -0.13559324115E+04  0.15346539169E+04  0.46999998093E+01 0. -1.
       -5    1    3    3    0  502 -0.61158307790E+03  0.37756322504E+03  0.14472981408E+04  0.16159461155E+04  0.46999998093E+01 0.  1.
</event>
<event>
 5   0  0.5376678E-07  0.3104001E+04  0.7818609E-02  0.8214641E-01
       -2   -1    0    0    0  501  0.00000000000E+00  0.00000000000E+00  0.17737747989E+04  0.17737747989E+04  0.25500000920E-02 0.  1.
        2   -1    0    0  501    0  0.00000000000E+00  0.00000000000E+00 -0.13579548386E+04  0.13579548386E+04  0.25500000920E-02 0. -1.
    10030    2    1    2    0    0  0.00000000000E+00  0.00000000000E+00  0.41581996030E+03  0.31317296374E+04  0.31040013342E+04 0.  0.
        5    1    3    3  502    0 -0.15964651664E+03 -0.23024653473E+03  0.17480401370E+04  0.17703578417E+04  0.46999998093E+01 0.  1.
       -5    1    3    3    0  502  0.15964651664E+03  0.23024653473E+03 -0.13322201767E+04  0.13613717957E+04  0.46999998093E+01 0. -1.
</event>
<event>
 5   0  0.5342534E-07  0.3099605E+04  0.7818609E-02  0.8215846E-01
       -2   -1    0    0    0  501  0.00000000000E+00  0.00000000000E+00  0.97747525113E+03  0.97747525113E+03  0.25500000920E-02 0.  1.
        2   -1    0    0  501    0  0.00000000000E+00  0.00000000000E+00 -0.24572358482E+04  0.24572358482E+04  0.25500000920E-02 0. -1.
    10030    2    1    2    0    0  0.00000000000E+00  0.00000000000E+00 -0.14797605971E+04  0.34347110994E+04  0.30996046379E+04 0.  0.
        3    1    3    3  502    0  0.14637118401E+04  0.11727181185E+03 -0.19062943566E+03  0.14807243567E+04  0.10100000352E+00 0.  1.
       -3    1    3    3    0  502 -0.14637118401E+04 -0.11727181185E+03 -0.12891311614E+04  0.19539867426E+04  0.10100000352E+00 0. -1.
</event>
<event>
 5   0  0.1814075E-07  0.3086304E+04  0.7818609E-02  0.8219507E-01
        1   -1    0    0  501    0  0.00000000000E+00  0.00000000000E+00  0.89086640341E+03  0.89086640342E+03  0.50400001928E-02 0.  1.
       -1   -1    0    0    0  501  0.00000000000E+00  0.00000000000E+00 -0.26730361203E+04  0.26730361203E+04  0.50400001928E-02 0. -1.
    10030    2    1    2    0    0  0.00000000000E+00  0.00000000000E+00 -0.17821697169E+04  0.35639025238E+04  0.30863039868E+04 0.  0.
        5    1    3    3  502    0  0.42414113480E+03  0.96064014062E+03  0.41463349489E+03  0.11290120491E+04  0.46999998093E+01 0.  1.
       -5    1    3    3    0  502 -0.42414113480E+03 -0.96064014062E+03 -0.21968032118E+04  0.24348904746E+04  0.46999998093E+01 0. -1.
</event>
<event>
 5   0  0.1840359E-07  0.3100256E+04  0.7818609E-02  0.8215668E-01
        1   -1    0    0  501    0  0.00000000000E+00  0.00000000000E+00  0.19878134893E+04  0.19878134893E+04  0.50400001928E-02 0. -1.
       -1   -1    0    0    0  501  0.00000000000E+00  0.00000000000E+00 -0.12088141447E+04  0.12088141447E+04  0.50400001928E-02 0.  1.
    10030    2    1    2    0    0  0.00000000000E+00  0.00000000000E+00  0.77899934463E+03  0.31966276340E+04  0.31002561590E+04 0.  0.
        1    1    3    3  502    0  0.41666834124E+03 -0.12016365025E+04 -0.52425008748E+03  0.13756383773E+04  0.50400001928E-02 0.  1.
       -1    1    3    3    0  502 -0.41666834124E+03  0.12016365025E+04  0.13032494321E+04  0.18209892567E+04  0.50400001928E-02 0. -1.
</event>
<event>
 5   0  0.5342534E-07  0.3099009E+04  0.7818609E-02  0.8216010E-01
       -2   -1    0    0    0  501  0.00000000000E+00  0.00000000000E+00  0.13766260234E+04  0.13766260235E+04  0.25500000920E-02 0. -1.
        2   -1    0    0  501    0  0.00000000000E+00  0.00000000000E+00 -0.17440932434E+04  0.17440932434E+04  0.25500000920E-02 0.  1.
    10030    2    1    2    0    0  0.00000000000E+00  0.00000000000E+00 -0.36746721991E+03  0.31207192668E+04  0.30990089681E+04 0.  0.
        3    1    3    3  502    0  0.82858735754E+03 -0.33565800914E+03 -0.14581988415E+04  0.17104289461E+04  0.10100000352E+00 0.  1.
       -3    1    3    3    0  502 -0.82858735754E+03  0.33565800914E+03  0.10907316216E+04  0.14102903207E+04  0.10100000352E+00 0. -1.
</event>
<event>
 5   0  0.1845123E-07  0.3094742E+04  0.7818609E-02  0.8217182E-01
        1   -1    0    0  501    0  0.00000000000E+00  0.00000000000E+00  0.20319708997E+04  0.20319708997E+04  0.50400001928E-02 0. -1.
       -1   -1    0    0    0  501  0.00000000000E+00  0.00000000000E+00 -0.11783421847E+04  0.11783421847E+04  0.50400001928E-02 0.  1.
    10030    2    1    2    0    0  0.00000000000E+00  0.00000000000E+00  0.85362871496E+03  0.32103130844E+04  0.30947420114E+04 0.  0.
        2    1    3    3  502    0  0.27836462607E+03 -0.15162210313E+04  0.28785687295E+03  0.15682074672E+04  0.25500000920E-02 0.  1.
       -2    1    3    3    0  502 -0.27836462607E+03  0.15162210313E+04  0.56577184202E+03  0.16421056172E+04  0.25500000920E-02 0. -1.
</event>
<event>
 5   0  0.5248309E-07  0.3096867E+04  0.7818609E-02  0.8216598E-01
        2   -1    0    0  501    0  0.00000000000E+00  0.00000000000E+00  0.18652024740E+04  0.18652024740E+04  0.25500000920E-02 0. -1.
       -2   -1    0    0    0  501  0.00000000000E+00  0.00000000000E+00 -0.12854617115E+04  0.12854617115E+04  0.25500000920E-02 0.  1.
    10030    2    1    2    0    0  0.00000000000E+00  0.00000000000E+00  0.57974076253E+03  0.31506641855E+04  0.30968670391E+04 0.  0.
        4    1    3    3  502    0 -0.82254400500E+03 -0.33862402739E+03  0.15793259673E+04  0.18125995134E+04  0.12699999809E+01 0. -1.
       -4    1    3    3    0  502  0.82254400500E+03  0.33862402739E+03 -0.99958520481E+03  0.13380646721E+04  0.12699999809E+01 0.  1.
</event>
<event>
 5   0  0.1875284E-07  0.3096748E+04  0.7818609E-02  0.8216631E-01
       -1   -1    0    0    0  501  0.00000000000E+00  0.00000000000E+00  0.18757169480E+04  0.18757169480E+04  0.50400001928E-02 0. -1.
        1   -1    0    0  501    0  0.00000000000E+00  0.00000000000E+00 -0.12781578837E+04  0.12781578837E+04  0.50400001928E-02 0.  1.
    10030    2    1    2    0    0  0.00000000000E+00  0.00000000000E+00  0.59755906433E+03  0.31538748317E+04  0.30967482330E+04 0.  0.
        4    1    3    3  502    0 -0.13609469545E+04 -0.73173916388E+03  0.19774270939E+03  0.15577941485E+04  0.12699999809E+01 0. -1.
       -4    1    3    3    0  502  0.13609469545E+04  0.73173916388E+03  0.39981635495E+03  0.15960806833E+04  0.12699999809E+01 0.  1.
</event>
<event>
 5   0  0.5248309E-07  0.3093296E+04  0.7818609E-02  0.8217580E-01
       -2   -1    0    0    0  501  0.00000000000E+00  0.00000000000E+00  0.10955902184E+04  0.10955902184E+04  0.25500000920E-02 0.  1.
        2   -1    0    0  501    0  0.00000000000E+00  0.00000000000E+00 -0.21834071141E+04  0.21834071141E+04  0.25500000920E-02 0. -1.
    10030    2    1    2    0    0  0.00000000000E+00  0.00000000000E+00 -0.10878168957E+04  0.32789973325E+04  0.30932956387E+04 0.  0.
        4    1    3    3  502    0 -0.11885037499E+04  0.20587591024E+03 -0.15701128575E+04  0.19799449619E+04  0.12699999809E+01 0. -1.
       -4    1    3    3    0  502  0.11885037499E+04 -0.20587591024E+03  0.48229596181E+03  0.12990523706E+04  0.12699999809E+01 0.  1.
</event>
<event>
 5   0  0.5154105E-07  0.3125239E+04  0.7818609E-02  0.8208845E-01
       -2   -1    0    0    0  501  0.00000000000E+00  0.00000000000E+00  0.10970483247E+04  0.10970483247E+04  0.25500000920E-02 0.  1.
        2   -1    0    0  501    0  0.00000000000E+00  0.00000000000E+00 -0.22257717513E+04  0.22257717513E+04  0.25500000920E-02 0. -1.
    10030    2    1    2    0    0  0.00000000000E+00  0.00000000000E+00 -0.11287234265E+04  0.33228200760E+04  0.31252386603E+04 0.  0.
        1    1    3    3  502    0 -0.24245847086E+03  0.53410991226E+03  0.97555545964E+03  0.11383180414E+04  0.50400001928E-02 0.  1.
       -1    1    3    3    0  502  0.24245847086E+03 -0.53410991226E+03 -0.21042788862E+04  0.21845020346E+04  0.50400001928E-02 0. -1.
</event>
<event>
 5   0  0.5055900E-07  0.3100006E+04  0.7818609E-02  0.8215736E-01
       -2   -1    0    0    0  501  0.00000000000E+00  0.00000000000E+00  0.10178667852E+04  0.10178667853E+04  0.25500000920E-02 0. -1.
        2   -1    0    0  501    0  0.00000000000E+00  0.00000000000E+00 -0.23603384088E+04  0.23603384088E+04  0.25500000920E-02 0.  1.
    10030    2    1    2    0    0  0.00000000000E+00  0.00000000000E+00 -0.13424716235E+04  0.33782051940E+04  0.31000064956E+04 0.  0.
        2    1    3    3  502    0  0.11764841810E+04 -0.86226876124E+03 -0.12425842108E+04  0.19161518640E+04  0.25500000920E-02 0.  1.
       -2    1    3    3    0  502 -0.11764841810E+04  0.86226876124E+03 -0.99887412725E+02  0.14620533301E+04  0.25500000920E-02 0. -1.
</event>
<event>
 5   0  0.1830902E-07  0.3102636E+04  0.7818609E-02  0.8215015E-01
        1   -1    0    0  501    0  0.00000000000E+00  0.00000000000E+00  0.20195236483E+04  0.20195236483E+04  0.50400001928E-02 0. -1.
       -1   -1    0    0    0  501  0.00000000000E+00  0.00000000000E+00 -0.11916611939E+04  0.11916611939E+04  0.50400001928E-02 0.  1.
    10030    2    1    2    0    0  0.00000000000E+00  0.00000000000E+00  0.82786245442E+03  0.32111848422E+04  0.31026362738E+04 0.  0.
        3    1    3    3  502    0 -0.39825553403E+03 -0.74131288527E+03  0.17627667433E+04  0.19533301989E+04  0.10100000352E+00 0. -1.
       -3    1    3    3    0  502  0.39825553403E+03  0.74131288527E+03 -0.93490428889E+03  0.12578546434E+04  0.10100000352E+00 0.  1.
</event>
<event>
 5   0  0.1840359E-07  0.3098142E+04  0.7818609E-02  0.8216248E-01
       -1   -1    0    0    0  501  0.00000000000E+00  0.00000000000E+00  0.11919820233E+04  0.11919820234E+04  0.50400001928E-02 0. -1.
        1   -1    0    0  501    0  0.00000000000E+00  0.00000000000E+00 -0.20131350710E+04  0.20131350711E+04  0.50400001928E-02 0.  1.
    10030    2    1    2    0    0  0.00000000000E+00  0.00000000000E+00 -0.82115304770E+03  0.32051170944E+04  0.30981419046E+04 0.  0.
        1    1    3    3  502    0  0.11079143269E+04  0.10798221414E+04 -0.32957349489E+03  0.15818055194E+04  0.50400001928E-02 0.  1.
       -1    1    3    3    0  502 -0.11079143269E+04 -0.10798221414E+04 -0.49157955282E+03  0.16233115750E+04  0.50400001928E-02 0. -1.
</event>
<event>
 5   0  0.1845123E-07  0.3094650E+04  0.7818609E-02  0.8217208E-01
        1   -1    0    0  501    0  0.00000000000E+00  0.00000000000E+00  0.17189810651E+04  0.17189810651E+04  0.50400001928E-02 0.  1.
       -1   -1    0    0    0  501  0.00000000000E+00  0.00000000000E+00 -0.13928103608E+04  0.13928103608E+04  0.50400001928E-02 0. -1.
    10030    2    1    2    0    0  0.00000000000E+00  0.00000000000E+00  0.32617070435E+03  0.31117914259E+04  0.30946499883E+04 0.  0.
        2    1    3    3  502    0  0.14256201297E+04 -0.52259020558E+03 -0.13642582862E+03  0.15245016510E+04  0.25500000920E-02 0.  1.
       -2    1    3    3    0  502 -0.14256201297E+04  0.52259020558E+03  0.46259653297E+03  0.15872897749E+04  0.25500000920E-02 0. -1.
</event>
<event>
 5   0  0.5055900E-07  0.3100661E+04  0.7818609E-02  0.8215557E-01
       -2   -1    0    0    0  501  0.00000000000E+00  0.00000000000E+00  0.11697544584E+04  0.11697544584E+04  0.25500000920E-02 0. -1.
        2   -1    0    0  501    0  0.00000000000E+00  0.00000000000E+00 -0.20547253106E+04  0.20547253106E+04  0.25500000920E-02 0.  1.
    10030    2    1    2    0    0  0.00000000000E+00  0.00000000000E+00 -0.88497085221E+03  0.32244797690E+04  0.31006606347E+04 0.  0.
        2    1    3    3  502    0 -0.53391157282E+03 -0.14683386044E+03  0.10634089913E+04  0.11989413801E+04  0.25500000920E-02 0. -1.
       -2    1    3    3    0  502  0.53391157282E+03  0.14683386044E+03 -0.19483798435E+04  0.20255383889E+04  0.25500000920E-02 0.  1.
</event>
<event>
 5   0  0.5376678E-07  0.3121784E+04  0.7818609E-02  0.8209785E-01
       -2   -1    0    0    0  501  0.00000000000E+00  0.00000000000E+00  0.11463185664E+04  0.11463185664E+04  0.25500000920E-02 0. -1.
        2   -1    0    0  501    0  0.00000000000E+00  0.00000000000E+00 -0.21253988502E+04  0.21253988502E+04  0.25500000920E-02 0.  1.
    10030    2    1    2    0    0  0.00000000000E+00  0.00000000000E+00 -0.97908028384E+03  0.32717174166E+04  0.31217842097E+04 0.  0.
        5    1    3    3  502    0 -0.14863264103E+04  0.12663316915E+03 -0.79488270032E+01  0.14917397331E+04  0.46999998093E+01 0.  1.
       -5    1    3    3    0  502  0.14863264103E+04 -0.12663316915E+03 -0.97113145684E+03  0.17799776835E+04  0.46999998093E+01 0. -1.
</event>
<event>
 5   0  0.1840359E-07  0.3093758E+04  0.7818609E-02  0.8217453E-01
        1   -1    0    0  501    0  0.00000000000E+00  0.00000000000E+00  0.28524193879E+04  0.28524193879E+04  0.50400001928E-02 0.  1.
       -1   -1    0    0    0  501  0.00000000000E+00  0.00000000000E+00 -0.83887903117E+03  0.83887903118E+03  0.50400001928E-02 0. -1.
    10030    2    1    2    0    0  0.00000000000E+00  0.00000000000E+00  0.20135403567E+04  0.36912984190E+04  0.30937581112E+04 0.  0.
        1    1    3    3  502    0  0.99204940607E+02  0.50116837031E+03 -0.73531112611E+03  0.89537355772E+03  0.50400001928E-02 0. -1.
       -1    1    3    3    0  502 -0.99204940607E+02 -0.50116837031E+03  0.27488514828E+04  0.27959248613E+04  0.50400001928E-02 0.  1.
</event>
<event>
 5   0  0.5154105E-07  0.3099169E+04  0.7818609E-02  0.8215966E-01
       -2   -1    0    0    0  501  0.00000000000E+00  0.00000000000E+00  0.14196852592E+04  0.14196852592E+04  0.25500000920E-02 0.  1.
        2   -1    0    0  501    0  0.00000000000E+00  0.00000000000E+00 -0.16913695313E+04  0.16913695313E+04  0.25500000920E-02 0. -1.
    10030    2    1    2    0    0  0.00000000000E+00  0.00000000000E+00 -0.27168427204E+03  0.31110547905E+04  0.30991691735E+04 0.  0.
        1    1    3    3  502    0 -0.11287193083E+04 -0.39830789213E+02  0.92917847102E+03  0.14625205639E+04  0.50400001928E-02 0.  1.
       -1    1    3    3    0  502  0.11287193083E+04  0.39830789213E+02 -0.12008627431E+04  0.16485342266E+04  0.50400001928E-02 0. -1.
</event>
<event>
 5   0  0.1840359E-07  0.3098202E+04  0.7818609E-02  0.8216232E-01
       -1   -1    0    0    0  501  0.00000000000E+00  0.00000000000E+00  0.11401386896E+04  0.11401386896E+04  0.50400001928E-02 0. -1.
        1   -1    0    0  501    0  0.00000000000E+00  0.00000000000E+00 -0.21047561203E+04  0.21047561203E+04  0.50400001928E-02 0.  1.
    10030    2    1    2    0    0  0.00000000000E+00  0.00000000000E+00 -0.96461743067E+03  0.32448948099E+04  0.30982019850E+04 0.  0.
        1    1    3    3  502    0 -0.12741533165E+04 -0.77826269188E+03 -0.91484480560E+03  0.17510284150E+04  0.50400001928E-02 0.  1.
       -1    1    3    3    0  502  0.12741533165E+04  0.77826269188E+03 -0.49772625070E+02  0.14938663949E+04  0.50400001928E-02 0. -1.
</event>
<event>
 5   0  0.5376678E-07  0.3098459E+04  0.7818609E-02  0.8216161E-01
       -2   -1    0    0    0  501  0.00000000000E+00  0.00000000000E+00  0.10763154967E+04  0.10763154967E+04  0.25500000920E-02 0. -1.
        2   -1    0    0  501    0  0.00000000000E+00  0.00000000000E+00 -0.22299335026E+04  0.22299335026E+04  0.25500000920E-02 0.  1.
    10030    2    1    2    0    0  0.00000000000E+00  0.00000000000E+00 -0.11536180058E+04  0.33062489993E+04  0.30984589624E+04 0.  0.
        5    1    3    3  502    0 -0.22044199799E+03  0.20852379238E+03  0.10442877630E+04  0.10874906291E+04  0.46999998093E+01 0. -1.
       -5    1    3    3    0  502  0.22044199799E+03 -0.20852379238E+03 -0.21979057688E+04  0.22187583702E+04  0.46999998093E+01 0.  1.
</event>
<event>
 5   0  0.5248309E-07  0.3094158E+04  0.7818609E-02  0.8217343E-01
        2   -1    0    0  501    0  0.00000000000E+00  0.00000000000E+00  0.14874351393E+04  0.14874351393E+04  0.25500000920E-02 0. -1.
       -2   -1    0    0    0  501  0.00000000000E+00  0.00000000000E+00 -0.16091148288E+04  0.16091148288E+04  0.25500000920E-02 0.  1.
    10030    2    1    2    0    0  0.00000000000E+00  0.00000000000E+00 -0.12167968953E+03  0.30965499681E+04  0.30941583279E+04 0.  0.
        4    1    3    3  502    0 -0.14479561591E+04 -0.38896224782E+03  0.32100934470E+03  0.15332701266E+04  0.12699999809E+01 0. -1.
       -4    1    3    3    0  502  0.14479561591E+04  0.38896224782E+03 -0.44268903423E+03  0.15632798415E+04  0.12699999809E+01 0.  1.
</event>
<event>
 5   0  0.5376678E-07  0.3099331E+04  0.7818609E-02  0.8215922E-01
        2   -1    0    0  501    0  0.00000000000E+00  0.00000000000E+00  0.23721313202E+04  0.23721313202E+04  0.25500000920E-02 0.  1.
       -2   -1    0    0    0  501  0.00000000000E+00  0.00000000000E+00 -0.10123650866E+04  0.10123650866E+04  0.25500000920E-02 0. -1.
    10030    2    1    2    0    0  0.00000000000E+00  0.00000000000E+00  0.13597662336E+04  0.33844964068E+04  0.30993308499E+04 0.  0.
        5    1    3    3  502    0  0.10464776520E+04 -0.29213546131E+03 -0.52676542069E+03  0.12074611805E+04  0.46999998093E+01 0. -1.
       -5    1    3    3    0  502 -0.10464776520E+04  0.29213546131E+03  0.18865316543E+04  0.21770352263E+04  0.46999998093E+01 0.  1.
</event>
<event>
 5   0  0.5376678E-07  0.3099223E+04  0.7818609E-02  0.8215951E-01
       -2   -1    0    0    0  501  0.00000000000E+00  0.00000000000E+00  0.15628603607E+04  0.15628603607E+04  0.25500000920E-02 0.  1.
        2   -1    0    0  501    0  0.00000000000E+00  0.00000000000E+00 -0.15364748028E+04  0.15364748028E+04  0.25500000920E-02 0. -1.
    10030    2    1    2    0    0  0.00000000000E+00  0.00000000000E+00  0.26385557941E+02  0.30993351635E+04  0.30992228475E+04 0.  0.
        5    1    3    3  502    0 -0.12698532330E+04 -0.81391549491E+03  0.36857561754E+03  0.15526930611E+04  0.46999998093E+01 0.  1.
       -5    1    3    3    0  502  0.12698532330E+04  0.81391549491E+03 -0.34219005960E+03  0.15466421024E+04  0.46999998093E+01 0. -1.
</event>
<event>
 5   0  0.1727000E-07  0.3102005E+04  0.7818609E-02  0.8215188E-01
        4   -1    0    0  501    0  0.00000000000E+00  0.00000000000E+00  0.98444006823E+03  0.98444088743E+03  0.12699999809E+01 0.  1.
       -4   -1    0    0    0  501  0.00000000000E+00  0.00000000000E+00 -0.24436301344E+04  0.24436304644E+04  0.12699999809E+01 0. -1.
    10030    2    1    2    0    0  0.00000000000E+00  0.00000000000E+00 -0.14591900661E+04  0.34280713518E+04  0.31020054068E+04 0.  0.
        4    1    3    3  502    0  0.51729856377E+03  0.74666938470E+03  0.65972992587E+03  0.11226567428E+04  0.12699999809E+01 0.  1.
       -4    1    3    3    0  502 -0.51729856377E+03 -0.74666938470E+03 -0.21189199920E+04  0.23054146090E+04  0.12699999809E+01 0. -1.
</event>
<event>
 5   0  0.5154105E-07  0.3093010E+04  0.7818609E-02  0.8217659E-01
        2   -1    0    0  501    0  0.00000000000E+00  0.00000000000E+00  0.28724106174E+04  0.28724106174E+04  0.25500000920E-02 0. -1.
       -2   -1    0    0    0  501  0.00000000000E+00  0.00000000000E+00 -0.83263760576E+03  0.83263760577E+03  0.25500000920E-02 0.  1.
    10030    2    1    2    0    0  0.00000000000E+00  0.00000000000E+00  0.20397730116E+04  0.37050482232E+04  0.30930096018E+04 0.  0.
        1    1    3    3  502    0 -0.22151608010E+03 -0.10677043007E+04 -0.29375224262E+03  0.11293149373E+04  0.50400001928E-02 0. -1.
       -1    1    3    3    0  502  0.22151608010E+03  0.10677043007E+04  0.23335252543E+04  0.25757332859E+04  0.50400001928E-02 0.  1.
</event>
<event>
 5   0  0.1845123E-07  0.3099797E+04  0.7818609E-02  0.8215794E-01
       -1   -1    0    0    0  501  0.00000000000E+00  0.00000000000E+00  0.13307431232E+04  0.13307431232E+04  0.50400001928E-02 0.  1.
        1   -1    0    0  501    0  0.00000000000E+00  0.00000000000E+00 -0.18051455214E+04  0.18051455214E+04  0.50400001928E-02 0. -1.
    10030    2    1    2    0    0  0.00000000000E+00  0.00000000000E+00 -0.47440239824E+03  0.31358886446E+04  0.30997967604E+04 0.  0.
        2    1    3    3  502    0 -0.42838846060E+03  0.95167636021E+03  0.92199390297E+03  0.13925793783E+04  0.25500000920E-02 0.  1.
       -2    1    3    3    0  502  0.42838846060E+03 -0.95167636021E+03 -0.13963963012E+04  0.17433092663E+04  0.25500000920E-02 0. -1.
</event>
<event>
 5   0  0.5248309E-07  0.3095223E+04  0.7818609E-02  0.8217050E-01
        2   -1    0    0  501    0  0.00000000000E+00  0.00000000000E+00  0.22357838470E+04  0.22357838470E+04  0.25500000920E-02 0.  1.
       -2   -1    0    0    0  501  0.00000000000E+00  0.00000000000E+00 -0.10712581609E+04  0.10712581609E+04  0.25500000920E-02 0. -1.
    10030    2    1    2    0    0  0.00000000000E+00  0.00000000000E+00  0.11645256860E+04  0.33070420079E+04  0.30952232179E+04 0.  0.
        4    1    3    3  502    0 -0.52456778450E+03  0.77351412246E+03 -0.73568628294E+03  0.11894248097E+04  0.12699999809E+01 0. -1.
       -4    1    3    3    0  502  0.52456778450E+03 -0.77351412246E+03  0.19002119690E+04  0.21176171982E+04  0.12699999809E+01 0.  1.
</event>
<event>
 5   0  0.1830902E-07  0.3101331E+04  0.7818609E-02  0.8215373E-01
       -1   -1    0    0    0  501  0.00000000000E+00  0.00000000000E+00  0.10611410576E+04  0.10611410576E+04  0.50400001928E-02 0.  1.
        1   -1    0    0  501    0  0.00000000000E+00  0.00000000000E+00 -0.22660166616E+04  0.22660166616E+04  0.50400001928E-02 0. -1.
    10030    2    1    2    0    0  0.00000000000E+00  0.00000000000E+00 -0.12048756040E+04  0.33271577192E+04  0.31013308864E+04 0.  0.
        3    1    3    3  502    0 -0.10782407005E+04  0.74972110113E+03  0.28215002756E+03  0.13432398840E+04  0.10100000352E+00 0.  1.
       -3    1    3    3    0  502  0.10782407005E+04 -0.74972110113E+03 -0.14870256315E+04  0.19839178352E+04  0.10100000352E+00 0. -1.
</event>
<event>
 5   0  0.5342534E-07  0.3099307E+04  0.7818609E-02  0.8215928E-01
        2   -1    0    0  501    0  0.00000000000E+00  0.00000000000E+00  0.28776285104E+04  0.28776285104E+04  0.25500000920E-02 0.  1.
       -2   -1    0    0    0  501  0.00000000000E+00  0.00000000000E+00 -0.83451539773E+03  0.83451539773E+03  0.25500000920E-02 0. -1.
    10030    2    1    2    0    0  0.00000000000E+00  0.00000000000E+00  0.20431131127E+04  0.37121439081E+04  0.30993065682E+04 0.  0.
        3    1    3    3  502    0  0.12674412732E+04 -0.88848052399E+03  0.11113487916E+04  0.19054923693E+04  0.10100000352E+00 0. -1.
       -3    1    3    3    0  502 -0.12674412732E+04  0.88848052399E+03  0.93176432111E+03  0.18066515389E+04  0.10100000352E+00 0.  1.
</event>
<event>
 5   0  0.1875284E-07  0.3121545E+04  0.7818609E-02  0.8209850E-01
        1   -1    0    0  501    0  0.00000000000E+00  0.00000000000E+00  0.16348230333E+04  0.16348230333E+04  0.50400001928E-02 0. -1.
       -1   -1    0    0    0  501  0.00000000000E+00  0.00000000000E+00 -0.14900757382E+04  0.14900757382E+04  0.50400001928E-02 0.  1.
    10030    2    1    2    0    0  0.00000000000E+00  0.00000000000E+00  0.14474729505E+03  0.31248987715E+04  0.31215445781E+04 0.  0.
        4    1    3    3  502    0  0.10999775637E+03 -0.57531930827E+03  0.15206198050E+04  0.16295330672E+04  0.12699999809E+01 0. -1.
       -4    1    3    3    0  502 -0.10999775637E+03  0.57531930827E+03 -0.13758725100E+04  0.14953657043E+04  0.12699999809E+01 0.  1.
</event>
<event>
 5   0  0.5154105E-07  0.3105824E+04  0.7818609E-02  0.8214142E-01
        2   -1    0    0  501    0  0.00000000000E+00  0.00000000000E+00  0.26839010155E+04  0.26839010155E+04  0.25500000920E-02 0. -1.
       -2   -1    0    0    0  501  0.00000000000E+00  0.00000000000E+00 -0.89851861211E+03  0.89851861211E+03  0.25500000920E-02 0.  1.
    10030    2    1    2    0    0  0.00000000000E+00  0.00000000000E+00  0.17853824034E+04  0.35824196276E+04  0.31058235722E+04 0.  0.
        1    1    3    3  502    0  0.62141115630E+03 -0.96394522623E+03 -0.31496452393E+03  0.11893464069E+04  0.50400001928E-02 0.  1.
       -1    1    3    3    0  502 -0.62141115630E+03  0.96394522623E+03  0.21003469273E+04  0.23930732206E+04  0.50400001928E-02 0. -1.
</event>
<event>
 5   0  0.1814075E-07  0.3097329E+04  0.7818609E-02  0.8216471E-01
        1   -1    0    0  501    0  0.00000000000E+00  0.00000000000E+00  0.15959423712E+04  0.15959423712E+04  0.50400001928E-02 0.  1.
       -1   -1    0    0    0  501  0.00000000000E+00  0.00000000000E+00 -0.15027872228E+04  0.15027872228E+04  0.50400001928E-02 0. -1.
    10030    2    1    2    0    0  0.00000000000E+00  0.00000000000E+00  0.93155148454E+02  0.30987295940E+04  0.30973290453E+04 0.  0.
        5    1    3    3  502    0  0.21085189954E+02  0.39684829497E+03  0.15440531664E+04  0.15943824589E+04  0.46999998093E+01 0.  1.
       -5    1    3    3    0  502 -0.21085189954E+02 -0.39684829497E+03 -0.14508980179E+04  0.15043471351E+04  0.46999998093E+01 0. -1.
</event>
<event>
 5   0  0.1875284E-07  0.3101691E+04  0.7818609E-02  0.8215274E-01
        1   -1    0    0  501    0  0.00000000000E+00  0.00000000000E+00  0.94812297223E+03  0.94812297224E+03  0.50400001928E-02 0.  1.
       -1   -1    0    0    0  501  0.00000000000E+00  0.00000000000E+00 -0.25367195822E+04  0.25367195822E+04  0.50400001928E-02 0. -1.
    10030    2    1    2    0    0  0.00000000000E+00  0.00000000000E+00 -0.15885966100E+04  0.34848425545E+04  0.31016912226E+04 0.  0.
        4    1    3    3  502    0  0.13068401359E+04 -0.20713676122E+03 -0.17031663683E+04  0.21567369032E+04  0.12699999809E+01 0. -1.
       -4    1    3    3    0  502 -0.13068401359E+04  0.20713676122E+03  0.11456975828E+03  0.13281056513E+04  0.12699999809E+01 0.  1.
</event>
<event>
 5   0  0.5342534E-07  0.3094177E+04  0.7818609E-02  0.8217338E-01
       -2   -1    0    0    0  501  0.00000000000E+00  0.00000000000E+00  0.11249536661E+04  0.11249536661E+04  0.25500000920E-02 0. -1.
        2   -1    0    0  501    0  0.00000000000E+00  0.00000000000E+00 -0.21276276332E+04  0.21276276332E+04  0.25500000920E-02 0.  1.
    10030    2    1    2    0    0  0.00000000000E+00  0.00000000000E+00 -0.10026739672E+04  0.32525812993E+04  0.30941767926E+04 0.  0.
        3    1    3    3  502    0  0.42920210880E+03  0.10136866251E+04  0.64137827622E+03  0.12740255600E+04  0.10100000352E+00 0. -1.
       -3    1    3    3    0  502 -0.42920210880E+03 -0.10136866251E+04 -0.16440522434E+04  0.19785557392E+04  0.10100000352E+00 0.  1.
</event>
<event>
 5   0  0.1814075E-07  0.3101521E+04  0.7818609E-02  0.8215321E-01
        1   -1    0    0  501    0  0.00000000000E+00  0.00000000000E+00  0.30516956211E+04  0.30516956211E+04  0.50400001928E-02 0. -1.
       -1   -1    0    0    0  501  0.00000000000E+00  0.00000000000E+00 -0.78804007008E+03  0.78804007010E+03  0.50400001928E-02 0.  1.
    10030    2    1    2    0    0  0.00000000000E+00  0.00000000000E+00  0.22636555511E+04  0.38397356912E+04  0.31015211953E+04 0.  0.
        5    1    3    3  502    0 -0.90109962604E+03  0.65455455918E+03  0.24677473443E+04  0.27074381345E+04  0.46999998093E+01 0. -1.
       -5    1    3    3    0  502  0.90109962604E+03 -0.65455455918E+03 -0.20409179320E+03  0.11322975568E+04  0.46999998093E+01 0.  1.
</event>
<event>
 5   0  0.1830902E-07  0.3098272E+04  0.7818609E-02  0.8216212E-01
       -1   -1    0    0    0  501  0.00000000000E+00  0.00000000000E+00  0.18310357099E+04  0.18310357099E+04  0.50400001928E-02 0. -1.
        1   -1    0    0  501    0  0.00000000000E+00  0.00000000000E+00 -0.13106369255E+04  0.13106369255E+04  0.50400001928E-02 0.  1.
    10030    2    1    2    0    0  0.00000000000E+00  0.00000000000E+00  0.52039878443E+03  0.31416726354E+04  0.30982724304E+04 0.  0.
        3    1    3    3  502    0 -0.34455397370E+03 -0.66133145317E+03  0.16370661168E+04  0.17989058376E+04  0.10100000352E+00 0. -1.
       -3    1    3    3    0  502  0.34455397370E+03  0.66133145317E+03 -0.11166673324E+04  0.13427667977E+04  0.10100000352E+00 0.  1.
</event>
<event>
 5   0  0.1845123E-07  0.3099788E+04  0.7818609E-02  0.8215796E-01
       -1   -1    0    0    0  501  0.00000000000E+00  0.00000000000E+00  0.12742406188E+04  0.12742406188E+04  0.50400001928E-02 0.  1.
        1   -1    0    0  501    0  0.00000000000E+00  0.00000000000E+00 -0.18851787155E+04  0.18851787155E+04  0.50400001928E-02 0. -1.
    10030    2    1    2    0    0  0.00000000000E+00  0.00000000000E+00 -0.61093809669E+03  0.31594193344E+04  0.30997879238E+04 0.  0.
        2    1    3    3  502    0  0.79875870517E+03  0.50329634715E+03  0.94734254703E+03  0.13374530211E+04  0.25500000920E-02 0.  1.
       -2    1    3    3    0  502 -0.79875870517E+03 -0.50329634715E+03 -0.15582806437E+04  0.18219663133E+04  0.25500000920E-02 0. -1.
</event>
<event>
 5   0  0.5055900E-07  0.3085521E+04  0.7818609E-02  0.8219723E-01
       -2   -1    0    0    0  501  0.00000000000E+00  0.00000000000E+00  0.98885251385E+03  0.98885251385E+03  0.25500000920E-02 0. -1.
        2   -1    0    0  501    0  0.00000000000E+00  0.00000000000E+00 -0.24069416953E+04  0.24069416953E+04  0.25500000920E-02 0.  1.
    10030    2    1    2    0    0  0.00000000000E+00  0.00000000000E+00 -0.14180891814E+04  0.33957942091E+04  0.30855212500E+04 0.  0.
        2    1    3    3  502    0 -0.79600216163E+03 -0.12914295251E+04 -0.10177911181E+04  0.18268301563E+04  0.25500000920E-02 0. -1.
       -2    1    3    3    0  502  0.79600216163E+03  0.12914295251E+04 -0.40029806334E+03  0.15689640529E+04  0.25500000920E-02 0.  1.
</event>
<event>
 5   0  0.1845123E-07  0.3097734E+04  0.7818609E-02  0.8216360E-01
       -1   -1    0    0    0  501  0.00000000000E+00  0.00000000000E+00  0.21719185559E+04  0.21719185559E+04  0.50400001928E-02 0.  1.
        1   -1    0    0  501    0  0.00000000000E+00  0.00000000000E+00 -0.11045479790E+04  0.11045479790E+04  0.50400001928E-02 0. -1.
    10030    2    1    2    0    0  0.00000000000E+00  0.00000000000E+00  0.10673705769E+04  0.32764665349E+04  0.30977335273E+04 0.  0.
        2    1    3    3  502    0 -0.15358798263E+04  0.15346993640E+02  0.74476397033E+03  0.17069961167E+04  0.25500000920E-02 0.  1.
       -2    1    3    3    0  502  0.15358798263E+04 -0.15346993640E+02  0.32260660659E+03  0.15694704182E+04  0.25500000920E-02 0. -1.
</event>
<event>
 5   0  0.1845123E-07  0.3101046E+04  0.7818609E-02  0.8215451E-01
        1   -1    0    0  501    0  0.00000000000E+00  0.00000000000E+00  0.14328376604E+04  0.14328376604E+04  0.50400001928E-02 0.  1.
       -1   -1    0    0    0  501  0.00000000000E+00  0.00000000000E+00 -0.16778740325E+04  0.16778740325E+04  0.50400001928E-02 0. -1.
    10030    2    1    2    0    0  0.00000000000E+00  0.00000000000E+00 -0.24503637207E+03  0.31107116929E+04  0.31010456966E+04 0.  0.
        2    1    3    3  502    0  0.67539623761E+03  0.39704738320E+03  0.12196787658E+04  0.14496285711E+04  0.25500000920E-02 0.  1.
       -2    1    3    3    0  502 -0.67539623761E+03 -0.39704738320E+03 -0.14647151379E+04  0.16610831218E+04  0.25500000920E-02 0. -1.
</event>
<event>
 5   0  0.1830902E-07  0.3099121E+04  0.7818609E-02  0.8215979E-01
        1   -1    0    0  501    0  0.00000000000E+00  0.00000000000E+00  0.19741050268E+04  0.19741050268E+04  0.50400001928E-02 0.  1.
       -1   -1    0    0    0  501  0.00000000000E+00  0.00000000000E+00 -0.12163167621E+04  0.12163167621E+04  0.50400001928E-02 0. -1.
    10030    2    1    2    0    0  0.00000000000E+00  0.00000000000E+00  0.75778826474E+03  0.31904217889E+04  0.30991205425E+04 0.  0.
        3    1    3    3  502    0 -0.43928814274E+03  0.75353695795E+03 -0.93959706328E+03  0.12820431626E+04  0.10100000352E+00 0. -1.
       -3    1    3    3    0  502  0.43928814274E+03 -0.75353695795E+03  0.16973853280E+04  0.19083786263E+04  0.10100000352E+00 0.  1.
</event>
<event>
 5   0  0.5154105E-07  0.3109435E+04  0.7818609E-02  0.8213153E-01
       -2   -1    0    0    0  501  0.00000000000E+00  0.00000000000E+00  0.78791663393E+03  0.78791663393E+03  0.25500000920E-02 0. -1.
        2   -1    0    0  501    0  0.00000000000E+00  0.00000000000E+00 -0.30677697203E+04  0.30677697203E+04  0.25500000920E-02 0.  1.
    10030    2    1    2    0    0  0.00000000000E+00  0.00000000000E+00 -0.22798530864E+04  0.38556863542E+04  0.31094351845E+04 0.  0.
        1    1    3    3  502    0  0.14063794557E+04 -0.36777997387E+03 -0.45626087207E+03  0.15235941934E+04  0.50400001928E-02 0. -1.
       -1    1    3    3    0  502 -0.14063794557E+04  0.36777997387E+03 -0.18235922143E+04  0.23320921609E+04  0.50400001928E-02 0.  1.
</event>
<event>
 5   0  0.5248309E-07  0.3077480E+04  0.7818609E-02  0.8221946E-01
        2   -1    0    0  501    0  0.00000000000E+00  0.00000000000E+00  0.18439278774E+04  0.18439278774E+04  0.25500000920E-02 0. -1.
       -2   -1    0    0    0  501  0.00000000000E+00  0.00000000000E+00 -0.12840636296E+04  0.12840636296E+04  0.25500000920E-02 0.  1.
    10030    2    1    2    0    0  0.00000000000E+00  0.00000000000E+00  0.55986424778E+03  0.31279915070E+04  0.30774799580E+04 0.  0.
        4    1    3    3  502    0  0.67905538211E+03 -0.57534945108E+03  0.15557538618E+04  0.17923489878E+04  0.12699999809E+01 0. -1.
       -4    1    3    3    0  502 -0.67905538211E+03  0.57534945108E+03 -0.99588961402E+03  0.13356425192E+04  0.12699999809E+01 0.  1.
</event>
<event>
 5   0  0.1840359E-07  0.3103701E+04  0.7818609E-02  0.8214723E-01
       -1   -1    0    0    0  501  0.00000000000E+00  0.00000000000E+00  0.91724957070E+03  0.91724957072E+03  0.50400001928E-02 0. -1.
        1   -1    0    0  501    0  0.00000000000E+00  0.00000000000E+00 -0.26255008890E+04  0.26255008890E+04  0.50400001928E-02 0.  1.
    10030    2    1    2    0    0  0.00000000000E+00  0.00000000000E+00 -0.17082513183E+04  0.35427504597E+04  0.31037007351E+04 0.  0.
        1    1    3    3  502    0  0.11545832800E+04  0.22866189711E+02  0.32917493908E+03  0.12008087082E+04  0.50400001928E-02 0. -1.
       -1    1    3    3    0  502 -0.11545832800E+04 -0.22866189711E+02 -0.20374262573E+04  0.23419417515E+04  0.50400001928E-02 0.  1.
</event>
<event>
 5   0  0.5154105E-07  0.3096784E+04  0.7818609E-02  0.8216621E-01
        2   -1    0    0  501    0  0.00000000000E+00  0.00000000000E+00  0.13921841518E+04  0.13921841518E+04  0.25500000920E-02 0.  1.
       -2   -1    0    0    0  501  0.00000000000E+00  0.00000000000E+00 -0.17221267440E+04  0.17221267440E+04  0.25500000920E-02 0. -1.
    10030    2    1    2    0    0  0.00000000000E+00  0.00000000000E+00 -0.32994259215E+03  0.31143108958E+04  0.30967838545E+04 0.  0.
        1    1    3    3  502    0 -0.15331554842E+04 -0.12179634968E+03 -0.34519907903E+03  0.15762495024E+04  0.50400001928E-02 0.  1.
       -1    1    3    3    0  502  0.15331554842E+04  0.12179634968E+03  0.15256486879E+02  0.15380613934E+04  0.50400001928E-02 0. -1.
</event>
<event>
 5   0  0.5248309E-07  0.3099867E+04  0.7818609E-02  0.8215774E-01
        2   -1    0    0  501    0  0.00000000000E+00  0.00000000000E+00  0.24872686275E+04  0.24872686275E+04  0.25500000920E-02 0. -1.
       -2   -1    0    0    0  501  0.00000000000E+00  0.00000000000E+00 -0.96583627166E+03  0.96583627166E+03  0.25500000920E-02 0.  1.
    10030    2    1    2    0    0  0.00000000000E+00  0.00000000000E+00  0.15214323558E+04  0.34531048991E+04  0.30998672602E+04 0.  0.
        4    1    3    3  502    0  0.26286866275E+03  0.97431884024E+03  0.20711597482E+04  0.23039317376E+04  0.12699999809E+01 0. -1.
       -4    1    3    3    0  502 -0.26286866275E+03 -0.97431884024E+03 -0.54972739237E+03  0.11491731615E+04  0.12699999809E+01 0.  1.
</event>
<event>
 5   0  0.5376678E-07  0.3099343E+04  0.7818609E-02  0.8215918E-01
        2   -1    0    0  501    0  0.00000000000E+00  0.00000000000E+00  0.26684627792E+04  0.26684627793E+04  0.25500000920E-02 0. -1.
       -2   -1    0    0    0  501  0.00000000000E+00  0.00000000000E+00 -0.89994957782E+03  0.89994957782E+03  0.25500000920E-02 0.  1.
    10030    2    1    2    0    0  0.00000000000E+00  0.00000000000E+00  0.17685132014E+04  0.35684123571E+04  0.30993431250E+04 0.  0.
        5    1    3    3  502    0 -0.13633258638E+03  0.50448502646E+03  0.25639451077E+04  0.26166635858E+04  0.46999998093E+01 0. -1.
       -5    1    3    3    0  502  0.13633258638E+03 -0.50448502646E+03 -0.79543190629E+03  0.95174877125E+03  0.46999998093E+01 0.  1.
</event>
<event>
 5   0  0.5154105E-07  0.3098352E+04  0.7818609E-02  0.8216190E-01
       -2   -1    0    0    0  501  0.00000000000E+00  0.00000000000E+00  0.11348806803E+04  0.11348806803E+04  0.25500000920E-02 0.  1.
        2   -1    0    0  501    0  0.00000000000E+00  0.00000000000E+00 -0.21147121986E+04  0.21147121986E+04  0.25500000920E-02 0. -1.
    10030    2    1    2    0    0  0.00000000000E+00  0.00000000000E+00 -0.97983151835E+03  0.32495928790E+04  0.30983518320E+04 0.  0.
        1    1    3    3  502    0  0.57750660661E+03  0.14373881781E+04 -0.50946321696E+03  0.16306904748E+04  0.50400001928E-02 0.  1.
       -1    1    3    3    0  502 -0.57750660661E+03 -0.14373881781E+04 -0.47036830139E+03  0.16189024041E+04  0.50400001928E-02 0. -1.
</event>
<event>
 5   0  0.5376678E-07  0.3100669E+04  0.7818609E-02  0.8215554E-01
       -2   -1    0    0    0  501  0.00000000000E+00  0.00000000000E+00  0.12503359227E+04  0.12503359227E+04  0.25500000920E-02 0.  1.
        2   -1    0    0  501    0  0.00000000000E+00  0.00000000000E+00 -0.19223128941E+04  0.19223128941E+04  0.25500000920E-02 0. -1.
    10030    2    1    2    0    0  0.00000000000E+00  0.00000000000E+00 -0.67197697137E+03  0.31726488168E+04  0.31006688738E+04 0.  0.
        5    1    3    3  502    0 -0.18481485287E+03  0.38184405196E+03 -0.18617631227E+04  0.19094882626E+04  0.46999998093E+01 0. -1.
       -5    1    3    3    0  502  0.18481485287E+03 -0.38184405196E+03  0.11897861514E+04  0.12631605542E+04  0.46999998093E+01 0.  1.
</event>
<event>
 5   0  0.5154105E-07  0.3100739E+04  0.7818609E-02  0.8215535E-01
       -2   -1    0    0    0  501  0.00000000000E+00  0.00000000000E+00  0.10445332559E+04  0.10445332559E+04  0.25500000920E-02 0.  1.
        2   -1    0    0  501    0  0.00000000000E+00  0.00000000000E+00 -0.23011666600E+04  0.23011666600E+04  0.25500000920E-02 0. -1.
    10030    2    1    2    0    0  0.00000000000E+00  0.00000000000E+00 -0.12566334041E+04  0.33456999159E+04  0.31007386886E+04 0.  0.
        1    1    3    3  502    0  0.13409687992E+04 -0.31235510927E+03  0.14064242720E+03  0.13840315485E+04  0.50400001928E-02 0.  1.
       -1    1    3    3    0  502 -0.13409687992E+04  0.31235510927E+03 -0.13972758313E+04  0.19616683674E+04  0.50400001928E-02 0. -1.
</event>
<event>
 5   0  0.1875284E-07  0.3095059E+04  0.7818609E-02  0.8217095E-01
        1   -1    0    0  501    0  0.00000000000E+00  0.00000000000E+00  0.22981389609E+04  0.22981389609E+04  0.50400001928E-02 0. -1.
       -1   -1    0    0    0  501  0.00000000000E+00  0.00000000000E+00 -0.10420809352E+04  0.10420809353E+04  0.50400001928E-02 0.  1.
    10030    2    1    2    0    0  0.00000000000E+00  0.00000000000E+00  0.12560580257E+04  0.33402198962E+04  0.30950585117E+04 0.  0.
        4    1    3    3  502    0 -0.57335252237E+03 -0.91189480068E+03  0.18271480160E+04  0.21210272812E+04  0.12699999809E+01 0. -1.
       -4    1    3    3    0  502  0.57335252237E+03  0.91189480068E+03 -0.57108999033E+03  0.12191926150E+04  0.12699999809E+01 0.  1.
</event>
<event>
 5   0  0.1830902E-07  0.3100058E+04  0.7818609E-02  0.8215722E-01
       -1   -1    0    0    0  501  0.00000000000E+00  0.00000000000E+00  0.14169271955E+04  0.14169271955E+04  0.50400001928E-02 0. -1.
        1   -1    0    0  501    0  0.00000000000E+00  0.00000000000E+00 -0.16956337385E+04  0.16956337385E+04  0.50400001928E-02 0.  1.
    10030    2    1    2    0    0  0.00000000000E+00  0.00000000000E+00 -0.27870654304E+03  0.31125609340E+04  0.31000577786E+04 0.  0.
        3    1    3    3  502    0 -0.15655215130E+03  0.14091011949E+04  0.48968358015E+03  0.14999549235E+04  0.10100000352E+00 0. -1.
       -3    1    3    3    0  502  0.15655215130E+03 -0.14091011949E+04 -0.76839012319E+03  0.16126060105E+04  0.10100000352E+00 0.  1.
</event>
<event>
 5   0  0.5154105E-07  0.3094205E+04  0.7818609E-02  0.8217330E-01
       -2   -1    0    0    0  501  0.00000000000E+00  0.00000000000E+00  0.12341112603E+04  0.12341112603E+04  0.25500000920E-02 0.  1.
        2   -1    0    0  501    0  0.00000000000E+00  0.00000000000E+00 -0.19394730472E+04  0.19394730472E+04  0.25500000920E-02 0. -1.
    10030    2    1    2    0    0  0.00000000000E+00  0.00000000000E+00 -0.70536178692E+03  0.31735843075E+04  0.30942046000E+04 0.  0.
        1    1    3    3  502    0  0.14687981082E+03 -0.10256904846E+04  0.82566642156E+03  0.13248923310E+04  0.50400001928E-02 0.  1.
       -1    1    3    3    0  502 -0.14687981082E+03  0.10256904846E+04 -0.15310282085E+04  0.18486919765E+04  0.50400001928E-02 0. -1.
</event>
<event>
 5   0  0.1845123E-07  0.3088646E+04  0.7818609E-02  0.8218861E-01
        1   -1    0    0  501    0  0.00000000000E+00  0.00000000000E+00  0.18458017700E+04  0.18458017700E+04  0.50400001928E-02 0.  1.
       -1   -1    0    0    0  501  0.00000000000E+00  0.00000000000E+00 -0.12920857247E+04  0.12920857247E+04  0.50400001928E-02 0. -1.
    10030    2    1    2    0    0  0.00000000000E+00  0.00000000000E+00  0.55371604531E+03  0.31378874947E+04  0.30886463816E+04 0.  0.
        2    1    3    3  502    0 -0.14162453436E+04 -0.60950462090E+03  0.36593343374E+03  0.15846621198E+04  0.25500000920E-02 0.  1.
       -2    1    3    3    0  502  0.14162453436E+04  0.60950462090E+03  0.18778261158E+03  0.15532253749E+04  0.25500000920E-02 0. -1.
</event>
<event>
 5   0  0.5055900E-07  0.3097236E+04  0.7818609E-02  0.8216497E-01
        2   -1    0    0  501    0  0.00000000000E+00  0.00000000000E+00  0.16318113206E+04  0.16318113206E+04  0.25500000920E-02 0.  1.
       -2   -1    0    0    0  501  0.00000000000E+00  0.00000000000E+00 -0.14696665259E+04  0.14696665259E+04  0.25500000920E-02 0. -1.
    10030    2    1    2    0    0  0.00000000000E+00  0.00000000000E+00  0.16214479476E+03  0.31014778465E+04  0.30972364937E+04 0.  0.
        2    1    3    3  502    0 -0.59376360917E+03  0.62522269221E+03  0.13692086450E+04  0.16180824923E+04  0.25500000920E-02 0.  1.
       -2    1    3    3    0  502  0.59376360917E+03 -0.62522269221E+03 -0.12070638502E+04  0.14833953542E+04  0.25500000920E-02 0. -1.
</event>
<event>
 5   0  0.1875284E-07  0.3098816E+04  0.7818609E-02  0.8216063E-01
        1   -1    0    0  501    0  0.00000000000E+00  0.00000000000E+00  0.20829014816E+04  0.20829014816E+04  0.50400001928E-02 0.  1.
       -1   -1    0    0    0  501  0.00000000000E+00  0.00000000000E+00 -0.11525579603E+04  0.11525579603E+04  0.50400001928E-02 0. -1.
    10030    2    1    2    0    0  0.00000000000E+00  0.00000000000E+00  0.93034352124E+03  0.32354594419E+04  0.30988156984E+04 0.  0.
        4    1    3    3  502    0 -0.44487956538E+03 -0.60049748960E+03  0.18822782050E+04  0.20252130547E+04  0.12699999809E+01 0.  1.
       -4    1    3    3    0  502  0.44487956538E+03  0.60049748960E+03 -0.95193468380E+03  0.12102463872E+04  0.12699999809E+01 0. -1.
</event>
<event>
 5   0  0.5376678E-07  0.3086167E+04  0.7818609E-02  0.8219544E-01
        2   -1    0    0  501    0  0.00000000000E+00  0.00000000000E+00  0.23391906627E+04  0.23391906627E+04  0.25500000920E-02 0.  1.
       -2   -1    0    0    0  501  0.00000000000E+00  0.00000000000E+00 -0.10179192372E+04  0.10179192372E+04  0.25500000920E-02 0. -1.
    10030    2    1    2    0    0  0.00000000000E+00  0.00000000000E+00  0.13212714255E+04  0.33571098999E+04  0.30861673157E+04 0.  0.
        5    1    3    3  502    0  0.23729628438E+03  0.15185378888E+04  0.80985864798E+03  0.17372852287E+04  0.46999998093E+01 0.  1.
       -5    1    3    3    0  502 -0.23729628438E+03 -0.15185378888E+04  0.51141277747E+03  0.16198246711E+04  0.46999998093E+01 0. -1.
</event>
<event>
 5   0  0.1875284E-07  0.3095918E+04  0.7818609E-02  0.8216859E-01
       -1   -1    0    0    0  501  0.00000000000E+00  0.00000000000E+00  0.15492454739E+04  0.15492454739E+04  0.50400001928E-02 0. -1.
        1   -1    0    0  501    0  0.00000000000E+00  0.00000000000E+00 -0.15466736118E+04  0.15466736118E+04  0.50400001928E-02 0.  1.
    10030    2    1    2    0    0  0.00000000000E+00  0.00000000000E+00  0.25718620821E+01  0.30959190857E+04  0.30959180175E+04 0.  0.
        4    1    3    3  502    0 -0.12565605198E+04 -0.69175624225E+03  0.58326932850E+03  0.15484430119E+04  0.12699999809E+01 0.  1.
       -4    1    3    3    0  502  0.12565605198E+04  0.69175624225E+03 -0.58069746642E+03  0.15474760738E+04  0.12699999809E+01 0. -1.
</event>
<event>
 5   0  0.5154105E-07  0.3093469E+04  0.7818609E-02  0.8217533E-01
       -2   -1    0    0    0  501  0.00000000000E+00  0.00000000000E+00  0.10050911859E+04  0.10050911859E+04  0.25500000920E-02 0.  1.
        2   -1    0    0  501    0  0.00000000000E+00  0.00000000000E+00 -0.23802695860E+04  0.23802695860E+04  0.25500000920E-02 0. -1.
    10030    2    1    2    0    0  0.00000000000E+00  0.00000000000E+00 -0.13751784001E+04  0.33853607719E+04  0.30934692375E+04 0.  0.
        1    1    3    3  502    0  0.58856740308E+03 -0.14271341342E+04 -0.58225450163E+03  0.16498920358E+04  0.50400001928E-02 0.  1.
       -1    1    3    3    0  502 -0.58856740308E+03  0.14271341342E+04 -0.79292389851E+03  0.17354687361E+04  0.50400001928E-02 0. -1.
</event>
<event>
 5   0  0.1845123E-07  0.3100765E+04  0.7818609E-02  0.8215528E-01
       -1   -1    0    0    0  501  0.00000000000E+00  0.00000000000E+00  0.16171498433E+04  0.16171498433E+04  0.50400001928E-02 0.  1.
        1   -1    0    0  501    0  0.00000000000E+00  0.00000000000E+00 -0.14863716240E+04  0.14863716240E+04  0.50400001928E-02 0. -1.
    10030    2    1    2    0    0  0.00000000000E+00  0.00000000000E+00  0.13077821927E+03  0.31035214673E+04  0.31007648340E+04 0.  0.
        2    1    3    3  502    0 -0.10297335301E+04  0.76748902348E+03  0.93466286028E+03  0.15883907600E+04  0.25500000920E-02 0.  1.
       -2    1    3    3    0  502  0.10297335301E+04 -0.76748902348E+03 -0.80388464101E+03  0.15151307073E+04  0.25500000920E-02 0. -1.
</event>
<event>
 5   0  0.1845123E-07  0.3101377E+04  0.7818609E-02  0.8215360E-01
       -1   -1    0    0    0  501  0.00000000000E+00  0.00000000000E+00  0.10232772251E+04  0.10232772251E+04  0.50400001928E-02 0.  1.
        1   -1    0    0  501    0  0.00000000000E+00  0.00000000000E+00 -0.23499352890E+04  0.23499352891E+04  0.50400001928E-02 0. -1.
    10030    2    1    2    0    0  0.00000000000E+00  0.00000000000E+00 -0.13266580640E+04  0.33732125141E+04  0.31013772822E+04 0.  0.
        2    1    3    3  502    0 -0.15314065452E+04  0.56487613425E+02 -0.92126125245E+03  0.17880489793E+04  0.25500000920E-02 0.  1.
       -2    1    3    3    0  502  0.15314065452E+04 -0.56487613425E+02 -0.40539681153E+03  0.15851635348E+04  0.25500000920E-02 0. -1.
</event>
<event>
 5   0  0.1830902E-07  0.3112599E+04  0.7818609E-02  0.8212289E-01
        1   -1    0    0  501    0  0.00000000000E+00  0.00000000000E+00  0.14937454456E+04  0.14937454456E+04  0.50400001928E-02 0. -1.
       -1   -1    0    0    0  501  0.00000000000E+00  0.00000000000E+00 -0.16214731161E+04  0.16214731161E+04  0.50400001928E-02 0.  1.
    10030    2    1    2    0    0  0.00000000000E+00  0.00000000000E+00 -0.12772767055E+03  0.31152185617E+04  0.31125989670E+04 0.  0.
        3    1    3    3  502    0 -0.83161119424E+03  0.55146180873E+03 -0.12591808185E+04  0.16066187005E+04  0.10100000352E+00 0.  1.
       -3    1    3    3    0  502  0.83161119424E+03 -0.55146180873E+03  0.11314531480E+04  0.15085998612E+04  0.10100000352E+00 0. -1.
</event>
<event>
 5   0  0.1814075E-07  0.3138187E+04  0.7818609E-02  0.8205335E-01
        1   -1    0    0  501    0  0.00000000000E+00  0.00000000000E+00  0.16177835059E+04  0.16177835059E+04  0.50400001928E-02 0. -1.
       -1   -1    0    0    0  501  0.00000000000E+00  0.00000000000E+00 -0.15218691263E+04  0.15218691264E+04  0.50400001928E-02 0.  1.
    10030    2    1    2    0    0  0.00000000000E+00  0.00000000000E+00  0.95914379558E+02  0.31396526323E+04  0.31381872288E+04 0.  0.
        5    1    3    3  502    0 -0.31876218080E+03  0.15224141359E+04 -0.15872715667E+03  0.15635122416E+04  0.46999998093E+01 0.  1.
       -5    1    3    3    0  502  0.31876218080E+03 -0.15224141359E+04  0.25464153623E+03  0.15761403907E+04  0.46999998093E+01 0. -1.
</event>
<event>
 5   0  0.1875284E-07  0.3104294E+04  0.7818609E-02  0.8214561E-01
        1   -1    0    0  501    0  0.00000000000E+00  0.00000000000E+00  0.34057946178E+04  0.34057946178E+04  0.50400001928E-02 0.  1.
       -1   -1    0    0    0  501  0.00000000000E+00  0.00000000000E+00 -0.70737086933E+03  0.70737086935E+03  0.50400001928E-02 0. -1.
    10030    2    1    2    0    0  0.00000000000E+00  0.00000000000E+00  0.26984237485E+04  0.41131654871E+04  0.31042937358E+04 0.  0.
        4    1    3    3  502    0 -0.68289802285E+03 -0.27580700767E+03 -0.46110743323E+03  0.86893089080E+03  0.12699999809E+01 0. -1.
       -4    1    3    3    0  502  0.68289802285E+03  0.27580700767E+03  0.31595311817E+04  0.32442345963E+04  0.12699999809E+01 0.  1.
</event>
<event>
 5   0  0.5248309E-07  0.3099303E+04  0.7818609E-02  0.8215929E-01
       -2   -1    0    0    0  501  0.00000000000E+00  0.00000000000E+00  0.12692329141E+04  0.12692329141E+04  0.25500000920E-02 0.  1.
        2   -1    0    0  501    0  0.00000000000E+00  0.00000000000E+00 -0.18920250376E+04  0.18920250376E+04  0.25500000920E-02 0. -1.
    10030    2    1    2    0    0  0.00000000000E+00  0.00000000000E+00 -0.62279212346E+03  0.31612579517E+04  0.30993034392E+04 0.  0.
        4    1    3    3  502    0  0.54143100793E+03  0.64762895457E+03 -0.16369308302E+04  0.18417695173E+04  0.12699999809E+01 0. -1.
       -4    1    3    3    0  502 -0.54143100793E+03 -0.64762895457E+03  0.10141387067E+04  0.13194884344E+04  0.12699999809E+01 0.  1.
</event>
<event>
 5   0  0.5154105E-07  0.3101447E+04  0.7818609E-02  0.8215341E-01
        2   -1    0    0  501    0  0.00000000000E+00  0.00000000000E+00  0.19067552188E+04  0.19067552188E+04  0.25500000920E-02 0. -1.
       -2   -1    0    0    0  501  0.00000000000E+00  0.00000000000E+00 -0.12611702668E+04  0.12611702668E+04  0.25500000920E-02 0.  1.
    10030    2    1    2    0    0  0.00000000000E+00  0.00000000000E+00  0.64558495205E+03  0.31679254856E+04  0.31014467515E+04 0.  0.
        1    1    3    3  502    0  0.67764222308E+03 -0.65455177892E+03 -0.93531744735E+03  0.13275751358E+04  0.50400001928E-02 0.  1.
       -1    1    3    3    0  502 -0.67764222308E+03  0.65455177892E+03  0.15809023994E+04  0.18403503499E+04  0.50400001928E-02 0. -1.
</event>
<event>
 5   0  0.5376678E-07  0.3036547E+04  0.7818609E-02  0.8233371E-01
        2   -1    0    0  501    0  0.00000000000E+00  0.00000000000E+00  0.18383872404E+04  0.18383872404E+04  0.25500000920E-02 0. -1.
       -2   -1    0    0    0  501  0.00000000000E+00  0.00000000000E+00 -0.12539000991E+04  0.12539000991E+04  0.25500000920E-02 0.  1.
    10030    2    1    2    0    0  0.00000000000E+00  0.00000000000E+00  0.58448714131E+03  0.30922873396E+04  0.30365466853E+04 0.  0.
        5    1    3    3  502    0  0.36753598376E+03  0.97330768008E+03  0.14183089881E+04  0.17589863602E+04  0.46999998093E+01 0. -1.
       -5    1    3    3    0  502 -0.36753598376E+03 -0.97330768008E+03 -0.83382184680E+03  0.13333009794E+04  0.46999998093E+01 0.  1.
</event>
<event>
 5   0  0.5055900E-07  0.3098812E+04  0.7818609E-02  0.8216064E-01
        2   -1    0    0  501    0  0.00000000000E+00  0.00000000000E+00  0.14492273064E+04  0.14492273064E+04  0.25500000920E-02 0. -1.
       -2   -1    0    0    0  501  0.00000000000E+00  0.00000000000E+00 -0.16565091390E+04  0.16565091390E+04  0.25500000920E-02 0.  1.
    10030    2    1    2    0    0  0.00000000000E+00  0.00000000000E+00 -0.20728183258E+03  0.31057364454E+04  0.30988115641E+04 0.  0.
        2    1    3    3  502    0  0.56320887318E+02 -0.13440298377E+04 -0.87416975937E+03  0.16042945537E+04  0.25500000920E-02 0.  1.
       -2    1    3    3    0  502 -0.56320887318E+02  0.13440298377E+04  0.66688792679E+03  0.15014418916E+04  0.25500000920E-02 0. -1.
</event>
<event>
 5   0  0.1845123E-07  0.3095276E+04  0.7818609E-02  0.8217036E-01
        1   -1    0    0  501    0  0.00000000000E+00  0.00000000000E+00  0.24722652882E+04  0.24722652882E+04  0.50400001928E-02 0. -1.
       -1   -1    0    0    0  501  0.00000000000E+00  0.00000000000E+00 -0.96882127753E+03  0.96882127754E+03  0.50400001928E-02 0.  1.
    10030    2    1    2    0    0  0.00000000000E+00  0.00000000000E+00  0.15034440107E+04  0.34410865658E+04  0.30952758940E+04 0.  0.
        2    1    3    3  502    0 -0.96840998199E+03  0.23857267996E+03  0.20673399491E+04  0.22953494902E+04  0.25500000920E-02 0. -1.
       -2    1    3    3    0  502  0.96840998199E+03 -0.23857267996E+03 -0.56389593848E+03  0.11457370755E+04  0.25500000920E-02 0.  1.
</event>
<event>
 5   0  0.1840359E-07  0.3101094E+04  0.7818609E-02  0.8215438E-01
       -1   -1    0    0    0  501  0.00000000000E+00  0.00000000000E+00  0.31178581961E+04  0.31178581961E+04  0.50400001928E-02 0.  1.
        1   -1    0    0  501    0  0.00000000000E+00  0.00000000000E+00 -0.77110493201E+03  0.77110493202E+03  0.50400001928E-02 0. -1.
    10030    2    1    2    0    0  0.00000000000E+00  0.00000000000E+00  0.23467532641E+04  0.38889631281E+04  0.31010938924E+04 0.  0.
        1    1    3    3  502    0  0.92451493764E+03  0.83692217403E+03  0.23289039916E+04  0.26417722077E+04  0.50400001928E-02 0.  1.
       -1    1    3    3    0  502 -0.92451493764E+03 -0.83692217403E+03  0.17849272446E+02  0.12471909204E+04  0.50400001928E-02 0. -1.
</event>
<event>
 5   0  0.5376678E-07  0.3083246E+04  0.7818609E-02  0.8220351E-01
       -2   -1    0    0    0  501  0.00000000000E+00  0.00000000000E+00  0.15880351081E+04  0.15880351081E+04  0.25500000920E-02 0.  1.
        2   -1    0    0  501    0  0.00000000000E+00  0.00000000000E+00 -0.14965677512E+04  0.14965677512E+04  0.25500000920E-02 0. -1.
    10030    2    1    2    0    0  0.00000000000E+00  0.00000000000E+00  0.91467356884E+02  0.30846028593E+04  0.30832464258E+04 0.  0.
        5    1    3    3  502    0 -0.64436340789E+03  0.93390249127E+03  0.10898412145E+04  0.15732622246E+04  0.46999998093E+01 0.  1.
       -5    1    3    3    0  502  0.64436340789E+03 -0.93390249127E+03 -0.99837385757E+03  0.15113406347E+04  0.46999998093E+01 0. -1.
</event>
<event>
 5   0  0.5154105E-07  0.3103541E+04  0.7818609E-02  0.8214767E-01
        2   -1    0    0  501    0  0.00000000000E+00  0.00000000000E+00  0.18691842294E+04  0.18691842294E+04  0.25500000920E-02 0. -1.
       -2   -1    0    0    0  501  0.00000000000E+00  0.00000000000E+00 -0.12882583503E+04  0.12882583503E+04  0.25500000920E-02 0.  1.
    10030    2    1    2    0    0  0.00000000000E+00  0.00000000000E+00  0.58092587913E+03  0.31574425797E+04  0.31035413268E+04 0.  0.
        1    1    3    3  502    0 -0.28797898681E+03  0.13710573445E+04 -0.38840573737E+03  0.14538188180E+04  0.50400001928E-02 0.  1.
       -1    1    3    3    0  502  0.28797898681E+03 -0.13710573445E+04  0.96933161650E+03  0.17036237617E+04  0.50400001928E-02 0. -1.
</event>
<event>
 5   0  0.1814075E-07  0.3100844E+04  0.7818609E-02  0.8215506E-01
        1   -1    0    0  501    0  0.00000000000E+00  0.00000000000E+00  0.17057196882E+04  0.17057196882E+04  0.50400001928E-02 0.  1.
       -1   -1    0    0    0  501  0.00000000000E+00  0.00000000000E+00 -0.14092629788E+04  0.14092629788E+04  0.50400001928E-02 0. -1.
    10030    2    1    2    0    0  0.00000000000E+00  0.00000000000E+00  0.29645670941E+03  0.31149826671E+04  0.31008435039E+04 0.  0.
        5    1    3    3  502    0  0.11767835079E+04  0.26309773429E+03 -0.83076433446E+03  0.14643194022E+04  0.46999998093E+01 0. -1.
       -5    1    3    3    0  502 -0.11767835079E+04 -0.26309773429E+03  0.11272210439E+04  0.16506632649E+04  0.46999998093E+01 0.  1.
</event>
<event>
 5   0  0.1830902E-07  0.3102687E+04  0.7818609E-02  0.8215001E-01
        1   -1    0    0  501    0  0.00000000000E+00  0.00000000000E+00  0.21823449111E+04  0.21823449111E+04  0.50400001928E-02 0.  1.
       -1   -1    0    0    0  501  0.00000000000E+00  0.00000000000E+00 -0.11027895388E+04  0.11027895388E+04  0.50400001928E-02 0. -1.
    10030    2    1    2    0    0  0.00000000000E+00  0.00000000000E+00  0.10795553723E+04  0.32851344498E+04  0.31026873113E+04 0.  0.
        3    1    3    3  502    0  0.21748634488E+03 -0.77440388530E+03 -0.86474963360E+03  0.11810138131E+04  0.10100000352E+00 0. -1.
       -3    1    3    3    0  502 -0.21748634488E+03  0.77440388530E+03  0.19443050059E+04  0.21041206367E+04  0.10100000352E+00 0.  1.
</event>
<event>
 5   0  0.5376678E-07  0.3100024E+04  0.7818609E-02  0.8215731E-01
       -2   -1    0    0    0  501  0.00000000000E+00  0.00000000000E+00  0.16796201386E+04  0.16796201386E+04  0.25500000920E-02 0.  1.
        2   -1    0    0  501    0  0.00000000000E+00  0.00000000000E+00 -0.14304047798E+04  0.14304047798E+04  0.25500000920E-02 0. -1.
    10030    2    1    2    0    0  0.00000000000E+00  0.00000000000E+00  0.24921535882E+03  0.31100249184E+04  0.31000236608E+04 0.  0.
        5    1    3    3  502    0 -0.14470692198E+04 -0.10796259477E+03  0.67120424792E+03  0.15988128349E+04  0.46999998093E+01 0. -1.
       -5    1    3    3    0  502  0.14470692198E+04  0.10796259477E+03 -0.42198888910E+03  0.15112120834E+04  0.46999998093E+01 0.  1.
</event>
<event>
 5   0  0.1830902E-07  0.3097888E+04  0.7818609E-02  0.8216318E-01
       -1   -1    0    0    0  501  0.00000000000E+00  0.00000000000E+00  0.12811671312E+04  0.12811671313E+04  0.50400001928E-02 0. -1.
        1   -1    0    0  501    0  0.00000000000E+00  0.00000000000E+00 -0.18726883991E+04  0.18726883991E+04  0.50400001928E-02 0.  1.
    10030    2    1    2    0    0  0.00000000000E+00  0.00000000000E+00 -0.59152126781E+03  0.31538555303E+04  0.30978875538E+04 0.  0.
        3    1    3    3  502    0  0.69460692701E+03  0.12802963091E+04  0.24062554434E+03  0.14763258736E+04  0.10100000352E+00 0. -1.
       -3    1    3    3    0  502 -0.69460692701E+03 -0.12802963091E+04 -0.83214681215E+03  0.16775296568E+04  0.10100000352E+00 0.  1.
</event>
<event>
 5   0  0.5342534E-07  0.3098156E+04  0.7818609E-02  0.8216244E-01
       -2   -1    0    0    0  501  0.00000000000E+00  0.00000000000E+00  0.81935743493E+03  0.81935743494E+03  0.25500000920E-02 0.  1.
        2   -1    0    0  501    0  0.00000000000E+00  0.00000000000E+00 -0.29286884256E+04  0.29286884256E+04  0.25500000920E-02 0. -1.
    10030    2    1    2    0    0  0.00000000000E+00  0.00000000000E+00 -0.21093309907E+04  0.37480458606E+04  0.30981559910E+04 0.  0.
        3    1    3    3  502    0 -0.87245569963E+03 -0.32315352757E+02  0.49337237544E+03  0.10028158061E+04  0.10100000352E+00 0.  1.
       -3    1    3    3    0  502  0.87245569963E+03  0.32315352757E+02 -0.26027033662E+04  0.27452300545E+04  0.10100000352E+00 0. -1.
</event>
<event>
 5   0  0.1845123E-07  0.3104198E+04  0.7818609E-02  0.8214587E-01
        1   -1    0    0  501    0  0.00000000000E+00  0.00000000000E+00  0.15034026614E+04  0.15034026614E+04  0.50400001928E-02 0.  1.
       -1   -1    0    0    0  501  0.00000000000E+00  0.00000000000E+00 -0.16023726804E+04  0.16023726805E+04  0.50400001928E-02 0. -1.
    10030    2    1    2    0    0  0.00000000000E+00  0.00000000000E+00 -0.98970019003E+02  0.31057753419E+04  0.31041980300E+04 0.  0.
        2    1    3    3  502    0  0.89656854275E+03  0.87218470285E+03  0.86993244228E+03  0.15235891053E+04  0.25500000920E-02 0.  1.
       -2    1    3    3    0  502 -0.89656854275E+03 -0.87218470285E+03 -0.96890246128E+03  0.15821862366E+04  0.25500000920E-02 0. -1.
</event>
<event>
 5   0  0.5154105E-07  0.3102078E+04  0.7818609E-02  0.8215168E-01
       -2   -1    0    0    0  501  0.00000000000E+00  0.00000000000E+00  0.14833785462E+04  0.14833785462E+04  0.25500000920E-02 0. -1.
        2   -1    0    0  501    0  0.00000000000E+00  0.00000000000E+00 -0.16217855526E+04  0.16217855526E+04  0.25500000920E-02 0.  1.
    10030    2    1    2    0    0  0.00000000000E+00  0.00000000000E+00 -0.13840700639E+03  0.31051640988E+04  0.31020779456E+04 0.  0.
        1    1    3    3  502    0  0.14763618349E+04  0.51569792940E+02 -0.54234507587E+03  0.15736714690E+04  0.50400001928E-02 0.  1.
       -1    1    3    3    0  502 -0.14763618349E+04 -0.51569792940E+02  0.40393806948E+03  0.15314926298E+04  0.50400001928E-02 0. -1.
</event>
<event>
 5   0  0.1845123E-07  0.3097958E+04  0.7818609E-02  0.8216299E-01
       -1   -1    0    0    0  501  0.00000000000E+00  0.00000000000E+00  0.16231933641E+04  0.16231933641E+04  0.50400001928E-02 0. -1.
        1   -1    0    0  501    0  0.00000000000E+00  0.00000000000E+00 -0.14781573479E+04  0.14781573479E+04  0.50400001928E-02 0.  1.
    10030    2    1    2    0    0  0.00000000000E+00  0.00000000000E+00  0.14503601620E+03  0.31013507120E+04  0.30979575195E+04 0.  0.
        2    1    3    3  502    0 -0.19825850597E+03 -0.21535388118E+03 -0.14502172049E+04  0.14794639808E+04  0.25500000920E-02 0.  1.
       -2    1    3    3    0  502  0.19825850597E+03  0.21535388118E+03  0.15952532211E+04  0.16218867311E+04  0.25500000920E-02 0. -1.
</event>
<event>
 5   0  0.5248309E-07  0.3119223E+04  0.7818609E-02  0.8210482E-01
       -2   -1    0    0    0  501  0.00000000000E+00  0.00000000000E+00  0.12203558272E+04  0.12203558272E+04  0.25500000920E-02 0.  1.
        2   -1    0    0  501    0  0.00000000000E+00  0.00000000000E+00 -0.19931794394E+04  0.19931794394E+04  0.25500000920E-02 0. -1.
    10030    2    1    2    0    0  0.00000000000E+00  0.00000000000E+00 -0.77282361222E+03  0.32135352667E+04  0.31192230722E+04 0.  0.
        4    1    3    3  502    0  0.28570850330E+03  0.42904743422E+03 -0.19028809227E+04  0.19714635346E+04  0.12699999809E+01 0. -1.
       -4    1    3    3    0  502 -0.28570850330E+03 -0.42904743422E+03  0.11300573105E+04  0.12420717320E+04  0.12699999809E+01 0.  1.
</event>
<event>
 5   0  0.1875284E-07  0.3106467E+04  0.7818609E-02  0.8213965E-01
       -1   -1    0    0    0  501  0.00000000000E+00  0.00000000000E+00  0.83287094540E+03  0.83287094541E+03  0.50400001928E-02 0.  1.
        1   -1    0    0  501    0  0.00000000000E+00  0.00000000000E+00 -0.28966476015E+04  0.28966476015E+04  0.50400001928E-02 0. -1.
    10030    2    1    2    0    0  0.00000000000E+00  0.00000000000E+00 -0.20637766561E+04  0.37295185469E+04  0.31064665628E+04 0.  0.
        4    1    3    3  502    0 -0.87569676713E+02 -0.12374404367E+04 -0.21540193698E+04  0.24857047976E+04  0.12699999809E+01 0. -1.
       -4    1    3    3    0  502  0.87569676713E+02  0.12374404367E+04  0.90242713663E+02  0.12438137493E+04  0.12699999809E+01 0.  1.
</event>
<event>
 5   0  0.1845123E-07  0.3105162E+04  0.7818609E-02  0.8214323E-01
       -1   -1    0    0    0  501  0.00000000000E+00  0.00000000000E+00  0.25655994606E+04  0.25655994606E+04  0.50400001928E-02 0. -1.
        1   -1    0    0  501    0  0.00000000000E+00  0.00000000000E+00 -0.93954972744E+03  0.93954972745E+03  0.50400001928E-02 0.  1.
    10030    2    1    2    0    0  0.00000000000E+00  0.00000000000E+00  0.16260497331E+04  0.35051491880E+04  0.31051623300E+04 0.  0.
        2    1    3    3  502    0 -0.10190084728E+04  0.11586756360E+04  0.61881389818E+03  0.16624795149E+04  0.25500000920E-02 0.  1.
       -2    1    3    3    0  502  0.10190084728E+04 -0.11586756360E+04  0.10072358349E+04  0.18426696731E+04  0.25500000920E-02 0. -1.
</event>
<event>
 5   0  0.1814075E-07  0.3102044E+04  0.7818609E-02  0.8215177E-01
       -1   -1    0    0    0  501  0.00000000000E+00  0.00000000000E+00  0.18115893841E+04  0.18115893842E+04  0.50400001928E-02 0.  1.
        1   -1    0    0  501    0  0.00000000000E+00  0.00000000000E+00 -0.13279326740E+04  0.13279326740E+04  0.50400001928E-02 0. -1.
    10030    2    1    2    0    0  0.00000000000E+00  0.00000000000E+00  0.48365671013E+03  0.31395220582E+04  0.31020436716E+04 0.  0.
        5    1    3    3  502    0 -0.39982377279E+03  0.70504873804E+03 -0.10965303414E+04  0.13635811864E+04  0.46999998093E+01 0.  1.
       -5    1    3    3    0  502  0.39982377279E+03 -0.70504873804E+03  0.15801870515E+04  0.17759408718E+04  0.46999998093E+01 0. -1.
</event>
<event>
 5   0  0.1845123E-07  0.3098624E+04  0.7818609E-02  0.8216116E-01
        1   -1    0    0  501    0  0.00000000000E+00  0.00000000000E+00  0.25867811884E+04  0.25867811884E+04  0.50400001928E-02 0.  1.
       -1   -1    0    0    0  501  0.00000000000E+00  0.00000000000E+00 -0.92793630402E+03  0.92793630403E+03  0.50400001928E-02 0. -1.
    10030    2    1    2    0    0  0.00000000000E+00  0.00000000000E+00  0.16588448843E+04  0.35147174924E+04  0.30986243240E+04 0.  0.
        2    1    3    3  502    0  0.14825215149E+04 -0.39664963966E+03  0.58835805026E+03  0.16435833335E+04  0.25500000920E-02 0.  1.
       -2    1    3    3    0  502 -0.14825215149E+04  0.39664963966E+03  0.10704868341E+04  0.18711341589E+04  0.25500000920E-02 0. -1.
</event>
<event>
 5   0  0.1830902E-07  0.3097408E+04  0.7818609E-02  0.8216450E-01
       -1   -1    0    0    0  501  0.00000000000E+00  0.00000000000E+00  0.14601277369E+04  0.14601277369E+04  0.50400001928E-02 0.  1.
        1   -1    0    0  501    0  0.00000000000E+00  0.00000000000E+00 -0.16426531988E+04  0.16426531988E+04  0.50400001928E-02 0. -1.
    10030    2    1    2    0    0  0.00000000000E+00  0.00000000000E+00 -0.18252546190E+03  0.31027809358E+04  0.30974076243E+04 0.  0.
        3    1    3    3  502    0 -0.91947262406E+03 -0.88656027522E+03  0.78607878726E+03  0.14997796165E+04  0.10100000352E+00 0.  1.
       -3    1    3    3    0  502  0.91947262406E+03  0.88656027522E+03 -0.96860424916E+03  0.16030013193E+04  0.10100000352E+00 0. -1.
</event>
<event>
 5   0  0.1814075E-07  0.3100182E+04  0.7818609E-02  0.8215688E-01
        1   -1    0    0  501    0  0.00000000000E+00  0.00000000000E+00  0.18033498867E+04  0.18033498868E+04  0.50400001928E-02 0. -1.
       -1   -1    0    0    0  501  0.00000000000E+00  0.00000000000E+00 -0.13323992669E+04  0.13323992669E+04  0.50400001928E-02 0.  1.
    10030    2    1    2    0    0  0.00000000000E+00  0.00000000000E+00  0.47095061988E+03  0.31357491536E+04  0.31001819734E+04 0.  0.
        5    1    3    3  502    0  0.38187643984E+03 -0.63842759034E+03  0.16109815853E+04  0.17744585544E+04  0.46999998093E+01 0. -1.
       -5    1    3    3    0  502 -0.38187643984E+03  0.63842759034E+03 -0.11400309654E+04  0.13612905992E+04  0.46999998093E+01 0.  1.
</event>
<event>
 5   0  0.1814075E-07  0.3103220E+04  0.7818609E-02  0.8214855E-01
       -1   -1    0    0    0  501  0.00000000000E+00  0.00000000000E+00  0.22731034721E+04  0.22731034721E+04  0.50400001928E-02 0.  1.
        1   -1    0    0  501    0  0.00000000000E+00  0.00000000000E+00 -0.10591221177E+04  0.10591221178E+04  0.50400001928E-02 0. -1.
    10030    2    1    2    0    0  0.00000000000E+00  0.00000000000E+00  0.12139813543E+04  0.33322255898E+04  0.31032203681E+04 0.  0.
        5    1    3    3  502    0 -0.11759716336E+04 -0.44005290518E+03 -0.37182383416E+03  0.13095155196E+04  0.46999998093E+01 0. -1.
       -5    1    3    3    0  502  0.11759716336E+04  0.44005290518E+03  0.15858051885E+04  0.20227100703E+04  0.46999998093E+01 0.  1.
</event>
<event>
 5   0  0.1814075E-07  0.3113789E+04  0.7818609E-02  0.8211964E-01
        1   -1    0    0  501    0  0.00000000000E+00  0.00000000000E+00  0.21109640960E+04  0.21109640960E+04  0.50400001928E-02 0.  1.
       -1   -1    0    0    0  501  0.00000000000E+00  0.00000000000E+00 -0.11482525525E+04  0.11482525525E+04  0.50400001928E-02 0. -1.
    10030    2    1    2    0    0  0.00000000000E+00  0.00000000000E+00  0.96271154348E+03  0.32592166485E+04  0.31137886322E+04 0.  0.
        5    1    3    3  502    0  0.87090111718E+03 -0.10581219472E+04 -0.29193647545E+03  0.14011922804E+04  0.46999998093E+01 0. -1.
       -5    1    3    3    0  502 -0.87090111718E+03  0.10581219472E+04  0.12546480189E+04  0.18580243681E+04  0.46999998093E+01 0.  1.
</event>
<event>
 5   0  0.5248309E-07  0.3096804E+04  0.7818609E-02  0.8216616E-01
       -2   -1    0    0    0  501  0.00000000000E+00  0.00000000000E+00  0.15572820703E+04  0.15572820703E+04  0.25500000920E-02 0. -1.
        2   -1    0    0  501    0  0.00000000000E+00  0.00000000000E+00 -0.15395727927E+04  0.15395727927E+04  0.25500000920E-02 0.  1.
    10030    2    1    2    0    0  0.00000000000E+00  0.00000000000E+00  0.17709277558E+02  0.30968548630E+04  0.30968042276E+04 0.  0.
        4    1    3    3  502    0 -0.11894893223E+04 -0.37835596041E+03  0.92511708264E+03  0.15536670526E+04  0.12699999809E+01 0. -1.
       -4    1    3    3    0  502  0.11894893223E+04  0.37835596041E+03 -0.90740780508E+03  0.15431878104E+04  0.12699999809E+01 0.  1.
</event>
<event>
 5   0  0.1875284E-07  0.3098171E+04  0.7818609E-02  0.8216240E-01
       -1   -1    0    0    0  501  0.00000000000E+00  0.00000000000E+00  0.15187096577E+04  0.15187096577E+04  0.50400001928E-02 0. -1.
        1   -1    0    0  501    0  0.00000000000E+00  0.00000000000E+00 -0.15800690163E+04  0.15800690164E+04  0.50400001928E-02 0.  1.
    10030    2    1    2    0    0  0.00000000000E+00  0.00000000000E+00 -0.61359358668E+02  0.30987786740E+04  0.30981711218E+04 0.  0.
        4    1    3    3  502    0  0.74019206674E+03  0.10631448872E+04  0.81890028566E+03  0.15325666829E+04  0.12699999809E+01 0. -1.
       -4    1    3    3    0  502 -0.74019206674E+03 -0.10631448872E+04 -0.88025964433E+03  0.15662119911E+04  0.12699999809E+01 0.  1.
</event>
<event>
 5   0  0.5342534E-07  0.3098868E+04  0.7818609E-02  0.8216049E-01
       -2   -1    0    0    0  501  0.00000000000E+00  0.00000000000E+00  0.16799601357E+04  0.16799601357E+04  0.25500000920E-02 0.  1.
        2   -1    0    0  501    0  0.00000000000E+00  0.00000000000E+00 -0.14290494812E+04  0.14290494812E+04  0.25500000920E-02 0. -1.
    10030    2    1    2    0    0  0.00000000000E+00  0.00000000000E+00  0.25091065456E+03  0.31090096169E+04  0.30988682840E+04 0.  0.
        3    1    3    3  502    0 -0.44534704996E+01  0.64541710988E+03  0.15386683456E+04  0.16685572712E+04  0.10100000352E+00 0.  1.
       -3    1    3    3    0  502  0.44534704996E+01 -0.64541710988E+03 -0.12877576911E+04  0.14404523457E+04  0.10100000352E+00 0. -1.
</event>
<event>
 5   0  0.5154105E-07  0.3097613E+04  0.7818609E-02  0.8216393E-01
        2   -1    0    0  501    0  0.00000000000E+00  0.00000000000E+00  0.18294745631E+04  0.18294745631E+04  0.25500000920E-02 0.  1.
       -2   -1    0    0    0  501  0.00000000000E+00  0.00000000000E+00 -0.13111973536E+04  0.13111973536E+04  0.25500000920E-02 0. -1.
    10030    2    1    2    0    0  0.00000000000E+00  0.00000000000E+00  0.51827720956E+03  0.31406719167E+04  0.30976134075E+04 0.  0.
        1    1    3    3  502    0 -0.29455016249E+03 -0.52592804576E+03 -0.11873823589E+04  0.13316294431E+04  0.50400001928E-02 0. -1.
       -1    1    3    3    0  502  0.29455016249E+03  0.52592804576E+03  0.17056595685E+04  0.18090424736E+04  0.50400001928E-02 0.  1.
</event>
<event>
 5   0  0.1875284E-07  0.3015439E+04  0.7818609E-02  0.8239336E-01
       -1   -1    0    0    0  501  0.00000000000E+00  0.00000000000E+00  0.30313404220E+04  0.30313404220E+04  0.50400001928E-02 0.  1.
        1   -1    0    0  501    0  0.00000000000E+00  0.00000000000E+00 -0.74990531473E+03  0.74990531475E+03  0.50400001928E-02 0. -1.
    10030    2    1    2    0    0  0.00000000000E+00  0.00000000000E+00  0.22814351072E+04  0.37812457367E+04  0.30154391343E+04 0.  0.
        4    1    3    3  502    0 -0.52974941125E+03 -0.72455700135E+03  0.26598236175E+04  0.28071837446E+04  0.12699999809E+01 0.  1.
       -4    1    3    3    0  502  0.52974941125E+03  0.72455700135E+03 -0.37838851024E+03  0.97406199213E+03  0.12699999809E+01 0. -1.
</event>
<event>
 5   0  0.5154105E-07  0.3094589E+04  0.7818609E-02  0.8217225E-01
        2   -1    0    0  501    0  0.00000000000E+00  0.00000000000E+00  0.17650791880E+04  0.17650791880E+04  0.25500000920E-02 0.  1.
       -2   -1    0    0    0  501  0.00000000000E+00  0.00000000000E+00 -0.13563809784E+04  0.13563809784E+04  0.25500000920E-02 0. -1.
    10030    2    1    2    0    0  0.00000000000E+00  0.00000000000E+00  0.40869820965E+03  0.31214601664E+04  0.30945887196E+04 0.  0.
        1    1    3    3  502    0  0.89866424412E+03 -0.12590835911E+04  0.16895994112E+03  0.15560965184E+04  0.50400001928E-02 0.  1.
       -1    1    3    3    0  502 -0.89866424412E+03  0.12590835911E+04  0.23973826853E+03  0.15653636480E+04  0.50400001928E-02 0. -1.
</event>
<event>
 5   0  0.5154105E-07  0.3098381E+04  0.7818609E-02  0.8216182E-01
       -2   -1    0    0    0  501  0.00000000000E+00  0.00000000000E+00  0.25354767744E+04  0.25354767744E+04  0.25500000920E-02 0. -1.
        2   -1    0    0  501    0  0.00000000000E+00  0.00000000000E+00 -0.94656398604E+03  0.94656398604E+03  0.25500000920E-02 0.  1.
    10030    2    1    2    0    0  0.00000000000E+00  0.00000000000E+00  0.15889127883E+04  0.34820407604E+04  0.30983808688E+04 0.  0.
        1    1    3    3  502    0 -0.98447965530E+03 -0.87020904782E+03  0.17167656369E+04  0.21618853417E+04  0.50400001928E-02 0. -1.
       -1    1    3    3    0  502  0.98447965530E+03  0.87020904782E+03 -0.12785284858E+03  0.13201554187E+04  0.50400001928E-02 0.  1.
</event>
<event>
 5   0  0.1845123E-07  0.3028212E+04  0.7818609E-02  0.8235720E-01
        1   -1    0    0  501    0  0.00000000000E+00  0.00000000000E+00  0.11189204407E+04  0.11189204407E+04  0.50400001928E-02 0.  1.
       -1   -1    0    0    0  501  0.00000000000E+00  0.00000000000E+00 -0.20488656960E+04  0.20488656960E+04  0.50400001928E-02 0. -1.
    10030    2    1    2    0    0  0.00000000000E+00  0.00000000000E+00 -0.92994525531E+03  0.31677861367E+04  0.30282124810E+04 0.  0.
        2    1    3    3  502    0  0.75466354328E+03  0.13111867196E+04 -0.40057188845E+03  0.15649873849E+04  0.25500000920E-02 0. -1.
       -2    1    3    3    0  502 -0.75466354328E+03 -0.13111867196E+04 -0.52937336685E+03  0.16027987518E+04  0.25500000920E-02 0.  1.
</event>
<event>
 5   0  0.5154105E-07  0.3104317E+04  0.7818609E-02  0.8214554E-01
       -2   -1    0    0    0  501  0.00000000000E+00  0.00000000000E+00  0.15362091645E+04  0.15362091645E+04  0.25500000920E-02 0. -1.
        2   -1    0    0  501    0  0.00000000000E+00  0.00000000000E+00 -0.15682734519E+04  0.15682734519E+04  0.25500000920E-02 0.  1.
    10030    2    1    2    0    0  0.00000000000E+00  0.00000000000E+00 -0.32064287431E+02  0.31044826164E+04  0.31043170259E+04 0.  0.
        1    1    3    3  502    0 -0.13610910040E+04  0.69428198292E+03 -0.28917645579E+03  0.15550624475E+04  0.50400001928E-02 0. -1.
       -1    1    3    3    0  502  0.13610910040E+04 -0.69428198292E+03  0.25711216836E+03  0.15494201690E+04  0.50400001928E-02 0.  1.
</event>
<event>
 5   0  0.1875284E-07  0.3075084E+04  0.7818609E-02  0.8222609E-01
       -1   -1    0    0    0  501  0.00000000000E+00  0.00000000000E+00  0.12606441435E+04  0.12606441435E+04  0.50400001928E-02 0. -1.
        1   -1    0    0  501    0  0.00000000000E+00  0.00000000000E+00 -0.18752601543E+04  0.18752601543E+04  0.50400001928E-02 0.  1.
    10030    2    1    2    0    0  0.00000000000E+00  0.00000000000E+00 -0.61461601079E+03  0.31359042978E+04  0.30750842141E+04 0.  0.
        4    1    3    3  502    0 -0.10060446960E+04 -0.35073691122E+03 -0.14377872960E+04  0.17895184360E+04  0.12699999809E+01 0.  1.
       -4    1    3    3    0  502  0.10060446960E+04  0.35073691122E+03  0.82317128519E+03  0.13463858618E+04  0.12699999809E+01 0. -1.
</event>
<event>
 5   0  0.1845123E-07  0.3088054E+04  0.7818609E-02  0.8219024E-01
       -1   -1    0    0    0  501  0.00000000000E+00  0.00000000000E+00  0.22020341837E+04  0.22020341837E+04  0.50400001928E-02 0.  1.
        1   -1    0    0  501    0  0.00000000000E+00  0.00000000000E+00 -0.10826444576E+04  0.10826444576E+04  0.50400001928E-02 0. -1.
    10030    2    1    2    0    0  0.00000000000E+00  0.00000000000E+00  0.11193897261E+04  0.32846786413E+04  0.30880544713E+04 0.  0.
        2    1    3    3  502    0 -0.27649218649E+03 -0.18325893325E+03  0.21636863194E+04  0.21889655672E+04  0.25500000920E-02 0.  1.
       -2    1    3    3    0  502  0.27649218649E+03  0.18325893325E+03 -0.10442965933E+04  0.10957130740E+04  0.25500000920E-02 0. -1.
</event>
<event>
 5   0  0.1840359E-07  0.3098048E+04  0.7818609E-02  0.8216274E-01
        1   -1    0    0  501    0  0.00000000000E+00  0.00000000000E+00  0.20059224345E+04  0.20059224345E+04  0.50400001928E-02 0.  1.
       -1   -1    0    0    0  501  0.00000000000E+00  0.00000000000E+00 -0.11961957735E+04  0.11961957735E+04  0.50400001928E-02 0. -1.
    10030    2    1    2    0    0  0.00000000000E+00  0.00000000000E+00  0.80972666107E+03  0.32021182080E+04  0.30980483780E+04 0.  0.
        1    1    3    3  502    0  0.15335995538E+04 -0.17015376234E+03  0.54581150231E+03  0.16367009776E+04  0.50400001928E-02 0.  1.
       -1    1    3    3    0  502 -0.15335995538E+04  0.17015376234E+03  0.26391515876E+03  0.15654172304E+04  0.50400001928E-02 0. -1.
</event>
<event>
 5   0  0.5154105E-07  0.3099368E+04  0.7818609E-02  0.8215911E-01
        2   -1    0    0  501    0  0.00000000000E+00  0.00000000000E+00  0.22329889554E+04  0.22329889554E+04  0.25500000920E-02 0. -1.
       -2   -1    0    0    0  501  0.00000000000E+00  0.00000000000E+00 -0.10754734841E+04  0.10754734841E+04  0.25500000920E-02 0.  1.
    10030    2    1    2    0    0  0.00000000000E+00  0.00000000000E+00  0.11575154713E+04  0.33084624395E+04  0.30993679432E+04 0.  0.
        1    1    3    3  502    0 -0.15827166224E+01  0.14168543275E+03 -0.10685440928E+04  0.10778978361E+04  0.50400001928E-02 0.  1.
       -1    1    3    3    0  502  0.15827166224E+01 -0.14168543275E+03  0.22260595641E+04  0.22305646034E+04  0.50400001928E-02 0. -1.
</event>
<event>
 5   0  0.1840359E-07  0.3097915E+04  0.7818609E-02  0.8216310E-01
       -1   -1    0    0    0  501  0.00000000000E+00  0.00000000000E+00  0.10864001854E+04  0.10864001854E+04  0.50400001928E-02 0.  1.
        1   -1    0    0  501    0  0.00000000000E+00  0.00000000000E+00 -0.22084575955E+04  0.22084575955E+04  0.50400001928E-02 0. -1.
    10030    2    1    2    0    0  0.00000000000E+00  0.00000000000E+00 -0.11220574101E+04  0.32948577809E+04  0.30979146155E+04 0.  0.
        1    1    3    3  502    0  0.27116076258E+03 -0.11188701078E+03  0.10565889398E+04  0.10965523471E+04  0.50400001928E-02 0.  1.
       -1    1    3    3    0  502 -0.27116076258E+03  0.11188701078E+03 -0.21786463498E+04  0.21983054338E+04  0.50400001928E-02 0. -1.
</event>
<event>
 5   0  0.1875284E-07  0.3101506E+04  0.7818609E-02  0.8215325E-01
        1   -1    0    0  501    0  0.00000000000E+00  0.00000000000E+00  0.83805753692E+03  0.83805753693E+03  0.50400001928E-02 0. -1.
       -1   -1    0    0    0  501  0.00000000000E+00  0.00000000000E+00 -0.28695335945E+04  0.28695335945E+04  0.50400001928E-02 0.  1.
    10030    2    1    2    0    0  0.00000000000E+00  0.00000000000E+00 -0.20314760576E+04  0.37075911315E+04  0.31015056062E+04 0.  0.
        4    1    3    3  502    0 -0.55079453022E+03  0.55517241329E+03 -0.26165439027E+04  0.27309146143E+04  0.12699999809E+01 0.  1.
       -4    1    3    3    0  502  0.55079453022E+03 -0.55517241329E+03  0.58506784506E+03  0.97667651718E+03  0.12699999809E+01 0. -1.
</event>
<event>
 5   0  0.5055900E-07  0.3095848E+04  0.7818609E-02  0.8216878E-01
       -2   -1    0    0    0  501  0.00000000000E+00  0.00000000000E+00  0.18976747398E+04  0.18976747398E+04  0.25500000920E-02 0.  1.
        2   -1    0    0  501    0  0.00000000000E+00  0.00000000000E+00 -0.12626340941E+04  0.12626340941E+04  0.25500000920E-02 0. -1.
    10030    2    1    2    0    0  0.00000000000E+00  0.00000000000E+00  0.63504064577E+03  0.31603088339E+04  0.30958480751E+04 0.  0.
        2    1    3    3  502    0 -0.72031592283E+03  0.13085471145E+04 -0.97036664012E+02  0.14968522618E+04  0.25500000920E-02 0. -1.
       -2    1    3    3    0  502  0.72031592283E+03 -0.13085471145E+04  0.73207730978E+03  0.16634565721E+04  0.25500000920E-02 0.  1.
</event>
<event>
 5   0  0.5055900E-07  0.3100009E+04  0.7818609E-02  0.8215735E-01
        2   -1    0    0  501    0  0.00000000000E+00  0.00000000000E+00  0.17743667299E+04  0.17743667299E+04  0.25500000920E-02 0. -1.
       -2   -1    0    0    0  501  0.00000000000E+00  0.00000000000E+00 -0.13540120061E+04  0.13540120061E+04  0.25500000920E-02 0.  1.
    10030    2    1    2    0    0  0.00000000000E+00  0.00000000000E+00  0.42035472384E+03  0.31283787360E+04  0.31000089391E+04 0.  0.
        2    1    3    3  502    0 -0.89695432222E+03  0.11251676197E+04 -0.37127664254E+03  0.14860604207E+04  0.25500000920E-02 0.  1.
       -2    1    3    3    0  502  0.89695432222E+03 -0.11251676197E+04  0.79163136638E+03  0.16423183153E+04  0.25500000920E-02 0. -1.
</event>
<event>
 5   0  0.5376678E-07  0.3102440E+04  0.7818609E-02  0.8215069E-01
        2   -1    0    0  501    0  0.00000000000E+00  0.00000000000E+00  0.33077181459E+04  0.33077181459E+04  0.25500000920E-02 0. -1.
       -2   -1    0    0    0  501  0.00000000000E+00  0.00000000000E+00 -0.72747514825E+03  0.72747514826E+03  0.25500000920E-02 0.  1.
    10030    2    1    2    0    0  0.00000000000E+00  0.00000000000E+00  0.25802429976E+04  0.40351932941E+04  0.31024395231E+04 0.  0.
        5    1    3    3  502    0  0.37467444390E+03  0.14871014079E+04  0.98673456052E+03  0.18236004823E+04  0.46999998093E+01 0.  1.
       -5    1    3    3    0  502 -0.37467444390E+03 -0.14871014079E+04  0.15935084371E+04  0.22115928118E+04  0.46999998093E+01 0. -1.
</event>
<event>
 5   0  0.5154105E-07  0.3108243E+04  0.7818609E-02  0.8213479E-01
        2   -1    0    0  501    0  0.00000000000E+00  0.00000000000E+00  0.12287678169E+04  0.12287678169E+04  0.25500000920E-02 0.  1.
       -2   -1    0    0    0  501  0.00000000000E+00  0.00000000000E+00 -0.19656229351E+04  0.19656229351E+04  0.25500000920E-02 0. -1.
    10030    2    1    2    0    0  0.00000000000E+00  0.00000000000E+00 -0.73685511821E+03  0.31943907520E+04  0.31082433642E+04 0.  0.
        1    1    3    3  502    0  0.13927106281E+03 -0.26110255004E+03  0.11995458572E+04  0.12355084921E+04  0.50400001928E-02 0.  1.
       -1    1    3    3    0  502 -0.13927106281E+03  0.26110255004E+03 -0.19364009754E+04  0.19588822599E+04  0.50400001928E-02 0. -1.
</event>
<event>
 5   0  0.1830902E-07  0.3097240E+04  0.7818609E-02  0.8216496E-01
        1   -1    0    0  501    0  0.00000000000E+00  0.00000000000E+00  0.18260393685E+04  0.18260393685E+04  0.50400001928E-02 0. -1.
       -1   -1    0    0    0  501  0.00000000000E+00  0.00000000000E+00 -0.13133476327E+04  0.13133476327E+04  0.50400001928E-02 0.  1.
    10030    2    1    2    0    0  0.00000000000E+00  0.00000000000E+00  0.51269173581E+03  0.31393870011E+04  0.30972403728E+04 0.  0.
        3    1    3    3  502    0  0.78175137751E+03  0.48281926502E+03 -0.10072026762E+04  0.13633440138E+04  0.10100000352E+00 0.  1.
       -3    1    3    3    0  502 -0.78175137751E+03 -0.48281926502E+03  0.15198944120E+04  0.17760429873E+04  0.10100000352E+00 0. -1.
</event>
<event>
 5   0  0.5248309E-07  0.3099749E+04  0.7818609E-02  0.8215807E-01
        2   -1    0    0  501    0  0.00000000000E+00  0.00000000000E+00  0.36138039325E+04  0.36138039325E+04  0.25500000920E-02 0.  1.
       -2   -1    0    0    0  501  0.00000000000E+00  0.00000000000E+00 -0.66470408408E+03  0.66470408408E+03  0.25500000920E-02 0. -1.
    10030    2    1    2    0    0  0.00000000000E+00  0.00000000000E+00  0.29490998484E+04  0.42785080165E+04  0.30997485272E+04 0.  0.
        4    1    3    3  502    0  0.47496644361E+03 -0.42861478777E+03  0.34230403434E+04  0.34823139670E+04  0.12699999809E+01 0.  1.
       -4    1    3    3    0  502 -0.47496644361E+03  0.42861478777E+03 -0.47394049505E+03  0.79619404959E+03  0.12699999809E+01 0. -1.
</event>
<event>
 5   0  0.5376678E-07  0.3101358E+04  0.7818609E-02  0.8215365E-01
       -2   -1    0    0    0  501  0.00000000000E+00  0.00000000000E+00  0.29849904924E+04  0.29849904924E+04  0.25500000920E-02 0.  1.
        2   -1    0    0  501    0  0.00000000000E+00  0.00000000000E+00 -0.80556534097E+03  0.80556534098E+03  0.25500000920E-02 0. -1.
    10030    2    1    2    0    0  0.00000000000E+00  0.00000000000E+00  0.21794251514E+04  0.37905558333E+04  0.31013576922E+04 0.  0.
        5    1    3    3  502    0  0.74795256734E+03  0.62463986168E+02 -0.56875575984E+03  0.94172182565E+03  0.46999998093E+01 0. -1.
       -5    1    3    3    0  502 -0.74795256734E+03 -0.62463986168E+02  0.27481809112E+04  0.28488340077E+04  0.46999998093E+01 0.  1.
</event>
<event>
 5   0  0.5154105E-07  0.3111119E+04  0.7818609E-02  0.8212693E-01
       -2   -1    0    0    0  501  0.00000000000E+00  0.00000000000E+00  0.10364483931E+04  0.10364483931E+04  0.25500000920E-02 0.  1.
        2   -1    0    0  501    0  0.00000000000E+00  0.00000000000E+00 -0.23346704817E+04  0.23346704817E+04  0.25500000920E-02 0. -1.
    10030    2    1    2    0    0  0.00000000000E+00  0.00000000000E+00 -0.12982220887E+04  0.33711188748E+04  0.31111190715E+04 0.  0.
        1    1    3    3  502    0  0.38002422111E+03  0.98512328454E+03 -0.18868885448E+04  0.21622290986E+04  0.50400001928E-02 0. -1.
       -1    1    3    3    0  502 -0.38002422111E+03 -0.98512328454E+03  0.58866645615E+03  0.12088897762E+04  0.50400001928E-02 0.  1.
</event>
<event>
 5   0  0.1840359E-07  0.3094174E+04  0.7818609E-02  0.8217339E-01
       -1   -1    0    0    0  501  0.00000000000E+00  0.00000000000E+00  0.14469398375E+04  0.14469398375E+04  0.50400001928E-02 0. -1.
        1   -1    0    0  501    0  0.00000000000E+00  0.00000000000E+00 -0.16541660306E+04  0.16541660307E+04  0.50400001928E-02 0.  1.
    10030    2    1    2    0    0  0.00000000000E+00  0.00000000000E+00 -0.20722619317E+03  0.31011058681E+04  0.30941743503E+04 0.  0.
        1    1    3    3  502    0  0.27313098386E+03  0.34915566066E+03 -0.15891509681E+04  0.16498215083E+04  0.50400001928E-02 0.  1.
       -1    1    3    3    0  502 -0.27313098386E+03 -0.34915566066E+03  0.13819247749E+04  0.14512843599E+04  0.50400001928E-02 0. -1.
</event>
<event>
 5   0  0.1845123E-07  0.3094636E+04  0.7818609E-02  0.8217212E-01
       -1   -1    0    0    0  501  0.00000000000E+00  0.00000000000E+00  0.15514739891E+04  0.15514739891E+04  0.50400001928E-02 0.  1.
        1   -1    0    0  501    0  0.00000000000E+00  0.00000000000E+00 -0.15431732080E+04  0.15431732080E+04  0.50400001928E-02 0. -1.
    10030    2    1    2    0    0  0.00000000000E+00  0.00000000000E+00  0.83007810372E+01  0.30946471971E+04  0.30946360645E+04 0.  0.
        2    1    3    3  502    0 -0.12516094478E+04 -0.15980468532E+03  0.89977035273E+03  0.15497259226E+04  0.25500000920E-02 0.  1.
       -2    1    3    3    0  502  0.12516094478E+04  0.15980468532E+03 -0.89146957170E+03  0.15449212746E+04  0.25500000920E-02 0. -1.
</event>
<event>
 5   0  0.1845123E-07  0.3105436E+04  0.7818609E-02  0.8214248E-01
        1   -1    0    0  501    0  0.00000000000E+00  0.00000000000E+00  0.12887911438E+04  0.12887911438E+04  0.50400001928E-02 0.  1.
       -1   -1    0    0    0  501  0.00000000000E+00  0.00000000000E+00 -0.18706929876E+04  0.18706929877E+04  0.50400001928E-02 0. -1.
    10030    2    1    2    0    0  0.00000000000E+00  0.00000000000E+00 -0.58190184386E+03  0.31594841314E+04  0.31054355928E+04 0.  0.
        2    1    3    3  502    0  0.75167330739E+03 -0.12362798102E+04 -0.86425815188E+03  0.16853316241E+04  0.25500000920E-02 0. -1.
       -2    1    3    3    0  502 -0.75167330739E+03  0.12362798102E+04  0.28235630802E+03  0.14741525073E+04  0.25500000920E-02 0.  1.
</event>
<event>
 5   0  0.5055900E-07  0.3100751E+04  0.7818609E-02  0.8215532E-01
       -2   -1    0    0    0  501  0.00000000000E+00  0.00000000000E+00  0.11609972430E+04  0.11609972430E+04  0.25500000920E-02 0.  1.
        2   -1    0    0  501    0  0.00000000000E+00  0.00000000000E+00 -0.20703447366E+04  0.20703447366E+04  0.25500000920E-02 0. -1.
    10030    2    1    2    0    0  0.00000000000E+00  0.00000000000E+00 -0.90934749362E+03  0.32313419796E+04  0.31007512194E+04 0.  0.
        2    1    3    3  502    0  0.79945265647E+03  0.31521241291E+02  0.92924134055E+03  0.12262167865E+04  0.25500000920E-02 0.  1.
       -2    1    3    3    0  502 -0.79945265647E+03 -0.31521241291E+02 -0.18385888342E+04  0.20051251930E+04  0.25500000920E-02 0. -1.
</event>
<event>
 5   0  0.5248309E-07  0.3103114E+04  0.7818609E-02  0.8214884E-01
       -2   -1    0    0    0  501  0.00000000000E+00  0.00000000000E+00  0.13602315604E+04  0.13602315604E+04  0.25500000920E-02 0.  1.
        2   -1    0    0  501    0  0.00000000000E+00  0.00000000000E+00 -0.17697931307E+04  0.17697931307E+04  0.25500000920E-02 0. -1.
    10030    2    1    2    0    0  0.00000000000E+00  0.00000000000E+00 -0.40956157028E+03  0.31300246910E+04  0.31031135794E+04 0.  0.
        4    1    3    3  502    0  0.23849666719E+03  0.80061283936E+03  0.11140231486E+04  0.13924477611E+04  0.12699999809E+01 0.  1.
       -4    1    3    3    0  502 -0.23849666719E+03 -0.80061283936E+03 -0.15235847189E+04  0.17375769299E+04  0.12699999809E+01 0. -1.
</event>
<event>
 5   0  0.5376678E-07  0.3105407E+04  0.7818609E-02  0.8214255E-01
        2   -1    0    0  501    0  0.00000000000E+00  0.00000000000E+00  0.19924785801E+04  0.19924785801E+04  0.25500000920E-02 0. -1.
       -2   -1    0    0    0  501  0.00000000000E+00  0.00000000000E+00 -0.12099948548E+04  0.12099948548E+04  0.25500000920E-02 0.  1.
    10030    2    1    2    0    0  0.00000000000E+00  0.00000000000E+00  0.78248372524E+03  0.32024734349E+04  0.31054074324E+04 0.  0.
        5    1    3    3  502    0  0.10823765364E+04 -0.56153048586E+03  0.13825429577E+04  0.18434485545E+04  0.46999998093E+01 0. -1.
       -5    1    3    3    0  502 -0.10823765364E+04  0.56153048586E+03 -0.60005923247E+03  0.13590248804E+04  0.46999998093E+01 0.  1.
</event>
<event>
 5   0  0.1840359E-07  0.3104445E+04  0.7818609E-02  0.8214519E-01
       -1   -1    0    0    0  501  0.00000000000E+00  0.00000000000E+00  0.14664206750E+04  0.14664206750E+04  0.50400001928E-02 0. -1.
        1   -1    0    0  501    0  0.00000000000E+00  0.00000000000E+00 -0.16430445237E+04  0.16430445238E+04  0.50400001928E-02 0.  1.
    10030    2    1    2    0    0  0.00000000000E+00  0.00000000000E+00 -0.17662384875E+03  0.31094651988E+04  0.31044448519E+04 0.  0.
        1    1    3    3  502    0 -0.24989806565E+02  0.10550520670E+04  0.10517884926E+04  0.14899726131E+04  0.50400001928E-02 0. -1.
       -1    1    3    3    0  502  0.24989806565E+02 -0.10550520670E+04 -0.12284123413E+04  0.16194925857E+04  0.50400001928E-02 0.  1.
</event>
<event>
 5   0  0.1875284E-07  0.3119536E+04  0.7818609E-02  0.8210397E-01
       -1   -1    0    0    0  501  0.00000000000E+00  0.00000000000E+00  0.10832068209E+04  0.10832068209E+04  0.50400001928E-02 0. -1.
        1   -1    0    0  501    0  0.00000000000E+00  0.00000000000E+00 -0.22459940624E+04  0.22459940624E+04  0.50400001928E-02 0.  1.
    10030    2    1    2    0    0  0.00000000000E+00  0.00000000000E+00 -0.11627872415E+04  0.33292008834E+04  0.31195359194E+04 0.  0.
        4    1    3    3  502    0  0.11671483705E+04 -0.10232308352E+04 -0.41731436743E+03  0.16072926164E+04  0.12699999809E+01 0. -1.
       -4    1    3    3    0  502 -0.11671483705E+04  0.10232308352E+04 -0.74547287411E+03  0.17219082669E+04  0.12699999809E+01 0.  1.
</event>
<event>
 5   0  0.5055900E-07  0.3104045E+04  0.7818609E-02  0.8214629E-01
        2   -1    0    0  501    0  0.00000000000E+00  0.00000000000E+00  0.18779727555E+04  0.18779727555E+04  0.25500000920E-02 0. -1.
       -2   -1    0    0    0  501  0.00000000000E+00  0.00000000000E+00 -0.12826456998E+04  0.12826456998E+04  0.25500000920E-02 0.  1.
    10030    2    1    2    0    0  0.00000000000E+00  0.00000000000E+00  0.59532705571E+03  0.31606184553E+04  0.31040448961E+04 0.  0.
        2    1    3    3  502    0  0.32748230497E+03 -0.11468040071E+03 -0.12426456562E+04  0.12901800190E+04  0.25500000920E-02 0.  1.
       -2    1    3    3    0  502 -0.32748230497E+03  0.11468040071E+03  0.18379727119E+04  0.18704384364E+04  0.25500000920E-02 0. -1.
</event>
<event>
 5   0  0.5154105E-07  0.3099646E+04  0.7818609E-02  0.8215835E-01
       -2   -1    0    0    0  501  0.00000000000E+00  0.00000000000E+00  0.95506489466E+03  0.95506489467E+03  0.25500000920E-02 0.  1.
        2   -1    0    0  501    0  0.00000000000E+00  0.00000000000E+00 -0.25149607145E+04  0.25149607145E+04  0.25500000920E-02 0. -1.
    10030    2    1    2    0    0  0.00000000000E+00  0.00000000000E+00 -0.15598958198E+04  0.34700256092E+04  0.30996455861E+04 0.  0.
        1    1    3    3  502    0 -0.10439471956E+04 -0.20356263215E+03 -0.20418915746E+04  0.23022998708E+04  0.50400001928E-02 0. -1.
       -1    1    3    3    0  502  0.10439471956E+04  0.20356263215E+03  0.48199575476E+03  0.11677257384E+04  0.50400001928E-02 0.  1.
</event>
<event>
 5   0  0.5248309E-07  0.3101681E+04  0.7818609E-02  0.8215277E-01
        2   -1    0    0  501    0  0.00000000000E+00  0.00000000000E+00  0.18665042132E+04  0.18665042132E+04  0.25500000920E-02 0.  1.
       -2   -1    0    0    0  501  0.00000000000E+00  0.00000000000E+00 -0.12885616887E+04  0.12885616887E+04  0.25500000920E-02 0. -1.
    10030    2    1    2    0    0  0.00000000000E+00  0.00000000000E+00  0.57794252449E+03  0.31550659019E+04  0.31016807192E+04 0.  0.
        4    1    3    3  502    0  0.10369679488E+04 -0.93315636886E+03  0.97814316279E+03  0.17037749251E+04  0.12699999809E+01 0.  1.
       -4    1    3    3    0  502 -0.10369679488E+04  0.93315636886E+03 -0.40020063830E+03  0.14512909768E+04  0.12699999809E+01 0. -1.
</event>
<event>
 5   0  0.1845123E-07  0.3093895E+04  0.7818609E-02  0.8217415E-01
       -1   -1    0    0    0  501  0.00000000000E+00  0.00000000000E+00  0.12955273852E+04  0.12955273852E+04  0.50400001928E-02 0.  1.
        1   -1    0    0  501    0  0.00000000000E+00  0.00000000000E+00 -0.18471602644E+04  0.18471602645E+04  0.50400001928E-02 0. -1.
    10030    2    1    2    0    0  0.00000000000E+00  0.00000000000E+00 -0.55163287927E+03  0.31426876496E+04  0.30938950903E+04 0.  0.
        2    1    3    3  502    0 -0.40878930322E+03 -0.93889844465E+03 -0.14535881946E+04  0.17780769452E+04  0.25500000920E-02 0. -1.
       -2    1    3    3    0  502  0.40878930322E+03  0.93889844465E+03  0.90195531529E+03  0.13646107044E+04  0.25500000920E-02 0.  1.
</event>
<event>
 5   0  0.5376678E-07  0.3019002E+04  0.7818609E-02  0.8238325E-01
        2   -1    0    0  501    0  0.00000000000E+00  0.00000000000E+00  0.25995692569E+04  0.25995692569E+04  0.25500000920E-02 0. -1.
       -2   -1    0    0    0  501  0.00000000000E+00  0.00000000000E+00 -0.87652752245E+03  0.87652752245E+03  0.25500000920E-02 0.  1.
    10030    2    1    2    0    0  0.00000000000E+00  0.00000000000E+00  0.17230417344E+04  0.34760967793E+04  0.30190024844E+04 0.  0.
        5    1    3    3  502    0 -0.12497714288E+04 -0.72659946471E+03  0.36135930168E+03  0.14901268541E+04  0.46999998093E+01 0. -1.
       -5    1    3    3    0  502  0.12497714288E+04  0.72659946471E+03  0.13616824327E+04  0.19859699252E+04  0.46999998093E+01 0.  1.
</event>
<event>
 5   0  0.1875284E-07  0.3101597E+04  0.7818609E-02  0.8215300E-01
       -1   -1    0    0    0  501  0.00000000000E+00  0.00000000000E+00  0.10034751884E+04  0.10034751884E+04  0.50400001928E-02 0. -1.
        1   -1    0    0  501    0  0.00000000000E+00  0.00000000000E+00 -0.23966464574E+04  0.23966464574E+04  0.50400001928E-02 0.  1.
    10030    2    1    2    0    0  0.00000000000E+00  0.00000000000E+00 -0.13931712690E+04  0.34001216458E+04  0.31015965278E+04 0.  0.
        4    1    3    3  502    0  0.75974631807E+03 -0.41427346177E+03  0.71418769362E+03  0.11220083082E+04  0.12699999809E+01 0. -1.
       -4    1    3    3    0  502 -0.75974631807E+03  0.41427346177E+03 -0.21073589626E+04  0.22781133377E+04  0.12699999809E+01 0.  1.
</event>
<event>
 5   0  0.1840359E-07  0.3100012E+04  0.7818609E-02  0.8215735E-01
        1   -1    0    0  501    0  0.00000000000E+00  0.00000000000E+00  0.93135246329E+03  0.93135246330E+03  0.50400001928E-02 0. -1.
       -1   -1    0    0    0  501  0.00000000000E+00  0.00000000000E+00 -0.25796021674E+04  0.25796021674E+04  0.50400001928E-02 0.  1.
    10030    2    1    2    0    0  0.00000000000E+00  0.00000000000E+00 -0.16482497041E+04  0.35109546307E+04  0.31000121503E+04 0.  0.
        1    1    3    3  502    0  0.60077002307E+03  0.10533740253E+04 -0.19174999187E+04  0.22687722222E+04  0.50400001928E-02 0.  1.
       -1    1    3    3    0  502 -0.60077002307E+03 -0.10533740253E+04  0.26925021462E+03  0.12421824085E+04  0.50400001928E-02 0. -1.
</event>
<event>
 5   0  0.1840359E-07  0.3105335E+04  0.7818609E-02  0.8214275E-01
        1   -1    0    0  501    0  0.00000000000E+00  0.00000000000E+00  0.12899879740E+04  0.12899879740E+04  0.50400001928E-02 0. -1.
       -1   -1    0    0    0  501  0.00000000000E+00  0.00000000000E+00 -0.18688362998E+04  0.18688362998E+04  0.50400001928E-02 0.  1.
    10030    2    1    2    0    0  0.00000000000E+00  0.00000000000E+00 -0.57884832585E+03  0.31588242738E+04  0.31053349913E+04 0.  0.
        1    1    3    3  502    0  0.23322479435E+03 -0.24049628406E+03  0.12527855304E+04  0.12968052485E+04  0.50400001928E-02 0. -1.
       -1    1    3    3    0  502 -0.23322479435E+03  0.24049628406E+03 -0.18316338562E+04  0.18620190253E+04  0.50400001928E-02 0.  1.
</event>
<event>
 5   0  0.1845123E-07  0.3099337E+04  0.7818609E-02  0.8215920E-01
        1   -1    0    0  501    0  0.00000000000E+00  0.00000000000E+00  0.20723037747E+04  0.20723037747E+04  0.50400001928E-02 0. -1.
       -1   -1    0    0    0  501  0.00000000000E+00  0.00000000000E+00 -0.11588416593E+04  0.11588416593E+04  0.50400001928E-02 0.  1.
    10030    2    1    2    0    0  0.00000000000E+00  0.00000000000E+00  0.91346211540E+03  0.32311454340E+04  0.30993366677E+04 0.  0.
        2    1    3    3  502    0 -0.85538151773E+03 -0.69518651211E+03 -0.67886395003E+03  0.12945339278E+04  0.25500000920E-02 0.  1.
       -2    1    3    3    0  502  0.85538151773E+03  0.69518651211E+03  0.15923260654E+04  0.19366115063E+04  0.25500000920E-02 0. -1.
</event>
<event>
 5   0  0.1840359E-07  0.3100745E+04  0.7818609E-02  0.8215534E-01
        1   -1    0    0  501    0  0.00000000000E+00  0.00000000000E+00  0.13802552456E+04  0.13802552456E+04  0.50400001928E-02 0.  1.
       -1   -1    0    0    0  501  0.00000000000E+00  0.00000000000E+00 -0.17414564440E+04  0.17414564440E+04  0.50400001928E-02 0. -1.
    10030    2    1    2    0    0  0.00000000000E+00  0.00000000000E+00 -0.36120119846E+03  0.31217116896E+04  0.31007446795E+04 0.  0.
        1    1    3    3  502    0 -0.49306328750E+03 -0.13682817594E+03 -0.16539928229E+04  0.17313363664E+04  0.50400001928E-02 0. -1.
       -1    1    3    3    0  502  0.49306328750E+03  0.13682817594E+03  0.12927916245E+04  0.13903753233E+04  0.50400001928E-02 0.  1.
</event>
<event>
 5   0  0.5154105E-07  0.3094353E+04  0.7818609E-02  0.8217289E-01
       -2   -1    0    0    0  501  0.00000000000E+00  0.00000000000E+00  0.70408330226E+03  0.70408330226E+03  0.25500000920E-02 0.  1.
        2   -1    0    0  501    0  0.00000000000E+00  0.00000000000E+00 -0.33998185322E+04  0.33998185322E+04  0.25500000920E-02 0. -1.
    10030    2    1    2    0    0  0.00000000000E+00  0.00000000000E+00 -0.26957352299E+04  0.41039018345E+04  0.30943532179E+04 0.  0.
        1    1    3    3  502    0  0.27808089920E+03  0.13119630872E+04 -0.23710451533E+04  0.27240468513E+04  0.50400001928E-02 0. -1.
       -1    1    3    3    0  502 -0.27808089920E+03 -0.13119630872E+04 -0.32469007660E+03  0.13798549832E+04  0.50400001928E-02 0.  1.
</event>
<event>
 5   0  0.1830902E-07  0.3083835E+04  0.7818609E-02  0.8220188E-01
        1   -1    0    0  501    0  0.00000000000E+00  0.00000000000E+00  0.20699546577E+04  0.20699546577E+04  0.50400001928E-02 0. -1.
       -1   -1    0    0    0  501  0.00000000000E+00  0.00000000000E+00 -0.11485802988E+04  0.11485802988E+04  0.50400001928E-02 0.  1.
    10030    2    1    2    0    0  0.00000000000E+00  0.00000000000E+00  0.92137435892E+03  0.32185349565E+04  0.30838347162E+04 0.  0.
        3    1    3    3  502    0  0.11986936879E+04  0.96849766164E+03  0.51446302175E+03  0.16246619614E+04  0.10100000352E+00 0.  1.
       -3    1    3    3    0  502 -0.11986936879E+04 -0.96849766164E+03  0.40691133717E+03  0.15938729951E+04  0.10100000352E+00 0. -1.
</event>
<event>
 5   0  0.5248309E-07  0.3100182E+04  0.7818609E-02  0.8215688E-01
       -2   -1    0    0    0  501  0.00000000000E+00  0.00000000000E+00  0.16769472236E+04  0.16769472236E+04  0.25500000920E-02 0. -1.
        2   -1    0    0  501    0  0.00000000000E+00  0.00000000000E+00 -0.14328310285E+04  0.14328310285E+04  0.25500000920E-02 0.  1.
    10030    2    1    2    0    0  0.00000000000E+00  0.00000000000E+00  0.24411619511E+03  0.31097782521E+04  0.31001819399E+04 0.  0.
        4    1    3    3  502    0  0.70635828274E+03 -0.12789802170E+04 -0.39727800215E+03  0.15141214756E+04  0.12699999809E+01 0.  1.
       -4    1    3    3    0  502 -0.70635828274E+03  0.12789802170E+04  0.64139419725E+03  0.15956567764E+04  0.12699999809E+01 0. -1.
</event>
<event>
 5   0  0.5342534E-07  0.3109607E+04  0.7818609E-02  0.8213106E-01
       -2   -1    0    0    0  501  0.00000000000E+00  0.00000000000E+00  0.10655214165E+04  0.10655214165E+04  0.25500000920E-02 0. -1.
        2   -1    0    0  501    0  0.00000000000E+00  0.00000000000E+00 -0.22687616184E+04  0.22687616184E+04  0.25500000920E-02 0.  1.
    10030    2    1    2    0    0  0.00000000000E+00  0.00000000000E+00 -0.12032402018E+04  0.33342830349E+04  0.31096071092E+04 0.  0.
        3    1    3    3  502    0 -0.53974760927E+02 -0.62843104227E+03 -0.21254165609E+04  0.22170327957E+04  0.10100000352E+00 0.  1.
       -3    1    3    3    0  502  0.53974760927E+02  0.62843104227E+03  0.92217635904E+03  0.11172502392E+04  0.10100000352E+00 0. -1.
</event>
<event>
 5   0  0.5055900E-07  0.3108430E+04  0.7818609E-02  0.8213428E-01
        2   -1    0    0  501    0  0.00000000000E+00  0.00000000000E+00  0.18609081946E+04  0.18609081946E+04  0.25500000920E-02 0.  1.
       -2   -1    0    0    0  501  0.00000000000E+00  0.00000000000E+00 -0.12980675991E+04  0.12980675991E+04  0.25500000920E-02 0. -1.
    10030    2    1    2    0    0  0.00000000000E+00  0.00000000000E+00  0.56284059548E+03  0.31589757938E+04  0.31084302356E+04 0.  0.
        2    1    3    3  502    0 -0.14035725148E+03  0.68620514376E+03  0.16914274873E+04  0.18307115016E+04  0.25500000920E-02 0.  1.
       -2    1    3    3    0  502  0.14035725148E+03 -0.68620514376E+03 -0.11285868918E+04  0.13282642921E+04  0.25500000920E-02 0. -1.
</event>
<event>
 5   0  0.1814075E-07  0.3101812E+04  0.7818609E-02  0.8215241E-01
        1   -1    0    0  501    0  0.00000000000E+00  0.00000000000E+00  0.21657032291E+04  0.21657032291E+04  0.50400001928E-02 0.  1.
       -1   -1    0    0    0  501  0.00000000000E+00  0.00000000000E+00 -0.11106369913E+04  0.11106369913E+04  0.50400001928E-02 0. -1.
    10030    2    1    2    0    0  0.00000000000E+00  0.00000000000E+00  0.10550662378E+04  0.32763402204E+04  0.31018124498E+04 0.  0.
        5    1    3    3  502    0  0.34363415232E+03 -0.53231011911E+03 -0.96769003142E+03  0.11566696073E+04  0.46999998093E+01 0. -1.
       -5    1    3    3    0  502 -0.34363415232E+03  0.53231011911E+03  0.20227562692E+04  0.21196706131E+04  0.46999998093E+01 0.  1.
</event>
<event>
 5   0  0.1840359E-07  0.3097411E+04  0.7818609E-02  0.8216449E-01
       -1   -1    0    0    0  501  0.00000000000E+00  0.00000000000E+00  0.15619027901E+04  0.15619027901E+04  0.50400001928E-02 0. -1.
        1   -1    0    0  501    0  0.00000000000E+00  0.00000000000E+00 -0.15356195146E+04  0.15356195146E+04  0.50400001928E-02 0.  1.
    10030    2    1    2    0    0  0.00000000000E+00  0.00000000000E+00  0.26283275429E+02  0.30975223047E+04  0.30974107925E+04 0.  0.
        1    1    3    3  502    0  0.20944616640E+03  0.12123833784E+04 -0.92750226813E+03  0.15407795463E+04  0.50400001928E-02 0.  1.
       -1    1    3    3    0  502 -0.20944616640E+03 -0.12123833784E+04  0.95378554356E+03  0.15567427584E+04  0.50400001928E-02 0. -1.
</event>
<event>
 5   0  0.5248309E-07  0.3088490E+04  0.7818609E-02  0.8218904E-01
        2   -1    0    0  501    0  0.00000000000E+00  0.00000000000E+00  0.24294021431E+04  0.24294021431E+04  0.25500000920E-02 0. -1.
       -2   -1    0    0    0  501  0.00000000000E+00  0.00000000000E+00 -0.98159657186E+03  0.98159657186E+03  0.25500000920E-02 0.  1.
    10030    2    1    2    0    0  0.00000000000E+00  0.00000000000E+00  0.14478055713E+04  0.34109987150E+04  0.30884901265E+04 0.  0.
        4    1    3    3  502    0 -0.31422835934E+02  0.15025418401E+04  0.33175988122E+03  0.15390534778E+04  0.12699999809E+01 0.  1.
       -4    1    3    3    0  502  0.31422835934E+02 -0.15025418401E+04  0.11160456901E+04  0.18719452372E+04  0.12699999809E+01 0. -1.
</event>
<event>
 5   0  0.5248309E-07  0.3091488E+04  0.7818609E-02  0.8218078E-01
       -2   -1    0    0    0  501  0.00000000000E+00  0.00000000000E+00  0.17429508087E+04  0.17429508087E+04  0.25500000920E-02 0. -1.
        2   -1    0    0  501    0  0.00000000000E+00  0.00000000000E+00 -0.13708498483E+04  0.13708498483E+04  0.25500000920E-02 0.  1.
    10030    2    1    2    0    0  0.00000000000E+00  0.00000000000E+00  0.37210096038E+03  0.31138006570E+04  0.30914875718E+04 0.  0.
        4    1    3    3  502    0  0.12357394825E+04  0.43096518349E+03  0.10145071097E+04  0.16559013698E+04  0.12699999809E+01 0. -1.
       -4    1    3    3    0  502 -0.12357394825E+04 -0.43096518349E+03 -0.64240614929E+03  0.14578992872E+04  0.12699999809E+01 0.  1.
</event>
<event>
 5   0  0.5376678E-07  0.3106349E+04  0.7818609E-02  0.8213998E-01
       -2   -1    0    0    0  501  0.00000000000E+00  0.00000000000E+00  0.14630462740E+04  0.14630462740E+04  0.25500000920E-02 0. -1.
        2   -1    0    0  501    0  0.00000000000E+00  0.00000000000E+00 -0.16488551562E+04  0.16488551562E+04  0.25500000920E-02 0.  1.
    10030    2    1    2    0    0  0.00000000000E+00  0.00000000000E+00 -0.18580888220E+03  0.31119014302E+04  0.31063492351E+04 0.  0.
        5    1    3    3  502    0  0.82638452991E+03  0.19861190800E+03  0.12094080512E+04  0.14781907879E+04  0.46999998093E+01 0. -1.
       -5    1    3    3    0  502 -0.82638452991E+03 -0.19861190800E+03 -0.13952169334E+04  0.16337106422E+04  0.46999998093E+01 0.  1.
</event>
<event>
 5   0  0.5342534E-07  0.3106154E+04  0.7818609E-02  0.8214051E-01
       -2   -1    0    0    0  501  0.00000000000E+00  0.00000000000E+00  0.28488383950E+04  0.28488383950E+04  0.25500000920E-02 0. -1.
        2   -1    0    0  501    0  0.00000000000E+00  0.00000000000E+00 -0.84667795770E+03  0.84667795771E+03  0.25500000920E-02 0.  1.
    10030    2    1    2    0    0  0.00000000000E+00  0.00000000000E+00  0.20021604373E+04  0.36955163527E+04  0.31061543259E+04 0.  0.
        3    1    3    3  502    0  0.12949409090E+03  0.22679601969E+03 -0.82036622028E+03  0.86093315635E+03  0.10100000352E+00 0.  1.
       -3    1    3    3    0  502 -0.12949409090E+03 -0.22679601969E+03  0.28225266575E+04  0.28345831963E+04  0.10100000352E+00 0. -1.
</event>
<event>
 5   0  0.5248309E-07  0.3105704E+04  0.7818609E-02  0.8214174E-01
        2   -1    0    0  501    0  0.00000000000E+00  0.00000000000E+00  0.24469900655E+04  0.24469900655E+04  0.25500000920E-02 0. -1.
       -2   -1    0    0    0  501  0.00000000000E+00  0.00000000000E+00 -0.98543501177E+03  0.98543501177E+03  0.25500000920E-02 0.  1.
    10030    2    1    2    0    0  0.00000000000E+00  0.00000000000E+00  0.14615550537E+04  0.34324250773E+04  0.31057042255E+04 0.  0.
        4    1    3    3  502    0  0.12192383523E+04 -0.88852659087E+03  0.32421040838E+03  0.15430928890E+04  0.12699999809E+01 0.  1.
       -4    1    3    3    0  502 -0.12192383523E+04  0.88852659087E+03  0.11373446454E+04  0.18893321883E+04  0.12699999809E+01 0. -1.
</event>
<event>
 5   0  0.1814075E-07  0.3099791E+04  0.7818609E-02  0.8215795E-01
       -1   -1    0    0    0  501  0.00000000000E+00  0.00000000000E+00  0.16532196001E+04  0.16532196001E+04  0.50400001928E-02 0. -1.
        1   -1    0    0  501    0  0.00000000000E+00  0.00000000000E+00 -0.14530294209E+04  0.14530294209E+04  0.50400001928E-02 0.  1.
    10030    2    1    2    0    0  0.00000000000E+00  0.00000000000E+00  0.20019017921E+03  0.31062490209E+04  0.30997914240E+04 0.  0.
        5    1    3    3  502    0  0.12516116094E+03  0.13982473899E+04 -0.55807875511E+03  0.15107068102E+04  0.46999998093E+01 0.  1.
       -5    1    3    3    0  502 -0.12516116094E+03 -0.13982473899E+04  0.75826893432E+03  0.15955422107E+04  0.46999998093E+01 0. -1.
</event>
<event>
 5   0  0.1845123E-07  0.3100038E+04  0.7818609E-02  0.8215727E-01
        1   -1    0    0  501    0  0.00000000000E+00  0.00000000000E+00  0.12002541939E+04  0.12002541939E+04  0.50400001928E-02 0.  1.
       -1   -1    0    0    0  501  0.00000000000E+00  0.00000000000E+00 -0.20017087047E+04  0.20017087047E+04  0.50400001928E-02 0. -1.
    10030    2    1    2    0    0  0.00000000000E+00  0.00000000000E+00 -0.80145451083E+03  0.32019628986E+04  0.31000382371E+04 0.  0.
        2    1    3    3  502    0 -0.12378357088E+04 -0.83448171057E+03  0.30073856794E+02  0.14931515008E+04  0.25500000920E-02 0.  1.
       -2    1    3    3    0  502  0.12378357088E+04  0.83448171057E+03 -0.83152836763E+03  0.17088113979E+04  0.25500000920E-02 0. -1.
</event>
<event>
 5   0  0.5248309E-07  0.3100639E+04  0.7818609E-02  0.8215563E-01
       -2   -1    0    0    0  501  0.00000000000E+00  0.00000000000E+00  0.18888263103E+04  0.18888263103E+04  0.25500000920E-02 0. -1.
        2   -1    0    0  501    0  0.00000000000E+00  0.00000000000E+00 -0.12724779954E+04  0.12724779954E+04  0.25500000920E-02 0.  1.
    10030    2    1    2    0    0  0.00000000000E+00  0.00000000000E+00  0.61634831485E+03  0.31613043057E+04  0.31006385904E+04 0.  0.
        4    1    3    3  502    0 -0.11017229286E+04  0.85147632719E+03  0.10031881161E+04  0.17161565652E+04  0.12699999809E+01 0. -1.
       -4    1    3    3    0  502  0.11017229286E+04 -0.85147632719E+03 -0.38683980129E+03  0.14451477405E+04  0.12699999809E+01 0.  1.
</event>
<event>
 5   0  0.5342534E-07  0.3100317E+04  0.7818609E-02  0.8215651E-01
        2   -1    0    0  501    0  0.00000000000E+00  0.00000000000E+00  0.20578813004E+04  0.20578813004E+04  0.25500000920E-02 0.  1.
       -2   -1    0    0    0  501  0.00000000000E+00  0.00000000000E+00 -0.11677013147E+04  0.11677013147E+04  0.25500000920E-02 0. -1.
    10030    2    1    2    0    0  0.00000000000E+00  0.00000000000E+00  0.89017998572E+03  0.32255826151E+04  0.31003165644E+04 0.  0.
        3    1    3    3  502    0 -0.98496396237E+02  0.91332029371E+03  0.17441942802E+04  0.19713115422E+04  0.10100000352E+00 0.  1.
       -3    1    3    3    0  502  0.98496396237E+02 -0.91332029371E+03 -0.85401429448E+03  0.12542710729E+04  0.10100000352E+00 0. -1.
</event>
<event>
 5   0  0.1727000E-07  0.3099532E+04  0.7818609E-02  0.8215866E-01
       -3   -1    0    0    0  501  0.00000000000E+00  0.00000000000E+00  0.14750639201E+04  0.14750639236E+04  0.10100000352E+00 0.  1.
        3   -1    0    0  501    0  0.00000000000E+00  0.00000000000E+00 -0.16282507799E+04  0.16282507830E+04  0.10100000352E+00 0. -1.
    10030    2    1    2    0    0  0.00000000000E+00  0.00000000000E+00 -0.15318685978E+03  0.31033147066E+04  0.30995315702E+04 0.  0.
        2    1    3    3  502    0  0.10519429466E+04 -0.90575225232E+03  0.61330702144E+03  0.15176022562E+04  0.25500000920E-02 0.  1.
       -2    1    3    3    0  502 -0.10519429466E+04  0.90575225232E+03 -0.76649388122E+03  0.15857124504E+04  0.25500000920E-02 0. -1.
</event>
<event>
 5   0  0.5055900E-07  0.3105263E+04  0.7818609E-02  0.8214295E-01
        2   -1    0    0  501    0  0.00000000000E+00  0.00000000000E+00  0.21571414512E+04  0.21571414512E+04  0.25500000920E-02 0. -1.
       -2   -1    0    0    0  501  0.00000000000E+00  0.00000000000E+00 -0.11175274702E+04  0.11175274702E+04  0.25500000920E-02 0.  1.
    10030    2    1    2    0    0  0.00000000000E+00  0.00000000000E+00  0.10396139810E+04  0.32746689214E+04  0.31052631636E+04 0.  0.
        2    1    3    3  502    0 -0.45942127822E+03 -0.82383208034E+03 -0.78071882369E+03  0.12244546089E+04  0.25500000920E-02 0.  1.
       -2    1    3    3    0  502  0.45942127822E+03  0.82383208034E+03  0.18203328047E+04  0.20502143125E+04  0.25500000920E-02 0. -1.
</event>
<event>
 5   0  0.5248309E-07  0.3096635E+04  0.7818609E-02  0.8216662E-01
        2   -1    0    0  501    0  0.00000000000E+00  0.00000000000E+00  0.25202856949E+04  0.25202856949E+04  0.25500000920E-02 0. -1.
       -2   -1    0    0    0  501  0.00000000000E+00  0.00000000000E+00 -0.95119638316E+03  0.95119638316E+03  0.25500000920E-02 0.  1.
    10030    2    1    2    0    0  0.00000000000E+00  0.00000000000E+00  0.15690893118E+04  0.34714820781E+04  0.30966347137E+04 0.  0.
        4    1    3    3  502    0 -0.12511585591E+04 -0.39777825602E+03  0.17046663013E+04  0.21516305660E+04  0.12699999809E+01 0.  1.
       -4    1    3    3    0  502  0.12511585591E+04  0.39777825602E+03 -0.13557698951E+03  0.13198515121E+04  0.12699999809E+01 0. -1.
</event>
<event>
 5   0  0.1840359E-07  0.3103346E+04  0.7818609E-02  0.8214820E-01
       -1   -1    0    0    0  501  0.00000000000E+00  0.00000000000E+00  0.12794540926E+04  0.12794540926E+04  0.50400001928E-02 0. -1.
        1   -1    0    0  501    0  0.00000000000E+00  0.00000000000E+00 -0.18818095186E+04  0.18818095186E+04  0.50400001928E-02 0.  1.
    10030    2    1    2    0    0  0.00000000000E+00  0.00000000000E+00 -0.60235542600E+03  0.31612636112E+04  0.31033458654E+04 0.  0.
        1    1    3    3  502    0 -0.86525131414E+02 -0.94408761273E+03  0.95012068012E+03  0.13422061413E+04  0.50400001928E-02 0. -1.
       -1    1    3    3    0  502  0.86525131414E+02  0.94408761273E+03 -0.15524761061E+04  0.18190574699E+04  0.50400001928E-02 0.  1.
</event>
<event>
 5   0  0.5055900E-07  0.3098241E+04  0.7818609E-02  0.8216221E-01
        2   -1    0    0  501    0  0.00000000000E+00  0.00000000000E+00  0.27986604348E+04  0.27986604348E+04  0.25500000920E-02 0.  1.
       -2   -1    0    0    0  501  0.00000000000E+00  0.00000000000E+00 -0.85747274601E+03  0.85747274601E+03  0.25500000920E-02 0. -1.
    10030    2    1    2    0    0  0.00000000000E+00  0.00000000000E+00  0.19411876888E+04  0.36561331808E+04  0.30982414678E+04 0.  0.
        2    1    3    3  502    0  0.50864602258E+03  0.70642515484E+03  0.24827466222E+04  0.26309291260E+04  0.25500000920E-02 0.  1.
       -2    1    3    3    0  502 -0.50864602258E+03 -0.70642515484E+03 -0.54155893344E+03  0.10252040548E+04  0.25500000920E-02 0. -1.
</event>
<event>
 5   0  0.1814075E-07  0.3088363E+04  0.7818609E-02  0.8218939E-01
       -1   -1    0    0    0  501  0.00000000000E+00  0.00000000000E+00  0.13562454032E+04  0.13562454032E+04  0.50400001928E-02 0. -1.
        1   -1    0    0  501    0  0.00000000000E+00  0.00000000000E+00 -0.17581604989E+04  0.17581604989E+04  0.50400001928E-02 0.  1.
    10030    2    1    2    0    0  0.00000000000E+00  0.00000000000E+00 -0.40191509572E+03  0.31144059021E+04  0.30883633819E+04 0.  0.
        5    1    3    3  502    0 -0.10605849328E+04 -0.33184339890E+03  0.88023752570E+03  0.14176743747E+04  0.46999998093E+01 0. -1.
       -5    1    3    3    0  502  0.10605849328E+04  0.33184339890E+03 -0.12821526214E+04  0.16967315273E+04  0.46999998093E+01 0.  1.
</event>
<event>
 5   0  0.1830902E-07  0.3099258E+04  0.7818609E-02  0.8215942E-01
       -1   -1    0    0    0  501  0.00000000000E+00  0.00000000000E+00  0.17421458664E+04  0.17421458664E+04  0.50400001928E-02 0. -1.
        1   -1    0    0  501    0  0.00000000000E+00  0.00000000000E+00 -0.13783864072E+04  0.13783864072E+04  0.50400001928E-02 0.  1.
    10030    2    1    2    0    0  0.00000000000E+00  0.00000000000E+00  0.36375945923E+03  0.31205322736E+04  0.30992580929E+04 0.  0.
        3    1    3    3  502    0  0.66908125742E+02 -0.90976857221E+03 -0.10793939698E+04  0.14132398610E+04  0.10100000352E+00 0.  1.
       -3    1    3    3    0  502 -0.66908125742E+02  0.90976857221E+03  0.14431534291E+04  0.17072924127E+04  0.10100000352E+00 0. -1.
</event>
<event>
 5   0  0.5376678E-07  0.3100375E+04  0.7818609E-02  0.8215635E-01
       -2   -1    0    0    0  501  0.00000000000E+00  0.00000000000E+00  0.11879865546E+04  0.11879865546E+04  0.25500000920E-02 0.  1.
        2   -1    0    0  501    0  0.00000000000E+00  0.00000000000E+00 -0.20228187964E+04  0.20228187964E+04  0.25500000920E-02 0. -1.
    10030    2    1    2    0    0  0.00000000000E+00  0.00000000000E+00 -0.83483224174E+03  0.32108053510E+04  0.31003751596E+04 0.  0.
        5    1    3    3  502    0  0.12729967402E+04  0.85968716079E+03 -0.63335366267E+03  0.16615479731E+04  0.46999998093E+01 0. -1.
       -5    1    3    3    0  502 -0.12729967402E+04 -0.85968716079E+03 -0.20147857907E+03  0.15492573779E+04  0.46999998093E+01 0.  1.
</event>
<event>
 5   0  0.1814075E-07  0.3104046E+04  0.7818609E-02  0.8214628E-01
       -1   -1    0    0    0  501  0.00000000000E+00  0.00000000000E+00  0.11211045194E+04  0.11211045194E+04  0.50400001928E-02 0.  1.
        1   -1    0    0  501    0  0.00000000000E+00  0.00000000000E+00 -0.21485738000E+04  0.21485738000E+04  0.50400001928E-02 0. -1.
    10030    2    1    2    0    0  0.00000000000E+00  0.00000000000E+00 -0.10274692806E+04  0.32696783194E+04  0.31040462609E+04 0.  0.
        5    1    3    3  502    0 -0.96897726972E+03 -0.55287687609E+03 -0.16502725067E+04  0.19919867534E+04  0.46999998093E+01 0. -1.
       -5    1    3    3    0  502  0.96897726972E+03  0.55287687609E+03  0.62280322611E+03  0.12776915660E+04  0.46999998093E+01 0.  1.
</event>
<event>
 5   0  0.5342534E-07  0.3101965E+04  0.7818609E-02  0.8215199E-01
       -2   -1    0    0    0  501  0.00000000000E+00  0.00000000000E+00  0.15791759309E+04  0.15791759309E+04  0.25500000920E-02 0.  1.
        2   -1    0    0  501    0  0.00000000000E+00  0.00000000000E+00 -0.15232921807E+04  0.15232921807E+04  0.25500000920E-02 0. -1.
    10030    2    1    2    0    0  0.00000000000E+00  0.00000000000E+00  0.55883750172E+02  0.31024681116E+04  0.31019647629E+04 0.  0.
        3    1    3    3  502    0 -0.65637556102E+03 -0.11803908973E+04  0.79055808804E+03  0.15649708139E+04  0.10100000352E+00 0. -1.
       -3    1    3    3    0  502  0.65637556102E+03  0.11803908973E+04 -0.73467433786E+03  0.15374972977E+04  0.10100000352E+00 0.  1.
</event>
<event>
 5   0  0.1840359E-07  0.3088705E+04  0.7818609E-02  0.8218844E-01
        1   -1    0    0  501    0  0.00000000000E+00  0.00000000000E+00  0.21982263489E+04  0.21982263489E+04  0.50400001928E-02 0.  1.
       -1   -1    0    0    0  501  0.00000000000E+00  0.00000000000E+00 -0.10849770446E+04  0.10849770446E+04  0.50400001928E-02 0. -1.
    10030    2    1    2    0    0  0.00000000000E+00  0.00000000000E+00  0.11132493044E+04  0.32832033935E+04  0.30887053129E+04 0.  0.
        1    1    3    3  502    0  0.22448586759E+03  0.42247466442E+03  0.21174720106E+04  0.21708446427E+04  0.50400001928E-02 0.  1.
       -1    1    3    3    0  502 -0.22448586759E+03 -0.42247466442E+03 -0.10042227063E+04  0.11123587509E+04  0.50400001928E-02 0. -1.
</event>
<event>
 5   0  0.1830902E-07  0.3100298E+04  0.7818609E-02  0.8215656E-01
       -1   -1    0    0    0  501  0.00000000000E+00  0.00000000000E+00  0.13566155788E+04  0.13566155788E+04  0.50400001928E-02 0.  1.
        1   -1    0    0  501    0  0.00000000000E+00  0.00000000000E+00 -0.17712919410E+04  0.17712919410E+04  0.50400001928E-02 0. -1.
    10030    2    1    2    0    0  0.00000000000E+00  0.00000000000E+00 -0.41467636213E+03  0.31279075198E+04  0.31002982061E+04 0.  0.
        3    1    3    3  502    0 -0.11631129414E+03  0.33895796626E+03 -0.17289271786E+04  0.17656755135E+04  0.10100000352E+00 0. -1.
       -3    1    3    3    0  502  0.11631129414E+03 -0.33895796626E+03  0.13142508165E+04  0.13622320062E+04  0.10100000352E+00 0.  1.
</event>
<event>
 5   0  0.5342534E-07  0.3100952E+04  0.7818609E-02  0.8215477E-01
       -2   -1    0    0    0  501  0.00000000000E+00  0.00000000000E+00  0.12342273677E+04  0.12342273677E+04  0.25500000920E-02 0.  1.
        2   -1    0    0  501    0  0.00000000000E+00  0.00000000000E+00 -0.19477575576E+04  0.19477575576E+04  0.25500000920E-02 0. -1.
    10030    2    1    2    0    0  0.00000000000E+00  0.00000000000E+00 -0.71353018991E+03  0.31819849253E+04  0.31009519075E+04 0.  0.
        3    1    3    3  502    0 -0.79785487181E+03 -0.12449714040E+04  0.12173527015E+03  0.14836932565E+04  0.10100000352E+00 0.  1.
       -3    1    3    3    0  502  0.79785487181E+03  0.12449714040E+04 -0.83526546006E+03  0.16982916688E+04  0.10100000352E+00 0. -1.
</event>
<event>
 5   0  0.5376678E-07  0.3100024E+04  0.7818609E-02  0.8215731E-01
        2   -1    0    0  501    0  0.00000000000E+00  0.00000000000E+00  0.18330286298E+04  0.18330286298E+04  0.25500000920E-02 0. -1.
       -2   -1    0    0    0  501  0.00000000000E+00  0.00000000000E+00 -0.13106925231E+04  0.13106925231E+04  0.25500000920E-02 0.  1.
    10030    2    1    2    0    0  0.00000000000E+00  0.00000000000E+00  0.52233610671E+03  0.31437211529E+04  0.31000238191E+04 0.  0.
        5    1    3    3  502    0 -0.63485166742E+03 -0.43254431823E+02 -0.11721218406E+04  0.13337163434E+04  0.46999998093E+01 0.  1.
       -5    1    3    3    0  502  0.63485166742E+03  0.43254431823E+02  0.16944579473E+04  0.18100048095E+04  0.46999998093E+01 0. -1.
</event>
<event>
 5   0  0.5376678E-07  0.3100310E+04  0.7818609E-02  0.8215653E-01
       -2   -1    0    0    0  501  0.00000000000E+00  0.00000000000E+00  0.10248613880E+04  0.10248613880E+04  0.25500000920E-02 0.  1.
        2   -1    0    0  501    0  0.00000000000E+00  0.00000000000E+00 -0.23446887376E+04  0.23446887376E+04  0.25500000920E-02 0. -1.
    10030    2    1    2    0    0  0.00000000000E+00  0.00000000000E+00 -0.13198273496E+04  0.33695501256E+04  0.31003102773E+04 0.  0.
        5    1    3    3  502    0 -0.93989044594E+03 -0.12138049723E+04 -0.42619872790E+03  0.15932306822E+04  0.46999998093E+01 0.  1.
       -5    1    3    3    0  502  0.93989044594E+03  0.12138049723E+04 -0.89362862174E+03  0.17763194433E+04  0.46999998093E+01 0. -1.
</event>
<event>
 5   0  0.1875284E-07  0.3097919E+04  0.7818609E-02  0.8216309E-01
       -1   -1    0    0    0  501  0.00000000000E+00  0.00000000000E+00  0.15968419928E+04  0.15968419928E+04  0.50400001928E-02 0.  1.
        1   -1    0    0  501    0  0.00000000000E+00  0.00000000000E+00 -0.15025130505E+04  0.15025130505E+04  0.50400001928E-02 0. -1.
    10030    2    1    2    0    0  0.00000000000E+00  0.00000000000E+00  0.94328942302E+02  0.30993550433E+04  0.30979192589E+04 0.  0.
        4    1    3    3  502    0 -0.10150994250E+04 -0.64267960553E+03 -0.93094420479E+03  0.15199087615E+04  0.12699999809E+01 0. -1.
       -4    1    3    3    0  502  0.10150994250E+04  0.64267960553E+03  0.10252731471E+04  0.15794462818E+04  0.12699999809E+01 0.  1.
</event>
<event>
 5   0  0.1814075E-07  0.3098958E+04  0.7818609E-02  0.8216024E-01
       -1   -1    0    0    0  501  0.00000000000E+00  0.00000000000E+00  0.13042233562E+04  0.13042233562E+04  0.50400001928E-02 0. -1.
        1   -1    0    0  501    0  0.00000000000E+00  0.00000000000E+00 -0.18408541491E+04  0.18408541491E+04  0.50400001928E-02 0.  1.
    10030    2    1    2    0    0  0.00000000000E+00  0.00000000000E+00 -0.53663079295E+03  0.31450775053E+04  0.30989578742E+04 0.  0.
        5    1    3    3  502    0  0.12488070778E+04  0.45538272755E+03 -0.10763875665E+04  0.17104165660E+04  0.46999998093E+01 0.  1.
       -5    1    3    3    0  502 -0.12488070778E+04 -0.45538272755E+03  0.53975677357E+03  0.14346609393E+04  0.46999998093E+01 0. -1.
</event>
<event>
 5   0  0.1875284E-07  0.3100641E+04  0.7818609E-02  0.8215562E-01
        1   -1    0    0  501    0  0.00000000000E+00  0.00000000000E+00  0.19395117147E+04  0.19395117147E+04  0.50400001928E-02 0.  1.
       -1   -1    0    0    0  501  0.00000000000E+00  0.00000000000E+00 -0.12392261149E+04  0.12392261149E+04  0.50400001928E-02 0. -1.
    10030    2    1    2    0    0  0.00000000000E+00  0.00000000000E+00  0.70028559984E+03  0.31787378296E+04  0.31006409447E+04 0.  0.
        4    1    3    3  502    0 -0.84779988395E+03 -0.97970914754E+03 -0.52271093161E+03  0.13970765863E+04  0.12699999809E+01 0.  1.
       -4    1    3    3    0  502  0.84779988395E+03  0.97970914754E+03  0.12229965315E+04  0.17816612433E+04  0.12699999809E+01 0. -1.
</event>
<event>
 5   0  0.1830902E-07  0.3097752E+04  0.7818609E-02  0.8216355E-01
        1   -1    0    0  501    0  0.00000000000E+00  0.00000000000E+00  0.16847883532E+04  0.16847883532E+04  0.50400001928E-02 0. -1.
       -1   -1    0    0    0  501  0.00000000000E+00  0.00000000000E+00 -0.14239274322E+04  0.14239274322E+04  0.50400001928E-02 0.  1.
    10030    2    1    2    0    0  0.00000000000E+00  0.00000000000E+00  0.26086092098E+03  0.31087157854E+04  0.30977516709E+04 0.  0.
        3    1    3    3  502    0  0.87835112063E+03  0.12757410072E+04  0.13116434775E+03  0.15544194752E+04  0.10100000352E+00 0. -1.
       -3    1    3    3    0  502 -0.87835112063E+03 -0.12757410072E+04  0.12969657323E+03  0.15542963102E+04  0.10100000352E+00 0.  1.
</event>
<event>
 5   0  0.1875284E-07  0.3115852E+04  0.7818609E-02  0.8211401E-01
        1   -1    0    0  501    0  0.00000000000E+00  0.00000000000E+00  0.81839796471E+03  0.81839796473E+03  0.50400001928E-02 0. -1.
       -1   -1    0    0    0  501  0.00000000000E+00  0.00000000000E+00 -0.29657135747E+04  0.29657135748E+04  0.50400001928E-02 0.  1.
    10030    2    1    2    0    0  0.00000000000E+00  0.00000000000E+00 -0.21473156100E+04  0.37841115395E+04  0.31158523415E+04 0.  0.
        4    1    3    3  502    0  0.11510293744E+04  0.31900093747E+03 -0.22884334259E+04  0.25813871032E+04  0.12699999809E+01 0.  1.
       -4    1    3    3    0  502 -0.11510293744E+04 -0.31900093747E+03  0.14111781587E+03  0.12027244363E+04  0.12699999809E+01 0. -1.
</event>
<event>
 5   0  0.5342534E-07  0.3100808E+04  0.7818609E-02  0.8215516E-01
        2   -1    0    0  501    0  0.00000000000E+00  0.00000000000E+00  0.27681263797E+04  0.27681263797E+04  0.25500000920E-02 0. -1.
       -2   -1    0    0    0  501  0.00000000000E+00  0.00000000000E+00 -0.86836806321E+03  0.86836806322E+03  0.25500000920E-02 0.  1.
    10030    2    1    2    0    0  0.00000000000E+00  0.00000000000E+00  0.18997583165E+04  0.36364944429E+04  0.31008079870E+04 0.  0.
        3    1    3    3  502    0 -0.32550877574E+03  0.20492596181E+03 -0.81152304484E+03  0.89806473899E+03  0.10100000352E+00 0.  1.
       -3    1    3    3    0  502  0.32550877574E+03 -0.20492596181E+03  0.27112813613E+04  0.27384297039E+04  0.10100000352E+00 0. -1.
</event>
<event>
 5   0  0.5376678E-07  0.3100410E+04  0.7818609E-02  0.8215626E-01
       -2   -1    0    0    0  501  0.00000000000E+00  0.00000000000E+00  0.73258388988E+03  0.73258388989E+03  0.25500000920E-02 0.  1.
        2   -1    0    0  501    0  0.00000000000E+00  0.00000000000E+00 -0.32803546426E+04  0.32803546426E+04  0.25500000920E-02 0. -1.
    10030    2    1    2    0    0  0.00000000000E+00  0.00000000000E+00 -0.25477707527E+04  0.40129385324E+04  0.31004096273E+04 0.  0.
        5    1    3    3  502    0 -0.14903615699E+04  0.36325687580E+03 -0.98452418374E+03  0.18227570121E+04  0.46999998093E+01 0.  1.
       -5    1    3    3    0  502  0.14903615699E+04 -0.36325687580E+03 -0.15632465689E+04  0.21901815203E+04  0.46999998093E+01 0. -1.
</event>
<event>
 5   0  0.5376678E-07  0.3099488E+04  0.7818609E-02  0.8215879E-01
        2   -1    0    0  501    0  0.00000000000E+00  0.00000000000E+00  0.93233241733E+03  0.93233241733E+03  0.25500000920E-02 0. -1.
       -2   -1    0    0    0  501  0.00000000000E+00  0.00000000000E+00 -0.25760188408E+04  0.25760188408E+04  0.25500000920E-02 0.  1.
    10030    2    1    2    0    0  0.00000000000E+00  0.00000000000E+00 -0.16436864234E+04  0.35083512581E+04  0.30994876176E+04 0.  0.
        5    1    3    3  502    0 -0.12417718764E+02 -0.77353569518E+03 -0.23418017939E+04  0.24662865615E+04  0.46999998093E+01 0.  1.
       -5    1    3    3    0  502  0.12417718764E+02  0.77353569518E+03  0.69811537046E+03  0.10420646966E+04  0.46999998093E+01 0. -1.
</event>
<event>
 5   0  0.1840359E-07  0.3103106E+04  0.7818609E-02  0.8214886E-01
       -1   -1    0    0    0  501  0.00000000000E+00  0.00000000000E+00  0.20342701519E+04  0.20342701519E+04  0.50400001928E-02 0.  1.
        1   -1    0    0  501    0  0.00000000000E+00  0.00000000000E+00 -0.11833811308E+04  0.11833811308E+04  0.50400001928E-02 0. -1.
    10030    2    1    2    0    0  0.00000000000E+00  0.00000000000E+00  0.85088902112E+03  0.32176512826E+04  0.31031061294E+04 0.  0.
        1    1    3    3  502    0  0.11494952087E+04  0.36218026809E+03  0.14386540340E+04  0.18767629608E+04  0.50400001928E-02 0.  1.
       -1    1    3    3    0  502 -0.11494952087E+04 -0.36218026809E+03 -0.58776501286E+03  0.13408883219E+04  0.50400001928E-02 0. -1.
</event>
<event>
 5   0  0.5154105E-07  0.3090393E+04  0.7818609E-02  0.8218380E-01
        2   -1    0    0  501    0  0.00000000000E+00  0.00000000000E+00  0.11744886893E+04  0.11744886893E+04  0.25500000920E-02 0. -1.
       -2   -1    0    0    0  501  0.00000000000E+00  0.00000000000E+00 -0.20329114567E+04  0.20329114567E+04  0.25500000920E-02 0.  1.
    10030    2    1    2    0    0  0.00000000000E+00  0.00000000000E+00 -0.85842276738E+03  0.32074001460E+04  0.30903925396E+04 0.  0.
        1    1    3    3  502    0 -0.89007752608E+03  0.10685282055E+04  0.26981833479E+03  0.14166130249E+04  0.50400001928E-02 0. -1.
       -1    1    3    3    0  502  0.89007752608E+03 -0.10685282055E+04 -0.11282411022E+04  0.17907871211E+04  0.50400001928E-02 0.  1.
</event>
<event>
 5   0  0.5154105E-07  0.3093780E+04  0.7818609E-02  0.8217447E-01
        2   -1    0    0  501    0  0.00000000000E+00  0.00000000000E+00  0.16027525654E+04  0.16027525654E+04  0.25500000920E-02 0.  1.
       -2   -1    0    0    0  501  0.00000000000E+00  0.00000000000E+00 -0.14929745542E+04  0.14929745542E+04  0.25500000920E-02 0. -1.
    10030    2    1    2    0    0  0.00000000000E+00  0.00000000000E+00  0.10977801125E+03  0.30957271196E+04  0.30937800807E+04 0.  0.
        1    1    3    3  502    0 -0.39404357962E+03 -0.14347336694E+04 -0.36862404029E+03  0.15328453046E+04  0.50400001928E-02 0. -1.
       -1    1    3    3    0  502  0.39404357962E+03  0.14347336694E+04  0.47840205155E+03  0.15628818150E+04  0.50400001928E-02 0.  1.
</event>
<event>
 5   0  0.1830902E-07  0.3083530E+04  0.7818609E-02  0.8220272E-01
        1   -1    0    0  501    0  0.00000000000E+00  0.00000000000E+00  0.13295361423E+04  0.13295361423E+04  0.50400001928E-02 0. -1.
       -1   -1    0    0    0  501  0.00000000000E+00  0.00000000000E+00 -0.17878716000E+04  0.17878716000E+04  0.50400001928E-02 0.  1.
    10030    2    1    2    0    0  0.00000000000E+00  0.00000000000E+00 -0.45833545777E+03  0.31174077423E+04  0.30835303858E+04 0.  0.
        3    1    3    3  502    0  0.93406485827E+03  0.10372085405E+04 -0.89116028811E+03  0.16560330266E+04  0.10100000352E+00 0.  1.
       -3    1    3    3    0  502 -0.93406485827E+03 -0.10372085405E+04  0.43282483034E+03  0.14613747157E+04  0.10100000352E+00 0. -1.
</event>
<event>
 5   0  0.5248309E-07  0.3111991E+04  0.7818609E-02  0.8212455E-01
       -2   -1    0    0    0  501  0.00000000000E+00  0.00000000000E+00  0.11483334942E+04  0.11483334942E+04  0.25500000920E-02 0.  1.
        2   -1    0    0  501    0  0.00000000000E+00  0.00000000000E+00 -0.21083790571E+04  0.21083790571E+04  0.25500000920E-02 0. -1.
    10030    2    1    2    0    0  0.00000000000E+00  0.00000000000E+00 -0.96004556291E+03  0.32567125513E+04  0.31119911887E+04 0.  0.
        4    1    3    3  502    0  0.31001914856E+03 -0.72100492747E+02  0.11139001090E+04  0.11584841041E+04  0.12699999809E+01 0.  1.
       -4    1    3    3    0  502 -0.31001914856E+03  0.72100492747E+02 -0.20739456720E+04  0.20982284472E+04  0.12699999809E+01 0. -1.
</event>
<event>
 5   0  0.1845123E-07  0.3099358E+04  0.7818609E-02  0.8215914E-01
       -1   -1    0    0    0  501  0.00000000000E+00  0.00000000000E+00  0.10743983212E+04  0.10743983212E+04  0.50400001928E-02 0. -1.
        1   -1    0    0  501    0  0.00000000000E+00  0.00000000000E+00 -0.22352095998E+04  0.22352095998E+04  0.50400001928E-02 0.  1.
    10030    2    1    2    0    0  0.00000000000E+00  0.00000000000E+00 -0.11608112786E+04  0.33096079210E+04  0.30993582830E+04 0.  0.
        2    1    3    3  502    0  0.98425444078E+03  0.57969946169E+03  0.53786809853E+03  0.12625808336E+04  0.25500000920E-02 0. -1.
       -2    1    3    3    0  502 -0.98425444078E+03 -0.57969946169E+03 -0.16986793772E+04  0.20470270874E+04  0.25500000920E-02 0.  1.
</event>
<event>
 5   0  0.5055900E-07  0.3095274E+04  0.7818609E-02  0.8217036E-01
       -2   -1    0    0    0  501  0.00000000000E+00  0.00000000000E+00  0.13198761813E+04  0.13198761813E+04  0.25500000920E-02 0.  1.
        2   -1    0    0  501    0  0.00000000000E+00  0.00000000000E+00 -0.18147004113E+04  0.18147004113E+04  0.25500000920E-02 0. -1.
    10030    2    1    2    0    0  0.00000000000E+00  0.00000000000E+00 -0.49482423007E+03  0.31345765926E+04  0.30952737191E+04 0.  0.
        2    1    3    3  502    0 -0.14055722832E+04  0.64376700750E+03 -0.17501700715E+03  0.15558600053E+04  0.25500000920E-02 0.  1.
       -2    1    3    3    0  502  0.14055722832E+04 -0.64376700750E+03 -0.31980722293E+03  0.15787165873E+04  0.25500000920E-02 0. -1.
</event>
<event>
 5   0  0.1840359E-07  0.3087615E+04  0.7818609E-02  0.8219145E-01
       -1   -1    0    0    0  501  0.00000000000E+00  0.00000000000E+00  0.17471092638E+04  0.17471092638E+04  0.50400001928E-02 0. -1.
        1   -1    0    0  501    0  0.00000000000E+00  0.00000000000E+00 -0.13641625931E+04  0.13641625931E+04  0.50400001928E-02 0.  1.
    10030    2    1    2    0    0  0.00000000000E+00  0.00000000000E+00  0.38294667065E+03  0.31112718569E+04  0.30876146805E+04 0.  0.
        1    1    3    3  502    0 -0.17684877846E+03 -0.88498951341E+03  0.14536113404E+04  0.17109844705E+04  0.50400001928E-02 0. -1.
       -1    1    3    3    0  502  0.17684877846E+03  0.88498951341E+03 -0.10706646698E+04  0.14002873864E+04  0.50400001928E-02 0.  1.
</event>
<event>
 5   0  0.5055900E-07  0.3095531E+04  0.7818609E-02  0.8216965E-01
       -2   -1    0    0    0  501  0.00000000000E+00  0.00000000000E+00  0.16811523197E+04  0.16811523197E+04  0.25500000920E-02 0.  1.
        2   -1    0    0  501    0  0.00000000000E+00  0.00000000000E+00 -0.14249618281E+04  0.14249618281E+04  0.25500000920E-02 0. -1.
    10030    2    1    2    0    0  0.00000000000E+00  0.00000000000E+00  0.25619049158E+03  0.31061141478E+04  0.30955308965E+04 0.  0.
        2    1    3    3  502    0 -0.12020607056E+04  0.88406879673E+03 -0.28446772780E+03  0.15190291194E+04  0.25500000920E-02 0. -1.
       -2    1    3    3    0  502  0.12020607056E+04 -0.88406879673E+03  0.54065821938E+03  0.15870850284E+04  0.25500000920E-02 0.  1.
</event>
<event>
 5   0  0.5376678E-07  0.3103157E+04  0.7818609E-02  0.8214872E-01
        2   -1    0    0  501    0  0.00000000000E+00  0.00000000000E+00  0.24137759827E+04  0.24137759827E+04  0.25500000920E-02 0.  1.
       -2   -1    0    0    0  501  0.00000000000E+00  0.00000000000E+00 -0.99735660700E+03  0.99735660700E+03  0.25500000920E-02 0. -1.
    10030    2    1    2    0    0  0.00000000000E+00  0.00000000000E+00  0.14164193757E+04  0.34111325897E+04  0.31031567309E+04 0.  0.
        5    1    3    3  502    0  0.73681716148E+03  0.81484033647E+03  0.19126287081E+04  0.22056824270E+04  0.46999998093E+01 0.  1.
       -5    1    3    3    0  502 -0.73681716148E+03 -0.81484033647E+03 -0.49620933240E+03  0.12054501628E+04  0.46999998093E+01 0. -1.
</event>
<event>
 5   0  0.5376678E-07  0.3099101E+04  0.7818609E-02  0.8215985E-01
       -2   -1    0    0    0  501  0.00000000000E+00  0.00000000000E+00  0.13767507071E+04  0.13767507071E+04  0.25500000920E-02 0. -1.
        2   -1    0    0  501    0  0.00000000000E+00  0.00000000000E+00 -0.17440388801E+04  0.17440388801E+04  0.25500000920E-02 0.  1.
    10030    2    1    2    0    0  0.00000000000E+00  0.00000000000E+00 -0.36728817304E+03  0.31207895872E+04  0.30991010060E+04 0.  0.
        5    1    3    3  502    0  0.68984015875E+03 -0.69562623658E+03 -0.13925913640E+04  0.17026767464E+04  0.46999998093E+01 0.  1.
       -5    1    3    3    0  502 -0.68984015875E+03  0.69562623658E+03  0.10253031910E+04  0.14181128407E+04  0.46999998093E+01 0. -1.
</event>
<event>
 5   0  0.5376678E-07  0.3097753E+04  0.7818609E-02  0.8216355E-01
       -2   -1    0    0    0  501  0.00000000000E+00  0.00000000000E+00  0.13759056256E+04  0.13759056256E+04  0.25500000920E-02 0. -1.
        2   -1    0    0  501    0  0.00000000000E+00  0.00000000000E+00 -0.17435922769E+04  0.17435922769E+04  0.25500000920E-02 0.  1.
    10030    2    1    2    0    0  0.00000000000E+00  0.00000000000E+00 -0.36768665136E+03  0.31194979025E+04  0.30977530066E+04 0.  0.
        5    1    3    3  502    0  0.92312225121E+03 -0.93795203414E+03 -0.10063309129E+04  0.16566933045E+04  0.46999998093E+01 0.  1.
       -5    1    3    3    0  502 -0.92312225121E+03  0.93795203414E+03  0.63864426155E+03  0.14628045980E+04  0.46999998093E+01 0. -1.
</event>
<event>
 5   0  0.1840359E-07  0.3140784E+04  0.7818609E-02  0.8204633E-01
       -1   -1    0    0    0  501  0.00000000000E+00  0.00000000000E+00  0.15185776836E+04  0.15185776836E+04  0.50400001928E-02 0. -1.
        1   -1    0    0  501    0  0.00000000000E+00  0.00000000000E+00 -0.16239740511E+04  0.16239740511E+04  0.50400001928E-02 0.  1.
    10030    2    1    2    0    0  0.00000000000E+00  0.00000000000E+00 -0.10539636755E+03  0.31425517347E+04  0.31407838211E+04 0.  0.
        1    1    3    3  502    0 -0.12921888753E+04  0.67130044694E+03 -0.64102097195E+03  0.15910073118E+04  0.50400001928E-02 0.  1.
       -1    1    3    3    0  502  0.12921888753E+04 -0.67130044694E+03  0.53562460440E+03  0.15515444230E+04  0.50400001928E-02 0. -1.
</event>
<event>
 5   0  0.1830902E-07  0.3132817E+04  0.7818609E-02  0.8206789E-01
       -1   -1    0    0    0  501  0.00000000000E+00  0.00000000000E+00  0.31095729507E+04  0.31095729507E+04  0.50400001928E-02 0. -1.
        1   -1    0    0  501    0  0.00000000000E+00  0.00000000000E+00 -0.78905867410E+03  0.78905867411E+03  0.50400001928E-02 0.  1.
    10030    2    1    2    0    0  0.00000000000E+00  0.00000000000E+00  0.23205142766E+04  0.38986316248E+04  0.31328169493E+04 0.  0.
        3    1    3    3  502    0  0.64369476626E+03 -0.55484516776E+03  0.27977553257E+04  0.29239752025E+04  0.10100000352E+00 0. -1.
       -3    1    3    3    0  502 -0.64369476626E+03  0.55484516776E+03 -0.47724104913E+03  0.97465642227E+03  0.10100000352E+00 0.  1.
</event>
<event>
 5   0  0.1830902E-07  0.3102514E+04  0.7818609E-02  0.8215048E-01
        1   -1    0    0  501    0  0.00000000000E+00  0.00000000000E+00  0.14626961344E+04  0.14626961344E+04  0.50400001928E-02 0.  1.
       -1   -1    0    0    0  501  0.00000000000E+00  0.00000000000E+00 -0.16451800375E+04  0.16451800375E+04  0.50400001928E-02 0. -1.
    10030    2    1    2    0    0  0.00000000000E+00  0.00000000000E+00 -0.18248390309E+03  0.31078761720E+04  0.31025141298E+04 0.  0.
        3    1    3    3  502    0 -0.11372923262E+04 -0.79988818478E+02  0.96251070646E+03  0.14920653191E+04  0.10100000352E+00 0.  1.
       -3    1    3    3    0  502  0.11372923262E+04  0.79988818478E+02 -0.11449946095E+04  0.16158108529E+04  0.10100000352E+00 0. -1.
</event>
<event>
 5   0  0.5154105E-07  0.3098142E+04  0.7818609E-02  0.8216248E-01
       -2   -1    0    0    0  501  0.00000000000E+00  0.00000000000E+00  0.10344903579E+04  0.10344903579E+04  0.25500000920E-02 0.  1.
        2   -1    0    0  501    0  0.00000000000E+00  0.00000000000E+00 -0.23196159786E+04  0.23196159786E+04  0.25500000920E-02 0. -1.
    10030    2    1    2    0    0  0.00000000000E+00  0.00000000000E+00 -0.12851256207E+04  0.33541063365E+04  0.30981416132E+04 0.  0.
        1    1    3    3  502    0 -0.12285143354E+04  0.61152632365E+03  0.13542399393E+03  0.13789675757E+04  0.50400001928E-02 0. -1.
       -1    1    3    3    0  502  0.12285143354E+04 -0.61152632365E+03 -0.14205496147E+04  0.19751387608E+04  0.50400001928E-02 0.  1.
</event>
<event>
 5   0  0.1814075E-07  0.3080629E+04  0.7818609E-02  0.8221074E-01
       -1   -1    0    0    0  501  0.00000000000E+00  0.00000000000E+00  0.16084946338E+04  0.16084946338E+04  0.50400001928E-02 0.  1.
        1   -1    0    0  501    0  0.00000000000E+00  0.00000000000E+00 -0.14750242067E+04  0.14750242067E+04  0.50400001928E-02 0. -1.
    10030    2    1    2    0    0  0.00000000000E+00  0.00000000000E+00  0.13347042711E+03  0.30835188405E+04  0.30806288457E+04 0.  0.
        5    1    3    3  502    0  0.13115983453E+04  0.24789309088E+03  0.83609484203E+03  0.15750612301E+04  0.46999998093E+01 0.  1.
       -5    1    3    3    0  502 -0.13115983453E+04 -0.24789309088E+03 -0.70262441492E+03  0.15084576104E+04  0.46999998093E+01 0. -1.
</event>
<event>
 5   0  0.5154105E-07  0.3108614E+04  0.7818609E-02  0.8213378E-01
        2   -1    0    0  501    0  0.00000000000E+00  0.00000000000E+00  0.17735419510E+04  0.17735419510E+04  0.25500000920E-02 0. -1.
       -2   -1    0    0    0  501  0.00000000000E+00  0.00000000000E+00 -0.13621727513E+04  0.13621727513E+04  0.25500000920E-02 0.  1.
    10030    2    1    2    0    0  0.00000000000E+00  0.00000000000E+00  0.41136919973E+03  0.31357147023E+04  0.31086141729E+04 0.  0.
        1    1    3    3  502    0 -0.73773820801E+03  0.59616876111E+03 -0.10363890390E+04  0.14049117750E+04  0.50400001928E-02 0.  1.
       -1    1    3    3    0  502  0.73773820801E+03 -0.59616876111E+03  0.14477582388E+04  0.17308029273E+04  0.50400001928E-02 0. -1.
</event>
<event>
 5   0  0.5342534E-07  0.3095981E+04  0.7818609E-02  0.8216842E-01
       -2   -1    0    0    0  501  0.00000000000E+00  0.00000000000E+00  0.84984986430E+03  0.84984986430E+03  0.25500000920E-02 0.  1.
        2   -1    0    0  501    0  0.00000000000E+00  0.00000000000E+00 -0.28196445493E+04  0.28196445493E+04  0.25500000920E-02 0. -1.
    10030    2    1    2    0    0  0.00000000000E+00  0.00000000000E+00 -0.19697946850E+04  0.36694944136E+04  0.30959809674E+04 0.  0.
        3    1    3    3  502    0  0.12426141636E+04  0.39396934153E+03 -0.19743974379E+04  0.23659135772E+04  0.10100000352E+00 0. -1.
       -3    1    3    3    0  502 -0.12426141636E+04 -0.39396934153E+03  0.46027529100E+01  0.13035808364E+04  0.10100000352E+00 0.  1.
</event>
<event>
 5   0  0.5055900E-07  0.3101570E+04  0.7818609E-02  0.8215307E-01
        2   -1    0    0  501    0  0.00000000000E+00  0.00000000000E+00  0.11110199033E+04  0.11110199033E+04  0.25500000920E-02 0. -1.
       -2   -1    0    0    0  501  0.00000000000E+00  0.00000000000E+00 -0.21646180659E+04  0.21646180659E+04  0.25500000920E-02 0.  1.
    10030    2    1    2    0    0  0.00000000000E+00  0.00000000000E+00 -0.10535981626E+04  0.32756379692E+04  0.31015697666E+04 0.  0.
        2    1    3    3  502    0  0.53949014451E+03  0.14142741021E+04 -0.88293781815E+03  0.17523698362E+04  0.25500000920E-02 0. -1.
       -2    1    3    3    0  502 -0.53949014451E+03 -0.14142741021E+04 -0.17066034443E+03  0.15232681331E+04  0.25500000920E-02 0.  1.
</event>
<event>
 5   0  0.1845123E-07  0.3097976E+04  0.7818609E-02  0.8216294E-01
       -1   -1    0    0    0  501  0.00000000000E+00  0.00000000000E+00  0.12878721197E+04  0.12878721197E+04  0.50400001928E-02 0. -1.
        1   -1    0    0  501    0  0.00000000000E+00  0.00000000000E+00 -0.18630448379E+04  0.18630448379E+04  0.50400001928E-02 0.  1.
    10030    2    1    2    0    0  0.00000000000E+00  0.00000000000E+00 -0.57517271825E+03  0.31509169576E+04  0.30979757936E+04 0.  0.
        2    1    3    3  502    0  0.97182942861E+03  0.11188577778E+04  0.17074549922E+03  0.14917939505E+04  0.25500000920E-02 0. -1.
       -2    1    3    3    0  502 -0.97182942861E+03 -0.11188577778E+04 -0.74591821747E+03  0.16591230070E+04  0.25500000920E-02 0.  1.
</event>
<event>
 5   0  0.5376678E-07  0.3098254E+04  0.7818609E-02  0.8216217E-01
        2   -1    0    0  501    0  0.00000000000E+00  0.00000000000E+00  0.84703770146E+03  0.84703770146E+03  0.25500000920E-02 0.  1.
       -2   -1    0    0    0  501  0.00000000000E+00  0.00000000000E+00 -0.28331609401E+04  0.28331609401E+04  0.25500000920E-02 0. -1.
    10030    2    1    2    0    0  0.00000000000E+00  0.00000000000E+00 -0.19861232386E+04  0.36801986415E+04  0.30982537860E+04 0.  0.
        5    1    3    3  502    0 -0.10065036369E+04 -0.40267334692E+03  0.32139802680E+03  0.11307140121E+04  0.46999998093E+01 0.  1.
       -5    1    3    3    0  502  0.10065036369E+04  0.40267334692E+03 -0.23075212654E+04  0.25494846295E+04  0.46999998093E+01 0. -1.
</event>
<event>
 5   0  0.1727000E-07  0.3099125E+04  0.7818609E-02  0.8215978E-01
       -3   -1    0    0    0  501  0.00000000000E+00  0.00000000000E+00  0.18783588905E+04  0.18783588932E+04  0.10100000352E+00 0. -1.
        3   -1    0    0  501    0  0.00000000000E+00  0.00000000000E+00 -0.12783199950E+04  0.12783199990E+04  0.10100000352E+00 0.  1.
    10030    2    1    2    0    0  0.00000000000E+00  0.00000000000E+00  0.60003889554E+03  0.31566788922E+04  0.30991248688E+04 0.  0.
        1    1    3    3  502    0  0.88960990174E+03  0.12116808619E+04 -0.83222497248E+02  0.15054907082E+04  0.50400001928E-02 0.  1.
       -1    1    3    3    0  502 -0.88960990174E+03 -0.12116808619E+04  0.68326139279E+03  0.16511881841E+04  0.50400001928E-02 0. -1.
</event>
<event>
 5   0  0.5376678E-07  0.3097255E+04  0.7818609E-02  0.8216492E-01
        2   -1    0    0  501    0  0.00000000000E+00  0.00000000000E+00  0.16004417491E+04  0.16004417491E+04  0.25500000920E-02 0. -1.
       -2   -1    0    0    0  501  0.00000000000E+00  0.00000000000E+00 -0.14984907593E+04  0.14984907593E+04  0.25500000920E-02 0.  1.
    10030    2    1    2    0    0  0.00000000000E+00  0.00000000000E+00  0.10195098978E+03  0.30989325084E+04  0.30972550246E+04 0.  0.
        5    1    3    3  502    0  0.29852084871E+03 -0.10890229292E+04 -0.10093812215E+04  0.15145818492E+04  0.46999998093E+01 0.  1.
       -5    1    3    3    0  502 -0.29852084871E+03  0.10890229292E+04  0.11113322113E+04  0.15843506592E+04  0.46999998093E+01 0. -1.
</event>
<event>
 5   0  0.5154105E-07  0.3093610E+04  0.7818609E-02  0.8217494E-01
       -2   -1    0    0    0  501  0.00000000000E+00  0.00000000000E+00  0.17012907322E+04  0.17012907322E+04  0.25500000920E-02 0. -1.
        2   -1    0    0  501    0  0.00000000000E+00  0.00000000000E+00 -0.14063477004E+04  0.14063477004E+04  0.25500000920E-02 0.  1.
    10030    2    1    2    0    0  0.00000000000E+00  0.00000000000E+00  0.29494303179E+03  0.31076384326E+04  0.30936103885E+04 0.  0.
        1    1    3    3  502    0  0.48618299437E+03  0.53488418007E+03 -0.12262570145E+04  0.14234399375E+04  0.50400001928E-02 0.  1.
       -1    1    3    3    0  502 -0.48618299437E+03 -0.53488418007E+03  0.15212000463E+04  0.16841984951E+04  0.50400001928E-02 0. -1.
</event>
<event>
 5   0  0.5248309E-07  0.3095298E+04  0.7818609E-02  0.8217029E-01
        2   -1    0    0  501    0  0.00000000000E+00  0.00000000000E+00  0.19565601656E+04  0.19565601656E+04  0.25500000920E-02 0.  1.
       -2   -1    0    0    0  501  0.00000000000E+00  0.00000000000E+00 -0.12241984439E+04  0.12241984439E+04  0.25500000920E-02 0. -1.
    10030    2    1    2    0    0  0.00000000000E+00  0.00000000000E+00  0.73236172166E+03  0.31807586095E+04  0.30952983121E+04 0.  0.
        4    1    3    3  502    0  0.11372240743E+04 -0.16894857511E+03 -0.69847144393E+03  0.13452457720E+04  0.12699999809E+01 0. -1.
       -4    1    3    3    0  502 -0.11372240743E+04  0.16894857511E+03  0.14308331656E+04  0.18355128376E+04  0.12699999809E+01 0.  1.
</event>
<event>
 5   0  0.1845123E-07  0.3104218E+04  0.7818609E-02  0.8214581E-01
        1   -1    0    0  501    0  0.00000000000E+00  0.00000000000E+00  0.21196419333E+04  0.21196419333E+04  0.50400001928E-02 0. -1.
       -1   -1    0    0    0  501  0.00000000000E+00  0.00000000000E+00 -0.11365324538E+04  0.11365324538E+04  0.50400001928E-02 0.  1.
    10030    2    1    2    0    0  0.00000000000E+00  0.00000000000E+00  0.98310947945E+03  0.32561743871E+04  0.31042176777E+04 0.  0.
        2    1    3    3  502    0 -0.30749439004E+03 -0.12937530135E+04 -0.34806028644E+03  0.13745892560E+04  0.25500000920E-02 0.  1.
       -2    1    3    3    0  502  0.30749439004E+03  0.12937530135E+04  0.13311697659E+04  0.18815851311E+04  0.25500000920E-02 0. -1.
</event>
<event>
 5   0  0.1845123E-07  0.3102993E+04  0.7818609E-02  0.8214917E-01
        1   -1    0    0  501    0  0.00000000000E+00  0.00000000000E+00  0.18409255007E+04  0.18409255007E+04  0.50400001928E-02 0.  1.
       -1   -1    0    0    0  501  0.00000000000E+00  0.00000000000E+00 -0.13075712821E+04  0.13075712821E+04  0.50400001928E-02 0. -1.
    10030    2    1    2    0    0  0.00000000000E+00  0.00000000000E+00  0.53335421861E+03  0.31484967828E+04  0.31029929534E+04 0.  0.
        2    1    3    3  502    0  0.11733293577E+04 -0.44438016612E+03  0.11927305521E+04  0.17311215104E+04  0.25500000920E-02 0.  1.
       -2    1    3    3    0  502 -0.11733293577E+04  0.44438016612E+03 -0.65937633353E+03  0.14173752724E+04  0.25500000920E-02 0. -1.
</event>
<event>
 5   0  0.5376678E-07  0.3100644E+04  0.7818609E-02  0.8215561E-01
        2   -1    0    0  501    0  0.00000000000E+00  0.00000000000E+00  0.12753616745E+04  0.12753616745E+04  0.25500000920E-02 0. -1.
       -2   -1    0    0    0  501  0.00000000000E+00  0.00000000000E+00 -0.18845624011E+04  0.18845624011E+04  0.25500000920E-02 0.  1.
    10030    2    1    2    0    0  0.00000000000E+00  0.00000000000E+00 -0.60920072654E+03  0.31599240756E+04  0.31006442296E+04 0.  0.
        5    1    3    3  502    0  0.10687080955E+04 -0.58340984925E+03  0.67342033704E+03  0.13914097476E+04  0.46999998093E+01 0. -1.
       -5    1    3    3    0  502 -0.10687080955E+04  0.58340984925E+03 -0.12826210636E+04  0.17685143280E+04  0.46999998093E+01 0.  1.
</event>
<event>
 5   0  0.5342534E-07  0.3097613E+04  0.7818609E-02  0.8216393E-01
        2   -1    0    0  501    0  0.00000000000E+00  0.00000000000E+00  0.14150638881E+04  0.14150638881E+04  0.25500000920E-02 0. -1.
       -2   -1    0    0    0  501  0.00000000000E+00  0.00000000000E+00 -0.16951901052E+04  0.16951901052E+04  0.25500000920E-02 0.  1.
    10030    2    1    2    0    0  0.00000000000E+00  0.00000000000E+00 -0.28012621713E+03  0.31102539932E+04  0.30976134693E+04 0.  0.
        3    1    3    3  502    0 -0.39383935880E+03 -0.11749526329E+04 -0.10729287672E+04  0.16391458995E+04  0.10100000352E+00 0.  1.
       -3    1    3    3    0  502  0.39383935880E+03  0.11749526329E+04  0.79280255003E+03  0.14711080938E+04  0.10100000352E+00 0. -1.
</event>
<event>
 5   0  0.1845123E-07  0.3103117E+04  0.7818609E-02  0.8214883E-01
        1   -1    0    0  501    0  0.00000000000E+00  0.00000000000E+00  0.16290564640E+04  0.16290564640E+04  0.50400001928E-02 0.  1.
       -1   -1    0    0    0  501  0.00000000000E+00  0.00000000000E+00 -0.14777473963E+04  0.14777473963E+04  0.50400001928E-02 0. -1.
    10030    2    1    2    0    0  0.00000000000E+00  0.00000000000E+00  0.15130906774E+03  0.31068038603E+04  0.31031171091E+04 0.  0.
        2    1    3    3  502    0  0.75989073749E+03 -0.75807076235E+03  0.11973555326E+04  0.16080315560E+04  0.25500000920E-02 0.  1.
       -2    1    3    3    0  502 -0.75989073749E+03  0.75807076235E+03 -0.10460464648E+04  0.14987723043E+04  0.25500000920E-02 0. -1.
</event>
<event>
 5   0  0.5055900E-07  0.3100655E+04  0.7818609E-02  0.8215558E-01
        2   -1    0    0  501    0  0.00000000000E+00  0.00000000000E+00  0.23480848407E+04  0.23480848407E+04  0.25500000920E-02 0. -1.
       -2   -1    0    0    0  501  0.00000000000E+00  0.00000000000E+00 -0.10236069712E+04  0.10236069712E+04  0.25500000920E-02 0.  1.
    10030    2    1    2    0    0  0.00000000000E+00  0.00000000000E+00  0.13244778695E+04  0.33716918119E+04  0.31006554223E+04 0.  0.
        2    1    3    3  502    0  0.14589300186E+04  0.61091974568E+02  0.12286410311E+04  0.19083416392E+04  0.25500000920E-02 0. -1.
       -2    1    3    3    0  502 -0.14589300186E+04 -0.61091974568E+02  0.95836838323E+02  0.14633501727E+04  0.25500000920E-02 0.  1.
</event>
<event>
 5   0  0.1875284E-07  0.3096757E+04  0.7818609E-02  0.8216629E-01
       -1   -1    0    0    0  501  0.00000000000E+00  0.00000000000E+00  0.17044908079E+04  0.17044908079E+04  0.50400001928E-02 0. -1.
        1   -1    0    0  501    0  0.00000000000E+00  0.00000000000E+00 -0.14065640499E+04  0.14065640499E+04  0.50400001928E-02 0.  1.
    10030    2    1    2    0    0  0.00000000000E+00  0.00000000000E+00  0.29792675793E+03  0.31110548578E+04  0.30967566865E+04 0.  0.
        4    1    3    3  502    0 -0.10025552051E+04  0.22515351441E+03 -0.10146863703E+04  0.14440917863E+04  0.12699999809E+01 0.  1.
       -4    1    3    3    0  502  0.10025552051E+04 -0.22515351441E+03  0.13126131282E+04  0.16669630715E+04  0.12699999809E+01 0. -1.
</event>
<event>
 5   0  0.1830902E-07  0.3105554E+04  0.7818609E-02  0.8214215E-01
       -1   -1    0    0    0  501  0.00000000000E+00  0.00000000000E+00  0.11666712041E+04  0.11666712041E+04  0.50400001928E-02 0. -1.
        1   -1    0    0  501    0  0.00000000000E+00  0.00000000000E+00 -0.20666627847E+04  0.20666627847E+04  0.50400001928E-02 0.  1.
    10030    2    1    2    0    0  0.00000000000E+00  0.00000000000E+00 -0.89999158058E+03  0.32333339888E+04  0.31055537088E+04 0.  0.
        3    1    3    3  502    0  0.77846443410E+03  0.64824536732E+03  0.77523723712E+03  0.12756260092E+04  0.10100000352E+00 0. -1.
       -3    1    3    3    0  502 -0.77846443410E+03 -0.64824536732E+03 -0.16752288177E+04  0.19577079796E+04  0.10100000352E+00 0.  1.
</event>
<event>
 5   0  0.5154105E-07  0.3099481E+04  0.7818609E-02  0.8215880E-01
       -2   -1    0    0    0  501  0.00000000000E+00  0.00000000000E+00  0.11443265780E+04  0.11443265780E+04  0.25500000920E-02 0. -1.
        2   -1    0    0  501    0  0.00000000000E+00  0.00000000000E+00 -0.20987854711E+04  0.20987854711E+04  0.25500000920E-02 0.  1.
    10030    2    1    2    0    0  0.00000000000E+00  0.00000000000E+00 -0.95445889311E+03  0.32431120491E+04  0.30994812444E+04 0.  0.
        1    1    3    3  502    0 -0.11810730555E+04  0.52243908675E+03  0.41909999958E+03  0.13577632237E+04  0.50400001928E-02 0. -1.
       -1    1    3    3    0  502  0.11810730555E+04 -0.52243908675E+03 -0.13735588927E+04  0.18853488254E+04  0.50400001928E-02 0.  1.
</event>
<event>
 5   0  0.1845123E-07  0.3098698E+04  0.7818609E-02  0.8216095E-01
       -1   -1    0    0    0  501  0.00000000000E+00  0.00000000000E+00  0.12641725708E+04  0.12641725708E+04  0.50400001928E-02 0. -1.
        1   -1    0    0  501    0  0.00000000000E+00  0.00000000000E+00 -0.18988567949E+04  0.18988567949E+04  0.50400001928E-02 0.  1.
    10030    2    1    2    0    0  0.00000000000E+00  0.00000000000E+00 -0.63468422403E+03  0.31630293657E+04  0.30986982273E+04 0.  0.
        2    1    3    3  502    0 -0.77260512873E+03  0.13396107375E+04 -0.41421796488E+03  0.16009535082E+04  0.25500000920E-02 0.  1.
       -2    1    3    3    0  502  0.77260512873E+03 -0.13396107375E+04 -0.22046625915E+03  0.15620758575E+04  0.25500000920E-02 0. -1.
</event>
<event>
 5   0  0.5154105E-07  0.3103747E+04  0.7818609E-02  0.8214710E-01
        2   -1    0    0  501    0  0.00000000000E+00  0.00000000000E+00  0.11021053503E+04  0.11021053503E+04  0.25500000920E-02 0.  1.
       -2   -1    0    0    0  501  0.00000000000E+00  0.00000000000E+00 -0.21851911063E+04  0.21851911063E+04  0.25500000920E-02 0. -1.
    10030    2    1    2    0    0  0.00000000000E+00  0.00000000000E+00 -0.10830857560E+04  0.32872964566E+04  0.31037466454E+04 0.  0.
        1    1    3    3  502    0  0.11455745704E+04 -0.10697817605E+03 -0.16445351484E+04  0.20070578668E+04  0.50400001928E-02 0.  1.
       -1    1    3    3    0  502 -0.11455745704E+04  0.10697817605E+03  0.56144939239E+03  0.12802385898E+04  0.50400001928E-02 0. -1.
</event>
<event>
 5   0  0.5342534E-07  0.3100664E+04  0.7818609E-02  0.8215556E-01
       -2   -1    0    0    0  501  0.00000000000E+00  0.00000000000E+00  0.18091959727E+04  0.18091959727E+04  0.25500000920E-02 0. -1.
        2   -1    0    0  501    0  0.00000000000E+00  0.00000000000E+00 -0.13285070124E+04  0.13285070124E+04  0.25500000920E-02 0.  1.
    10030    2    1    2    0    0  0.00000000000E+00  0.00000000000E+00  0.48068896028E+03  0.31377029851E+04  0.31006641460E+04 0.  0.
        3    1    3    3  502    0  0.13531394473E+04  0.36252958781E+02  0.10051696709E+04  0.16860209721E+04  0.10100000352E+00 0.  1.
       -3    1    3    3    0  502 -0.13531394473E+04 -0.36252958781E+02 -0.52448071059E+03  0.14516820130E+04  0.10100000352E+00 0. -1.
</event>
<event>
 5   0  0.1840359E-07  0.3103203E+04  0.7818609E-02  0.8214859E-01
       -1   -1    0    0    0  501  0.00000000000E+00  0.00000000000E+00  0.27502198161E+04  0.27502198161E+04  0.50400001928E-02 0.  1.
        1   -1    0    0  501    0  0.00000000000E+00  0.00000000000E+00 -0.87537253292E+03  0.87537253293E+03  0.50400001928E-02 0. -1.
    10030    2    1    2    0    0  0.00000000000E+00  0.00000000000E+00  0.18748472832E+04  0.36255923491E+04  0.31032027884E+04 0.  0.
        1    1    3    3  502    0  0.97290660863E+03 -0.75258444165E+03 -0.16759039145E+03  0.12413771185E+04  0.50400001928E-02 0. -1.
       -1    1    3    3    0  502 -0.97290660863E+03  0.75258444165E+03  0.20424376747E+04  0.23842152306E+04  0.50400001928E-02 0.  1.
</event>
<event>
 5   0  0.1840359E-07  0.3110009E+04  0.7818609E-02  0.8212996E-01
        1   -1    0    0  501    0  0.00000000000E+00  0.00000000000E+00  0.25673080929E+04  0.25673080929E+04  0.50400001928E-02 0. -1.
       -1   -1    0    0    0  501  0.00000000000E+00  0.00000000000E+00 -0.94185782650E+03  0.94185782651E+03  0.50400001928E-02 0.  1.
    10030    2    1    2    0    0  0.00000000000E+00  0.00000000000E+00  0.16254502664E+04  0.35091659194E+04  0.31100091449E+04 0.  0.
        1    1    3    3  502    0 -0.11039236831E+04  0.66083865019E+03 -0.17267939771E+03  0.12981422858E+04  0.50400001928E-02 0.  1.
       -1    1    3    3    0  502  0.11039236831E+04 -0.66083865019E+03  0.17981296642E+04  0.22110236337E+04  0.50400001928E-02 0. -1.
</event>
<event>
 5   0  0.5154105E-07  0.3103664E+04  0.7818609E-02  0.8214733E-01
        2   -1    0    0  501    0  0.00000000000E+00  0.00000000000E+00  0.11758554245E+04  0.11758554245E+04  0.25500000920E-02 0. -1.
       -2   -1    0    0    0  501  0.00000000000E+00  0.00000000000E+00 -0.20480256103E+04  0.20480256103E+04  0.25500000920E-02 0.  1.
    10030    2    1    2    0    0  0.00000000000E+00  0.00000000000E+00 -0.87217018582E+03  0.32238810348E+04  0.31036636566E+04 0.  0.
        1    1    3    3  502    0  0.33119117009E+03  0.13662841720E+04  0.24645247693E+03  0.14272907388E+04  0.50400001928E-02 0.  1.
       -1    1    3    3    0  502 -0.33119117009E+03 -0.13662841720E+04 -0.11186226628E+04  0.17965902959E+04  0.50400001928E-02 0. -1.
</event>
<event>
 5   0  0.1845123E-07  0.3118301E+04  0.7818609E-02  0.8210733E-01
        1   -1    0    0  501    0  0.00000000000E+00  0.00000000000E+00  0.21763997115E+04  0.21763997115E+04  0.50400001928E-02 0.  1.
       -1   -1    0    0    0  501  0.00000000000E+00  0.00000000000E+00 -0.11169596262E+04  0.11169596262E+04  0.50400001928E-02 0. -1.
    10030    2    1    2    0    0  0.00000000000E+00  0.00000000000E+00  0.10594400854E+04  0.32933593377E+04  0.31183012094E+04 0.  0.
        2    1    3    3  502    0 -0.77647336746E+03 -0.77637009328E+03 -0.63934953188E+03  0.12706019188E+04  0.25500000920E-02 0. -1.
       -2    1    3    3    0  502  0.77647336746E+03  0.77637009328E+03  0.16987896172E+04  0.20227574189E+04  0.25500000920E-02 0.  1.
</event>
<event>
 5   0  0.1840359E-07  0.3121252E+04  0.7818609E-02  0.8209929E-01
        1   -1    0    0  501    0  0.00000000000E+00  0.00000000000E+00  0.22661781319E+04  0.22661781319E+04  0.50400001928E-02 0. -1.
       -1   -1    0    0    0  501  0.00000000000E+00  0.00000000000E+00 -0.10747408425E+04  0.10747408425E+04  0.50400001928E-02 0.  1.
    10030    2    1    2    0    0  0.00000000000E+00  0.00000000000E+00  0.11914372894E+04  0.33409189744E+04  0.31212524375E+04 0.  0.
        1    1    3    3  502    0  0.66359215070E+03 -0.13710917239E+04  0.23225151405E+03  0.15408399734E+04  0.50400001928E-02 0.  1.
       -1    1    3    3    0  502 -0.66359215070E+03  0.13710917239E+04  0.95918577535E+03  0.18000790009E+04  0.50400001928E-02 0. -1.
</event>
<event>
 5   0  0.5342534E-07  0.3111309E+04  0.7818609E-02  0.8212641E-01
        2   -1    0    0  501    0  0.00000000000E+00  0.00000000000E+00  0.16955922617E+04  0.16955922617E+04  0.25500000920E-02 0. -1.
       -2   -1    0    0    0  501  0.00000000000E+00  0.00000000000E+00 -0.14272657729E+04  0.14272657729E+04  0.25500000920E-02 0.  1.
    10030    2    1    2    0    0  0.00000000000E+00  0.00000000000E+00  0.26832648871E+03  0.31228580346E+04  0.31113089207E+04 0.  0.
        3    1    3    3  502    0 -0.45034378271E+02  0.14958983344E+04  0.56038155332E+03  0.15980511311E+04  0.10100000352E+00 0.  1.
       -3    1    3    3    0  502  0.45034378271E+02 -0.14958983344E+04 -0.29205506461E+03  0.15248069035E+04  0.10100000352E+00 0. -1.
</event>
<event>
 5   0  0.1875284E-07  0.3098920E+04  0.7818609E-02  0.8216034E-01
       -1   -1    0    0    0  501  0.00000000000E+00  0.00000000000E+00  0.12610016913E+04  0.12610016913E+04  0.50400001928E-02 0.  1.
        1   -1    0    0  501    0  0.00000000000E+00  0.00000000000E+00 -0.19039046603E+04  0.19039046603E+04  0.50400001928E-02 0. -1.
    10030    2    1    2    0    0  0.00000000000E+00  0.00000000000E+00 -0.64290296905E+03  0.31649063516E+04  0.30989204551E+04 0.  0.
        4    1    3    3  502    0 -0.63842068084E+03  0.53620590316E+03 -0.16552962221E+04  0.18534036074E+04  0.12699999809E+01 0. -1.
       -4    1    3    3    0  502  0.63842068084E+03 -0.53620590316E+03  0.10123932530E+04  0.13115027442E+04  0.12699999809E+01 0.  1.
</event>
<event>
 5   0  0.1840359E-07  0.3092828E+04  0.7818609E-02  0.8217709E-01
        1   -1    0    0  501    0  0.00000000000E+00  0.00000000000E+00  0.17049819808E+04  0.17049819808E+04  0.50400001928E-02 0.  1.
       -1   -1    0    0    0  501  0.00000000000E+00  0.00000000000E+00 -0.14025934716E+04  0.14025934716E+04  0.50400001928E-02 0. -1.
    10030    2    1    2    0    0  0.00000000000E+00  0.00000000000E+00  0.30238850923E+03  0.31075754524E+04  0.30928282173E+04 0.  0.
        1    1    3    3  502    0 -0.56089979848E+03  0.14388989255E+04  0.23131085471E+03  0.15615836236E+04  0.50400001928E-02 0.  1.
       -1    1    3    3    0  502  0.56089979848E+03 -0.14388989255E+04  0.71077654525E+02  0.15459918288E+04  0.50400001928E-02 0. -1.
</event>
<event>
 5   0  0.1875284E-07  0.3101002E+04  0.7818609E-02  0.8215463E-01
       -1   -1    0    0    0  501  0.00000000000E+00  0.00000000000E+00  0.17500463575E+04  0.17500463575E+04  0.50400001928E-02 0. -1.
        1   -1    0    0  501    0  0.00000000000E+00  0.00000000000E+00 -0.13737085823E+04  0.13737085823E+04  0.50400001928E-02 0.  1.
    10030    2    1    2    0    0  0.00000000000E+00  0.00000000000E+00  0.37633777522E+03  0.31237549398E+04  0.31010022256E+04 0.  0.
        4    1    3    3  502    0 -0.11199406687E+04 -0.45657105666E+03 -0.78917034675E+03  0.14441314622E+04  0.12699999809E+01 0.  1.
       -4    1    3    3    0  502  0.11199406687E+04  0.45657105666E+03  0.11655081220E+04  0.16796234776E+04  0.12699999809E+01 0. -1.
</event>
<event>
 5   0  0.5055900E-07  0.3109600E+04  0.7818609E-02  0.8213108E-01
       -2   -1    0    0    0  501  0.00000000000E+00  0.00000000000E+00  0.84609785186E+03  0.84609785186E+03  0.25500000920E-02 0. -1.
        2   -1    0    0  501    0  0.00000000000E+00  0.00000000000E+00 -0.28571200746E+04  0.28571200746E+04  0.25500000920E-02 0.  1.
    10030    2    1    2    0    0  0.00000000000E+00  0.00000000000E+00 -0.20110222227E+04  0.37032179265E+04  0.31096000757E+04 0.  0.
        2    1    3    3  502    0  0.71661973715E+03 -0.13676593362E+04 -0.78797320757E+03  0.17334756080E+04  0.25500000920E-02 0. -1.
       -2    1    3    3    0  502 -0.71661973715E+03  0.13676593362E+04 -0.12230490152E+04  0.19697423185E+04  0.25500000920E-02 0.  1.
</event>
<event>
 5   0  0.5248309E-07  0.3096619E+04  0.7818609E-02  0.8216666E-01
        2   -1    0    0  501    0  0.00000000000E+00  0.00000000000E+00  0.97785587642E+03  0.97785587642E+03  0.25500000920E-02 0.  1.
       -2   -1    0    0    0  501  0.00000000000E+00  0.00000000000E+00 -0.24515503245E+04  0.24515503245E+04  0.25500000920E-02 0. -1.
    10030    2    1    2    0    0  0.00000000000E+00  0.00000000000E+00 -0.14736944481E+04  0.34294062009E+04  0.30966193768E+04 0.  0.
        4    1    3    3  502    0 -0.75026321355E+03  0.10958528406E+04 -0.16182920562E+04  0.20934801479E+04  0.12699999809E+01 0. -1.
       -4    1    3    3    0  502  0.75026321355E+03 -0.10958528406E+04  0.14459760807E+03  0.13359260530E+04  0.12699999809E+01 0.  1.
</event>
<event>
 5   0  0.5342534E-07  0.3096595E+04  0.7818609E-02  0.8216673E-01
       -2   -1    0    0    0  501  0.00000000000E+00  0.00000000000E+00  0.10563225063E+04  0.10563225063E+04  0.25500000920E-02 0.  1.
        2   -1    0    0  501    0  0.00000000000E+00  0.00000000000E+00 -0.22694062503E+04  0.22694062503E+04  0.25500000920E-02 0. -1.
    10030    2    1    2    0    0  0.00000000000E+00  0.00000000000E+00 -0.12130837440E+04  0.33257287566E+04  0.30965948383E+04 0.  0.
        3    1    3    3  502    0  0.34346693825E+03  0.12890809754E+04  0.23743378335E+03  0.13550181218E+04  0.10100000352E+00 0.  1.
       -3    1    3    3    0  502 -0.34346693825E+03 -0.12890809754E+04 -0.14505175273E+04  0.19707106348E+04  0.10100000352E+00 0. -1.
</event>
<event>
 5   0  0.1830902E-07  0.3100323E+04  0.7818609E-02  0.8215649E-01
       -1   -1    0    0    0  501  0.00000000000E+00  0.00000000000E+00  0.19226211034E+04  0.19226211035E+04  0.50400001928E-02 0. -1.
        1   -1    0    0  501    0  0.00000000000E+00  0.00000000000E+00 -0.12498562063E+04  0.12498562063E+04  0.50400001928E-02 0.  1.
    10030    2    1    2    0    0  0.00000000000E+00  0.00000000000E+00  0.67276489720E+03  0.31724773097E+04  0.31003225112E+04 0.  0.
        3    1    3    3  502    0 -0.11286692785E+03 -0.69943829749E+03  0.17472559662E+04  0.18854326551E+04  0.10100000352E+00 0. -1.
       -3    1    3    3    0  502  0.11286692785E+03  0.69943829749E+03 -0.10744910690E+04  0.12870446546E+04  0.10100000352E+00 0.  1.
</event>
<event>
 5   0  0.5342534E-07  0.3105525E+04  0.7818609E-02  0.8214223E-01
       -2   -1    0    0    0  501  0.00000000000E+00  0.00000000000E+00  0.16454254617E+04  0.16454254617E+04  0.25500000920E-02 0. -1.
        2   -1    0    0  501    0  0.00000000000E+00  0.00000000000E+00 -0.14653181089E+04  0.14653181089E+04  0.25500000920E-02 0.  1.
    10030    2    1    2    0    0  0.00000000000E+00  0.00000000000E+00  0.18010735275E+03  0.31107435706E+04  0.31055252219E+04 0.  0.
        3    1    3    3  502    0 -0.73697833864E+03  0.99865180716E+03 -0.84458934772E+03  0.15012573664E+04  0.10100000352E+00 0.  1.
       -3    1    3    3    0  502  0.73697833864E+03 -0.99865180716E+03  0.10246967005E+04  0.16094862043E+04  0.10100000352E+00 0. -1.
</event>
<event>
 5   0  0.5055900E-07  0.3100237E+04  0.7818609E-02  0.8215673E-01
        2   -1    0    0  501    0  0.00000000000E+00  0.00000000000E+00  0.22555038811E+04  0.22555038811E+04  0.25500000920E-02 0.  1.
       -2   -1    0    0    0  501  0.00000000000E+00  0.00000000000E+00 -0.10653353829E+04  0.10653353829E+04  0.25500000920E-02 0. -1.
    10030    2    1    2    0    0  0.00000000000E+00  0.00000000000E+00  0.11901684982E+04  0.33208392640E+04  0.31002374688E+04 0.  0.
        2    1    3    3  502    0 -0.95405138762E+03  0.11243806720E+04  0.83140791518E+02  0.14769422253E+04  0.25500000920E-02 0.  1.
       -2    1    3    3    0  502  0.95405138762E+03 -0.11243806720E+04  0.11070277067E+04  0.18438970386E+04  0.25500000920E-02 0. -1.
</event>
<event>
 5   0  0.1830902E-07  0.3101178E+04  0.7818609E-02  0.8215415E-01
        1   -1    0    0  501    0  0.00000000000E+00  0.00000000000E+00  0.10946164007E+04  0.10946164007E+04  0.50400001928E-02 0.  1.
       -1   -1    0    0    0  501  0.00000000000E+00  0.00000000000E+00 -0.21965008053E+04  0.21965008053E+04  0.50400001928E-02 0. -1.
    10030    2    1    2    0    0  0.00000000000E+00  0.00000000000E+00 -0.11018844046E+04  0.32911172060E+04  0.31011777154E+04 0.  0.
        3    1    3    3  502    0  0.78423903462E+03 -0.11985339688E+04 -0.11813011352E+04  0.18566062911E+04  0.10100000352E+00 0. -1.
       -3    1    3    3    0  502 -0.78423903462E+03  0.11985339688E+04  0.79416730621E+02  0.14345109150E+04  0.10100000352E+00 0.  1.
</event>
<event>
 5   0  0.5376678E-07  0.3096580E+04  0.7818609E-02  0.8216677E-01
        2   -1    0    0  501    0  0.00000000000E+00  0.00000000000E+00  0.17632187573E+04  0.17632187573E+04  0.25500000920E-02 0.  1.
       -2   -1    0    0    0  501  0.00000000000E+00  0.00000000000E+00 -0.13595601017E+04  0.13595601017E+04  0.25500000920E-02 0. -1.
    10030    2    1    2    0    0  0.00000000000E+00  0.00000000000E+00  0.40365865566E+03  0.31227788590E+04  0.30965799670E+04 0.  0.
        5    1    3    3  502    0  0.46017194808E+03 -0.12247936913E+04 -0.63300427676E+03  0.14534766295E+04  0.46999998093E+01 0. -1.
       -5    1    3    3    0  502 -0.46017194808E+03  0.12247936913E+04  0.10366629324E+04  0.16693022295E+04  0.46999998093E+01 0.  1.
</event>
<event>
 5   0  0.1814075E-07  0.3097985E+04  0.7818609E-02  0.8216291E-01
       -1   -1    0    0    0  501  0.00000000000E+00  0.00000000000E+00  0.18356641261E+04  0.18356641261E+04  0.50400001928E-02 0. -1.
        1   -1    0    0  501    0  0.00000000000E+00  0.00000000000E+00 -0.13070901308E+04  0.13070901308E+04  0.50400001928E-02 0.  1.
    10030    2    1    2    0    0  0.00000000000E+00  0.00000000000E+00  0.52857399533E+03  0.31427542569E+04  0.30979854504E+04 0.  0.
        5    1    3    3  502    0  0.68285607253E+03  0.10102480815E+04  0.12333201304E+04  0.17343570094E+04  0.46999998093E+01 0. -1.
       -5    1    3    3    0  502 -0.68285607253E+03 -0.10102480815E+04 -0.70474613510E+03  0.14083972475E+04  0.46999998093E+01 0.  1.
</event>
<event>
 5   0  0.5376678E-07  0.3101606E+04  0.7818609E-02  0.8215297E-01
       -2   -1    0    0    0  501  0.00000000000E+00  0.00000000000E+00  0.11561590710E+04  0.11561590710E+04  0.25500000920E-02 0. -1.
        2   -1    0    0  501    0  0.00000000000E+00  0.00000000000E+00 -0.20801554335E+04  0.20801554335E+04  0.25500000920E-02 0.  1.
    10030    2    1    2    0    0  0.00000000000E+00  0.00000000000E+00 -0.92399636247E+03  0.32363145046E+04  0.31016064055E+04 0.  0.
        5    1    3    3  502    0 -0.13548260250E+03 -0.15438701546E+04 -0.40410987463E+03  0.16016296297E+04  0.46999998093E+01 0. -1.
       -5    1    3    3    0  502  0.13548260250E+03  0.15438701546E+04 -0.51988648784E+03  0.16346848749E+04  0.46999998093E+01 0.  1.
</event>
<event>
 5   0  0.5154105E-07  0.3108367E+04  0.7818609E-02  0.8213445E-01
       -2   -1    0    0    0  501  0.00000000000E+00  0.00000000000E+00  0.15201109825E+04  0.15201109825E+04  0.25500000920E-02 0. -1.
        2   -1    0    0  501    0  0.00000000000E+00  0.00000000000E+00 -0.15890200676E+04  0.15890200676E+04  0.25500000920E-02 0.  1.
    10030    2    1    2    0    0  0.00000000000E+00  0.00000000000E+00 -0.68909085072E+02  0.31091310500E+04  0.31083673245E+04 0.  0.
        1    1    3    3  502    0  0.51901180288E+03 -0.43607723587E+03  0.13644419942E+04  0.15235611450E+04  0.50400001928E-02 0. -1.
       -1    1    3    3    0  502 -0.51901180288E+03  0.43607723587E+03 -0.14333510793E+04  0.15855699050E+04  0.50400001928E-02 0.  1.
</event>
<event>
 5   0  0.5248309E-07  0.3099012E+04  0.7818609E-02  0.8216009E-01
       -2   -1    0    0    0  501  0.00000000000E+00  0.00000000000E+00  0.21411695920E+04  0.21411695920E+04  0.25500000920E-02 0.  1.
        2   -1    0    0  501    0  0.00000000000E+00  0.00000000000E+00 -0.11213352725E+04  0.11213352725E+04  0.25500000920E-02 0. -1.
    10030    2    1    2    0    0  0.00000000000E+00  0.00000000000E+00  0.10198343195E+04  0.32625048645E+04  0.30990120928E+04 0.  0.
        4    1    3    3  502    0 -0.12991349968E+04  0.72917340731E+03  0.61386366637E+02  0.14910451022E+04  0.12699999809E+01 0. -1.
       -4    1    3    3    0  502  0.12991349968E+04 -0.72917340731E+03  0.95844795291E+03  0.17714597622E+04  0.12699999809E+01 0.  1.
</event>
<event>
 5   0  0.1830902E-07  0.3117492E+04  0.7818609E-02  0.8210954E-01
        1   -1    0    0  501    0  0.00000000000E+00  0.00000000000E+00  0.22471481761E+04  0.22471481761E+04  0.50400001928E-02 0. -1.
       -1   -1    0    0    0  501  0.00000000000E+00  0.00000000000E+00 -0.10812325706E+04  0.10812325706E+04  0.50400001928E-02 0.  1.
    10030    2    1    2    0    0  0.00000000000E+00  0.00000000000E+00  0.11659156055E+04  0.33283807468E+04  0.31174924533E+04 0.  0.
        3    1    3    3  502    0 -0.74949060677E+03 -0.22593701881E+03 -0.85615166295E+03  0.11600773191E+04  0.10100000352E+00 0.  1.
       -3    1    3    3    0  502  0.74949060677E+03  0.22593701881E+03  0.20220672684E+04  0.21683034277E+04  0.10100000352E+00 0. -1.
</event>
<event>
 5   0  0.1875284E-07  0.3093903E+04  0.7818609E-02  0.8217413E-01
       -1   -1    0    0    0  501  0.00000000000E+00  0.00000000000E+00  0.17681172510E+04  0.17681172510E+04  0.50400001928E-02 0. -1.
        1   -1    0    0  501    0  0.00000000000E+00  0.00000000000E+00 -0.13534503595E+04  0.13534503595E+04  0.50400001928E-02 0.  1.
    10030    2    1    2    0    0  0.00000000000E+00  0.00000000000E+00  0.41466689157E+03  0.31215676105E+04  0.30939029907E+04 0.  0.
        4    1    3    3  502    0  0.12184846197E+04 -0.80049406079E+03  0.72922240970E+03  0.16301111758E+04  0.12699999809E+01 0. -1.
       -4    1    3    3    0  502 -0.12184846197E+04  0.80049406079E+03 -0.31455551813E+03  0.14914564347E+04  0.12699999809E+01 0.  1.
</event>
<event>
 5   0  0.5154105E-07  0.3098217E+04  0.7818609E-02  0.8216227E-01
        2   -1    0    0  501    0  0.00000000000E+00  0.00000000000E+00  0.28822321246E+04  0.28822321246E+04  0.25500000920E-02 0.  1.
       -2   -1    0    0    0  501  0.00000000000E+00  0.00000000000E+00 -0.83259691794E+03  0.83259691794E+03  0.25500000920E-02 0. -1.
    10030    2    1    2    0    0  0.00000000000E+00  0.00000000000E+00  0.20496352066E+04  0.37148290425E+04  0.30982172834E+04 0.  0.
        1    1    3    3  502    0 -0.89781130882E+03 -0.84263185840E+03  0.21519258401E+04  0.24792899016E+04  0.50400001928E-02 0.  1.
       -1    1    3    3    0  502  0.89781130882E+03  0.84263185840E+03 -0.10229063343E+03  0.12355391409E+04  0.50400001928E-02 0. -1.
</event>
<event>
 5   0  0.1840359E-07  0.3100073E+04  0.7818609E-02  0.8215718E-01
       -1   -1    0    0    0  501  0.00000000000E+00  0.00000000000E+00  0.10533803353E+04  0.10533803353E+04  0.50400001928E-02 0.  1.
        1   -1    0    0  501    0  0.00000000000E+00  0.00000000000E+00 -0.22808602674E+04  0.22808602674E+04  0.50400001928E-02 0. -1.
    10030    2    1    2    0    0  0.00000000000E+00  0.00000000000E+00 -0.12274799320E+04  0.33342406027E+04  0.31000731303E+04 0.  0.
        1    1    3    3  502    0 -0.58405676787E+03  0.14090644494E+04 -0.31717968358E+03  0.15579434786E+04  0.50400001928E-02 0. -1.
       -1    1    3    3    0  502  0.58405676787E+03 -0.14090644494E+04 -0.91030024847E+03  0.17762971241E+04  0.50400001928E-02 0.  1.
</event>
<event>
 5   0  0.5248309E-07  0.3100627E+04  0.7818609E-02  0.8215566E-01
       -2   -1    0    0    0  501  0.00000000000E+00  0.00000000000E+00  0.10392255586E+04  0.10392255586E+04  0.25500000920E-02 0. -1.
        2   -1    0    0  501    0  0.00000000000E+00  0.00000000000E+00 -0.23127522303E+04  0.23127522303E+04  0.25500000920E-02 0.  1.
    10030    2    1    2    0    0  0.00000000000E+00  0.00000000000E+00 -0.12735266717E+04  0.33519777889E+04  0.31006265357E+04 0.  0.
        4    1    3    3  502    0 -0.80645313806E+03 -0.42330842875E+03 -0.19930204329E+04  0.21912755985E+04  0.12699999809E+01 0.  1.
       -4    1    3    3    0  502  0.80645313806E+03  0.42330842875E+03  0.71949376112E+03  0.11607021905E+04  0.12699999809E+01 0. -1.
</event>
<event>
 5   0  0.5342534E-07  0.3099101E+04  0.7818609E-02  0.8215985E-01
       -2   -1    0    0    0  501  0.00000000000E+00  0.00000000000E+00  0.97488980495E+03  0.97488980495E+03  0.25500000920E-02 0. -1.
        2   -1    0    0  501    0  0.00000000000E+00  0.00000000000E+00 -0.24629516288E+04  0.24629516289E+04  0.25500000920E-02 0.  1.
    10030    2    1    2    0    0  0.00000000000E+00  0.00000000000E+00 -0.14880618239E+04  0.34378414338E+04  0.30991007941E+04 0.  0.
        3    1    3    3  502    0 -0.59158381326E+03 -0.16305414404E+03 -0.23224205380E+04  0.24021230667E+04  0.10100000352E+00 0.  1.
       -3    1    3    3    0  502  0.59158381326E+03  0.16305414404E+03  0.83435871410E+03  0.10357183671E+04  0.10100000352E+00 0. -1.
</event>
<event>
 5   0  0.5376678E-07  0.3098094E+04  0.7818609E-02  0.8216261E-01
       -2   -1    0    0    0  501  0.00000000000E+00  0.00000000000E+00  0.11026620316E+04  0.11026620316E+04  0.25500000920E-02 0.  1.
        2   -1    0    0  501    0  0.00000000000E+00  0.00000000000E+00 -0.21761391642E+04  0.21761391642E+04  0.25500000920E-02 0. -1.
    10030    2    1    2    0    0  0.00000000000E+00  0.00000000000E+00 -0.10734771326E+04  0.32788011957E+04  0.30980936278E+04 0.  0.
        5    1    3    3  502    0 -0.19977394550E+03 -0.81902199802E+03 -0.19120842798E+04  0.20896877866E+04  0.46999998093E+01 0. -1.
       -5    1    3    3    0  502  0.19977394550E+03  0.81902199802E+03  0.83860714715E+03  0.11891134091E+04  0.46999998093E+01 0.  1.
</event>
<event>
 5   0  0.1875284E-07  0.3103613E+04  0.7818609E-02  0.8214747E-01
        1   -1    0    0  501    0  0.00000000000E+00  0.00000000000E+00  0.14408762362E+04  0.14408762362E+04  0.50400001928E-02 0.  1.
       -1   -1    0    0    0  501  0.00000000000E+00  0.00000000000E+00 -0.16712772550E+04  0.16712772550E+04  0.50400001928E-02 0. -1.
    10030    2    1    2    0    0  0.00000000000E+00  0.00000000000E+00 -0.23040101877E+03  0.31121534913E+04  0.31036131724E+04 0.  0.
        4    1    3    3  502    0  0.10653782531E+04  0.10760677509E+04  0.22507002212E+03  0.15308856111E+04  0.12699999809E+01 0.  1.
       -4    1    3    3    0  502 -0.10653782531E+04 -0.10760677509E+04 -0.45547104089E+03  0.15812678801E+04  0.12699999809E+01 0. -1.
</event>
<event>
 5   0  0.1875284E-07  0.3100512E+04  0.7818609E-02  0.8215598E-01
       -1   -1    0    0    0  501  0.00000000000E+00  0.00000000000E+00  0.10503313528E+04  0.10503313528E+04  0.50400001928E-02 0. -1.
        1   -1    0    0  501    0  0.00000000000E+00  0.00000000000E+00 -0.22881284887E+04  0.22881284887E+04  0.50400001928E-02 0.  1.
    10030    2    1    2    0    0  0.00000000000E+00  0.00000000000E+00 -0.12377971359E+04  0.33384598416E+04  0.31005116294E+04 0.  0.
        4    1    3    3  502    0 -0.12826717573E+04 -0.76664539424E+03 -0.10632427044E+04  0.18339789145E+04  0.12699999809E+01 0.  1.
       -4    1    3    3    0  502  0.12826717573E+04  0.76664539424E+03 -0.17455443155E+03  0.15044809271E+04  0.12699999809E+01 0. -1.
</event>
<event>
 5   0  0.1840359E-07  0.3102718E+04  0.7818609E-02  0.8214992E-01
        1   -1    0    0  501    0  0.00000000000E+00  0.00000000000E+00  0.13411264430E+04  0.13411264430E+04  0.50400001928E-02 0.  1.
       -1   -1    0    0    0  501  0.00000000000E+00  0.00000000000E+00 -0.17945472320E+04  0.17945472320E+04  0.50400001928E-02 0. -1.
    10030    2    1    2    0    0  0.00000000000E+00  0.00000000000E+00 -0.45342078905E+03  0.31356736750E+04  0.31027179995E+04 0.  0.
        1    1    3    3  502    0 -0.25210687971E+03 -0.15093415236E+04 -0.48445858324E+03  0.16051074209E+04  0.50400001928E-02 0.  1.
       -1    1    3    3    0  502  0.25210687971E+03  0.15093415236E+04  0.31037794185E+02  0.15305662541E+04  0.50400001928E-02 0. -1.
</event>
<event>
 5   0  0.5376678E-07  0.3101874E+04  0.7818609E-02  0.8215224E-01
        2   -1    0    0  501    0  0.00000000000E+00  0.00000000000E+00  0.18400567306E+04  0.18400567306E+04  0.25500000920E-02 0. -1.
       -2   -1    0    0    0  501  0.00000000000E+00  0.00000000000E+00 -0.13072453272E+04  0.13072453272E+04  0.25500000920E-02 0.  1.
    10030    2    1    2    0    0  0.00000000000E+00  0.00000000000E+00  0.53281140338E+03  0.31473020578E+04  0.31018739902E+04 0.  0.
        5    1    3    3  502    0 -0.46896182225E+02 -0.15489456876E+04  0.33018710248E+03  0.15844486762E+04  0.46999998093E+01 0.  1.
       -5    1    3    3    0  502  0.46896182225E+02  0.15489456876E+04  0.20262430090E+03  0.15628533816E+04  0.46999998093E+01 0. -1.
</event>
<event>
 5   0  0.5248309E-07  0.3101239E+04  0.7818609E-02  0.8215398E-01
        2   -1    0    0  501    0  0.00000000000E+00  0.00000000000E+00  0.11615126809E+04  0.11615126809E+04  0.25500000920E-02 0. -1.
       -2   -1    0    0    0  501  0.00000000000E+00  0.00000000000E+00 -0.20700772843E+04  0.20700772843E+04  0.25500000920E-02 0.  1.
    10030    2    1    2    0    0  0.00000000000E+00  0.00000000000E+00 -0.90856460344E+03  0.32315899652E+04  0.31012391176E+04 0.  0.
        4    1    3    3  502    0  0.78367784754E+03  0.42813553604E+03 -0.17752270895E+04  0.19871798706E+04  0.12699999809E+01 0.  1.
       -4    1    3    3    0  502 -0.78367784754E+03 -0.42813553604E+03  0.86666248605E+03  0.12444100946E+04  0.12699999809E+01 0. -1.
</event>
<event>
 5   0  0.5154105E-07  0.3100415E+04  0.7818609E-02  0.8215624E-01
        2   -1    0    0  501    0  0.00000000000E+00  0.00000000000E+00  0.99694945918E+03  0.99694945918E+03  0.25500000920E-02 0.  1.
       -2   -1    0    0    0  501  0.00000000000E+00  0.00000000000E+00 -0.24104973743E+04  0.24104973743E+04  0.25500000920E-02 0. -1.
    10030    2    1    2    0    0  0.00000000000E+00  0.00000000000E+00 -0.14135479151E+04  0.34074468335E+04  0.31004154906E+04 0.  0.
        1    1    3    3  502    0 -0.13991479661E+04 -0.56763701066E+03 -0.10927151196E+04  0.18638275509E+04  0.50400001928E-02 0. -1.
       -1    1    3    3    0  502  0.13991479661E+04  0.56763701066E+03 -0.32083279547E+03  0.15436192826E+04  0.50400001928E-02 0.  1.
</event>
<event>
 5   0  0.5154105E-07  0.3099672E+04  0.7818609E-02  0.8215828E-01
        2   -1    0    0  501    0  0.00000000000E+00  0.00000000000E+00  0.12736698628E+04  0.12736698628E+04  0.25500000920E-02 0.  1.
       -2   -1    0    0    0  501  0.00000000000E+00  0.00000000000E+00 -0.18858828584E+04  0.18858828584E+04  0.25500000920E-02 0. -1.
    10030    2    1    2    0    0  0.00000000000E+00  0.00000000000E+00 -0.61221299560E+03  0.31595527212E+04  0.30996723449E+04 0.  0.
        1    1    3    3  502    0  0.37276611782E+03 -0.91920713277E+03 -0.15199497486E+04  0.18149775673E+04  0.50400001928E-02 0. -1.
       -1    1    3    3    0  502 -0.37276611782E+03  0.91920713277E+03  0.90773675302E+03  0.13445751538E+04  0.50400001928E-02 0.  1.
</event>
<event>
 5   0  0.1845123E-07  0.3068605E+04  0.7818609E-02  0.8224407E-01
       -1   -1    0    0    0  501  0.00000000000E+00  0.00000000000E+00  0.16623079327E+04  0.16623079327E+04  0.50400001928E-02 0.  1.
        1   -1    0    0  501    0  0.00000000000E+00  0.00000000000E+00 -0.14161543717E+04  0.14161543717E+04  0.50400001928E-02 0. -1.
    10030    2    1    2    0    0  0.00000000000E+00  0.00000000000E+00  0.24615356104E+03  0.30784623044E+04  0.30686053158E+04 0.  0.
        2    1    3    3  502    0  0.16543455949E+03 -0.81935914935E+03 -0.11676665985E+04  0.14360234310E+04  0.25500000920E-02 0. -1.
       -2    1    3    3    0  502 -0.16543455949E+03  0.81935914935E+03  0.14138201596E+04  0.16424388734E+04  0.25500000920E-02 0.  1.
</event>
<event>
 5   0  0.1814075E-07  0.3091516E+04  0.7818609E-02  0.8218070E-01
       -1   -1    0    0    0  501  0.00000000000E+00  0.00000000000E+00  0.10765849349E+04  0.10765849349E+04  0.50400001928E-02 0.  1.
        1   -1    0    0  501    0  0.00000000000E+00  0.00000000000E+00 -0.22193949072E+04  0.22193949073E+04  0.50400001928E-02 0. -1.
    10030    2    1    2    0    0  0.00000000000E+00  0.00000000000E+00 -0.11428099724E+04  0.32959798422E+04  0.30915155647E+04 0.  0.
        5    1    3    3  502    0 -0.10482272466E+04  0.10904255563E+04 -0.91112786641E+03  0.17657815078E+04  0.46999998093E+01 0. -1.
       -5    1    3    3    0  502  0.10482272466E+04 -0.10904255563E+04 -0.23168210594E+03  0.15301983344E+04  0.46999998093E+01 0.  1.
</event>
<event>
 5   0  0.5376678E-07  0.3100973E+04  0.7818609E-02  0.8215471E-01
       -2   -1    0    0    0  501  0.00000000000E+00  0.00000000000E+00  0.10995237539E+04  0.10995237539E+04  0.25500000920E-02 0. -1.
        2   -1    0    0  501    0  0.00000000000E+00  0.00000000000E+00 -0.21864089433E+04  0.21864089433E+04  0.25500000920E-02 0.  1.
    10030    2    1    2    0    0  0.00000000000E+00  0.00000000000E+00 -0.10868851894E+04  0.32859326972E+04  0.31009731175E+04 0.  0.
        5    1    3    3  502    0 -0.14383324440E+04 -0.41261717605E+03 -0.97378572096E+03  0.17853105818E+04  0.46999998093E+01 0. -1.
       -5    1    3    3    0  502  0.14383324440E+04  0.41261717605E+03 -0.11309946844E+03  0.15006221153E+04  0.46999998093E+01 0.  1.
</event>
<event>
 5   0  0.1875284E-07  0.3028853E+04  0.7818609E-02  0.8235539E-01
        1   -1    0    0  501    0  0.00000000000E+00  0.00000000000E+00  0.11148738110E+04  0.11148738110E+04  0.50400001928E-02 0. -1.
       -1   -1    0    0    0  501  0.00000000000E+00  0.00000000000E+00 -0.20571727131E+04  0.20571727131E+04  0.50400001928E-02 0.  1.
    10030    2    1    2    0    0  0.00000000000E+00  0.00000000000E+00 -0.94229890211E+03  0.31720465240E+04  0.30288532367E+04 0.  0.
        4    1    3    3  502    0  0.54955631006E+03 -0.72629495001E+03 -0.17382975861E+04  0.19624465860E+04  0.12699999809E+01 0.  1.
       -4    1    3    3    0  502 -0.54955631006E+03  0.72629495001E+03  0.79599868395E+03  0.12095999380E+04  0.12699999809E+01 0. -1.
</event>
<event>
 5   0  0.5055900E-07  0.3108721E+04  0.7818609E-02  0.8213349E-01
       -2   -1    0    0    0  501  0.00000000000E+00  0.00000000000E+00  0.11709095512E+04  0.11709095512E+04  0.25500000920E-02 0.  1.
        2   -1    0    0  501    0  0.00000000000E+00  0.00000000000E+00 -0.20633840463E+04  0.20633840463E+04  0.25500000920E-02 0. -1.
    10030    2    1    2    0    0  0.00000000000E+00  0.00000000000E+00 -0.89247449512E+03  0.32342935975E+04  0.31087206935E+04 0.  0.
        2    1    3    3  502    0 -0.81837453801E+03  0.10451833791E+04 -0.12875362734E+04  0.18492957675E+04  0.25500000920E-02 0. -1.
       -2    1    3    3    0  502  0.81837453801E+03 -0.10451833791E+04  0.39506177828E+03  0.13849978300E+04  0.25500000920E-02 0.  1.
</event>
<event>
 5   0  0.1840359E-07  0.3099504E+04  0.7818609E-02  0.8215874E-01
        1   -1    0    0  501    0  0.00000000000E+00  0.00000000000E+00  0.11976566420E+04  0.11976566420E+04  0.50400001928E-02 0.  1.
       -1   -1    0    0    0  501  0.00000000000E+00  0.00000000000E+00 -0.20053582117E+04  0.20053582118E+04  0.50400001928E-02 0. -1.
    10030    2    1    2    0    0  0.00000000000E+00  0.00000000000E+00 -0.80770156979E+03  0.32030148537E+04  0.30995035614E+04 0.  0.
        1    1    3    3  502    0 -0.95019489659E+03 -0.10828581358E+04 -0.99413482379E+03  0.17503588580E+04  0.50400001928E-02 0. -1.
       -1    1    3    3    0  502  0.95019489659E+03  0.10828581358E+04  0.18643325400E+03  0.14526559958E+04  0.50400001928E-02 0.  1.
</event>
<event>
 5   0  0.5342534E-07  0.3101245E+04  0.7818609E-02  0.8215396E-01
       -2   -1    0    0    0  501  0.00000000000E+00  0.00000000000E+00  0.16646165291E+04  0.16646165291E+04  0.25500000920E-02 0. -1.
        2   -1    0    0  501    0  0.00000000000E+00  0.00000000000E+00 -0.14444348856E+04  0.14444348856E+04  0.25500000920E-02 0.  1.
    10030    2    1    2    0    0  0.00000000000E+00  0.00000000000E+00  0.22018164350E+03  0.31090514147E+04  0.31012450312E+04 0.  0.
        3    1    3    3  502    0  0.10899691252E+03  0.93700747486E+03  0.13438660459E+04  0.16419011220E+04  0.10100000352E+00 0. -1.
       -3    1    3    3    0  502 -0.10899691252E+03 -0.93700747486E+03 -0.11236844024E+04  0.14671502927E+04  0.10100000352E+00 0.  1.
</event>
<event>
 5   0  0.5376678E-07  0.3096624E+04  0.7818609E-02  0.8216665E-01
       -2   -1    0    0    0  501  0.00000000000E+00  0.00000000000E+00  0.18548427028E+04  0.18548427028E+04  0.25500000920E-02 0. -1.
        2   -1    0    0  501    0  0.00000000000E+00  0.00000000000E+00 -0.12924387566E+04  0.12924387566E+04  0.25500000920E-02 0.  1.
    10030    2    1    2    0    0  0.00000000000E+00  0.00000000000E+00  0.56240394625E+03  0.31472814594E+04  0.30966243533E+04 0.  0.
        5    1    3    3  502    0  0.14702096644E+04 -0.50381073724E+02 -0.20959915796E+03  0.14859369458E+04  0.46999998093E+01 0.  1.
       -5    1    3    3    0  502 -0.14702096644E+04  0.50381073724E+02  0.77200310421E+03  0.16613445136E+04  0.46999998093E+01 0. -1.
</event>
<event>
 5   0  0.1840359E-07  0.3114929E+04  0.7818609E-02  0.8211653E-01
       -1   -1    0    0    0  501  0.00000000000E+00  0.00000000000E+00  0.11487883009E+04  0.11487883009E+04  0.50400001928E-02 0. -1.
        1   -1    0    0  501    0  0.00000000000E+00  0.00000000000E+00 -0.21115252048E+04  0.21115252048E+04  0.50400001928E-02 0.  1.
    10030    2    1    2    0    0  0.00000000000E+00  0.00000000000E+00 -0.96273690390E+03  0.32603135056E+04  0.31149288610E+04 0.  0.
        1    1    3    3  502    0 -0.27039895421E+03  0.19499231461E+03 -0.20737430861E+04  0.21003685354E+04  0.50400001928E-02 0.  1.
       -1    1    3    3    0  502  0.27039895421E+03 -0.19499231461E+03  0.11110061822E+04  0.11599449703E+04  0.50400001928E-02 0. -1.
</event>
<event>
 5   0  0.1875284E-07  0.3095011E+04  0.7818609E-02  0.8217108E-01
       -1   -1    0    0    0  501  0.00000000000E+00  0.00000000000E+00  0.11360038698E+04  0.11360038698E+04  0.50400001928E-02 0.  1.
        1   -1    0    0  501    0  0.00000000000E+00  0.00000000000E+00 -0.21080684525E+04  0.21080684525E+04  0.50400001928E-02 0. -1.
    10030    2    1    2    0    0  0.00000000000E+00  0.00000000000E+00 -0.97206458269E+03  0.32440723223E+04  0.30950114183E+04 0.  0.
        4    1    3    3  502    0 -0.49381911615E+03  0.81334081230E+03  0.79315088285E+03  0.12387374751E+04  0.12699999809E+01 0.  1.
       -4    1    3    3    0  502  0.49381911615E+03 -0.81334081230E+03 -0.17652154655E+04  0.20053348471E+04  0.12699999809E+01 0. -1.
</event>
<event>
 5   0  0.1814075E-07  0.3108276E+04  0.7818609E-02  0.8213470E-01
        1   -1    0    0  501    0  0.00000000000E+00  0.00000000000E+00  0.23665909543E+04  0.23665909544E+04  0.50400001928E-02 0.  1.
       -1   -1    0    0    0  501  0.00000000000E+00  0.00000000000E+00 -0.10206011915E+04  0.10206011916E+04  0.50400001928E-02 0. -1.
    10030    2    1    2    0    0  0.00000000000E+00  0.00000000000E+00  0.13459897628E+04  0.33871921459E+04  0.31082764021E+04 0.  0.
        5    1    3    3  502    0  0.19943727083E+03  0.98671908238E+03 -0.61728503641E+03  0.11808694588E+04  0.46999998093E+01 0. -1.
       -5    1    3    3    0  502 -0.19943727083E+03 -0.98671908238E+03  0.19632747992E+04  0.22063226871E+04  0.46999998093E+01 0.  1.
</event>
<event>
 5   0  0.1814075E-07  0.3099834E+04  0.7818609E-02  0.8215783E-01
        1   -1    0    0  501    0  0.00000000000E+00  0.00000000000E+00  0.24281919582E+04  0.24281919582E+04  0.50400001928E-02 0.  1.
       -1   -1    0    0    0  501  0.00000000000E+00  0.00000000000E+00 -0.98931328978E+03  0.98931328979E+03  0.50400001928E-02 0. -1.
    10030    2    1    2    0    0  0.00000000000E+00  0.00000000000E+00  0.14388786684E+04  0.34175052480E+04  0.30998339145E+04 0.  0.
        5    1    3    3  502    0  0.70581739220E+03  0.13758638299E+04  0.60359487633E+03  0.16599784138E+04  0.46999998093E+01 0.  1.
       -5    1    3    3    0  502 -0.70581739220E+03 -0.13758638299E+04  0.83528379211E+03  0.17575268342E+04  0.46999998093E+01 0. -1.
</event>
<event>
 5   0  0.5376678E-07  0.3103826E+04  0.7818609E-02  0.8214689E-01
       -2   -1    0    0    0  501  0.00000000000E+00  0.00000000000E+00  0.15610206329E+04  0.15610206329E+04  0.25500000920E-02 0. -1.
        2   -1    0    0  501    0  0.00000000000E+00  0.00000000000E+00 -0.15428580807E+04  0.15428580807E+04  0.25500000920E-02 0.  1.
    10030    2    1    2    0    0  0.00000000000E+00  0.00000000000E+00  0.18162552152E+02  0.31038787136E+04  0.31038255735E+04 0.  0.
        5    1    3    3  502    0 -0.10140745815E+04 -0.17260608827E+03 -0.11529502747E+04  0.15451396521E+04  0.46999998093E+01 0.  1.
       -5    1    3    3    0  502  0.10140745815E+04  0.17260608827E+03  0.11711128269E+04  0.15587390615E+04  0.46999998093E+01 0. -1.
</event>
<event>
 5   0  0.5376678E-07  0.3095237E+04  0.7818609E-02  0.8217046E-01
        2   -1    0    0  501    0  0.00000000000E+00  0.00000000000E+00  0.23087713427E+04  0.23087713427E+04  0.25500000920E-02 0.  1.
       -2   -1    0    0    0  501  0.00000000000E+00  0.00000000000E+00 -0.10374014138E+04  0.10374014139E+04  0.25500000920E-02 0. -1.
    10030    2    1    2    0    0  0.00000000000E+00  0.00000000000E+00  0.12713699288E+04  0.33461727565E+04  0.30952367632E+04 0.  0.
        5    1    3    3  502    0  0.12275430630E+04  0.94099762515E+03  0.57886888212E+03  0.16514992506E+04  0.46999998093E+01 0. -1.
       -5    1    3    3    0  502 -0.12275430630E+04 -0.94099762515E+03  0.69250104670E+03  0.16946735059E+04  0.46999998093E+01 0.  1.
</event>
<event>
 5   0  0.5342534E-07  0.3104615E+04  0.7818609E-02  0.8214473E-01
        2   -1    0    0  501    0  0.00000000000E+00  0.00000000000E+00  0.10798468846E+04  0.10798468846E+04  0.25500000920E-02 0. -1.
       -2   -1    0    0    0  501  0.00000000000E+00  0.00000000000E+00 -0.22314816873E+04  0.22314816873E+04  0.25500000920E-02 0.  1.
    10030    2    1    2    0    0  0.00000000000E+00  0.00000000000E+00 -0.11516348027E+04  0.33113285720E+04  0.31046149830E+04 0.  0.
        3    1    3    3  502    0 -0.11790918793E+04  0.10995429329E+03  0.49465703595E+03  0.12833679129E+04  0.10100000352E+00 0. -1.
       -3    1    3    3    0  502  0.11790918793E+04 -0.10995429329E+03 -0.16462918387E+04  0.20279606591E+04  0.10100000352E+00 0.  1.
</event>
<event>
 5   0  0.5376678E-07  0.3103210E+04  0.7818609E-02  0.8214857E-01
       -2   -1    0    0    0  501  0.00000000000E+00  0.00000000000E+00  0.13297532619E+04  0.13297532619E+04  0.25500000920E-02 0. -1.
        2   -1    0    0  501    0  0.00000000000E+00  0.00000000000E+00 -0.18104699917E+04  0.18104699917E+04  0.25500000920E-02 0.  1.
    10030    2    1    2    0    0  0.00000000000E+00  0.00000000000E+00 -0.48071672976E+03  0.31402232536E+04  0.31032101940E+04 0.  0.
        5    1    3    3  502    0  0.41406111743E+03  0.98535056832E+03 -0.13785377595E+04  0.17443482439E+04  0.46999998093E+01 0.  1.
       -5    1    3    3    0  502 -0.41406111743E+03 -0.98535056832E+03  0.89782102975E+03  0.13958750098E+04  0.46999998093E+01 0. -1.
</event>
<event>
 5   0  0.1845123E-07  0.3095097E+04  0.7818609E-02  0.8217085E-01
        1   -1    0    0  501    0  0.00000000000E+00  0.00000000000E+00  0.17654893375E+04  0.17654893376E+04  0.50400001928E-02 0. -1.
       -1   -1    0    0    0  501  0.00000000000E+00  0.00000000000E+00 -0.13565115148E+04  0.13565115148E+04  0.50400001928E-02 0.  1.
    10030    2    1    2    0    0  0.00000000000E+00  0.00000000000E+00  0.40897782275E+03  0.31220008524E+04  0.30950971653E+04 0.  0.
        2    1    3    3  502    0  0.64544053184E+03 -0.85388794816E+03  0.13318751253E+04  0.17086864714E+04  0.25500000920E-02 0. -1.
       -2    1    3    3    0  502 -0.64544053184E+03  0.85388794816E+03 -0.92289730259E+03  0.14133143809E+04  0.25500000920E-02 0.  1.
</event>
<event>
 5   0  0.5342534E-07  0.3147199E+04  0.7818609E-02  0.8202903E-01
        2   -1    0    0  501    0  0.00000000000E+00  0.00000000000E+00  0.12549646031E+04  0.12549646031E+04  0.25500000920E-02 0. -1.
       -2   -1    0    0    0  501  0.00000000000E+00  0.00000000000E+00 -0.19731354657E+04  0.19731354657E+04  0.25500000920E-02 0.  1.
    10030    2    1    2    0    0  0.00000000000E+00  0.00000000000E+00 -0.71817086261E+03  0.32281000688E+04  0.31471988603E+04 0.  0.
        3    1    3    3  502    0 -0.10833326987E+04 -0.11242311982E+04 -0.56089062165E+03  0.16589466004E+04  0.10100000352E+00 0.  1.
       -3    1    3    3    0  502  0.10833326987E+04  0.11242311982E+04 -0.15728024097E+03  0.15691534685E+04  0.10100000352E+00 0. -1.
</event>
<event>
 5   0  0.5055900E-07  0.3103803E+04  0.7818609E-02  0.8214695E-01
       -2   -1    0    0    0  501  0.00000000000E+00  0.00000000000E+00  0.11915832152E+04  0.11915832152E+04  0.25500000920E-02 0. -1.
        2   -1    0    0  501    0  0.00000000000E+00  0.00000000000E+00 -0.20211748560E+04  0.20211748560E+04  0.25500000920E-02 0.  1.
    10030    2    1    2    0    0  0.00000000000E+00  0.00000000000E+00 -0.82959164079E+03  0.32127580713E+04  0.31038028504E+04 0.  0.
        2    1    3    3  502    0 -0.81240676270E+02 -0.42693166373E+03 -0.19569015304E+04  0.20045783329E+04  0.25500000920E-02 0.  1.
       -2    1    3    3    0  502  0.81240676270E+02  0.42693166373E+03  0.11273098896E+04  0.12081797384E+04  0.25500000920E-02 0. -1.
</event>
<event>
 5   0  0.5342534E-07  0.3102746E+04  0.7818609E-02  0.8214985E-01
        2   -1    0    0  501    0  0.00000000000E+00  0.00000000000E+00  0.26878335748E+04  0.26878335748E+04  0.25500000920E-02 0.  1.
       -2   -1    0    0    0  501  0.00000000000E+00  0.00000000000E+00 -0.89542651498E+03  0.89542651499E+03  0.25500000920E-02 0. -1.
    10030    2    1    2    0    0  0.00000000000E+00  0.00000000000E+00  0.17924070598E+04  0.35832600898E+04  0.31027455266E+04 0.  0.
        3    1    3    3  502    0 -0.99407644593E+03 -0.93228758132E+03  0.17522161901E+04  0.22198219977E+04  0.10100000352E+00 0. -1.
       -3    1    3    3    0  502  0.99407644593E+03  0.93228758132E+03  0.40190869725E+02  0.13634380920E+04  0.10100000352E+00 0.  1.
</event>
<event>
 5   0  0.1845123E-07  0.3079618E+04  0.7818609E-02  0.8221354E-01
       -1   -1    0    0    0  501  0.00000000000E+00  0.00000000000E+00  0.13969275186E+04  0.13969275186E+04  0.50400001928E-02 0. -1.
        1   -1    0    0  501    0  0.00000000000E+00  0.00000000000E+00 -0.16973046114E+04  0.16973046114E+04  0.50400001928E-02 0.  1.
    10030    2    1    2    0    0  0.00000000000E+00  0.00000000000E+00 -0.30037709274E+03  0.30942321300E+04  0.30796178459E+04 0.  0.
        2    1    3    3  502    0  0.45298833987E+03 -0.35653605525E+03 -0.15847931032E+04  0.16863823928E+04  0.25500000920E-02 0.  1.
       -2    1    3    3    0  502 -0.45298833987E+03  0.35653605525E+03  0.12844160105E+04  0.14078497373E+04  0.25500000920E-02 0. -1.
</event>
<event>
 5   0  0.5055900E-07  0.3099189E+04  0.7818609E-02  0.8215960E-01
        2   -1    0    0  501    0  0.00000000000E+00  0.00000000000E+00  0.34600171840E+04  0.34600171840E+04  0.25500000920E-02 0.  1.
       -2   -1    0    0    0  501  0.00000000000E+00  0.00000000000E+00 -0.69399758752E+03  0.69399758753E+03  0.25500000920E-02 0. -1.
    10030    2    1    2    0    0  0.00000000000E+00  0.00000000000E+00  0.27660195965E+04  0.41540147716E+04  0.30991892995E+04 0.  0.
        2    1    3    3  502    0 -0.13168183226E+04  0.27943160342E+03  0.24118152699E+04  0.27620545635E+04  0.25500000920E-02 0.  1.
       -2    1    3    3    0  502  0.13168183226E+04 -0.27943160342E+03  0.35420432663E+03  0.13919602080E+04  0.25500000920E-02 0. -1.
</event>
<event>
 5   0  0.1875284E-07  0.3100303E+04  0.7818609E-02  0.8215655E-01
       -1   -1    0    0    0  501  0.00000000000E+00  0.00000000000E+00  0.13490456274E+04  0.13490456274E+04  0.50400001928E-02 0. -1.
        1   -1    0    0  501    0  0.00000000000E+00  0.00000000000E+00 -0.17812363679E+04  0.17812363679E+04  0.50400001928E-02 0.  1.
    10030    2    1    2    0    0  0.00000000000E+00  0.00000000000E+00 -0.43219074052E+03  0.31302819952E+04  0.31003026519E+04 0.  0.
        4    1    3    3  502    0 -0.61248414586E+03 -0.98781326502E+03 -0.12517113116E+04  0.17081260773E+04  0.12699999809E+01 0.  1.
       -4    1    3    3    0  502  0.61248414586E+03  0.98781326502E+03  0.81952057111E+03  0.14221559179E+04  0.12699999809E+01 0. -1.
</event>
<event>
 5   0  0.1875284E-07  0.3095810E+04  0.7818609E-02  0.8216889E-01
        1   -1    0    0  501    0  0.00000000000E+00  0.00000000000E+00  0.21298490800E+04  0.21298490800E+04  0.50400001928E-02 0. -1.
       -1   -1    0    0    0  501  0.00000000000E+00  0.00000000000E+00 -0.11249667411E+04  0.11249667411E+04  0.50400001928E-02 0.  1.
    10030    2    1    2    0    0  0.00000000000E+00  0.00000000000E+00  0.10048823389E+04  0.32548158211E+04  0.30958096702E+04 0.  0.
        4    1    3    3  502    0 -0.12361342891E+04 -0.36316662080E+03 -0.39958172981E+03  0.13489199928E+04  0.12699999809E+01 0.  1.
       -4    1    3    3    0  502  0.12361342891E+04  0.36316662080E+03  0.14044640687E+04  0.19058958283E+04  0.12699999809E+01 0. -1.
</event>
<event>
 5   0  0.5248309E-07  0.3122921E+04  0.7818609E-02  0.8209475E-01
        2   -1    0    0  501    0  0.00000000000E+00  0.00000000000E+00  0.27343448726E+04  0.27343448726E+04  0.25500000920E-02 0. -1.
       -2   -1    0    0    0  501  0.00000000000E+00  0.00000000000E+00 -0.89167930841E+03  0.89167930841E+03  0.25500000920E-02 0.  1.
    10030    2    1    2    0    0  0.00000000000E+00  0.00000000000E+00  0.18426655642E+04  0.36260241810E+04  0.31229209051E+04 0.  0.
        4    1    3    3  502    0  0.13899044809E+03 -0.76000292843E+03 -0.65418839002E+03  0.10123669584E+04  0.12699999809E+01 0.  1.
       -4    1    3    3    0  502 -0.13899044809E+03  0.76000292843E+03  0.24968539542E+04  0.26136572226E+04  0.12699999809E+01 0. -1.
</event>
<event>
 5   0  0.1830902E-07  0.3098027E+04  0.7818609E-02  0.8216279E-01
        1   -1    0    0  501    0  0.00000000000E+00  0.00000000000E+00  0.18950225227E+04  0.18950225227E+04  0.50400001928E-02 0. -1.
       -1   -1    0    0    0  501  0.00000000000E+00  0.00000000000E+00 -0.12661820724E+04  0.12661820724E+04  0.50400001928E-02 0.  1.
    10030    2    1    2    0    0  0.00000000000E+00  0.00000000000E+00  0.62884045030E+03  0.31612045951E+04  0.30980274660E+04 0.  0.
        3    1    3    3  502    0  0.69789768126E+03 -0.88651047056E+03 -0.76858208184E+03  0.13651668084E+04  0.10100000352E+00 0.  1.
       -3    1    3    3    0  502 -0.69789768126E+03  0.88651047056E+03  0.13974225321E+04  0.17960377868E+04  0.10100000352E+00 0. -1.
</event>
<event>
 5   0  0.1845123E-07  0.3093635E+04  0.7818609E-02  0.8217487E-01
       -1   -1    0    0    0  501  0.00000000000E+00  0.00000000000E+00  0.10649001660E+04  0.10649001661E+04  0.50400001928E-02 0. -1.
        1   -1    0    0  501    0  0.00000000000E+00  0.00000000000E+00 -0.22468253253E+04  0.22468253253E+04  0.50400001928E-02 0.  1.
    10030    2    1    2    0    0  0.00000000000E+00  0.00000000000E+00 -0.11819251593E+04  0.33117254914E+04  0.30936351834E+04 0.  0.
        2    1    3    3  502    0 -0.10483632209E+03 -0.75313148518E+03 -0.20329363913E+04  0.21704902809E+04  0.25500000920E-02 0.  1.
       -2    1    3    3    0  502  0.10483632209E+03  0.75313148518E+03  0.85101123208E+03  0.11412352104E+04  0.25500000920E-02 0. -1.
</event>
<event>
 5   0  0.5154105E-07  0.3103612E+04  0.7818609E-02  0.8214747E-01
        2   -1    0    0  501    0  0.00000000000E+00  0.00000000000E+00  0.14903513217E+04  0.14903513217E+04  0.25500000920E-02 0.  1.
       -2   -1    0    0    0  501  0.00000000000E+00  0.00000000000E+00 -0.16157945905E+04  0.16157945905E+04  0.25500000920E-02 0. -1.
    10030    2    1    2    0    0  0.00000000000E+00  0.00000000000E+00 -0.12544326876E+03  0.31061459122E+04  0.31036118337E+04 0.  0.
        1    1    3    3  502    0  0.71557668054E+03  0.12747241302E+04  0.45840497413E+03  0.15320269953E+04  0.50400001928E-02 0.  1.
       -1    1    3    3    0  502 -0.71557668054E+03 -0.12747241302E+04 -0.58384824288E+03  0.15741189169E+04  0.50400001928E-02 0. -1.
</event>
<event>
 5   0  0.5342534E-07  0.3103768E+04  0.7818609E-02  0.8214705E-01
        2   -1    0    0  501    0  0.00000000000E+00  0.00000000000E+00  0.19158996546E+04  0.19158996546E+04  0.25500000920E-02 0.  1.
       -2   -1    0    0    0  501  0.00000000000E+00  0.00000000000E+00 -0.12570299159E+04  0.12570299159E+04  0.25500000920E-02 0. -1.
    10030    2    1    2    0    0  0.00000000000E+00  0.00000000000E+00  0.65886973870E+03  0.31729295705E+04  0.31037675053E+04 0.  0.
        3    1    3    3  502    0 -0.97384971877E+02 -0.15481574100E+04  0.37592316879E+03  0.15961182405E+04  0.10100000352E+00 0. -1.
       -3    1    3    3    0  502  0.97384971877E+02  0.15481574100E+04  0.28294656992E+03  0.15768113300E+04  0.10100000352E+00 0.  1.
</event>
<event>
 5   0  0.5055900E-07  0.3097608E+04  0.7818609E-02  0.8216395E-01
        2   -1    0    0  501    0  0.00000000000E+00  0.00000000000E+00  0.24764713964E+04  0.24764713964E+04  0.25500000920E-02 0. -1.
       -2   -1    0    0    0  501  0.00000000000E+00  0.00000000000E+00 -0.96863373738E+03  0.96863373738E+03  0.25500000920E-02 0.  1.
    10030    2    1    2    0    0  0.00000000000E+00  0.00000000000E+00  0.15078376590E+04  0.34451051337E+04  0.30976079443E+04 0.  0.
        2    1    3    3  502    0  0.82303826282E+03  0.12963390788E+04  0.97886237923E+03  0.18210048179E+04  0.25500000920E-02 0. -1.
       -2    1    3    3    0  502 -0.82303826282E+03 -0.12963390788E+04  0.52897527974E+03  0.16241003158E+04  0.25500000920E-02 0.  1.
</event>
<event>
 5   0  0.1840359E-07  0.3099774E+04  0.7818609E-02  0.8215800E-01
        1   -1    0    0  501    0  0.00000000000E+00  0.00000000000E+00  0.20866986333E+04  0.20866986333E+04  0.50400001928E-02 0.  1.
       -1   -1    0    0    0  501  0.00000000000E+00  0.00000000000E+00 -0.11511725442E+04  0.11511725442E+04  0.50400001928E-02 0. -1.
    10030    2    1    2    0    0  0.00000000000E+00  0.00000000000E+00  0.93552608910E+03  0.32378711774E+04  0.30997742980E+04 0.  0.
        1    1    3    3  502    0  0.10561730978E+04 -0.20144017782E+03 -0.69824295650E+03  0.12820386048E+04  0.50400001928E-02 0. -1.
       -1    1    3    3    0  502 -0.10561730978E+04  0.20144017782E+03  0.16337690456E+04  0.19558325726E+04  0.50400001928E-02 0.  1.
</event>
<event>
 5   0  0.5248309E-07  0.3108833E+04  0.7818609E-02  0.8213318E-01
        2   -1    0    0  501    0  0.00000000000E+00  0.00000000000E+00  0.20604893813E+04  0.20604893813E+04  0.25500000920E-02 0.  1.
       -2   -1    0    0    0  501  0.00000000000E+00  0.00000000000E+00 -0.11726394517E+04  0.11726394517E+04  0.25500000920E-02 0. -1.
    10030    2    1    2    0    0  0.00000000000E+00  0.00000000000E+00  0.88784992960E+03  0.32331288329E+04  0.31088333105E+04 0.  0.
        4    1    3    3  502    0 -0.12668357368E+03 -0.73322809963E+03  0.18632376012E+04  0.20063220443E+04  0.12699999809E+01 0.  1.
       -4    1    3    3    0  502  0.12668357368E+03  0.73322809963E+03 -0.97538767158E+03  0.12268067887E+04  0.12699999809E+01 0. -1.
</event>
<event>
 5   0  0.1830902E-07  0.3101273E+04  0.7818609E-02  0.8215389E-01
       -1   -1    0    0    0  501  0.00000000000E+00  0.00000000000E+00  0.13743475468E+04  0.13743475468E+04  0.50400001928E-02 0.  1.
        1   -1    0    0  501    0  0.00000000000E+00  0.00000000000E+00 -0.17495383566E+04  0.17495383566E+04  0.50400001928E-02 0. -1.
    10030    2    1    2    0    0  0.00000000000E+00  0.00000000000E+00 -0.37519080978E+03  0.31238859034E+04  0.31012731247E+04 0.  0.
        3    1    3    3  502    0  0.88862236647E+02 -0.71377366857E+02 -0.17453130969E+04  0.17490308865E+04  0.10100000352E+00 0. -1.
       -3    1    3    3    0  502 -0.88862236647E+02  0.71377366857E+02  0.13701222871E+04  0.13748550169E+04  0.10100000352E+00 0.  1.
</event>
<event>
 5   0  0.5342534E-07  0.3098279E+04  0.7818609E-02  0.8216210E-01
       -2   -1    0    0    0  501  0.00000000000E+00  0.00000000000E+00  0.12878492453E+04  0.12878492453E+04  0.25500000920E-02 0. -1.
        2   -1    0    0  501    0  0.00000000000E+00  0.00000000000E+00 -0.18634422866E+04  0.18634422866E+04  0.25500000920E-02 0.  1.
    10030    2    1    2    0    0  0.00000000000E+00  0.00000000000E+00 -0.57559304125E+03  0.31512915319E+04  0.30982787108E+04 0.  0.
        3    1    3    3  502    0  0.10762522531E+04  0.43257175574E+03  0.75661071188E+03  0.13848815890E+04  0.10100000352E+00 0. -1.
       -3    1    3    3    0  502 -0.10762522531E+04 -0.43257175574E+03 -0.13322037531E+04  0.17664099428E+04  0.10100000352E+00 0.  1.
</event>
<event>
 5   0  0.5342534E-07  0.3102545E+04  0.7818609E-02  0.8215040E-01
        2   -1    0    0  501    0  0.00000000000E+00  0.00000000000E+00  0.13904691261E+04  0.13904691261E+04  0.25500000920E-02 0.  1.
       -2   -1    0    0    0  501  0.00000000000E+00  0.00000000000E+00 -0.17306721023E+04  0.17306721023E+04  0.25500000920E-02 0. -1.
    10030    2    1    2    0    0  0.00000000000E+00  0.00000000000E+00 -0.34020297621E+03  0.31211412284E+04  0.31025448430E+04 0.  0.
        3    1    3    3  502    0  0.11034819656E+04 -0.61316187602E+02 -0.12652098430E+04  0.16799369275E+04  0.10100000352E+00 0. -1.
       -3    1    3    3    0  502 -0.11034819656E+04  0.61316187602E+02  0.92500686676E+03  0.14412043009E+04  0.10100000352E+00 0.  1.
</event>
<event>
 5   0  0.1875284E-07  0.3083766E+04  0.7818609E-02  0.8220207E-01
       -1   -1    0    0    0  501  0.00000000000E+00  0.00000000000E+00  0.12801180327E+04  0.12801180328E+04  0.50400001928E-02 0.  1.
        1   -1    0    0  501    0  0.00000000000E+00  0.00000000000E+00 -0.18571755394E+04  0.18571755394E+04  0.50400001928E-02 0. -1.
    10030    2    1    2    0    0  0.00000000000E+00  0.00000000000E+00 -0.57705750661E+03  0.31372935721E+04  0.30837664619E+04 0.  0.
        4    1    3    3  502    0  0.10513675357E+04 -0.82369969501E+03  0.49526425139E+03  0.14244799663E+04  0.12699999809E+01 0.  1.
       -4    1    3    3    0  502 -0.10513675357E+04  0.82369969501E+03 -0.10723217580E+04  0.17128136058E+04  0.12699999809E+01 0. -1.
</event>
<event>
 5   0  0.1840359E-07  0.3097714E+04  0.7818609E-02  0.8216366E-01
        1   -1    0    0  501    0  0.00000000000E+00  0.00000000000E+00  0.15682967388E+04  0.15682967389E+04  0.50400001928E-02 0.  1.
       -1   -1    0    0    0  501  0.00000000000E+00  0.00000000000E+00 -0.15296577613E+04  0.15296577613E+04  0.50400001928E-02 0. -1.
    10030    2    1    2    0    0  0.00000000000E+00  0.00000000000E+00  0.38638977582E+02  0.30979545001E+04  0.30977135301E+04 0.  0.
        1    1    3    3  502    0 -0.88275191279E+03 -0.24860051141E+03 -0.12289379013E+04  0.15334084645E+04  0.50400001928E-02 0. -1.
       -1    1    3    3    0  502  0.88275191279E+03  0.24860051141E+03  0.12675768788E+04  0.15645460356E+04  0.50400001928E-02 0.  1.
</event>
<event>
 5   0  0.5154105E-07  0.3101270E+04  0.7818609E-02  0.8215389E-01
        2   -1    0    0  501    0  0.00000000000E+00  0.00000000000E+00  0.20565937973E+04  0.20565937973E+04  0.25500000920E-02 0.  1.
       -2   -1    0    0    0  501  0.00000000000E+00  0.00000000000E+00 -0.11691513228E+04  0.11691513228E+04  0.25500000920E-02 0. -1.
    10030    2    1    2    0    0  0.00000000000E+00  0.00000000000E+00  0.88744247451E+03  0.32257451201E+04  0.31012702936E+04 0.  0.
        1    1    3    3  502    0 -0.61393622073E+03 -0.13111949698E+04 -0.13383047346E+03  0.14539809241E+04  0.50400001928E-02 0. -1.
       -1    1    3    3    0  502  0.61393622073E+03  0.13111949698E+04  0.10212729480E+04  0.17717641960E+04  0.50400001928E-02 0.  1.
</event>
<event>
 5   0  0.1875284E-07  0.3104207E+04  0.7818609E-02  0.8214584E-01
        1   -1    0    0  501    0  0.00000000000E+00  0.00000000000E+00  0.16852342211E+04  0.16852342211E+04  0.50400001928E-02 0.  1.
       -1   -1    0    0    0  501  0.00000000000E+00  0.00000000000E+00 -0.14294898065E+04  0.14294898065E+04  0.50400001928E-02 0. -1.
    10030    2    1    2    0    0  0.00000000000E+00  0.00000000000E+00  0.25574441464E+03  0.31147240276E+04  0.31042069136E+04 0.  0.
        4    1    3    3  502    0  0.30330085198E+03 -0.31695236498E+03  0.16217324252E+04  0.16800202023E+04  0.12699999809E+01 0.  1.
       -4    1    3    3    0  502 -0.30330085198E+03  0.31695236498E+03 -0.13659880105E+04  0.14347038253E+04  0.12699999809E+01 0. -1.
</event>
<event>
 5   0  0.5376678E-07  0.3113894E+04  0.7818609E-02  0.8211935E-01
       -2   -1    0    0    0  501  0.00000000000E+00  0.00000000000E+00  0.11417441971E+04  0.11417441971E+04  0.25500000920E-02 0.  1.
        2   -1    0    0  501    0  0.00000000000E+00  0.00000000000E+00 -0.21231409641E+04  0.21231409641E+04  0.25500000920E-02 0. -1.
    10030    2    1    2    0    0  0.00000000000E+00  0.00000000000E+00 -0.98139676703E+03  0.32648851613E+04  0.31138939452E+04 0.  0.
        5    1    3    3  502    0  0.87460224221E+03  0.56734975161E+03  0.72176854937E+03  0.12679853121E+04  0.46999998093E+01 0.  1.
       -5    1    3    3    0  502 -0.87460224221E+03 -0.56734975161E+03 -0.17031653164E+04  0.19968998492E+04  0.46999998093E+01 0. -1.
</event>
<event>
 5   0  0.1845123E-07  0.3105095E+04  0.7818609E-02  0.8214341E-01
        1   -1    0    0  501    0  0.00000000000E+00  0.00000000000E+00  0.16513103787E+04  0.16513103787E+04  0.50400001928E-02 0.  1.
       -1   -1    0    0    0  501  0.00000000000E+00  0.00000000000E+00 -0.14596916882E+04  0.14596916882E+04  0.50400001928E-02 0. -1.
    10030    2    1    2    0    0  0.00000000000E+00  0.00000000000E+00  0.19161869046E+03  0.31110020669E+04  0.31050951898E+04 0.  0.
        2    1    3    3  502    0  0.18361317567E+03  0.20513110753E+02  0.16402571061E+04  0.16506295647E+04  0.25500000920E-02 0.  1.
       -2    1    3    3    0  502 -0.18361317567E+03 -0.20513110753E+02 -0.14486384156E+04  0.14603725022E+04  0.25500000920E-02 0. -1.
</event>
<event>
 5   0  0.1814075E-07  0.3108372E+04  0.7818609E-02  0.8213444E-01
        1   -1    0    0  501    0  0.00000000000E+00  0.00000000000E+00  0.14858159539E+04  0.14858159539E+04  0.50400001928E-02 0.  1.
       -1   -1    0    0    0  501  0.00000000000E+00  0.00000000000E+00 -0.16257025550E+04  0.16257025550E+04  0.50400001928E-02 0. -1.
    10030    2    1    2    0    0  0.00000000000E+00  0.00000000000E+00 -0.13988660103E+03  0.31115185089E+04  0.31083724310E+04 0.  0.
        5    1    3    3  502    0 -0.49560950677E+03 -0.79537483301E+03 -0.13110460797E+04  0.16115563351E+04  0.46999998093E+01 0. -1.
       -5    1    3    3    0  502  0.49560950677E+03  0.79537483301E+03  0.11711594787E+04  0.14999621738E+04  0.46999998093E+01 0.  1.
</event>
<event>
 5   0  0.1840359E-07  0.3099074E+04  0.7818609E-02  0.8215992E-01
        1   -1    0    0  501    0  0.00000000000E+00  0.00000000000E+00  0.26670639494E+04  0.26670639494E+04  0.50400001928E-02 0. -1.
       -1   -1    0    0    0  501  0.00000000000E+00  0.00000000000E+00 -0.90026506816E+03  0.90026506817E+03  0.50400001928E-02 0.  1.
    10030    2    1    2    0    0  0.00000000000E+00  0.00000000000E+00  0.17667988812E+04  0.35673290176E+04  0.30990737379E+04 0.  0.
        1    1    3    3  502    0 -0.76560113111E+03 -0.96401175023E+03 -0.19985442485E+03  0.12471589865E+04  0.50400001928E-02 0.  1.
       -1    1    3    3    0  502  0.76560113111E+03  0.96401175023E+03  0.19666533061E+04  0.23201700310E+04  0.50400001928E-02 0. -1.
</event>
<event>
 5   0  0.5376678E-07  0.3096781E+04  0.7818609E-02  0.8216622E-01
       -2   -1    0    0    0  501  0.00000000000E+00  0.00000000000E+00  0.10394037004E+04  0.10394037004E+04  0.25500000920E-02 0. -1.
        2   -1    0    0  501    0  0.00000000000E+00  0.00000000000E+00 -0.23066235001E+04  0.23066235001E+04  0.25500000920E-02 0.  1.
    10030    2    1    2    0    0  0.00000000000E+00  0.00000000000E+00 -0.12672197997E+04  0.33460272005E+04  0.30967809102E+04 0.  0.
        5    1    3    3  502    0  0.50553160280E+03 -0.13252813860E+04  0.37299414964E+02  0.14189243426E+04  0.46999998093E+01 0. -1.
       -5    1    3    3    0  502 -0.50553160280E+03  0.13252813860E+04 -0.13045192147E+04  0.19271028579E+04  0.46999998093E+01 0.  1.
</event>
<event>
 5   0  0.1845123E-07  0.3114682E+04  0.7818609E-02  0.8211720E-01
        1   -1    0    0  501    0  0.00000000000E+00  0.00000000000E+00  0.79056700815E+03  0.79056700817E+03  0.50400001928E-02 0.  1.
       -1   -1    0    0    0  501  0.00000000000E+00  0.00000000000E+00 -0.30678118525E+04  0.30678118525E+04  0.50400001928E-02 0. -1.
    10030    2    1    2    0    0  0.00000000000E+00  0.00000000000E+00 -0.22772448443E+04  0.38583788607E+04  0.31146819021E+04 0.  0.
        2    1    3    3  502    0  0.89902985256E+02  0.70894381181E+03  0.57546613384E+03  0.91752119663E+03  0.25500000920E-02 0.  1.
       -2    1    3    3    0  502 -0.89902985256E+02 -0.70894381181E+03 -0.28527109782E+04  0.29408576640E+04  0.25500000920E-02 0. -1.
</event>
<event>
 5   0  0.1830902E-07  0.3100338E+04  0.7818609E-02  0.8215645E-01
        1   -1    0    0  501    0  0.00000000000E+00  0.00000000000E+00  0.23373675162E+04  0.23373675163E+04  0.50400001928E-02 0. -1.
       -1   -1    0    0    0  501  0.00000000000E+00  0.00000000000E+00 -0.10280898929E+04  0.10280898929E+04  0.50400001928E-02 0.  1.
    10030    2    1    2    0    0  0.00000000000E+00  0.00000000000E+00  0.13092776234E+04  0.33654574091E+04  0.31003379941E+04 0.  0.
        3    1    3    3  502    0 -0.69605217565E+03  0.28769611506E+03  0.21254053606E+04  0.22549070143E+04  0.10100000352E+00 0. -1.
       -3    1    3    3    0  502  0.69605217565E+03 -0.28769611506E+03 -0.81612773725E+03  0.11105503949E+04  0.10100000352E+00 0.  1.
</event>
<event>
 5   0  0.5342534E-07  0.3103504E+04  0.7818609E-02  0.8214777E-01
        2   -1    0    0  501    0  0.00000000000E+00  0.00000000000E+00  0.21555520957E+04  0.21555520957E+04  0.25500000920E-02 0.  1.
       -2   -1    0    0    0  501  0.00000000000E+00  0.00000000000E+00 -0.11170848828E+04  0.11170848828E+04  0.25500000920E-02 0. -1.
    10030    2    1    2    0    0  0.00000000000E+00  0.00000000000E+00  0.10384672129E+04  0.32726369785E+04  0.31035042518E+04 0.  0.
        3    1    3    3  502    0  0.50023176537E+03 -0.10981862451E+04  0.15479441627E+04  0.19627470517E+04  0.10100000352E+00 0.  1.
       -3    1    3    3    0  502 -0.50023176537E+03  0.10981862451E+04 -0.50947694974E+03  0.13098899269E+04  0.10100000352E+00 0. -1.
</event>
<event>
 5   0  0.5376678E-07  0.3107784E+04  0.7818609E-02  0.8213605E-01
       -2   -1    0    0    0  501  0.00000000000E+00  0.00000000000E+00  0.85485973624E+03  0.85485973625E+03  0.25500000920E-02 0. -1.
        2   -1    0    0  501    0  0.00000000000E+00  0.00000000000E+00 -0.28245333057E+04  0.28245333057E+04  0.25500000920E-02 0.  1.
    10030    2    1    2    0    0  0.00000000000E+00  0.00000000000E+00 -0.19696735695E+04  0.36793930420E+04  0.31077836455E+04 0.  0.
        5    1    3    3  502    0 -0.64968573721E+03 -0.79848940552E+03 -0.23629216181E+04  0.25774207168E+04  0.46999998093E+01 0.  1.
       -5    1    3    3    0  502  0.64968573721E+03  0.79848940552E+03  0.39324804861E+03  0.11019723252E+04  0.46999998093E+01 0. -1.
</event>
<event>
 5   0  0.5154105E-07  0.3100921E+04  0.7818609E-02  0.8215485E-01
       -2   -1    0    0    0  501  0.00000000000E+00  0.00000000000E+00  0.12278825777E+04  0.12278825777E+04  0.25500000920E-02 0.  1.
        2   -1    0    0  501    0  0.00000000000E+00  0.00000000000E+00 -0.19577828120E+04  0.19577828120E+04  0.25500000920E-02 0. -1.
    10030    2    1    2    0    0  0.00000000000E+00  0.00000000000E+00 -0.72990023438E+03  0.31856653897E+04  0.31009207702E+04 0.  0.
        1    1    3    3  502    0 -0.49391609301E+03 -0.10095263328E+04 -0.14622368336E+04  0.18442432272E+04  0.50400001928E-02 0. -1.
       -1    1    3    3    0  502  0.49391609301E+03  0.10095263328E+04  0.73233659923E+03  0.13414221625E+04  0.50400001928E-02 0.  1.
</event>
<event>
 5   0  0.1875284E-07  0.3099186E+04  0.7818609E-02  0.8215961E-01
       -1   -1    0    0    0  501  0.00000000000E+00  0.00000000000E+00  0.15546697201E+04  0.15546697201E+04  0.50400001928E-02 0.  1.
        1   -1    0    0  501    0  0.00000000000E+00  0.00000000000E+00 -0.15445330331E+04  0.15445330331E+04  0.50400001928E-02 0. -1.
    10030    2    1    2    0    0  0.00000000000E+00  0.00000000000E+00  0.10136686982E+02  0.30992027532E+04  0.30991861760E+04 0.  0.
        4    1    3    3  502    0  0.67543136434E+03  0.75735743451E+03  0.11761592816E+04  0.15534317108E+04  0.12699999809E+01 0.  1.
       -4    1    3    3    0  502 -0.67543136434E+03 -0.75735743451E+03 -0.11660225946E+04  0.15457710424E+04  0.12699999809E+01 0. -1.
</event>
<event>
 5   0  0.1830902E-07  0.3101662E+04  0.7818609E-02  0.8215282E-01
        1   -1    0    0  501    0  0.00000000000E+00  0.00000000000E+00  0.22970194777E+04  0.22970194777E+04  0.50400001928E-02 0. -1.
       -1   -1    0    0    0  501  0.00000000000E+00  0.00000000000E+00 -0.10470425200E+04  0.10470425200E+04  0.50400001928E-02 0.  1.
    10030    2    1    2    0    0  0.00000000000E+00  0.00000000000E+00  0.12499769577E+04  0.33440619977E+04  0.31016621753E+04 0.  0.
        3    1    3    3  502    0  0.54532335256E+03  0.65992411439E+03  0.20191846689E+04  0.21931676026E+04  0.10100000352E+00 0. -1.
       -3    1    3    3    0  502 -0.54532335256E+03 -0.65992411439E+03 -0.76920771121E+03  0.11508943951E+04  0.10100000352E+00 0.  1.
</event>
<event>
 5   0  0.1840359E-07  0.3105257E+04  0.7818609E-02  0.8214297E-01
       -1   -1    0    0    0  501  0.00000000000E+00  0.00000000000E+00  0.13989426634E+04  0.13989426634E+04  0.50400001928E-02 0.  1.
        1   -1    0    0  501    0  0.00000000000E+00  0.00000000000E+00 -0.17231982990E+04  0.17231982990E+04  0.50400001928E-02 0. -1.
    10030    2    1    2    0    0  0.00000000000E+00  0.00000000000E+00 -0.32425563560E+03  0.31221409624E+04  0.31052572312E+04 0.  0.
        1    1    3    3  502    0  0.43174634202E+03  0.85293012717E+03  0.10679459076E+04  0.14333189343E+04  0.50400001928E-02 0.  1.
       -1    1    3    3    0  502 -0.43174634202E+03 -0.85293012717E+03 -0.13922015432E+04  0.16888220281E+04  0.50400001928E-02 0. -1.
</event>
<event>
 5   0  0.5055900E-07  0.3102071E+04  0.7818609E-02  0.8215170E-01
       -2   -1    0    0    0  501  0.00000000000E+00  0.00000000000E+00  0.11274369971E+04  0.11274369971E+04  0.25500000920E-02 0.  1.
        2   -1    0    0  501    0  0.00000000000E+00  0.00000000000E+00 -0.21337880416E+04  0.21337880416E+04  0.25500000920E-02 0. -1.
    10030    2    1    2    0    0  0.00000000000E+00  0.00000000000E+00 -0.10063510444E+04  0.32612250387E+04  0.31020712965E+04 0.  0.
        2    1    3    3  502    0 -0.37862054432E+03  0.11760214771E+04  0.48266194786E+03  0.13264021212E+04  0.25500000920E-02 0.  1.
       -2    1    3    3    0  502  0.37862054432E+03 -0.11760214771E+04 -0.14890129923E+04  0.19348229175E+04  0.25500000920E-02 0. -1.
</event>
<event>
 5   0  0.1840359E-07  0.3100124E+04  0.7818609E-02  0.8215704E-01
        1   -1    0    0  501    0  0.00000000000E+00  0.00000000000E+00  0.15496264621E+04  0.15496264621E+04  0.50400001928E-02 0. -1.
       -1   -1    0    0    0  501  0.00000000000E+00  0.00000000000E+00 -0.15504976867E+04  0.15504976867E+04  0.50400001928E-02 0.  1.
    10030    2    1    2    0    0  0.00000000000E+00  0.00000000000E+00 -0.87122459860E+00  0.31001241488E+04  0.31001240263E+04 0.  0.
        1    1    3    3  502    0  0.13574594493E+03 -0.10679239586E+04 -0.11156951336E+04  0.15503754946E+04  0.50400001928E-02 0.  1.
       -1    1    3    3    0  502 -0.13574594493E+03  0.10679239586E+04  0.11148239090E+04  0.15497486542E+04  0.50400001928E-02 0. -1.
</event>
<event>
 5   0  0.1727000E-07  0.3102072E+04  0.7818609E-02  0.8215170E-01
       -4   -1    0    0    0  501  0.00000000000E+00  0.00000000000E+00  0.14535165706E+04  0.14535171254E+04  0.12699999809E+01 0. -1.
        4   -1    0    0  501    0  0.00000000000E+00  0.00000000000E+00 -0.16550969899E+04  0.16550974772E+04  0.12699999809E+01 0.  1.
    10030    2    1    2    0    0  0.00000000000E+00  0.00000000000E+00 -0.20158041935E+03  0.31086146026E+04  0.31020719015E+04 0.  0.
        5    1    3    3  502    0 -0.95730281659E+03  0.32935826756E+03 -0.12783366234E+04  0.16306661718E+04  0.46999998093E+01 0.  1.
       -5    1    3    3    0  502  0.95730281659E+03 -0.32935826756E+03  0.10767562041E+04  0.14779484308E+04  0.46999998093E+01 0. -1.
</event>
<event>
 5   0  0.1875284E-07  0.3095050E+04  0.7818609E-02  0.8217098E-01
        1   -1    0    0  501    0  0.00000000000E+00  0.00000000000E+00  0.11640586359E+04  0.11640586359E+04  0.50400001928E-02 0.  1.
       -1   -1    0    0    0  501  0.00000000000E+00  0.00000000000E+00 -0.20573137911E+04  0.20573137911E+04  0.50400001928E-02 0. -1.
    10030    2    1    2    0    0  0.00000000000E+00  0.00000000000E+00 -0.89325515512E+03  0.32213724270E+04  0.30950501678E+04 0.  0.
        4    1    3    3  502    0 -0.15455541160E+04 -0.47451088271E+02 -0.38210430043E+03  0.15927945381E+04  0.12699999809E+01 0. -1.
       -4    1    3    3    0  502  0.15455541160E+04  0.47451088271E+02 -0.51115085469E+03  0.16285778889E+04  0.12699999809E+01 0.  1.
</event>
<event>
 5   0  0.5154105E-07  0.3066827E+04  0.7818609E-02  0.8224901E-01
       -2   -1    0    0    0  501  0.00000000000E+00  0.00000000000E+00  0.99128268277E+03  0.99128268277E+03  0.25500000920E-02 0.  1.
        2   -1    0    0  501    0  0.00000000000E+00  0.00000000000E+00 -0.23720349780E+04  0.23720349780E+04  0.25500000920E-02 0. -1.
    10030    2    1    2    0    0  0.00000000000E+00  0.00000000000E+00 -0.13807522952E+04  0.33633176608E+04  0.30668271530E+04 0.  0.
        1    1    3    3  502    0  0.34706594541E+03 -0.14877051642E+04 -0.83601451648E+03  0.17414481612E+04  0.50400001928E-02 0.  1.
       -1    1    3    3    0  502 -0.34706594541E+03  0.14877051642E+04 -0.54473777876E+03  0.16218694996E+04  0.50400001928E-02 0. -1.
</event>
<event>
 5   0  0.5342534E-07  0.3098594E+04  0.7818609E-02  0.8216124E-01
       -2   -1    0    0    0  501  0.00000000000E+00  0.00000000000E+00  0.12652134377E+04  0.12652134377E+04  0.25500000920E-02 0.  1.
        2   -1    0    0  501    0  0.00000000000E+00  0.00000000000E+00 -0.18971673155E+04  0.18971673155E+04  0.25500000920E-02 0. -1.
    10030    2    1    2    0    0  0.00000000000E+00  0.00000000000E+00 -0.63195387785E+03  0.31623807532E+04  0.30985942497E+04 0.  0.
        3    1    3    3  502    0 -0.30997234677E+03  0.15104066470E+04 -0.16149898756E+03  0.15503202986E+04  0.10100000352E+00 0.  1.
       -3    1    3    3    0  502  0.30997234677E+03 -0.15104066470E+04 -0.47045489029E+03  0.16120604545E+04  0.10100000352E+00 0. -1.
</event>
<event>
 5   0  0.1845123E-07  0.3054624E+04  0.7818609E-02  0.8228302E-01
        1   -1    0    0  501    0  0.00000000000E+00  0.00000000000E+00  0.23070677582E+04  0.23070677582E+04  0.50400001928E-02 0.  1.
       -1   -1    0    0    0  501  0.00000000000E+00  0.00000000000E+00 -0.10111025201E+04  0.10111025201E+04  0.50400001928E-02 0. -1.
    10030    2    1    2    0    0  0.00000000000E+00  0.00000000000E+00  0.12959652382E+04  0.33181702783E+04  0.30546240517E+04 0.  0.
        2    1    3    3  502    0 -0.62785197403E+03  0.91653831731E+03 -0.49050773533E+03  0.12144292597E+04  0.25500000920E-02 0. -1.
       -2    1    3    3    0  502  0.62785197403E+03 -0.91653831731E+03  0.17864729735E+04  0.21037410186E+04  0.25500000920E-02 0.  1.
</event>
<event>
 5   0  0.1727000E-07  0.3100165E+04  0.7818609E-02  0.8215693E-01
       -3   -1    0    0    0  501  0.00000000000E+00  0.00000000000E+00  0.15112268843E+04  0.15112268876E+04  0.10100000352E+00 0.  1.
        3   -1    0    0  501    0  0.00000000000E+00  0.00000000000E+00 -0.15899375085E+04  0.15899375117E+04  0.10100000352E+00 0. -1.
    10030    2    1    2    0    0  0.00000000000E+00  0.00000000000E+00 -0.78710624217E+02  0.31011643993E+04  0.31001653616E+04 0.  0.
        5    1    3    3  502    0 -0.66273589859E+03  0.94724385062E+03 -0.10722791986E+04  0.15767988310E+04  0.46999998093E+01 0. -1.
       -5    1    3    3    0  502  0.66273589859E+03 -0.94724385062E+03  0.99356857437E+03  0.15243655683E+04  0.46999998093E+01 0.  1.
</event>
<event>
 5   0  0.1814075E-07  0.3100868E+04  0.7818609E-02  0.8215500E-01
       -1   -1    0    0    0  501  0.00000000000E+00  0.00000000000E+00  0.18123565078E+04  0.18123565078E+04  0.50400001928E-02 0. -1.
        1   -1    0    0  501    0  0.00000000000E+00  0.00000000000E+00 -0.13263647421E+04  0.13263647421E+04  0.50400001928E-02 0.  1.
    10030    2    1    2    0    0  0.00000000000E+00  0.00000000000E+00  0.48599176575E+03  0.31387212499E+04  0.31008681185E+04 0.  0.
        5    1    3    3  502    0  0.44577027690E+03 -0.45248413618E+03  0.16746057684E+04  0.17910275271E+04  0.46999998093E+01 0. -1.
       -5    1    3    3    0  502 -0.44577027690E+03  0.45248413618E+03 -0.11886140026E+04  0.13476937228E+04  0.46999998093E+01 0.  1.
</event>
<event>
 5   0  0.5376678E-07  0.3045482E+04  0.7818609E-02  0.8230861E-01
       -2   -1    0    0    0  501  0.00000000000E+00  0.00000000000E+00  0.18061126485E+04  0.18061126485E+04  0.25500000920E-02 0.  1.
        2   -1    0    0  501    0  0.00000000000E+00  0.00000000000E+00 -0.12838295216E+04  0.12838295216E+04  0.25500000920E-02 0. -1.
    10030    2    1    2    0    0  0.00000000000E+00  0.00000000000E+00  0.52228312685E+03  0.30899421701E+04  0.30454823838E+04 0.  0.
        5    1    3    3  502    0  0.13592755407E+04 -0.18081525581E+03  0.93292115467E+03  0.16585198592E+04  0.46999998093E+01 0.  1.
       -5    1    3    3    0  502 -0.13592755407E+04  0.18081525581E+03 -0.41063802782E+03  0.14314223110E+04  0.46999998093E+01 0. -1.
</event>
<event>
 5   0  0.5154105E-07  0.3073151E+04  0.7818609E-02  0.8223145E-01
        2   -1    0    0  501    0  0.00000000000E+00  0.00000000000E+00  0.13776885862E+04  0.13776885862E+04  0.25500000920E-02 0. -1.
       -2   -1    0    0    0  501  0.00000000000E+00  0.00000000000E+00 -0.17137865114E+04  0.17137865114E+04  0.25500000920E-02 0.  1.
    10030    2    1    2    0    0  0.00000000000E+00  0.00000000000E+00 -0.33609792517E+03  0.30914750976E+04  0.30731509016E+04 0.  0.
        1    1    3    3  502    0  0.11088011579E+04 -0.15131417888E+03 -0.12272890272E+04  0.16608956454E+04  0.50400001928E-02 0.  1.
       -1    1    3    3    0  502 -0.11088011579E+04  0.15131417888E+03  0.89119110206E+03  0.14305794522E+04  0.50400001928E-02 0. -1.
</event>
<event>
 5   0  0.1814075E-07  0.3133016E+04  0.7818609E-02  0.8206735E-01
        1   -1    0    0  501    0  0.00000000000E+00  0.00000000000E+00  0.13155142915E+04  0.13155142916E+04  0.50400001928E-02 0. -1.
       -1   -1    0    0    0  501  0.00000000000E+00  0.00000000000E+00 -0.18653899463E+04  0.18653899463E+04  0.50400001928E-02 0.  1.
    10030    2    1    2    0    0  0.00000000000E+00  0.00000000000E+00 -0.54987565471E+03  0.31809042378E+04  0.31330158848E+04 0.  0.
        5    1    3    3  502    0 -0.14369511430E+04  0.29288861105E+03  0.28421858302E+03  0.14937920266E+04  0.46999998093E+01 0. -1.
       -5    1    3    3    0  502  0.14369511430E+04 -0.29288861105E+03 -0.83409423773E+03  0.16871122112E+04  0.46999998093E+01 0.  1.
</event>
<event>
 5   0  0.1875284E-07  0.3104966E+04  0.7818609E-02  0.8214376E-01
        1   -1    0    0  501    0  0.00000000000E+00  0.00000000000E+00  0.11479596743E+04  0.11479596743E+04  0.50400001928E-02 0.  1.
       -1   -1    0    0    0  501  0.00000000000E+00  0.00000000000E+00 -0.20995540113E+04  0.20995540113E+04  0.50400001928E-02 0. -1.
    10030    2    1    2    0    0  0.00000000000E+00  0.00000000000E+00 -0.95159433699E+03  0.32475136856E+04  0.31049659186E+04 0.  0.
        4    1    3    3  502    0 -0.10999986785E+04  0.12214222515E+03 -0.16144877103E+04  0.19574187072E+04  0.12699999809E+01 0. -1.
       -4    1    3    3    0  502  0.10999986785E+04 -0.12214222515E+03  0.66289337329E+03  0.12900949784E+04  0.12699999809E+01 0.  1.
</event>
<event>
 5   0  0.5248309E-07  0.3097400E+04  0.7818609E-02  0.8216452E-01
        2   -1    0    0  501    0  0.00000000000E+00  0.00000000000E+00  0.19801762770E+04  0.19801762770E+04  0.25500000920E-02 0.  1.
       -2   -1    0    0    0  501  0.00000000000E+00  0.00000000000E+00 -0.12112416725E+04  0.12112416725E+04  0.25500000920E-02 0. -1.
    10030    2    1    2    0    0  0.00000000000E+00  0.00000000000E+00  0.76893460448E+03  0.31914179496E+04  0.30974002168E+04 0.  0.
        4    1    3    3  502    0 -0.73645505291E+02  0.59356166481E+03  0.18563705784E+04  0.19503467506E+04  0.12699999809E+01 0.  1.
       -4    1    3    3    0  502  0.73645505291E+02 -0.59356166481E+03 -0.10874359740E+04  0.12410711989E+04  0.12699999809E+01 0. -1.
</event>
<event>
 5   0  0.5154105E-07  0.3082571E+04  0.7818609E-02  0.8220537E-01
        2   -1    0    0  501    0  0.00000000000E+00  0.00000000000E+00  0.12670675265E+04  0.12670675265E+04  0.25500000920E-02 0.  1.
       -2   -1    0    0    0  501  0.00000000000E+00  0.00000000000E+00 -0.18748500038E+04  0.18748500038E+04  0.25500000920E-02 0. -1.
    10030    2    1    2    0    0  0.00000000000E+00  0.00000000000E+00 -0.60778247733E+03  0.31419175303E+04  0.30825713662E+04 0.  0.
        1    1    3    3  502    0 -0.11160909510E+04  0.71447637722E+02 -0.13848742456E+04  0.17800675414E+04  0.50400001928E-02 0. -1.
       -1    1    3    3    0  502  0.11160909510E+04 -0.71447637722E+02  0.77709176824E+03  0.13618499889E+04  0.50400001928E-02 0.  1.
</event>
<event>
 5   0  0.5376678E-07  0.3102593E+04  0.7818609E-02  0.8215027E-01
        2   -1    0    0  501    0  0.00000000000E+00  0.00000000000E+00  0.14568356445E+04  0.14568356445E+04  0.25500000920E-02 0. -1.
       -2   -1    0    0    0  501  0.00000000000E+00  0.00000000000E+00 -0.16518818390E+04  0.16518818390E+04  0.25500000920E-02 0.  1.
    10030    2    1    2    0    0  0.00000000000E+00  0.00000000000E+00 -0.19504619450E+03  0.31087174835E+04  0.31025926858E+04 0.  0.
        5    1    3    3  502    0 -0.87266592158E+03 -0.12807106723E+04 -0.16645292029E+03  0.15586835155E+04  0.46999998093E+01 0.  1.
       -5    1    3    3    0  502  0.87266592158E+03  0.12807106723E+04 -0.28593274206E+02  0.15500339680E+04  0.46999998093E+01 0. -1.
</event>
<event>
 5   0  0.5376678E-07  0.3103246E+04  0.7818609E-02  0.8214848E-01
       -2   -1    0    0    0  501  0.00000000000E+00  0.00000000000E+00  0.68390862672E+03  0.68390862672E+03  0.25500000920E-02 0. -1.
        2   -1    0    0  501    0  0.00000000000E+00  0.00000000000E+00 -0.35202571105E+04  0.35202571105E+04  0.25500000920E-02 0.  1.
    10030    2    1    2    0    0  0.00000000000E+00  0.00000000000E+00 -0.28363484838E+04  0.42041657373E+04  0.31032461753E+04 0.  0.
        5    1    3    3  502    0  0.13466699420E+04 -0.77065931325E+03 -0.14063321548E+04  0.20940935818E+04  0.46999998093E+01 0.  1.
       -5    1    3    3    0  502 -0.13466699420E+04  0.77065931325E+03 -0.14300163290E+04  0.21100721554E+04  0.46999998093E+01 0. -1.
</event>
<event>
 5   0  0.5376678E-07  0.3099590E+04  0.7818609E-02  0.8215850E-01
        2   -1    0    0  501    0  0.00000000000E+00  0.00000000000E+00  0.20548995760E+04  0.20548995760E+04  0.25500000920E-02 0. -1.
       -2   -1    0    0    0  501  0.00000000000E+00  0.00000000000E+00 -0.11688478240E+04  0.11688478240E+04  0.25500000920E-02 0.  1.
    10030    2    1    2    0    0  0.00000000000E+00  0.00000000000E+00  0.88605175193E+03  0.32237474000E+04  0.30995902297E+04 0.  0.
        5    1    3    3  502    0  0.66559152658E+03  0.34860361820E+03 -0.96674163334E+03  0.12243970102E+04  0.46999998093E+01 0.  1.
       -5    1    3    3    0  502 -0.66559152658E+03 -0.34860361820E+03  0.18527933853E+04  0.19993503898E+04  0.46999998093E+01 0. -1.
</event>
<event>
 5   0  0.1814075E-07  0.3113310E+04  0.7818609E-02  0.8212095E-01
       -1   -1    0    0    0  501  0.00000000000E+00  0.00000000000E+00  0.76981922044E+03  0.76981922046E+03  0.50400001928E-02 0. -1.
        1   -1    0    0  501    0  0.00000000000E+00  0.00000000000E+00 -0.31477196122E+04  0.31477196122E+04  0.50400001928E-02 0.  1.
    10030    2    1    2    0    0  0.00000000000E+00  0.00000000000E+00 -0.23779003918E+04  0.39175388327E+04  0.31133101728E+04 0.  0.
        5    1    3    3  502    0 -0.10804567241E+04 -0.88675979983E+03 -0.20510811475E+04  0.24820728513E+04  0.46999998093E+01 0.  1.
       -5    1    3    3    0  502  0.10804567241E+04  0.88675979983E+03 -0.32681924426E+03  0.14354659814E+04  0.46999998093E+01 0. -1.
</event>
<event>
 5   0  0.5154105E-07  0.3096828E+04  0.7818609E-02  0.8216609E-01
       -2   -1    0    0    0  501  0.00000000000E+00  0.00000000000E+00  0.16279209319E+04  0.16279209319E+04  0.25500000920E-02 0. -1.
        2   -1    0    0  501    0  0.00000000000E+00  0.00000000000E+00 -0.14727897301E+04  0.14727897301E+04  0.25500000920E-02 0.  1.
    10030    2    1    2    0    0  0.00000000000E+00  0.00000000000E+00  0.15513120177E+03  0.31007106620E+04  0.30968275573E+04 0.  0.
        1    1    3    3  502    0 -0.11224146610E+03  0.51603359085E+02  0.16229789124E+04  0.16276736784E+04  0.50400001928E-02 0. -1.
       -1    1    3    3    0  502  0.11224146610E+03 -0.51603359085E+02 -0.14678477106E+04  0.14730369836E+04  0.50400001928E-02 0.  1.
</event>
<event>
 5   0  0.1845123E-07  0.3157416E+04  0.7818609E-02  0.8200155E-01
       -1   -1    0    0    0  501  0.00000000000E+00  0.00000000000E+00  0.95081346542E+03  0.95081346543E+03  0.50400001928E-02 0. -1.
        1   -1    0    0  501    0  0.00000000000E+00  0.00000000000E+00 -0.26212498541E+04  0.26212498541E+04  0.50400001928E-02 0.  1.
    10030    2    1    2    0    0  0.00000000000E+00  0.00000000000E+00 -0.16704363887E+04  0.35720633196E+04  0.31574164487E+04 0.  0.
        2    1    3    3  502    0  0.44107045131E+03  0.60536632451E+02 -0.25487594848E+04  0.25873505248E+04  0.25500000920E-02 0.  1.
       -2    1    3    3    0  502 -0.44107045131E+03 -0.60536632451E+02  0.87832309613E+03  0.98471279472E+03  0.25500000920E-02 0. -1.
</event>
<event>
 5   0  0.1845123E-07  0.3096567E+04  0.7818609E-02  0.8216681E-01
        1   -1    0    0  501    0  0.00000000000E+00  0.00000000000E+00  0.25429637766E+04  0.25429637766E+04  0.50400001928E-02 0.  1.
       -1   -1    0    0    0  501  0.00000000000E+00  0.00000000000E+00 -0.94267263875E+03  0.94267263876E+03  0.50400001928E-02 0. -1.
    10030    2    1    2    0    0  0.00000000000E+00  0.00000000000E+00  0.16002911378E+04  0.34856364153E+04  0.30965673728E+04 0.  0.
        2    1    3    3  502    0 -0.13319256451E+04 -0.71124077741E+03  0.11856573096E+04  0.19198105697E+04  0.25500000920E-02 0.  1.
       -2    1    3    3    0  502  0.13319256451E+04  0.71124077741E+03  0.41463382819E+03  0.15658258457E+04  0.25500000920E-02 0. -1.
</event>
<event>
 5   0  0.1830902E-07  0.3101174E+04  0.7818609E-02  0.8215416E-01
        1   -1    0    0  501    0  0.00000000000E+00  0.00000000000E+00  0.95039362044E+03  0.95039362045E+03  0.50400001928E-02 0.  1.
       -1   -1    0    0    0  501  0.00000000000E+00  0.00000000000E+00 -0.25298155653E+04  0.25298155653E+04  0.50400001928E-02 0. -1.
    10030    2    1    2    0    0  0.00000000000E+00  0.00000000000E+00 -0.15794219449E+04  0.34802091858E+04  0.31011743416E+04 0.  0.
        3    1    3    3  502    0  0.13220264491E+04  0.16580370268E+03 -0.16797942540E+04  0.21440507331E+04  0.10100000352E+00 0. -1.
       -3    1    3    3    0  502 -0.13220264491E+04 -0.16580370268E+03  0.10037230914E+03  0.13361584527E+04  0.10100000352E+00 0.  1.
</event>
<event>
 5   0  0.5154105E-07  0.3082017E+04  0.7818609E-02  0.8220691E-01
        2   -1    0    0  501    0  0.00000000000E+00  0.00000000000E+00  0.19549224026E+04  0.19549224026E+04  0.25500000920E-02 0. -1.
       -2   -1    0    0    0  501  0.00000000000E+00  0.00000000000E+00 -0.12147320625E+04  0.12147320625E+04  0.25500000920E-02 0.  1.
    10030    2    1    2    0    0  0.00000000000E+00  0.00000000000E+00  0.74019034009E+03  0.31696544650E+04  0.30820168215E+04 0.  0.
        1    1    3    3  502    0  0.26734224351E+03  0.14794796968E+04  0.71790530247E+03  0.16660492405E+04  0.50400001928E-02 0. -1.
       -1    1    3    3    0  502 -0.26734224351E+03 -0.14794796968E+04  0.22285037627E+02  0.15036052246E+04  0.50400001928E-02 0.  1.
</event>
<event>
 5   0  0.1875284E-07  0.3100411E+04  0.7818609E-02  0.8215625E-01
        1   -1    0    0  501    0  0.00000000000E+00  0.00000000000E+00  0.22138646329E+04  0.22138646329E+04  0.50400001928E-02 0.  1.
       -1   -1    0    0    0  501  0.00000000000E+00  0.00000000000E+00 -0.10854938723E+04  0.10854938724E+04  0.50400001928E-02 0. -1.
    10030    2    1    2    0    0  0.00000000000E+00  0.00000000000E+00  0.11283707606E+04  0.32993585053E+04  0.31004106136E+04 0.  0.
        4    1    3    3  502    0  0.83071228455E+03  0.85519137644E+03  0.16185713546E+04  0.20102761086E+04  0.12699999809E+01 0.  1.
       -4    1    3    3    0  502 -0.83071228455E+03 -0.85519137644E+03 -0.49020059405E+03  0.12890823966E+04  0.12699999809E+01 0. -1.
</event>
<event>
 5   0  0.1875284E-07  0.3104264E+04  0.7818609E-02  0.8214569E-01
        1   -1    0    0  501    0  0.00000000000E+00  0.00000000000E+00  0.12067550104E+04  0.12067550104E+04  0.50400001928E-02 0. -1.
       -1   -1    0    0    0  501  0.00000000000E+00  0.00000000000E+00 -0.19963565051E+04  0.19963565051E+04  0.50400001928E-02 0.  1.
    10030    2    1    2    0    0  0.00000000000E+00  0.00000000000E+00 -0.78960149472E+03  0.32031115156E+04  0.31042636584E+04 0.  0.
        4    1    3    3  502    0 -0.11834424258E+04 -0.28454075946E+03  0.59899396156E+03  0.13565746562E+04  0.12699999809E+01 0. -1.
       -4    1    3    3    0  502  0.11834424258E+04  0.28454075946E+03 -0.13885954563E+04  0.18465368594E+04  0.12699999809E+01 0.  1.
</event>
<event>
 5   0  0.1814075E-07  0.3107895E+04  0.7818609E-02  0.8213575E-01
        1   -1    0    0  501    0  0.00000000000E+00  0.00000000000E+00  0.19167372456E+04  0.19167372456E+04  0.50400001928E-02 0. -1.
       -1   -1    0    0    0  501  0.00000000000E+00  0.00000000000E+00 -0.12598244856E+04  0.12598244856E+04  0.50400001928E-02 0.  1.
    10030    2    1    2    0    0  0.00000000000E+00  0.00000000000E+00  0.65691276002E+03  0.31765617313E+04  0.31078947952E+04 0.  0.
        5    1    3    3  502    0 -0.18382193988E+02  0.42684665051E+03  0.18555195505E+04  0.19040774303E+04  0.46999998093E+01 0. -1.
       -5    1    3    3    0  502  0.18382193988E+02 -0.42684665051E+03 -0.11986067905E+04  0.12724843010E+04  0.46999998093E+01 0.  1.
</event>
<event>
 5   0  0.5055900E-07  0.3101043E+04  0.7818609E-02  0.8215452E-01
       -2   -1    0    0    0  501  0.00000000000E+00  0.00000000000E+00  0.11735788001E+04  0.11735788001E+04  0.25500000920E-02 0. -1.
        2   -1    0    0  501    0  0.00000000000E+00  0.00000000000E+00 -0.20485345945E+04  0.20485345946E+04  0.25500000920E-02 0.  1.
    10030    2    1    2    0    0  0.00000000000E+00  0.00000000000E+00 -0.87495579440E+03  0.32221133947E+04  0.31010429030E+04 0.  0.
        2    1    3    3  502    0 -0.41816830197E+03  0.12454900414E+04  0.41808118549E+03  0.13787320442E+04  0.25500000920E-02 0. -1.
       -2    1    3    3    0  502  0.41816830197E+03 -0.12454900414E+04 -0.12930369799E+04  0.18433813505E+04  0.25500000920E-02 0.  1.
</event>
<event>
 5   0  0.5248309E-07  0.3095267E+04  0.7818609E-02  0.8217038E-01
        2   -1    0    0  501    0  0.00000000000E+00  0.00000000000E+00  0.11650003798E+04  0.11650003798E+04  0.25500000920E-02 0. -1.
       -2   -1    0    0    0  501  0.00000000000E+00  0.00000000000E+00 -0.20559394200E+04  0.20559394200E+04  0.25500000920E-02 0.  1.
    10030    2    1    2    0    0  0.00000000000E+00  0.00000000000E+00 -0.89093904025E+03  0.32209397998E+04  0.30952674877E+04 0.  0.
        4    1    3    3  502    0  0.14978723924E+04 -0.23309814132E+03 -0.12102183146E+03  0.15207249403E+04  0.12699999809E+01 0. -1.
       -4    1    3    3    0  502 -0.14978723924E+04  0.23309814132E+03 -0.76991720879E+03  0.17002148595E+04  0.12699999809E+01 0.  1.
</event>
<event>
 5   0  0.5376678E-07  0.3100937E+04  0.7818609E-02  0.8215481E-01
        2   -1    0    0  501    0  0.00000000000E+00  0.00000000000E+00  0.19629528673E+04  0.19629528673E+04  0.25500000920E-02 0. -1.
       -2   -1    0    0    0  501  0.00000000000E+00  0.00000000000E+00 -0.12246613038E+04  0.12246613038E+04  0.25500000920E-02 0.  1.
    10030    2    1    2    0    0  0.00000000000E+00  0.00000000000E+00  0.73829156349E+03  0.31876141711E+04  0.31009369022E+04 0.  0.
        5    1    3    3  502    0 -0.52837709012E+03  0.11182327028E+04 -0.59203250870E+03  0.13711860955E+04  0.46999998093E+01 0.  1.
       -5    1    3    3    0  502  0.52837709012E+03 -0.11182327028E+04  0.13303240722E+04  0.18164280757E+04  0.46999998093E+01 0. -1.
</event>
<event>
 5   0  0.5342534E-07  0.3096125E+04  0.7818609E-02  0.8216802E-01
       -2   -1    0    0    0  501  0.00000000000E+00  0.00000000000E+00  0.90240281719E+03  0.90240281719E+03  0.25500000920E-02 0.  1.
        2   -1    0    0  501    0  0.00000000000E+00  0.00000000000E+00 -0.26556843069E+04  0.26556843069E+04  0.25500000920E-02 0. -1.
    10030    2    1    2    0    0  0.00000000000E+00  0.00000000000E+00 -0.17532814897E+04  0.35580871241E+04  0.30961246746E+04 0.  0.
        3    1    3    3  502    0 -0.14916546289E+04  0.37203396075E+03 -0.10855758409E+04  0.18819983306E+04  0.10100000352E+00 0. -1.
       -3    1    3    3    0  502  0.14916546289E+04 -0.37203396075E+03 -0.66770564883E+03  0.16760887935E+04  0.10100000352E+00 0.  1.
</event>
<event>
 5   0  0.5376678E-07  0.3099496E+04  0.7818609E-02  0.8215876E-01
       -2   -1    0    0    0  501  0.00000000000E+00  0.00000000000E+00  0.15329896069E+04  0.15329896069E+04  0.25500000920E-02 0.  1.
        2   -1    0    0  501    0  0.00000000000E+00  0.00000000000E+00 -0.15666898057E+04  0.15666898057E+04  0.25500000920E-02 0. -1.
    10030    2    1    2    0    0  0.00000000000E+00  0.00000000000E+00 -0.33700198768E+02  0.30996794126E+04  0.30994962103E+04 0.  0.
        5    1    3    3  502    0  0.70982086743E+03 -0.13589583960E+04  0.20917988216E+03  0.15473822730E+04  0.46999998093E+01 0.  1.
       -5    1    3    3    0  502 -0.70982086743E+03  0.13589583960E+04 -0.24288008093E+03  0.15522971396E+04  0.46999998093E+01 0. -1.
</event>
<event>
 5   0  0.5055900E-07  0.3097850E+04  0.7818609E-02  0.8216328E-01
        2   -1    0    0  501    0  0.00000000000E+00  0.00000000000E+00  0.10705741576E+04  0.10705741576E+04  0.25500000920E-02 0.  1.
       -2   -1    0    0    0  501  0.00000000000E+00  0.00000000000E+00 -0.22410107611E+04  0.22410107611E+04  0.25500000920E-02 0. -1.
    10030    2    1    2    0    0  0.00000000000E+00  0.00000000000E+00 -0.11704366035E+04  0.33115849187E+04  0.30978497108E+04 0.  0.
        2    1    3    3  502    0  0.14336202800E+03 -0.26020329097E+03  0.10398328925E+04  0.10814392577E+04  0.25500000920E-02 0.  1.
       -2    1    3    3    0  502 -0.14336202800E+03  0.26020329097E+03 -0.22102694961E+04  0.22301456609E+04  0.25500000920E-02 0. -1.
</event>
<event>
 5   0  0.1840359E-07  0.3097472E+04  0.7818609E-02  0.8216432E-01
        1   -1    0    0  501    0  0.00000000000E+00  0.00000000000E+00  0.20961912289E+04  0.20961912289E+04  0.50400001928E-02 0. -1.
       -1   -1    0    0    0  501  0.00000000000E+00  0.00000000000E+00 -0.11442580597E+04  0.11442580597E+04  0.50400001928E-02 0.  1.
    10030    2    1    2    0    0  0.00000000000E+00  0.00000000000E+00  0.95193316921E+03  0.32404492887E+04  0.30974723298E+04 0.  0.
        1    1    3    3  502    0 -0.51615400613E+03  0.78021905850E+03 -0.81527829994E+03  0.12409010612E+04  0.50400001928E-02 0.  1.
       -1    1    3    3    0  502  0.51615400613E+03 -0.78021905850E+03  0.17672114692E+04  0.19995482275E+04  0.50400001928E-02 0. -1.
</event>
<event>
 5   0  0.1875284E-07  0.3062094E+04  0.7818609E-02  0.8226219E-01
        1   -1    0    0  501    0  0.00000000000E+00  0.00000000000E+00  0.17027427700E+04  0.17027427701E+04  0.50400001928E-02 0. -1.
       -1   -1    0    0    0  501  0.00000000000E+00  0.00000000000E+00 -0.13766640067E+04  0.13766640067E+04  0.50400001928E-02 0.  1.
    10030    2    1    2    0    0  0.00000000000E+00  0.00000000000E+00  0.32607876335E+03  0.30794067768E+04  0.30620938485E+04 0.  0.
        4    1    3    3  502    0  0.62253024709E+03  0.96969823697E+03 -0.85074983280E+03  0.14323531234E+04  0.12699999809E+01 0.  1.
       -4    1    3    3    0  502 -0.62253024709E+03 -0.96969823697E+03  0.11768285962E+04  0.16470536533E+04  0.12699999809E+01 0. -1.
</event>
<event>
 5   0  0.5248309E-07  0.3102293E+04  0.7818609E-02  0.8215109E-01
        2   -1    0    0  501    0  0.00000000000E+00  0.00000000000E+00  0.29481818544E+04  0.29481818544E+04  0.25500000920E-02 0.  1.
       -2   -1    0    0    0  501  0.00000000000E+00  0.00000000000E+00 -0.81611496378E+03  0.81611496379E+03  0.25500000920E-02 0. -1.
    10030    2    1    2    0    0  0.00000000000E+00  0.00000000000E+00  0.21320668907E+04  0.37642968182E+04  0.31022929116E+04 0.  0.
        4    1    3    3  502    0 -0.55858259632E+03 -0.67976164219E+03 -0.48405420088E+03  0.10041914605E+04  0.12699999809E+01 0. -1.
       -4    1    3    3    0  502  0.55858259632E+03  0.67976164219E+03  0.26161210915E+04  0.27601053577E+04  0.12699999809E+01 0.  1.
</event>
<event>
 5   0  0.5248309E-07  0.3113220E+04  0.7818609E-02  0.8212119E-01
       -2   -1    0    0    0  501  0.00000000000E+00  0.00000000000E+00  0.16478235718E+04  0.16478235718E+04  0.25500000920E-02 0. -1.
        2   -1    0    0  501    0  0.00000000000E+00  0.00000000000E+00 -0.14704452746E+04  0.14704452746E+04  0.25500000920E-02 0.  1.
    10030    2    1    2    0    0  0.00000000000E+00  0.00000000000E+00  0.17737829727E+03  0.31182688464E+04  0.31132198024E+04 0.  0.
        4    1    3    3  502    0  0.10163789590E+04  0.11638725311E+04 -0.99784338499E+02  0.15484133764E+04  0.12699999809E+01 0.  1.
       -4    1    3    3    0  502 -0.10163789590E+04 -0.11638725311E+04  0.27716263576E+03  0.15698554700E+04  0.12699999809E+01 0. -1.
</event>
<event>
 5   0  0.1845123E-07  0.3098541E+04  0.7818609E-02  0.8216138E-01
        1   -1    0    0  501    0  0.00000000000E+00  0.00000000000E+00  0.12051220434E+04  0.12051220434E+04  0.50400001928E-02 0. -1.
       -1   -1    0    0    0  501  0.00000000000E+00  0.00000000000E+00 -0.19916976690E+04  0.19916976690E+04  0.50400001928E-02 0.  1.
    10030    2    1    2    0    0  0.00000000000E+00  0.00000000000E+00 -0.78657562560E+03  0.31968197123E+04  0.30985407950E+04 0.  0.
        2    1    3    3  502    0 -0.31013231959E+02 -0.13676877941E+04  0.35689735549E+03  0.14138272331E+04  0.25500000920E-02 0. -1.
       -2    1    3    3    0  502  0.31013231959E+02  0.13676877941E+04 -0.11434729811E+04  0.17829924793E+04  0.25500000920E-02 0.  1.
</event>
<event>
 5   0  0.1845123E-07  0.3098489E+04  0.7818609E-02  0.8216153E-01
       -1   -1    0    0    0  501  0.00000000000E+00  0.00000000000E+00  0.73322797411E+03  0.73322797412E+03  0.50400001928E-02 0.  1.
        1   -1    0    0  501    0  0.00000000000E+00  0.00000000000E+00 -0.32734130549E+04  0.32734130549E+04  0.50400001928E-02 0. -1.
    10030    2    1    2    0    0  0.00000000000E+00  0.00000000000E+00 -0.25401850808E+04  0.40066410290E+04  0.30984886785E+04 0.  0.
        2    1    3    3  502    0  0.21372893744E+03 -0.74357885903E+03  0.46553248527E+03  0.90294522157E+03  0.25500000920E-02 0.  1.
       -2    1    3    3    0  502 -0.21372893744E+03  0.74357885903E+03 -0.30057175661E+04  0.31036958075E+04  0.25500000920E-02 0. -1.
</event>
<event>
 5   0  0.5055900E-07  0.3086955E+04  0.7818609E-02  0.8219327E-01
        2   -1    0    0  501    0  0.00000000000E+00  0.00000000000E+00  0.16298301664E+04  0.16298301664E+04  0.25500000920E-02 0. -1.
       -2   -1    0    0    0  501  0.00000000000E+00  0.00000000000E+00 -0.14616995922E+04  0.14616995922E+04  0.25500000920E-02 0.  1.
    10030    2    1    2    0    0  0.00000000000E+00  0.00000000000E+00  0.16813057414E+03  0.30915297586E+04  0.30869545443E+04 0.  0.
        2    1    3    3  502    0  0.74609176350E+03 -0.87761521092E+03  0.11129441203E+04  0.16017196986E+04  0.25500000920E-02 0. -1.
       -2    1    3    3    0  502 -0.74609176350E+03  0.87761521092E+03 -0.94481354613E+03  0.14898100600E+04  0.25500000920E-02 0.  1.
</event>
<event>
 5   0  0.5342534E-07  0.3095182E+04  0.7818609E-02  0.8217061E-01
        2   -1    0    0  501    0  0.00000000000E+00  0.00000000000E+00  0.16565869409E+04  0.16565869409E+04  0.25500000920E-02 0.  1.
       -2   -1    0    0    0  501  0.00000000000E+00  0.00000000000E+00 -0.14457663030E+04  0.14457663030E+04  0.25500000920E-02 0. -1.
    10030    2    1    2    0    0  0.00000000000E+00  0.00000000000E+00  0.21082063790E+03  0.31023532440E+04  0.30951817893E+04 0.  0.
        3    1    3    3  502    0 -0.47881990287E+03 -0.31447293110E+03  0.15464046745E+04  0.16490994971E+04  0.10100000352E+00 0.  1.
       -3    1    3    3    0  502  0.47881990287E+03  0.31447293110E+03 -0.13355840366E+04  0.14532537469E+04  0.10100000352E+00 0. -1.
</event>
<event>
 5   0  0.5055900E-07  0.3101612E+04  0.7818609E-02  0.8215296E-01
        2   -1    0    0  501    0  0.00000000000E+00  0.00000000000E+00  0.18543729477E+04  0.18543729477E+04  0.25500000920E-02 0. -1.
       -2   -1    0    0    0  501  0.00000000000E+00  0.00000000000E+00 -0.12969335873E+04  0.12969335873E+04  0.25500000920E-02 0.  1.
    10030    2    1    2    0    0  0.00000000000E+00  0.00000000000E+00  0.55743936040E+03  0.31513065351E+04  0.31016115549E+04 0.  0.
        2    1    3    3  502    0  0.60426598593E+03 -0.48452858004E+03  0.16437838365E+04  0.18171215226E+04  0.25500000920E-02 0. -1.
       -2    1    3    3    0  502 -0.60426598593E+03  0.48452858004E+03 -0.10863444761E+04  0.13341850125E+04  0.25500000920E-02 0.  1.
</event>
<event>
 5   0  0.5154105E-07  0.3118509E+04  0.7818609E-02  0.8210676E-01
       -2   -1    0    0    0  501  0.00000000000E+00  0.00000000000E+00  0.12120478204E+04  0.12120478204E+04  0.25500000920E-02 0. -1.
        2   -1    0    0  501    0  0.00000000000E+00  0.00000000000E+00 -0.20059235371E+04  0.20059235371E+04  0.25500000920E-02 0.  1.
    10030    2    1    2    0    0  0.00000000000E+00  0.00000000000E+00 -0.79387571670E+03  0.32179713575E+04  0.31185094203E+04 0.  0.
        1    1    3    3  502    0  0.99748906434E+03  0.88739297153E+03 -0.12281248636E+04  0.18140400768E+04  0.50400001928E-02 0.  1.
       -1    1    3    3    0  502 -0.99748906434E+03 -0.88739297153E+03  0.43424914695E+03  0.14039312807E+04  0.50400001928E-02 0. -1.
</event>
<event>
 5   0  0.1830902E-07  0.3100398E+04  0.7818609E-02  0.8215629E-01
       -1   -1    0    0    0  501  0.00000000000E+00  0.00000000000E+00  0.18317259026E+04  0.18317259026E+04  0.50400001928E-02 0.  1.
        1   -1    0    0  501    0  0.00000000000E+00  0.00000000000E+00 -0.13119416176E+04  0.13119416176E+04  0.50400001928E-02 0. -1.
    10030    2    1    2    0    0  0.00000000000E+00  0.00000000000E+00  0.51978428501E+03  0.31436675202E+04  0.31003983252E+04 0.  0.
        3    1    3    3  502    0 -0.61802968836E+03 -0.10510605857E+04 -0.71077064459E+03  0.14113411954E+04  0.10100000352E+00 0. -1.
       -3    1    3    3    0  502  0.61802968836E+03  0.10510605857E+04  0.12305549296E+04  0.17323263248E+04  0.10100000352E+00 0.  1.
</event>
<event>
 5   0  0.5376678E-07  0.3096001E+04  0.7818609E-02  0.8216836E-01
        2   -1    0    0  501    0  0.00000000000E+00  0.00000000000E+00  0.14637050950E+04  0.14637050950E+04  0.25500000920E-02 0.  1.
       -2   -1    0    0    0  501  0.00000000000E+00  0.00000000000E+00 -0.16371508518E+04  0.16371508518E+04  0.25500000920E-02 0. -1.
    10030    2    1    2    0    0  0.00000000000E+00  0.00000000000E+00 -0.17344575687E+03  0.31008559468E+04  0.30960013198E+04 0.  0.
        5    1    3    3  502    0 -0.46673202716E+03  0.34409051867E+03  0.13508140372E+04  0.14700196337E+04  0.46999998093E+01 0.  1.
       -5    1    3    3    0  502  0.46673202716E+03 -0.34409051867E+03 -0.15242597941E+04  0.16308363131E+04  0.46999998093E+01 0. -1.
</event>
<event>
 5   0  0.5248309E-07  0.3099493E+04  0.7818609E-02  0.8215877E-01
        2   -1    0    0  501    0  0.00000000000E+00  0.00000000000E+00  0.16103887519E+04  0.16103887519E+04  0.25500000920E-02 0.  1.
       -2   -1    0    0    0  501  0.00000000000E+00  0.00000000000E+00 -0.14913881372E+04  0.14913881372E+04  0.25500000920E-02 0. -1.
    10030    2    1    2    0    0  0.00000000000E+00  0.00000000000E+00  0.11900061465E+03  0.31017768891E+04  0.30994933011E+04 0.  0.
        4    1    3    3  502    0  0.58090648790E+03  0.62023886880E+03  0.13564352537E+04  0.16006457486E+04  0.12699999809E+01 0.  1.
       -4    1    3    3    0  502 -0.58090648790E+03 -0.62023886880E+03 -0.12374346391E+04  0.15011311405E+04  0.12699999809E+01 0. -1.
</event>
<event>
 5   0  0.5055900E-07  0.3102016E+04  0.7818609E-02  0.8215185E-01
       -2   -1    0    0    0  501  0.00000000000E+00  0.00000000000E+00  0.10303526552E+04  0.10303526552E+04  0.25500000920E-02 0. -1.
        2   -1    0    0  501    0  0.00000000000E+00  0.00000000000E+00 -0.23347598113E+04  0.23347598113E+04  0.25500000920E-02 0.  1.
    10030    2    1    2    0    0  0.00000000000E+00  0.00000000000E+00 -0.13044071560E+04  0.33651124665E+04  0.31020160998E+04 0.  0.
        2    1    3    3  502    0  0.12941092607E+03  0.64341690774E+03 -0.21767033805E+04  0.22734929320E+04  0.25500000920E-02 0.  1.
       -2    1    3    3    0  502 -0.12941092607E+03 -0.64341690774E+03  0.87229622447E+03  0.10916195345E+04  0.25500000920E-02 0. -1.
</event>
<event>
 5   0  0.1830902E-07  0.3064564E+04  0.7818609E-02  0.8225531E-01
        1   -1    0    0  501    0  0.00000000000E+00  0.00000000000E+00  0.10526584577E+04  0.10526584577E+04  0.50400001928E-02 0.  1.
       -1   -1    0    0    0  501  0.00000000000E+00  0.00000000000E+00 -0.22304369765E+04  0.22304369765E+04  0.50400001928E-02 0. -1.
    10030    2    1    2    0    0  0.00000000000E+00  0.00000000000E+00 -0.11777785188E+04  0.32830954342E+04  0.30645641437E+04 0.  0.
        3    1    3    3  502    0  0.12499934135E+04 -0.54236177662E+03  0.16198188158E+03  0.13721800067E+04  0.10100000352E+00 0.  1.
       -3    1    3    3    0  502 -0.12499934135E+04  0.54236177662E+03 -0.13397604004E+04  0.19109154275E+04  0.10100000352E+00 0. -1.
</event>
<event>
 5   0  0.1814075E-07  0.3099355E+04  0.7818609E-02  0.8215915E-01
       -1   -1    0    0    0  501  0.00000000000E+00  0.00000000000E+00  0.14033573795E+04  0.14033573795E+04  0.50400001928E-02 0.  1.
        1   -1    0    0  501    0  0.00000000000E+00  0.00000000000E+00 -0.17112536402E+04  0.17112536403E+04  0.50400001928E-02 0. -1.
    10030    2    1    2    0    0  0.00000000000E+00  0.00000000000E+00 -0.30789626072E+03  0.31146110198E+04  0.30993550454E+04 0.  0.
        5    1    3    3  502    0  0.69499266369E+03 -0.32138355189E+03 -0.15078646085E+04  0.16911475269E+04  0.46999998093E+01 0. -1.
       -5    1    3    3    0  502 -0.69499266369E+03  0.32138355189E+03  0.11999683478E+04  0.14234634929E+04  0.46999998093E+01 0.  1.
</event>
<event>
 5   0  0.5154105E-07  0.3109546E+04  0.7818609E-02  0.8213123E-01
       -2   -1    0    0    0  501  0.00000000000E+00  0.00000000000E+00  0.14647171693E+04  0.14647171693E+04  0.25500000920E-02 0. -1.
        2   -1    0    0  501    0  0.00000000000E+00  0.00000000000E+00 -0.16503657383E+04  0.16503657383E+04  0.25500000920E-02 0.  1.
    10030    2    1    2    0    0  0.00000000000E+00  0.00000000000E+00 -0.18564856900E+03  0.31150829075E+04  0.31095459684E+04 0.  0.
        1    1    3    3  502    0  0.65760135031E+03  0.50240555248E+03  0.12257519957E+04  0.14789586979E+04  0.50400001928E-02 0. -1.
       -1    1    3    3    0  502 -0.65760135031E+03 -0.50240555248E+03 -0.14114005647E+04  0.16361242096E+04  0.50400001928E-02 0.  1.
</event>
<event>
 5   0  0.5376678E-07  0.3100274E+04  0.7818609E-02  0.8215663E-01
       -2   -1    0    0    0  501  0.00000000000E+00  0.00000000000E+00  0.81495567652E+03  0.81495567653E+03  0.25500000920E-02 0.  1.
        2   -1    0    0  501    0  0.00000000000E+00  0.00000000000E+00 -0.29485346375E+04  0.29485346375E+04  0.25500000920E-02 0. -1.
    10030    2    1    2    0    0  0.00000000000E+00  0.00000000000E+00 -0.21335789610E+04  0.37634903140E+04  0.31002742074E+04 0.  0.
        5    1    3    3  502    0 -0.14095905755E+04 -0.45075720418E+03 -0.50683683111E+03  0.15642996232E+04  0.46999998093E+01 0.  1.
       -5    1    3    3    0  502  0.14095905755E+04  0.45075720418E+03 -0.16267421299E+04  0.21991906909E+04  0.46999998093E+01 0. -1.
</event>
<event>
 5   0  0.5376678E-07  0.3085611E+04  0.7818609E-02  0.8219698E-01
       -2   -1    0    0    0  501  0.00000000000E+00  0.00000000000E+00  0.14854098480E+04  0.14854098480E+04  0.25500000920E-02 0. -1.
        2   -1    0    0  501    0  0.00000000000E+00  0.00000000000E+00 -0.16024186403E+04  0.16024186403E+04  0.25500000920E-02 0.  1.
    10030    2    1    2    0    0  0.00000000000E+00  0.00000000000E+00 -0.11700879230E+03  0.30878284883E+04  0.30856107525E+04 0.  0.
        5    1    3    3  502    0 -0.10398178768E+04  0.10295729902E+04 -0.54771624835E+03  0.15624522194E+04  0.46999998093E+01 0.  1.
       -5    1    3    3    0  502  0.10398178768E+04 -0.10295729902E+04  0.43070745606E+03  0.15253762689E+04  0.46999998093E+01 0. -1.
</event>
<event>
 5   0  0.1875284E-07  0.3097739E+04  0.7818609E-02  0.8216359E-01
       -1   -1    0    0    0  501  0.00000000000E+00  0.00000000000E+00  0.98458262034E+03  0.98458262035E+03  0.50400001928E-02 0. -1.
        1   -1    0    0  501    0  0.00000000000E+00  0.00000000000E+00 -0.24365619463E+04  0.24365619463E+04  0.50400001928E-02 0.  1.
    10030    2    1    2    0    0  0.00000000000E+00  0.00000000000E+00 -0.14519793259E+04  0.34211445666E+04  0.30977388823E+04 0.  0.
        4    1    3    3  502    0 -0.13666195078E+04 -0.58219424449E+03 -0.12104124271E+04  0.19161677573E+04  0.12699999809E+01 0.  1.
       -4    1    3    3    0  502  0.13666195078E+04  0.58219424449E+03 -0.24156689881E+03  0.15049768094E+04  0.12699999809E+01 0. -1.
</event>
<event>
 5   0  0.1875284E-07  0.3106376E+04  0.7818609E-02  0.8213990E-01
       -1   -1    0    0    0  501  0.00000000000E+00  0.00000000000E+00  0.18303060632E+04  0.18303060632E+04  0.50400001928E-02 0. -1.
        1   -1    0    0  501    0  0.00000000000E+00  0.00000000000E+00 -0.13180274008E+04  0.13180274008E+04  0.50400001928E-02 0.  1.
    10030    2    1    2    0    0  0.00000000000E+00  0.00000000000E+00  0.51227866239E+03  0.31483334641E+04  0.31063763734E+04 0.  0.
        4    1    3    3  502    0 -0.21719250015E+03  0.11791505382E+04  0.12568064151E+04  0.17369895083E+04  0.12699999809E+01 0. -1.
       -4    1    3    3    0  502  0.21719250015E+03 -0.11791505382E+04 -0.74452775273E+03  0.14113439558E+04  0.12699999809E+01 0.  1.
</event>
<event>
 5   0  0.1845123E-07  0.3086844E+04  0.7818609E-02  0.8219358E-01
        1   -1    0    0  501    0  0.00000000000E+00  0.00000000000E+00  0.20562840922E+04  0.20562840922E+04  0.50400001928E-02 0. -1.
       -1   -1    0    0    0  501  0.00000000000E+00  0.00000000000E+00 -0.11584737902E+04  0.11584737902E+04  0.50400001928E-02 0.  1.
    10030    2    1    2    0    0  0.00000000000E+00  0.00000000000E+00  0.89781030195E+03  0.32147578824E+04  0.30868438419E+04 0.  0.
        2    1    3    3  502    0 -0.66614917911E+03  0.48140972977E+03 -0.91161418670E+03  0.12274161813E+04  0.25500000920E-02 0.  1.
       -2    1    3    3    0  502  0.66614917911E+03 -0.48140972977E+03  0.18094244886E+04  0.19873417011E+04  0.25500000920E-02 0. -1.
</event>
<event>
 5   0  0.5154105E-07  0.3101445E+04  0.7818609E-02  0.8215342E-01
        2   -1    0    0  501    0  0.00000000000E+00  0.00000000000E+00  0.23490472075E+04  0.23490472075E+04  0.25500000920E-02 0.  1.
       -2   -1    0    0    0  501  0.00000000000E+00  0.00000000000E+00 -0.10237085167E+04  0.10237085167E+04  0.25500000920E-02 0. -1.
    10030    2    1    2    0    0  0.00000000000E+00  0.00000000000E+00  0.13253386908E+04  0.33727557242E+04  0.31014445876E+04 0.  0.
        1    1    3    3  502    0  0.11695367162E+04  0.40402998653E+03  0.16791470848E+04  0.20858071083E+04  0.50400001928E-02 0.  1.
       -1    1    3    3    0  502 -0.11695367162E+04 -0.40402998653E+03 -0.35380839393E+03  0.12869486160E+04  0.50400001928E-02 0. -1.
</event>
<event>
 5   0  0.5376678E-07  0.3094662E+04  0.7818609E-02  0.8217204E-01
        2   -1    0    0  501    0  0.00000000000E+00  0.00000000000E+00  0.26149915182E+04  0.26149915182E+04  0.25500000920E-02 0. -1.
       -2   -1    0    0    0  501  0.00000000000E+00  0.00000000000E+00 -0.91557988479E+03  0.91557988480E+03  0.25500000920E-02 0.  1.
    10030    2    1    2    0    0  0.00000000000E+00  0.00000000000E+00  0.16994116334E+04  0.35305714030E+04  0.30946622646E+04 0.  0.
        5    1    3    3  502    0 -0.56700582651E+03  0.21707181929E+03  0.24734145614E+04  0.25468446094E+04  0.46999998093E+01 0. -1.
       -5    1    3    3    0  502  0.56700582651E+03 -0.21707181929E+03 -0.77400292794E+03  0.98372679362E+03  0.46999998093E+01 0.  1.
</event>
<event>
 5   0  0.5342534E-07  0.3099096E+04  0.7818609E-02  0.8215986E-01
       -2   -1    0    0    0  501  0.00000000000E+00  0.00000000000E+00  0.77836586290E+03  0.77836586291E+03  0.25500000920E-02 0. -1.
        2   -1    0    0  501    0  0.00000000000E+00  0.00000000000E+00 -0.30847956885E+04  0.30847956885E+04  0.25500000920E-02 0.  1.
    10030    2    1    2    0    0  0.00000000000E+00  0.00000000000E+00 -0.23064298256E+04  0.38631615514E+04  0.30990964218E+04 0.  0.
        3    1    3    3  502    0  0.94921447824E+03  0.11380180992E+04 -0.17176206436E+04  0.22685488766E+04  0.10100000352E+00 0.  1.
       -3    1    3    3    0  502 -0.94921447824E+03 -0.11380180992E+04 -0.58880918196E+03  0.15946126748E+04  0.10100000352E+00 0. -1.
</event>
<event>
 5   0  0.1875284E-07  0.3088082E+04  0.7818609E-02  0.8219016E-01
        1   -1    0    0  501    0  0.00000000000E+00  0.00000000000E+00  0.12518326574E+04  0.12518326574E+04  0.50400001928E-02 0. -1.
       -1   -1    0    0    0  501  0.00000000000E+00  0.00000000000E+00 -0.19044585043E+04  0.19044585043E+04  0.50400001928E-02 0.  1.
    10030    2    1    2    0    0  0.00000000000E+00  0.00000000000E+00 -0.65262584696E+03  0.31562911617E+04  0.30880824797E+04 0.  0.
        4    1    3    3  502    0 -0.96624737836E+03 -0.72830445781E+03  0.65403936273E+03  0.13754382866E+04  0.12699999809E+01 0. -1.
       -4    1    3    3    0  502  0.96624737836E+03  0.72830445781E+03 -0.13066652097E+04  0.17808528750E+04  0.12699999809E+01 0.  1.
</event>
<event>
 5   0  0.5154105E-07  0.3104060E+04  0.7818609E-02  0.8214624E-01
        2   -1    0    0  501    0  0.00000000000E+00  0.00000000000E+00  0.14766502686E+04  0.14766502686E+04  0.25500000920E-02 0. -1.
       -2   -1    0    0    0  501  0.00000000000E+00  0.00000000000E+00 -0.16312581277E+04  0.16312581277E+04  0.25500000920E-02 0.  1.
    10030    2    1    2    0    0  0.00000000000E+00  0.00000000000E+00 -0.15460785915E+03  0.31079083963E+04  0.31040604069E+04 0.  0.
        1    1    3    3  502    0  0.58946371619E+03  0.23794981355E+03 -0.14949370194E+04  0.16244766168E+04  0.50400001928E-02 0.  1.
       -1    1    3    3    0  502 -0.58946371619E+03 -0.23794981355E+03  0.13403291603E+04  0.14834317795E+04  0.50400001928E-02 0. -1.
</event>
<event>
 5   0  0.1875284E-07  0.3098979E+04  0.7818609E-02  0.8216018E-01
       -1   -1    0    0    0  501  0.00000000000E+00  0.00000000000E+00  0.98617757390E+03  0.98617757391E+03  0.50400001928E-02 0.  1.
        1   -1    0    0  501    0  0.00000000000E+00  0.00000000000E+00 -0.24345691282E+04  0.24345691282E+04  0.50400001928E-02 0. -1.
    10030    2    1    2    0    0  0.00000000000E+00  0.00000000000E+00 -0.14483915543E+04  0.34207467021E+04  0.30989788488E+04 0.  0.
        4    1    3    3  502    0  0.10827399506E+04  0.86302989907E+03 -0.14919487862E+04  0.20354506137E+04  0.12699999809E+01 0.  1.
       -4    1    3    3    0  502 -0.10827399506E+04 -0.86302989907E+03  0.43557231858E+02  0.13852960884E+04  0.12699999809E+01 0. -1.
</event>
<event>
 5   0  0.5342534E-07  0.3161726E+04  0.7818609E-02  0.8198999E-01
       -2   -1    0    0    0  501  0.00000000000E+00  0.00000000000E+00  0.12099015513E+04  0.12099015513E+04  0.25500000920E-02 0.  1.
        2   -1    0    0  501    0  0.00000000000E+00  0.00000000000E+00 -0.20655631865E+04  0.20655631865E+04  0.25500000920E-02 0. -1.
    10030    2    1    2    0    0  0.00000000000E+00  0.00000000000E+00 -0.85566163522E+03  0.32754647379E+04  0.31617261765E+04 0.  0.
        3    1    3    3  502    0 -0.83046077889E+03 -0.11393553352E+04 -0.11686297251E+04  0.18312539774E+04  0.10100000352E+00 0. -1.
       -3    1    3    3    0  502  0.83046077889E+03  0.11393553352E+04  0.31296808991E+03  0.14442107605E+04  0.10100000352E+00 0.  1.
</event>
<event>
 5   0  0.5248309E-07  0.3075848E+04  0.7818609E-02  0.8222398E-01
       -2   -1    0    0    0  501  0.00000000000E+00  0.00000000000E+00  0.10572492402E+04  0.10572492402E+04  0.25500000920E-02 0. -1.
        2   -1    0    0  501    0  0.00000000000E+00  0.00000000000E+00 -0.22371362653E+04  0.22371362653E+04  0.25500000920E-02 0.  1.
    10030    2    1    2    0    0  0.00000000000E+00  0.00000000000E+00 -0.11798870251E+04  0.32943855055E+04  0.30758482515E+04 0.  0.
        4    1    3    3  502    0  0.50348049228E+03  0.75739010255E+03 -0.19182506299E+04  0.21229270985E+04  0.12699999809E+01 0.  1.
       -4    1    3    3    0  502 -0.50348049228E+03 -0.75739010255E+03  0.73836360476E+03  0.11714584070E+04  0.12699999809E+01 0. -1.
</event>
<event>
 5   0  0.1840359E-07  0.3101237E+04  0.7818609E-02  0.8215398E-01
        1   -1    0    0  501    0  0.00000000000E+00  0.00000000000E+00  0.25740302699E+04  0.25740302699E+04  0.50400001928E-02 0. -1.
       -1   -1    0    0    0  501  0.00000000000E+00  0.00000000000E+00 -0.93410653824E+03  0.93410653826E+03  0.50400001928E-02 0.  1.
    10030    2    1    2    0    0  0.00000000000E+00  0.00000000000E+00  0.16399237316E+04  0.35081368081E+04  0.31012374980E+04 0.  0.
        1    1    3    3  502    0 -0.54629934299E+03  0.38782833279E+03  0.24018566399E+04  0.24935454892E+04  0.50400001928E-02 0. -1.
       -1    1    3    3    0  502  0.54629934299E+03 -0.38782833279E+03 -0.76193290825E+03  0.10145913190E+04  0.50400001928E-02 0.  1.
</event>
<event>
 5   0  0.5154105E-07  0.3101628E+04  0.7818609E-02  0.8215291E-01
       -2   -1    0    0    0  501  0.00000000000E+00  0.00000000000E+00  0.12984336928E+04  0.12984336928E+04  0.25500000920E-02 0.  1.
        2   -1    0    0  501    0  0.00000000000E+00  0.00000000000E+00 -0.18522500815E+04  0.18522500815E+04  0.25500000920E-02 0. -1.
    10030    2    1    2    0    0  0.00000000000E+00  0.00000000000E+00 -0.55381638863E+03  0.31506837743E+04  0.31016279038E+04 0.  0.
        1    1    3    3  502    0 -0.85598434529E+03 -0.12447590120E+04  0.79192558113E+02  0.15127477181E+04  0.50400001928E-02 0.  1.
       -1    1    3    3    0  502  0.85598434529E+03  0.12447590120E+04 -0.63300894675E+03  0.16379360562E+04  0.50400001928E-02 0. -1.
</event>
<event>
 5   0  0.1814075E-07  0.3103087E+04  0.7818609E-02  0.8214891E-01
       -1   -1    0    0    0  501  0.00000000000E+00  0.00000000000E+00  0.10748357017E+04  0.10748357017E+04  0.50400001928E-02 0. -1.
        1   -1    0    0  501    0  0.00000000000E+00  0.00000000000E+00 -0.22396797278E+04  0.22396797278E+04  0.50400001928E-02 0.  1.
    10030    2    1    2    0    0  0.00000000000E+00  0.00000000000E+00 -0.11648440261E+04  0.33145154295E+04  0.31030873219E+04 0.  0.
        5    1    3    3  502    0  0.13083778373E+04  0.51272167627E+03  0.12005795512E+03  0.14103801208E+04  0.46999998093E+01 0. -1.
       -5    1    3    3    0  502 -0.13083778373E+04 -0.51272167627E+03 -0.12849019812E+04  0.19041353087E+04  0.46999998093E+01 0.  1.
</event>
<event>
 5   0  0.1814075E-07  0.3138168E+04  0.7818609E-02  0.8205341E-01
        1   -1    0    0  501    0  0.00000000000E+00  0.00000000000E+00  0.19704415612E+04  0.19704415612E+04  0.50400001928E-02 0. -1.
       -1   -1    0    0    0  501  0.00000000000E+00  0.00000000000E+00 -0.12494782465E+04  0.12494782465E+04  0.50400001928E-02 0.  1.
    10030    2    1    2    0    0  0.00000000000E+00  0.00000000000E+00  0.72096331469E+03  0.32199198077E+04  0.31381675333E+04 0.  0.
        5    1    3    3  502    0 -0.31769675355E+03 -0.89889748469E+03  0.16391625913E+04  0.18962658058E+04  0.46999998093E+01 0. -1.
       -5    1    3    3    0  502  0.31769675355E+03  0.89889748469E+03 -0.91819927665E+03  0.13236540019E+04  0.46999998093E+01 0.  1.
</event>
<event>
 5   0  0.1875284E-07  0.3115331E+04  0.7818609E-02  0.8211543E-01
       -1   -1    0    0    0  501  0.00000000000E+00  0.00000000000E+00  0.12259710132E+04  0.12259710132E+04  0.50400001928E-02 0.  1.
        1   -1    0    0  501    0  0.00000000000E+00  0.00000000000E+00 -0.19791025191E+04  0.19791025191E+04  0.50400001928E-02 0. -1.
    10030    2    1    2    0    0  0.00000000000E+00  0.00000000000E+00 -0.75313150594E+03  0.32050735323E+04  0.31153313279E+04 0.  0.
        4    1    3    3  502    0  0.67125899398E+03 -0.13054589113E+04  0.15950973760E+03  0.14765691909E+04  0.12699999809E+01 0.  1.
       -4    1    3    3    0  502 -0.67125899398E+03  0.13054589113E+04 -0.91264124354E+03  0.17285043415E+04  0.12699999809E+01 0. -1.
</event>
<event>
 5   0  0.1830902E-07  0.3053753E+04  0.7818609E-02  0.8228546E-01
       -1   -1    0    0    0  501  0.00000000000E+00  0.00000000000E+00  0.17213455641E+04  0.17213455641E+04  0.50400001928E-02 0.  1.
        1   -1    0    0  501    0  0.00000000000E+00  0.00000000000E+00 -0.13543773933E+04  0.13543773933E+04  0.50400001928E-02 0. -1.
    10030    2    1    2    0    0  0.00000000000E+00  0.00000000000E+00  0.36696817085E+03  0.30757229574E+04  0.30537527850E+04 0.  0.
        3    1    3    3  502    0  0.10306601925E+04  0.71404035538E+03  0.10610952674E+04  0.16425703145E+04  0.10100000352E+00 0.  1.
       -3    1    3    3    0  502 -0.10306601925E+04 -0.71404035538E+03 -0.69412709651E+03  0.14331526429E+04  0.10100000352E+00 0. -1.
</event>
<event>
 5   0  0.1830902E-07  0.3095403E+04  0.7818609E-02  0.8217001E-01
       -1   -1    0    0    0  501  0.00000000000E+00  0.00000000000E+00  0.16697424583E+04  0.16697424583E+04  0.50400001928E-02 0.  1.
        1   -1    0    0  501    0  0.00000000000E+00  0.00000000000E+00 -0.14345803954E+04  0.14345803954E+04  0.50400001928E-02 0. -1.
    10030    2    1    2    0    0  0.00000000000E+00  0.00000000000E+00  0.23516206292E+03  0.31043228538E+04  0.30954029115E+04 0.  0.
        3    1    3    3  502    0  0.36938574370E+03  0.14606621675E+04 -0.23755803422E+03  0.15252585436E+04  0.10100000352E+00 0. -1.
       -3    1    3    3    0  502 -0.36938574370E+03 -0.14606621675E+04  0.47272009714E+03  0.15790643101E+04  0.10100000352E+00 0.  1.
</event>
<event>
 5   0  0.1875284E-07  0.3108812E+04  0.7818609E-02  0.8213324E-01
        1   -1    0    0  501    0  0.00000000000E+00  0.00000000000E+00  0.10748801808E+04  0.10748801808E+04  0.50400001928E-02 0. -1.
       -1   -1    0    0    0  501  0.00000000000E+00  0.00000000000E+00 -0.22478586592E+04  0.22478586592E+04  0.50400001928E-02 0.  1.
    10030    2    1    2    0    0  0.00000000000E+00  0.00000000000E+00 -0.11729784784E+04  0.33227388400E+04  0.31088124562E+04 0.  0.
        4    1    3    3  502    0  0.10213159216E+04 -0.46659382371E+03  0.56236336842E+03  0.12558065851E+04  0.12699999809E+01 0. -1.
       -4    1    3    3    0  502 -0.10213159216E+04  0.46659382371E+03 -0.17353418469E+04  0.20669322549E+04  0.12699999809E+01 0.  1.
</event>
<event>
 5   0  0.1830902E-07  0.3100452E+04  0.7818609E-02  0.8215614E-01
        1   -1    0    0  501    0  0.00000000000E+00  0.00000000000E+00  0.29754475978E+04  0.29754475978E+04  0.50400001928E-02 0. -1.
       -1   -1    0    0    0  501  0.00000000000E+00  0.00000000000E+00 -0.80767708333E+03  0.80767708335E+03  0.50400001928E-02 0.  1.
    10030    2    1    2    0    0  0.00000000000E+00  0.00000000000E+00  0.21677705144E+04  0.37831246811E+04  0.31004521202E+04 0.  0.
        3    1    3    3  502    0  0.12684405917E+04 -0.88877976845E+03  0.10035954648E+04  0.18455554390E+04  0.10100000352E+00 0. -1.
       -3    1    3    3    0  502 -0.12684405917E+04  0.88877976845E+03  0.11641750497E+04  0.19375692421E+04  0.10100000352E+00 0.  1.
</event>
<event>
 5   0  0.1840359E-07  0.3100740E+04  0.7818609E-02  0.8215535E-01
        1   -1    0    0  501    0  0.00000000000E+00  0.00000000000E+00  0.13554279115E+04  0.13554279115E+04  0.50400001928E-02 0. -1.
       -1   -1    0    0    0  501  0.00000000000E+00  0.00000000000E+00 -0.17733495043E+04  0.17733495043E+04  0.50400001928E-02 0.  1.
    10030    2    1    2    0    0  0.00000000000E+00  0.00000000000E+00 -0.41792159281E+03  0.31287774158E+04  0.31007401793E+04 0.  0.
        1    1    3    3  502    0 -0.29456932253E+03  0.72802371306E+03  0.11398601065E+04  0.13842220468E+04  0.50400001928E-02 0. -1.
       -1    1    3    3    0  502  0.29456932253E+03 -0.72802371306E+03 -0.15577816993E+04  0.17445553689E+04  0.50400001928E-02 0.  1.
</event>
<event>
 5   0  0.1814075E-07  0.3107366E+04  0.7818609E-02  0.8213719E-01
        1   -1    0    0  501    0  0.00000000000E+00  0.00000000000E+00  0.10758711311E+04  0.10758711311E+04  0.50400001928E-02 0.  1.
       -1   -1    0    0    0  501  0.00000000000E+00  0.00000000000E+00 -0.22436987810E+04  0.22436987810E+04  0.50400001928E-02 0. -1.
    10030    2    1    2    0    0  0.00000000000E+00  0.00000000000E+00 -0.11678276499E+04  0.33195699122E+04  0.31073659234E+04 0.  0.
        5    1    3    3  502    0 -0.98501310357E+03  0.81814630987E+03 -0.15239455177E+04  0.19904889423E+04  0.46999998093E+01 0. -1.
       -5    1    3    3    0  502  0.98501310357E+03 -0.81814630987E+03  0.35611786785E+03  0.13290809698E+04  0.46999998093E+01 0.  1.
</event>
<event>
 5   0  0.5342534E-07  0.3101930E+04  0.7818609E-02  0.8215208E-01
        2   -1    0    0  501    0  0.00000000000E+00  0.00000000000E+00  0.26271196934E+04  0.26271196934E+04  0.25500000920E-02 0.  1.
       -2   -1    0    0    0  501  0.00000000000E+00  0.00000000000E+00 -0.91563875521E+03  0.91563875521E+03  0.25500000920E-02 0. -1.
    10030    2    1    2    0    0  0.00000000000E+00  0.00000000000E+00  0.17114809382E+04  0.35427584486E+04  0.31019301126E+04 0.  0.
        3    1    3    3  502    0  0.14656677543E+04 -0.50144457514E+03  0.76828130528E+03  0.17291283359E+04  0.10100000352E+00 0. -1.
       -3    1    3    3    0  502 -0.14656677543E+04  0.50144457514E+03  0.94319963291E+03  0.18136301127E+04  0.10100000352E+00 0.  1.
</event>
<event>
 5   0  0.5055900E-07  0.3084835E+04  0.7818609E-02  0.8219912E-01
        2   -1    0    0  501    0  0.00000000000E+00  0.00000000000E+00  0.15180975269E+04  0.15180975269E+04  0.25500000920E-02 0.  1.
       -2   -1    0    0    0  501  0.00000000000E+00  0.00000000000E+00 -0.15671268081E+04  0.15671268081E+04  0.25500000920E-02 0. -1.
    10030    2    1    2    0    0  0.00000000000E+00  0.00000000000E+00 -0.49029281274E+02  0.30852243350E+04  0.30848347325E+04 0.  0.
        2    1    3    3  502    0  0.44000989890E+03  0.65822807822E+03 -0.13483805825E+04  0.15636505714E+04  0.25500000920E-02 0. -1.
       -2    1    3    3    0  502 -0.44000989890E+03 -0.65822807822E+03  0.12993513012E+04  0.15215737636E+04  0.25500000920E-02 0.  1.
</event>
<event>
 5   0  0.1814075E-07  0.3093729E+04  0.7818609E-02  0.8217461E-01
       -1   -1    0    0    0  501  0.00000000000E+00  0.00000000000E+00  0.18200710247E+04  0.18200710247E+04  0.50400001928E-02 0. -1.
        1   -1    0    0  501    0  0.00000000000E+00  0.00000000000E+00 -0.13146687474E+04  0.13146687474E+04  0.50400001928E-02 0.  1.
    10030    2    1    2    0    0  0.00000000000E+00  0.00000000000E+00  0.50540227729E+03  0.31347397722E+04  0.30937294609E+04 0.  0.
        5    1    3    3  502    0  0.91533831684E+03  0.12915793284E+03 -0.10039986726E+04  0.13647569126E+04  0.46999998093E+01 0.  1.
       -5    1    3    3    0  502 -0.91533831684E+03 -0.12915793284E+03  0.15094009499E+04  0.17699828596E+04  0.46999998093E+01 0. -1.
</event>
<event>
 5   0  0.5154105E-07  0.3073301E+04  0.7818609E-02  0.8223104E-01
       -2   -1    0    0    0  501  0.00000000000E+00  0.00000000000E+00  0.10813755077E+04  0.10813755077E+04  0.25500000920E-02 0.  1.
        2   -1    0    0  501    0  0.00000000000E+00  0.00000000000E+00 -0.21836026765E+04  0.21836026765E+04  0.25500000920E-02 0. -1.
    10030    2    1    2    0    0  0.00000000000E+00  0.00000000000E+00 -0.11022271688E+04  0.32649781842E+04  0.30733008007E+04 0.  0.
        1    1    3    3  502    0 -0.29809329284E+03  0.71242243599E+03 -0.19624609823E+04  0.21089472363E+04  0.50400001928E-02 0. -1.
       -1    1    3    3    0  502  0.29809329284E+03 -0.71242243599E+03  0.86023381349E+03  0.11560309479E+04  0.50400001928E-02 0.  1.
</event>
<event>
 5   0  0.5154105E-07  0.3096388E+04  0.7818609E-02  0.8216730E-01
       -2   -1    0    0    0  501  0.00000000000E+00  0.00000000000E+00  0.20231497466E+04  0.20231497466E+04  0.25500000920E-02 0. -1.
        2   -1    0    0  501    0  0.00000000000E+00  0.00000000000E+00 -0.11847388327E+04  0.11847388327E+04  0.25500000920E-02 0.  1.
    10030    2    1    2    0    0  0.00000000000E+00  0.00000000000E+00  0.83841091394E+03  0.32078885793E+04  0.30963876173E+04 0.  0.
        1    1    3    3  502    0  0.78381196031E+03  0.32943231487E+03 -0.92122385176E+03  0.12536108743E+04  0.50400001928E-02 0.  1.
       -1    1    3    3    0  502 -0.78381196031E+03 -0.32943231487E+03  0.17596347657E+04  0.19542777049E+04  0.50400001928E-02 0. -1.
</event>
<event>
 5   0  0.5248309E-07  0.3100507E+04  0.7818609E-02  0.8215599E-01
        2   -1    0    0  501    0  0.00000000000E+00  0.00000000000E+00  0.15829333367E+04  0.15829333367E+04  0.25500000920E-02 0. -1.
       -2   -1    0    0    0  501  0.00000000000E+00  0.00000000000E+00 -0.15182478794E+04  0.15182478794E+04  0.25500000920E-02 0.  1.
    10030    2    1    2    0    0  0.00000000000E+00  0.00000000000E+00  0.64685457299E+02  0.31011812160E+04  0.31005065274E+04 0.  0.
        4    1    3    3  502    0  0.11143046629E+04 -0.10118109502E+04 -0.33901597582E+03  0.15428446861E+04  0.12699999809E+01 0.  1.
       -4    1    3    3    0  502 -0.11143046629E+04  0.10118109502E+04  0.40370143312E+03  0.15583365300E+04  0.12699999809E+01 0. -1.
</event>
<event>
 5   0  0.5055900E-07  0.3065829E+04  0.7818609E-02  0.8225179E-01
       -2   -1    0    0    0  501  0.00000000000E+00  0.00000000000E+00  0.17697025459E+04  0.17697025459E+04  0.25500000920E-02 0. -1.
        2   -1    0    0  501    0  0.00000000000E+00  0.00000000000E+00 -0.13278089821E+04  0.13278089821E+04  0.25500000920E-02 0.  1.
    10030    2    1    2    0    0  0.00000000000E+00  0.00000000000E+00  0.44189356385E+03  0.30975115280E+04  0.30658290468E+04 0.  0.
        2    1    3    3  502    0  0.71750311073E+03 -0.13541247301E+04  0.18365412844E+03  0.15434355631E+04  0.25500000920E-02 0. -1.
       -2    1    3    3    0  502 -0.71750311073E+03  0.13541247301E+04  0.25823943542E+03  0.15540759649E+04  0.25500000920E-02 0.  1.
</event>
<event>
 5   0  0.1814075E-07  0.3099117E+04  0.7818609E-02  0.8215980E-01
        1   -1    0    0  501    0  0.00000000000E+00  0.00000000000E+00  0.13902431495E+04  0.13902431496E+04  0.50400001928E-02 0. -1.
       -1   -1    0    0    0  501  0.00000000000E+00  0.00000000000E+00 -0.17271308220E+04  0.17271308220E+04  0.50400001928E-02 0.  1.
    10030    2    1    2    0    0  0.00000000000E+00  0.00000000000E+00 -0.33688767246E+03  0.31173739716E+04  0.30991171605E+04 0.  0.
        5    1    3    3  502    0  0.65610712048E+03  0.59242469224E+03  0.11117144183E+04  0.14203431301E+04  0.46999998093E+01 0. -1.
       -5    1    3    3    0  502 -0.65610712048E+03 -0.59242469224E+03 -0.14486020907E+04  0.16970308414E+04  0.46999998093E+01 0.  1.
</event>
<event>
 5   0  0.5055900E-07  0.3098226E+04  0.7818609E-02  0.8216225E-01
        2   -1    0    0  501    0  0.00000000000E+00  0.00000000000E+00  0.14543043619E+04  0.14543043619E+04  0.25500000920E-02 0. -1.
       -2   -1    0    0    0  501  0.00000000000E+00  0.00000000000E+00 -0.16501019229E+04  0.16501019229E+04  0.25500000920E-02 0.  1.
    10030    2    1    2    0    0  0.00000000000E+00  0.00000000000E+00 -0.19579756101E+03  0.31044062849E+04  0.30982255723E+04 0.  0.
        2    1    3    3  502    0  0.11721438812E+04  0.84828754154E+03  0.45659238242E+03  0.15172309103E+04  0.25500000920E-02 0.  1.
       -2    1    3    3    0  502 -0.11721438812E+04 -0.84828754154E+03 -0.65238994343E+03  0.15871753746E+04  0.25500000920E-02 0. -1.
</event>
<event>
 5   0  0.1814075E-07  0.3176871E+04  0.7818609E-02  0.8194952E-01
        1   -1    0    0  501    0  0.00000000000E+00  0.00000000000E+00  0.20452117829E+04  0.20452117829E+04  0.50400001928E-02 0. -1.
       -1   -1    0    0    0  501  0.00000000000E+00  0.00000000000E+00 -0.12336751602E+04  0.12336751602E+04  0.50400001928E-02 0.  1.
    10030    2    1    2    0    0  0.00000000000E+00  0.00000000000E+00  0.81153662274E+03  0.32788869431E+04  0.31768707709E+04 0.  0.
        5    1    3    3  502    0 -0.69587844176E+03 -0.50309152274E+03 -0.97346606716E+03  0.12980778713E+04  0.46999998093E+01 0.  1.
       -5    1    3    3    0  502  0.69587844176E+03  0.50309152274E+03  0.17850026899E+04  0.19808090718E+04  0.46999998093E+01 0. -1.
</event>
<event>
 5   0  0.1875284E-07  0.3099502E+04  0.7818609E-02  0.8215875E-01
        1   -1    0    0  501    0  0.00000000000E+00  0.00000000000E+00  0.18577546891E+04  0.18577546891E+04  0.50400001928E-02 0. -1.
       -1   -1    0    0    0  501  0.00000000000E+00  0.00000000000E+00 -0.12928122744E+04  0.12928122744E+04  0.50400001928E-02 0.  1.
    10030    2    1    2    0    0  0.00000000000E+00  0.00000000000E+00  0.56494241466E+03  0.31505669635E+04  0.30995019374E+04 0.  0.
        4    1    3    3  502    0 -0.64746166222E+02 -0.74322362450E+03 -0.10982722626E+04  0.13276961240E+04  0.12699999809E+01 0.  1.
       -4    1    3    3    0  502  0.64746166222E+02  0.74322362450E+03  0.16632146772E+04  0.18228708395E+04  0.12699999809E+01 0. -1.
</event>
<event>
 5   0  0.1845123E-07  0.3096237E+04  0.7818609E-02  0.8216771E-01
       -1   -1    0    0    0  501  0.00000000000E+00  0.00000000000E+00  0.13124034749E+04  0.13124034749E+04  0.50400001928E-02 0. -1.
        1   -1    0    0  501    0  0.00000000000E+00  0.00000000000E+00 -0.18261691328E+04  0.18261691328E+04  0.50400001928E-02 0.  1.
    10030    2    1    2    0    0  0.00000000000E+00  0.00000000000E+00 -0.51376565796E+03  0.31385726077E+04  0.30962368874E+04 0.  0.
        2    1    3    3  502    0  0.11720692016E+04 -0.51465452944E+03  0.62568566600E+03  0.14248150935E+04  0.25500000920E-02 0. -1.
       -2    1    3    3    0  502 -0.11720692016E+04  0.51465452944E+03 -0.11394513240E+04  0.17137575142E+04  0.25500000920E-02 0.  1.
</event>
<event>
 5   0  0.1875284E-07  0.3098083E+04  0.7818609E-02  0.8216264E-01
       -1   -1    0    0    0  501  0.00000000000E+00  0.00000000000E+00  0.15382377679E+04  0.15382377679E+04  0.50400001928E-02 0. -1.
        1   -1    0    0  501    0  0.00000000000E+00  0.00000000000E+00 -0.15599212228E+04  0.15599212228E+04  0.50400001928E-02 0.  1.
    10030    2    1    2    0    0  0.00000000000E+00  0.00000000000E+00 -0.21683454944E+02  0.30981589908E+04  0.30980831105E+04 0.  0.
        4    1    3    3  502    0 -0.12103360864E+02 -0.15390108945E+04  0.16473905841E+03  0.15478506372E+04  0.12699999809E+01 0.  1.
       -4    1    3    3    0  502  0.12103360864E+02  0.15390108945E+04 -0.18642251335E+03  0.15503083536E+04  0.12699999809E+01 0. -1.
</event>
<event>
 5   0  0.5154105E-07  0.3097697E+04  0.7818609E-02  0.8216370E-01
       -2   -1    0    0    0  501  0.00000000000E+00  0.00000000000E+00  0.17767691204E+04  0.17767691204E+04  0.25500000920E-02 0.  1.
        2   -1    0    0  501    0  0.00000000000E+00  0.00000000000E+00 -0.13501653146E+04  0.13501653146E+04  0.25500000920E-02 0. -1.
    10030    2    1    2    0    0  0.00000000000E+00  0.00000000000E+00  0.42660380580E+03  0.31269344350E+04  0.30976972341E+04 0.  0.
        1    1    3    3  502    0  0.96753711437E+03 -0.10159893932E+04 -0.44906931156E+03  0.14731007302E+04  0.50400001928E-02 0. -1.
       -1    1    3    3    0  502 -0.96753711437E+03  0.10159893932E+04  0.87567311736E+03  0.16538337048E+04  0.50400001928E-02 0.  1.
</event>
<event>
 5   0  0.5248309E-07  0.3100452E+04  0.7818609E-02  0.8215614E-01
       -2   -1    0    0    0  501  0.00000000000E+00  0.00000000000E+00  0.12862820409E+04  0.12862820410E+04  0.25500000920E-02 0. -1.
        2   -1    0    0  501    0  0.00000000000E+00  0.00000000000E+00 -0.18683315797E+04  0.18683315797E+04  0.25500000920E-02 0.  1.
    10030    2    1    2    0    0  0.00000000000E+00  0.00000000000E+00 -0.58204953877E+03  0.31546136207E+04  0.31004524557E+04 0.  0.
        4    1    3    3  502    0 -0.58078509976E+03 -0.99730659020E+03  0.76207655694E+03  0.13830018288E+04  0.12699999809E+01 0. -1.
       -4    1    3    3    0  502  0.58078509976E+03  0.99730659020E+03 -0.13441260957E+04  0.17716117919E+04  0.12699999809E+01 0.  1.
</event>
<event>
 5   0  0.1830902E-07  0.3099857E+04  0.7818609E-02  0.8215777E-01
       -1   -1    0    0    0  501  0.00000000000E+00  0.00000000000E+00  0.13095511757E+04  0.13095511757E+04  0.50400001928E-02 0. -1.
        1   -1    0    0  501    0  0.00000000000E+00  0.00000000000E+00 -0.18344285921E+04  0.18344285921E+04  0.50400001928E-02 0.  1.
    10030    2    1    2    0    0  0.00000000000E+00  0.00000000000E+00 -0.52487741642E+03  0.31439797678E+04  0.30998568480E+04 0.  0.
        3    1    3    3  502    0 -0.16173060912E+03  0.14420641626E+04  0.28989732294E+03  0.14797791413E+04  0.10100000352E+00 0.  1.
       -3    1    3    3    0  502  0.16173060912E+03 -0.14420641626E+04 -0.81477473936E+03  0.16642006265E+04  0.10100000352E+00 0. -1.
</event>
<event>
 5   0  0.5342534E-07  0.3099837E+04  0.7818609E-02  0.8215783E-01
       -2   -1    0    0    0  501  0.00000000000E+00  0.00000000000E+00  0.11476311507E+04  0.11476311507E+04  0.25500000920E-02 0.  1.
        2   -1    0    0  501    0  0.00000000000E+00  0.00000000000E+00 -0.20932230927E+04  0.20932230927E+04  0.25500000920E-02 0. -1.
    10030    2    1    2    0    0  0.00000000000E+00  0.00000000000E+00 -0.94559194192E+03  0.32408542434E+04  0.30998374322E+04 0.  0.
        3    1    3    3  502    0  0.14836828981E+04  0.28198490440E+03 -0.10849411720E+03  0.15141338819E+04  0.10100000352E+00 0.  1.
       -3    1    3    3    0  502 -0.14836828981E+04 -0.28198490440E+03 -0.83709782472E+03  0.17267203615E+04  0.10100000352E+00 0. -1.
</event>
<event>
 5   0  0.1830902E-07  0.3091554E+04  0.7818609E-02  0.8218060E-01
        1   -1    0    0  501    0  0.00000000000E+00  0.00000000000E+00  0.20467063542E+04  0.20467063542E+04  0.50400001928E-02 0. -1.
       -1   -1    0    0    0  501  0.00000000000E+00  0.00000000000E+00 -0.11674497802E+04  0.11674497802E+04  0.50400001928E-02 0.  1.
    10030    2    1    2    0    0  0.00000000000E+00  0.00000000000E+00  0.87925657406E+03  0.32141561344E+04  0.30915542262E+04 0.  0.
        3    1    3    3  502    0 -0.12321249475E+03 -0.12204371269E+04  0.14175575655E+04  0.18745979732E+04  0.10100000352E+00 0. -1.
       -3    1    3    3    0  502  0.12321249475E+03  0.12204371269E+04 -0.53830099140E+03  0.13395581612E+04  0.10100000352E+00 0.  1.
</event>
<event>
 5   0  0.1845123E-07  0.3098488E+04  0.7818609E-02  0.8216153E-01
        1   -1    0    0  501    0  0.00000000000E+00  0.00000000000E+00  0.24580352010E+04  0.24580352010E+04  0.50400001928E-02 0.  1.
       -1   -1    0    0    0  501  0.00000000000E+00  0.00000000000E+00 -0.97645358787E+03  0.97645358789E+03  0.50400001928E-02 0. -1.
    10030    2    1    2    0    0  0.00000000000E+00  0.00000000000E+00  0.14815816131E+04  0.34344887889E+04  0.30984882063E+04 0.  0.
        2    1    3    3  502    0  0.77270272502E+03  0.13060429370E+04  0.10866163880E+04  0.18664278259E+04  0.25500000920E-02 0.  1.
       -2    1    3    3    0  502 -0.77270272502E+03 -0.13060429370E+04  0.39496522515E+03  0.15680609630E+04  0.25500000920E-02 0. -1.
</event>
<event>
 5   0  0.5055900E-07  0.3095561E+04  0.7818609E-02  0.8216957E-01
        2   -1    0    0  501    0  0.00000000000E+00  0.00000000000E+00  0.27389991999E+04  0.27389991999E+04  0.25500000920E-02 0.  1.
       -2   -1    0    0    0  501  0.00000000000E+00  0.00000000000E+00 -0.87463471696E+03  0.87463471696E+03  0.25500000920E-02 0. -1.
    10030    2    1    2    0    0  0.00000000000E+00  0.00000000000E+00  0.18643644829E+04  0.36136339168E+04  0.30955605566E+04 0.  0.
        2    1    3    3  502    0  0.20189617835E+03 -0.66144695200E+02  0.27218966707E+04  0.27301755756E+04  0.25500000920E-02 0.  1.
       -2    1    3    3    0  502 -0.20189617835E+03  0.66144695200E+02 -0.85753218782E+03  0.88345834123E+03  0.25500000920E-02 0. -1.
</event>
<event>
 5   0  0.1814075E-07  0.3109990E+04  0.7818609E-02  0.8213002E-01
        1   -1    0    0  501    0  0.00000000000E+00  0.00000000000E+00  0.16249472936E+04  0.16249472936E+04  0.50400001928E-02 0.  1.
       -1   -1    0    0    0  501  0.00000000000E+00  0.00000000000E+00 -0.14880536249E+04  0.14880536250E+04  0.50400001928E-02 0. -1.
    10030    2    1    2    0    0  0.00000000000E+00  0.00000000000E+00  0.13689366862E+03  0.31130009185E+04  0.31099895245E+04 0.  0.
        5    1    3    3  502    0  0.19075540453E+03 -0.28964780259E+03  0.15857322458E+04  0.16232228187E+04  0.46999998093E+01 0.  1.
       -5    1    3    3    0  502 -0.19075540453E+03  0.28964780259E+03 -0.14488385772E+04  0.14897780998E+04  0.46999998093E+01 0. -1.
</event>
<event>
 5   0  0.1840359E-07  0.3105050E+04  0.7818609E-02  0.8214353E-01
       -1   -1    0    0    0  501  0.00000000000E+00  0.00000000000E+00  0.14126076211E+04  0.14126076211E+04  0.50400001928E-02 0.  1.
        1   -1    0    0  501    0  0.00000000000E+00  0.00000000000E+00 -0.17063008534E+04  0.17063008534E+04  0.50400001928E-02 0. -1.
    10030    2    1    2    0    0  0.00000000000E+00  0.00000000000E+00 -0.29369323234E+03  0.31189084745E+04  0.31050498156E+04 0.  0.
        1    1    3    3  502    0  0.45105576842E+03 -0.75275215276E+03  0.11395906588E+04  0.14383163697E+04  0.50400001928E-02 0.  1.
       -1    1    3    3    0  502 -0.45105576842E+03  0.75275215276E+03 -0.14332838912E+04  0.16805921047E+04  0.50400001928E-02 0. -1.
</event>
<event>
 5   0  0.5248309E-07  0.3093020E+04  0.7818609E-02  0.8217656E-01
        2   -1    0    0  501    0  0.00000000000E+00  0.00000000000E+00  0.12147957621E+04  0.12147957621E+04  0.25500000920E-02 0.  1.
       -2   -1    0    0    0  501  0.00000000000E+00  0.00000000000E+00 -0.19688029342E+04  0.19688029342E+04  0.25500000920E-02 0. -1.
    10030    2    1    2    0    0  0.00000000000E+00  0.00000000000E+00 -0.75400717208E+03  0.31835986963E+04  0.30930201816E+04 0.  0.
        4    1    3    3  502    0 -0.70404359453E+03 -0.88084853942E+03 -0.14663547493E+04  0.18498025289E+04  0.12699999809E+01 0. -1.
       -4    1    3    3    0  502  0.70404359453E+03  0.88084853942E+03  0.71234757721E+03  0.13337961674E+04  0.12699999809E+01 0.  1.
</event>
<event>
 5   0  0.1840359E-07  0.3093268E+04  0.7818609E-02  0.8217588E-01
       -1   -1    0    0    0  501  0.00000000000E+00  0.00000000000E+00  0.20024103026E+04  0.20024103026E+04  0.50400001928E-02 0. -1.
        1   -1    0    0  501    0  0.00000000000E+00  0.00000000000E+00 -0.11945988932E+04  0.11945988933E+04  0.50400001928E-02 0.  1.
    10030    2    1    2    0    0  0.00000000000E+00  0.00000000000E+00  0.80781140936E+03  0.31970091959E+04  0.30932682595E+04 0.  0.
        1    1    3    3  502    0 -0.30527551204E+03  0.14563547430E+04  0.83985141289E+03  0.17086581494E+04  0.50400001928E-02 0.  1.
       -1    1    3    3    0  502  0.30527551204E+03 -0.14563547430E+04 -0.32040003532E+02  0.14883510465E+04  0.50400001928E-02 0. -1.
</event>
<event>
 5   0  0.5248309E-07  0.3106139E+04  0.7818609E-02  0.8214055E-01
        2   -1    0    0  501    0  0.00000000000E+00  0.00000000000E+00  0.25252576051E+04  0.25252576051E+04  0.25500000920E-02 0. -1.
       -2   -1    0    0    0  501  0.00000000000E+00  0.00000000000E+00 -0.95516019104E+03  0.95516019104E+03  0.25500000920E-02 0.  1.
    10030    2    1    2    0    0  0.00000000000E+00  0.00000000000E+00  0.15700974141E+04  0.34804177962E+04  0.31061394280E+04 0.  0.
        4    1    3    3  502    0  0.14986513565E+04 -0.12913563509E+03  0.12181347006E+04  0.19355840623E+04  0.12699999809E+01 0.  1.
       -4    1    3    3    0  502 -0.14986513565E+04  0.12913563509E+03  0.35196271346E+03  0.15448337338E+04  0.12699999809E+01 0. -1.
</event>
<event>
 5   0  0.5376678E-07  0.3098490E+04  0.7818609E-02  0.8216153E-01
       -2   -1    0    0    0  501  0.00000000000E+00  0.00000000000E+00  0.17222126019E+04  0.17222126019E+04  0.25500000920E-02 0.  1.
        2   -1    0    0  501    0  0.00000000000E+00  0.00000000000E+00 -0.13936488310E+04  0.13936488310E+04  0.25500000920E-02 0. -1.
    10030    2    1    2    0    0  0.00000000000E+00  0.00000000000E+00  0.32856377089E+03  0.31158614330E+04  0.30984896834E+04 0.  0.
        5    1    3    3  502    0 -0.11504654404E+04 -0.57510078753E+03 -0.70417206565E+03  0.14663533113E+04  0.46999998093E+01 0. -1.
       -5    1    3    3    0  502  0.11504654404E+04  0.57510078753E+03  0.10327358365E+04  0.16495081217E+04  0.46999998093E+01 0.  1.
</event>
<event>
 5   0  0.1875284E-07  0.3149571E+04  0.7818609E-02  0.8202264E-01
       -1   -1    0    0    0  501  0.00000000000E+00  0.00000000000E+00  0.97530004065E+03  0.97530004066E+03  0.50400001928E-02 0. -1.
        1   -1    0    0  501    0  0.00000000000E+00  0.00000000000E+00 -0.25427551903E+04  0.25427551903E+04  0.50400001928E-02 0.  1.
    10030    2    1    2    0    0  0.00000000000E+00  0.00000000000E+00 -0.15674551497E+04  0.35180552310E+04  0.31495709171E+04 0.  0.
        4    1    3    3  502    0  0.13338156856E+04  0.64737165576E+03 -0.19077961295E+03  0.14948420711E+04  0.12699999809E+01 0. -1.
       -4    1    3    3    0  502 -0.13338156856E+04 -0.64737165576E+03 -0.13766755367E+04  0.20232131599E+04  0.12699999809E+01 0.  1.
</event>
<event>
 5   0  0.5376678E-07  0.3097056E+04  0.7818609E-02  0.8216546E-01
        2   -1    0    0  501    0  0.00000000000E+00  0.00000000000E+00  0.27519701518E+04  0.27519701518E+04  0.25500000920E-02 0. -1.
       -2   -1    0    0    0  501  0.00000000000E+00  0.00000000000E+00 -0.87135343758E+03  0.87135343759E+03  0.25500000920E-02 0.  1.
    10030    2    1    2    0    0  0.00000000000E+00  0.00000000000E+00  0.18806167142E+04  0.36233235894E+04  0.30970557967E+04 0.  0.
        5    1    3    3  502    0  0.64215947252E+03 -0.13825023927E+04  0.62154956017E+03  0.16462161461E+04  0.46999998093E+01 0.  1.
       -5    1    3    3    0  502 -0.64215947252E+03  0.13825023927E+04  0.12590671541E+04  0.19771074433E+04  0.46999998093E+01 0. -1.
</event>
<event>
 5   0  0.1845123E-07  0.3095888E+04  0.7818609E-02  0.8216867E-01
       -1   -1    0    0    0  501  0.00000000000E+00  0.00000000000E+00  0.11932937924E+04  0.11932937924E+04  0.50400001928E-02 0. -1.
        1   -1    0    0  501    0  0.00000000000E+00  0.00000000000E+00 -0.20079975556E+04  0.20079975556E+04  0.50400001928E-02 0.  1.
    10030    2    1    2    0    0  0.00000000000E+00  0.00000000000E+00 -0.81470376325E+03  0.32012913480E+04  0.30958882526E+04 0.  0.
        2    1    3    3  502    0 -0.51468090639E+03 -0.14541414528E+04 -0.27369479354E+03  0.15666309840E+04  0.25500000920E-02 0. -1.
       -2    1    3    3    0  502  0.51468090639E+03  0.14541414528E+04 -0.54100896971E+03  0.16346603639E+04  0.25500000920E-02 0.  1.
</event>
<event>
 5   0  0.5055900E-07  0.3087703E+04  0.7818609E-02  0.8219121E-01
       -2   -1    0    0    0  501  0.00000000000E+00  0.00000000000E+00  0.94805036004E+03  0.94805036004E+03  0.25500000920E-02 0. -1.
        2   -1    0    0  501    0  0.00000000000E+00  0.00000000000E+00 -0.25140829849E+04  0.25140829849E+04  0.25500000920E-02 0.  1.
    10030    2    1    2    0    0  0.00000000000E+00  0.00000000000E+00 -0.15660326249E+04  0.34621333450E+04  0.30877028866E+04 0.  0.
        2    1    3    3  502    0  0.15101857869E+04  0.11754475405E+03 -0.44851192125E+03  0.15797597361E+04  0.25500000920E-02 0.  1.
       -2    1    3    3    0  502 -0.15101857869E+04 -0.11754475405E+03 -0.11175207036E+04  0.18823736089E+04  0.25500000920E-02 0. -1.
</event>
<event>
 5   0  0.1814075E-07  0.3092023E+04  0.7818609E-02  0.8217930E-01
        1   -1    0    0  501    0  0.00000000000E+00  0.00000000000E+00  0.27406198072E+04  0.27406198072E+04  0.50400001928E-02 0. -1.
       -1   -1    0    0    0  501  0.00000000000E+00  0.00000000000E+00 -0.87212095205E+03  0.87212095206E+03  0.50400001928E-02 0.  1.
    10030    2    1    2    0    0  0.00000000000E+00  0.00000000000E+00  0.18684988552E+04  0.36127407593E+04  0.30920232570E+04 0.  0.
        5    1    3    3  502    0 -0.59225093295E+03  0.25546002070E+03 -0.70739689279E+03  0.95731574921E+03  0.46999998093E+01 0.  1.
       -5    1    3    3    0  502  0.59225093295E+03 -0.25546002070E+03  0.25758957480E+04  0.26554250101E+04  0.46999998093E+01 0. -1.
</event>
</LesHouchesEvents>
