<LesHouchesEvents version="3.0">
<header>
<!--
#*********************************************************************
#                                                                    *
#                        MadGraph5_aMC@NLO                           *
#                                                                    *
#                           Going Beyond                             *
#                                                                    *
#                   http://madgraph.hep.uiuc.edu                     *
#                   http://madgraph.phys.ucl.ac.be                   *
#                   http://amcatnlo.cern.ch                          *
#                                                                    *
#                     The MadGraph5_aMC@NLO team                     *
#                                                                    *
#....................................................................*
#                                                                    *
# This file contains all the information necessary to reproduce      *
# the events generated:                                              *
#                                                                    *
# 1. software version                                                *
# 2. proc_card          : code generation info including model       *
# 3. param_card         : model primary parameters in the LH format  *
# 4. run_card           : running parameters (collider and cuts)     *
# 5. pythia_card        : present only if pythia has been run        *
# 6. pgs_card           : present only if pgs has been run           *
# 7. delphes_cards      : present only if delphes has been run       *
#                                                                    *
#                                                                    *
#*********************************************************************
-->
<MGVersion>
#5.2.2.3
</MGVersion>
<MG5ProcCard>
#************************************************************
#*                     MadGraph5_aMC@NLO                    *
#*                                                          *
#*                *                       *                 *
#*                  *        * *        *                   *
#*                    * * * * 5 * * * *                     *
#*                  *        * *        *                   *
#*                *                       *                 *
#*                                                          *
#*                                                          *
#*         VERSION 2.2.3                 2015-02-10         *
#*                                                          *
#*    The MadGraph5_aMC@NLO Development Team - Find us at   *
#*    https://server06.fynu.ucl.ac.be/projects/madgraph     *
#*                                                          *
#************************************************************
#*                                                          *
#*               Command File for MadGraph5_aMC@NLO         *
#*                                                          *
#*     run as ./bin/mg5_aMC  filename                       *
#*                                                          *
#************************************************************
set group_subprocesses Auto
set ignore_six_quark_processes False
set loop_optimized_output True
set gauge unitary
set complex_mass_scheme False
import model sm
define p = g u c d s u~ c~ d~ s~
define j = g u c d s u~ c~ d~ s~
define l+ = e+ mu+
define l- = e- mu-
define vl = ve vm vt
define vl~ = ve~ vm~ vt~
import model Zprime_UFO
generate p p > zph, zph > j j
add process p p > zph, zph > b b~
output Dijet_signal
</MG5ProcCard>
<MGProcCard>
#*********************************************************************
#                        MadGraph/MadEvent                           *
#                   http://madgraph.hep.uiuc.edu                     *
#                                                                    *
#                          proc_card.dat                             *
#*********************************************************************
#                                                                    *
#            This Files is generated by MADGRAPH 5                   *
#                                                                    *
# WARNING: This Files is generated for MADEVENT (compatibility issue)*
#          This files is NOT a valid MG4 proc_card.dat               *
#          Running this in MG4 will NEVER reproduce the result of MG5*
#                                                                    *
#*********************************************************************
#*********************************************************************
# Process(es) requested : mg2 input                                  *
#*********************************************************************
# Begin PROCESS # This is TAG. Do not modify this line
p p > zph , zph > j j           #Process
# Be carefull the coupling are here in MG5 convention
          
end_coup           # End the couplings input

done               # this tells MG there are no more procs
# End PROCESS  # This is TAG. Do not modify this line
#*********************************************************************
# Model information                                                  *
#*********************************************************************
# Begin MODEL  # This is TAG. Do not modify this line
Zprime_UFO
# End   MODEL  # This is TAG. Do not modify this line
#*********************************************************************
# Start multiparticle definitions                                    *
#*********************************************************************
# Begin MULTIPARTICLES # This is TAG. Do not modify this line

# End  MULTIPARTICLES # This is TAG. Do not modify this line
</MGProcCard>
<MGRunCard>
#*********************************************************************
#                       MadGraph5_aMC@NLO                            *
#                                                                    *
#                     run_card.dat MadEvent                          *
#                                                                    *
#  This file is used to set the parameters of the run.               *
#                                                                    *
#  Some notation/conventions:                                        *
#                                                                    *
#   Lines starting with a '# ' are info or comments                  *
#                                                                    *
#   mind the format:   value    = variable     ! comment             *
#*********************************************************************
#
#*******************                                                 
# Running parameters
#*******************                                                 
#                                                                    
#*********************************************************************
# Tag name for the run (one word)                                    *
#*********************************************************************
  tag_1     = run_tag ! name of the run 
#*********************************************************************
# Run to generate the grid pack                                      *
#*********************************************************************
  .false.     = gridpack  !True = setting up the grid pack
#*********************************************************************
# Number of events and rnd seed                                      *
# Warning: Do not generate more than 1M events in a single run       *
# If you want to run Pythia, avoid more than 50k events in a run.    *
#*********************************************************************
  2000 = nevents ! Number of unweighted events requested 
 966 = iseed   ! rnd seed (0=assigned automatically=default))
#*********************************************************************
# Collider type and energy                                           *
# lpp: 0=No PDF, 1=proton, -1=antiproton, 2=photon from proton,      *
#                                         3=photon from electron     *
#*********************************************************************
        1     = lpp1    ! beam 1 type 
        1     = lpp2    ! beam 2 type
     4000     = ebeam1  ! beam 1 total energy in GeV
     4000     = ebeam2  ! beam 2 total energy in GeV
#*********************************************************************
# Beam polarization from -100 (left-handed) to 100 (right-handed)    *
#*********************************************************************
        0     = polbeam1 ! beam polarization for beam 1
        0     = polbeam2 ! beam polarization for beam 2
#*********************************************************************
# PDF CHOICE: this automatically fixes also alpha_s and its evol.    *
#*********************************************************************
 'nn23lo1'    = pdlabel     ! PDF set                                     
 230000    = lhaid     ! if pdlabel=lhapdf, this is the lhapdf number
#*********************************************************************
# Renormalization and factorization scales                           *
#*********************************************************************
 F        = fixed_ren_scale  ! if .true. use fixed ren scale
 F        = fixed_fac_scale  ! if .true. use fixed fac scale
 91.1880  = scale            ! fixed ren scale
 91.1880  = dsqrt_q2fact1    ! fixed fact scale for pdf1
 91.1880  = dsqrt_q2fact2    ! fixed fact scale for pdf2
 1        = scalefact        ! scale factor for event-by-event scales
#*********************************************************************
# Matching - Warning! ickkw > 1 is still beta
#*********************************************************************
 0        = ickkw            ! 0 no matching, 1 MLM, 2 CKKW matching
 1        = highestmult      ! for ickkw=2, highest mult group
 1        = ktscheme         ! for ickkw=1, 1 Durham kT, 2 Pythia pTE
 1        = alpsfact         ! scale factor for QCD emission vx
 F        = chcluster        ! cluster only according to channel diag
 T        = pdfwgt           ! for ickkw=1, perform pdf reweighting
 5        = asrwgtflavor     ! highest quark flavor for a_s reweight
 T        = clusinfo         ! include clustering tag in output
 3.0      = lhe_version       ! Change the way clustering information pass to shower.        
#*********************************************************************
#**********************************************************
#
#**********************************************************
# Automatic ptj and mjj cuts if xqcut > 0
# (turn off for VBF and single top processes)
#**********************************************************
   T  = auto_ptj_mjj  ! Automatic setting of ptj and mjj
#**********************************************************
#                                                                    
#**********************************
# BW cutoff (M+/-bwcutoff*Gamma)
#**********************************
  15  = bwcutoff      ! (M+/-bwcutoff*Gamma)
#**********************************************************
# Apply pt/E/eta/dr/mij cuts on decay products or not
# (note that etmiss/ptll/ptheavy/ht/sorted cuts always apply)
#**********************************************************
   T  = cut_decays    ! Cut decay products 
#*************************************************************
# Number of helicities to sum per event (0 = all helicities)
# 0 gives more stable result, but longer run time (needed for
# long decay chains e.g.).
# Use >=2 if most helicities contribute, e.g. pure QCD.
#*************************************************************
   0  = nhel          ! Number of helicities used per event
#*******************                                                 
# Standard Cuts
#*******************                                                 
#                                                                    
#*********************************************************************
# Minimum and maximum pt's (for max, -1 means no cut)                *
#*********************************************************************
 20  = ptj       ! minimum pt for the jets 
  0  = ptb       ! minimum pt for the b 
 10  = pta       ! minimum pt for the photons 
 10  = ptl       ! minimum pt for the charged leptons 
  0  = misset    ! minimum missing Et (sum of neutrino's momenta)
  0  = ptheavy   ! minimum pt for one heavy final state
 1.0 = ptonium   ! minimum pt for the quarkonium states
 -1  = ptjmax    ! maximum pt for the jets
 -1  = ptbmax    ! maximum pt for the b
 -1  = ptamax    ! maximum pt for the photons
 -1  = ptlmax    ! maximum pt for the charged leptons
 -1  = missetmax ! maximum missing Et (sum of neutrino's momenta)
#*********************************************************************
# Minimum and maximum E's (in the center of mass frame)              *
#*********************************************************************
  0  = ej     ! minimum E for the jets 
  0  = eb     ! minimum E for the b 
  0  = ea     ! minimum E for the photons 
  0  = el     ! minimum E for the charged leptons 
 -1   = ejmax ! maximum E for the jets
 -1   = ebmax ! maximum E for the b
 -1   = eamax ! maximum E for the photons
 -1   = elmax ! maximum E for the charged leptons
#*********************************************************************
# Maximum and minimum absolute rapidity (for max, -1 means no cut)   *
#*********************************************************************
   5  = etaj    ! max rap for the jets 
  -1  = etab    ! max rap for the b
 2.5  = etaa    ! max rap for the photons 
 2.5  = etal    ! max rap for the charged leptons 
 0.6  = etaonium ! max rap for the quarkonium states
   0  = etajmin ! min rap for the jets
   0  = etabmin ! min rap for the b
   0  = etaamin ! min rap for the photons
   0  = etalmin ! main rap for the charged leptons
#*********************************************************************
# Minimum and maximum DeltaR distance                                *
#*********************************************************************
 0.4 = drjj    ! min distance between jets 
 0   = drbb    ! min distance between b's 
 0.4 = drll    ! min distance between leptons 
 0.4 = draa    ! min distance between gammas 
 0   = drbj    ! min distance between b and jet 
 0.4 = draj    ! min distance between gamma and jet 
 0.4 = drjl    ! min distance between jet and lepton 
 0   = drab    ! min distance between gamma and b 
 0   = drbl    ! min distance between b and lepton 
 0.4 = dral    ! min distance between gamma and lepton 
 -1  = drjjmax ! max distance between jets
 -1  = drbbmax ! max distance between b's
 -1  = drllmax ! max distance between leptons
 -1  = draamax ! max distance between gammas
 -1  = drbjmax ! max distance between b and jet
 -1  = drajmax ! max distance between gamma and jet
 -1  = drjlmax ! max distance between jet and lepton
 -1  = drabmax ! max distance between gamma and b
 -1  = drblmax ! max distance between b and lepton
 -1  = dralmax ! maxdistance between gamma and lepton
#*********************************************************************
# Minimum and maximum invariant mass for pairs                       *
# WARNING: for four lepton final state mmll cut require to have      *
#          different lepton masses for each flavor!                  *           
#*********************************************************************
 0   = mmjj    ! min invariant mass of a jet pair 
 0   = mmbb    ! min invariant mass of a b pair 
 0   = mmaa    ! min invariant mass of gamma gamma pair
 0   = mmll    ! min invariant mass of l+l- (same flavour) lepton pair
 -1  = mmjjmax ! max invariant mass of a jet pair
 -1  = mmbbmax ! max invariant mass of a b pair
 -1  = mmaamax ! max invariant mass of gamma gamma pair
 -1  = mmllmax ! max invariant mass of l+l- (same flavour) lepton pair
#*********************************************************************
# Minimum and maximum invariant mass for all letpons                 *
#*********************************************************************
 0   = mmnl    ! min invariant mass for all letpons (l+- and vl) 
 -1  = mmnlmax ! max invariant mass for all letpons (l+- and vl) 
#*********************************************************************
# Minimum and maximum pt for 4-momenta sum of leptons                *
#*********************************************************************
 0   = ptllmin  ! Minimum pt for 4-momenta sum of leptons(l and vl)
 -1  = ptllmax  ! Maximum pt for 4-momenta sum of leptons(l and vl)
#*********************************************************************
# Inclusive cuts                                                     *
#*********************************************************************
 0  = xptj ! minimum pt for at least one jet  
 0  = xptb ! minimum pt for at least one b 
 0  = xpta ! minimum pt for at least one photon 
 0  = xptl ! minimum pt for at least one charged lepton 
#*********************************************************************
# Control the pt's of the jets sorted by pt                          *
#*********************************************************************
 0   = ptj1min ! minimum pt for the leading jet in pt
 0   = ptj2min ! minimum pt for the second jet in pt
 0   = ptj3min ! minimum pt for the third jet in pt
 0   = ptj4min ! minimum pt for the fourth jet in pt
 -1  = ptj1max ! maximum pt for the leading jet in pt 
 -1  = ptj2max ! maximum pt for the second jet in pt
 -1  = ptj3max ! maximum pt for the third jet in pt
 -1  = ptj4max ! maximum pt for the fourth jet in pt
 0   = cutuse  ! reject event if fails any (0) / all (1) jet pt cuts
#*********************************************************************
# Control the pt's of leptons sorted by pt                           *
#*********************************************************************
 0   = ptl1min ! minimum pt for the leading lepton in pt
 0   = ptl2min ! minimum pt for the second lepton in pt
 0   = ptl3min ! minimum pt for the third lepton in pt
 0   = ptl4min ! minimum pt for the fourth lepton in pt
 -1  = ptl1max ! maximum pt for the leading lepton in pt 
 -1  = ptl2max ! maximum pt for the second lepton in pt
 -1  = ptl3max ! maximum pt for the third lepton in pt
 -1  = ptl4max ! maximum pt for the fourth lepton in pt
#*********************************************************************
# Control the Ht(k)=Sum of k leading jets                            *
#*********************************************************************
 0   = htjmin ! minimum jet HT=Sum(jet pt)
 -1  = htjmax ! maximum jet HT=Sum(jet pt)
 0   = ihtmin  !inclusive Ht for all partons (including b)
 -1  = ihtmax  !inclusive Ht for all partons (including b)
 0   = ht2min ! minimum Ht for the two leading jets
 0   = ht3min ! minimum Ht for the three leading jets
 0   = ht4min ! minimum Ht for the four leading jets
 -1  = ht2max ! maximum Ht for the two leading jets
 -1  = ht3max ! maximum Ht for the three leading jets
 -1  = ht4max ! maximum Ht for the four leading jets
#***********************************************************************
# Photon-isolation cuts, according to hep-ph/9801442                   *
# When ptgmin=0, all the other parameters are ignored                  *
# When ptgmin>0, pta and draj are not going to be used                 *
#***********************************************************************
   0 = ptgmin ! Min photon transverse momentum
 0.4 = R0gamma ! Radius of isolation code
 1.0 = xn ! n parameter of eq.(3.4) in hep-ph/9801442
 1.0 = epsgamma ! epsilon_gamma parameter of eq.(3.4) in hep-ph/9801442
 .true. = isoEM ! isolate photons from EM energy (photons and leptons)
#*********************************************************************
# WBF cuts                                                           *
#*********************************************************************
 0   = xetamin ! minimum rapidity for two jets in the WBF case  
 0   = deltaeta ! minimum rapidity for two jets in the WBF case 
#*********************************************************************
# KT DURHAM CUT                                                      *
#*********************************************************************
 -1    =  ktdurham        
 0.4  =  dparameter 
#*********************************************************************
# maximal pdg code for quark to be considered as a light jet         *
# (otherwise b cuts are applied)                                     *
#*********************************************************************
 4 = maxjetflavor    ! Maximum jet pdg code
#*********************************************************************
# Jet measure cuts                                                   *
#*********************************************************************
 0   = xqcut   ! minimum kt jet measure between partons
#*********************************************************************
#
#*********************************************************************
# Store info for systematics studies                                 *
# WARNING: If use_syst is T, matched Pythia output is                *
#          meaningful ONLY if plotted taking matchscale              *
#          reweighting into account!                                 *
#*********************************************************************
   F  = use_syst      ! Enable systematics studies
#
#**************************************
# Parameter of the systematics study
#  will be used by SysCalc (if installed)
#**************************************                                  
#
0.5 1 2 = sys_scalefact  # factorization/renormalization scale factor
0.5 1 2 = sys_alpsfact  # \alpha_s emission scale factors
30 50 = sys_matchscale # variation of merging scale
# PDF sets and number of members (0 or none for all members).
CT10nlo.LHgrid = sys_pdf # matching scales
# MSTW2008nlo68cl.LHgrid 1  = sys_pdf
</MGRunCard>
<slha>
######################################################################
## PARAM_CARD AUTOMATICALY GENERATED BY MG5 FOLLOWING UFO MODEL   ####
######################################################################
##                                                                  ##
##  Width set on Auto will be computed following the information    ##
##        present in the decay.py files of the model.               ##
##        See  arXiv:1402.1178 for more details.                    ##
##                                                                  ##
######################################################################

###################################
## INFORMATION FOR CKMBLOCK
###################################
Block ckmblock 
    1 2.277360e-01 # cabi 

###################################
## INFORMATION FOR FRBLOCK
###################################
Block frblock 
    1 4.000000e-01 # gz 

###################################
## INFORMATION FOR MASS
###################################
Block mass 
    1 5.040000e-03 # MD 
    2 2.550000e-03 # MU 
    3 1.010000e-01 # MS 
    4 1.270000e+00 # MC 
    5 4.700000e+00 # MB 
    6 1.720000e+02 # MT 
   11 5.110000e-04 # Me 
   13 1.056600e-01 # MM 
   15 1.777000e+00 # MTA 
   23 9.118760e+01 # MZ 
   25 1.200000e+02 # MH 
  10030 2.100000e+03 # MZph 
  10031 3.000000e+02 # MZpl 
## Dependent parameters, given by model restrictions.
## Those values should be edited following the 
## analytical expression. MG5 ignores those values 
## but they are important for interfacing the output of MG5
## to external program such as Pythia.
  12 0.000000 # ve : 0.0 
  14 0.000000 # vm : 0.0 
  16 0.000000 # vt : 0.0 
  21 0.000000 # g : 0.0 
  22 0.000000 # a : 0.0 
  24 79.824360 # w+ : cmath.sqrt(MZ__exp__2/2. + cmath.sqrt(MZ__exp__4/4. - (aEW*cmath.pi*MZ__exp__2)/(Gf*sqrt__2))) 

###################################
## INFORMATION FOR SMINPUTS
###################################
Block sminputs 
    1 1.279000e+02 # aEWM1 
    2 1.166370e-05 # Gf 
    3 1.184000e-01 # aS 

###################################
## INFORMATION FOR YUKAWA
###################################
Block yukawa 
    1 5.040000e-03 # ymdo 
    2 2.550000e-03 # ymup 
    3 1.010000e-01 # yms 
    4 1.270000e+00 # ymc 
    5 4.700000e+00 # ymb 
    6 1.720000e+02 # ymt 
   11 5.110000e-04 # yme 
   13 1.056600e-01 # ymm 
   15 1.777000e+00 # ymtau 

###################################
## INFORMATION FOR DECAY
###################################
DECAY   6 1.508336e+00 # WT 
DECAY  23 2.495200e+00 # WZ 
DECAY  24 2.085000e+00 # WW 
DECAY  25 5.753088e-03 # WH 
## Dependent parameters, given by model restrictions.
## Those values should be edited following the 
## analytical expression. MG5 ignores those values 
## but they are important for interfacing the output of MG5
## to external program such as Pythia.
DECAY  1 0.000000 # d : 0.0 
DECAY  2 0.000000 # u : 0.0 
DECAY  3 0.000000 # s : 0.0 
DECAY  4 0.000000 # c : 0.0 
DECAY  5 0.000000 # b : 0.0 
DECAY  11 0.000000 # e- : 0.0 
DECAY  12 0.000000 # ve : 0.0 
DECAY  13 0.000000 # mu- : 0.0 
DECAY  14 0.000000 # vm : 0.0 
DECAY  15 0.000000 # ta- : 0.0 
DECAY  16 0.000000 # vt : 0.0 
DECAY  21 0.000000 # g : 0.0 
DECAY  22 0.000000 # a : 0.0 
DECAY  10030 0.308725 # zph : (gz__exp__2*MZph*(5 + cmath.sqrt(1 - (4*MT__exp__2)/MZph__exp__2)))/(144.*cmath.pi) 
DECAY  10031 0.132629 # zpl : (5*gz__exp__2*MZpl)/(144.*cmath.pi) 
#===========================================================
# QUANTUM NUMBERS OF NEW STATE(S) (NON SM PDG CODE)
#===========================================================

Block QNUMBERS 10030  # zph 
        1 0  # 3 times electric charge
        2 3  # number of spin states (2S+1)
        3 1  # colour rep (1: singlet, 3: triplet, 8: octet)
        4 0  # Particle/Antiparticle distinction (0=own anti)
Block QNUMBERS 10031  # zpl 
        1 0  # 3 times electric charge
        2 3  # number of spin states (2S+1)
        3 1  # colour rep (1: singlet, 3: triplet, 8: octet)
        4 0  # Particle/Antiparticle distinction (0=own anti)
</slha>
## END BANNER##
<MGGenerationInfo>
#  Number of Events        :         3983
#  Integrated weight (pb)  :  0.40073E-02
#  Max wgt                 :  0.14411E-05
#  Average wgt             :  0.10061E-05
</MGGenerationInfo>
</header>
<init>
     2212     2212  0.40000000000E+04  0.40000000000E+04 0 0  247000  247000 2   1
  0.40089816233E-02  0.11316746967E-04  0.14411360000E-05   0
</init>
<event>
 5   0  0.1395356E-05  0.2097236E+04  0.7818609E-02  0.8562462E-01
       -2   -1    0    0    0  501  0.00000000000E+00  0.00000000000E+00  0.49829768912E+03  0.49829768913E+03  0.25500000920E-02 0. -1.
        2   -1    0    0  501    0  0.00000000000E+00  0.00000000000E+00 -0.22067123521E+04  0.22067123521E+04  0.25500000920E-02 0.  1.
    10030    2    1    2    0    0  0.00000000000E+00  0.00000000000E+00 -0.17084146630E+04  0.27050100412E+04  0.20972359578E+04 0.  0.
        1    1    3    3  502    0  0.85831365479E+03  0.11708131931E+03 -0.92036980744E+02  0.87113786003E+03  0.50400001928E-02 0. -1.
       -1    1    3    3    0  502 -0.85831365479E+03 -0.11708131931E+03 -0.16163776822E+04  0.18338721812E+04  0.50400001928E-02 0.  1.
</event>
<event>
 5   0  0.1395356E-05  0.2098715E+04  0.7818609E-02  0.8561810E-01
        2   -1    0    0  501    0  0.00000000000E+00  0.00000000000E+00  0.13972341612E+04  0.13972341612E+04  0.25500000920E-02 0.  1.
       -2   -1    0    0    0  501  0.00000000000E+00  0.00000000000E+00 -0.78809362452E+03  0.78809362452E+03  0.25500000920E-02 0. -1.
    10030    2    1    2    0    0  0.00000000000E+00  0.00000000000E+00  0.60914053665E+03  0.21853277857E+04  0.20987151635E+04 0.  0.
        1    1    3    3  502    0 -0.11691581981E+02 -0.41554854401E+03 -0.69869372772E+03  0.81301304460E+03  0.50400001928E-02 0. -1.
       -1    1    3    3    0  502  0.11691581981E+02  0.41554854401E+03  0.13078342644E+04  0.13723147411E+04  0.50400001928E-02 0.  1.
</event>
<event>
 5   0  0.1344501E-05  0.2098637E+04  0.7818609E-02  0.8561844E-01
        2   -1    0    0  501    0  0.00000000000E+00  0.00000000000E+00  0.14160992892E+04  0.14160992892E+04  0.25500000920E-02 0. -1.
       -2   -1    0    0    0  501  0.00000000000E+00  0.00000000000E+00 -0.77753646003E+03  0.77753646003E+03  0.25500000920E-02 0.  1.
    10030    2    1    2    0    0  0.00000000000E+00  0.00000000000E+00  0.63856282920E+03  0.21936357493E+04  0.20986365368E+04 0.  0.
        3    1    3    3  502    0  0.79871955849E+03 -0.67756335071E+03  0.38558621715E+03  0.11161190655E+04  0.10100000352E+00 0. -1.
       -3    1    3    3    0  502 -0.79871955849E+03  0.67756335071E+03  0.25297661206E+03  0.10775166838E+04  0.10100000352E+00 0.  1.
</event>
<event>
 5   0  0.1395356E-05  0.2113797E+04  0.7818609E-02  0.8555190E-01
        2   -1    0    0  501    0  0.00000000000E+00  0.00000000000E+00  0.10004055062E+04  0.10004055062E+04  0.25500000920E-02 0. -1.
       -2   -1    0    0    0  501  0.00000000000E+00  0.00000000000E+00 -0.11165812981E+04  0.11165812981E+04  0.25500000920E-02 0.  1.
    10030    2    1    2    0    0  0.00000000000E+00  0.00000000000E+00 -0.11617579188E+03  0.21169868042E+04  0.21137966588E+04 0.  0.
        1    1    3    3  502    0  0.15478066720E+03 -0.10260692145E+04 -0.25903714404E+03  0.10695210750E+04  0.50400001928E-02 0.  1.
       -1    1    3    3    0  502 -0.15478066720E+03  0.10260692145E+04  0.14286135216E+03  0.10474657292E+04  0.50400001928E-02 0. -1.
</event>
<event>
 5   0  0.1344501E-05  0.2099814E+04  0.7818609E-02  0.8561325E-01
        2   -1    0    0  501    0  0.00000000000E+00  0.00000000000E+00  0.12578431159E+04  0.12578431159E+04  0.25500000920E-02 0. -1.
       -2   -1    0    0    0  501  0.00000000000E+00  0.00000000000E+00 -0.87634542375E+03  0.87634542375E+03  0.25500000920E-02 0.  1.
    10030    2    1    2    0    0  0.00000000000E+00  0.00000000000E+00  0.38149769215E+03  0.21341885396E+04  0.20998143331E+04 0.  0.
        3    1    3    3  502    0  0.72812107991E+03 -0.25604498143E+01 -0.57803164632E+03  0.92967061762E+03  0.10100000352E+00 0.  1.
       -3    1    3    3    0  502 -0.72812107991E+03  0.25604498143E+01  0.95952933846E+03  0.12045179220E+04  0.10100000352E+00 0. -1.
</event>
<event>
 5   0  0.6283269E-06  0.2096764E+04  0.7818609E-02  0.8562670E-01
        1   -1    0    0  501    0  0.00000000000E+00  0.00000000000E+00  0.10400253916E+04  0.10400253916E+04  0.50400001928E-02 0.  1.
       -1   -1    0    0    0  501  0.00000000000E+00  0.00000000000E+00 -0.10568057973E+04  0.10568057973E+04  0.50400001928E-02 0. -1.
    10030    2    1    2    0    0  0.00000000000E+00  0.00000000000E+00 -0.16780405734E+02  0.20968311889E+04  0.20967640432E+04 0.  0.
        1    1    3    3  502    0 -0.29681829325E+03  0.63746629314E+03 -0.78600142652E+03  0.10546386190E+04  0.50400001928E-02 0. -1.
       -1    1    3    3    0  502  0.29681829325E+03 -0.63746629314E+03  0.76922102078E+03  0.10421925700E+04  0.50400001928E-02 0.  1.
</event>
<event>
 5   0  0.6589193E-06  0.2103110E+04  0.7818609E-02  0.8559875E-01
       -1   -1    0    0    0  501  0.00000000000E+00  0.00000000000E+00  0.98569846589E+03  0.98569846590E+03  0.50400001928E-02 0. -1.
        1   -1    0    0  501    0  0.00000000000E+00  0.00000000000E+00 -0.11218114952E+04  0.11218114952E+04  0.50400001928E-02 0.  1.
    10030    2    1    2    0    0  0.00000000000E+00  0.00000000000E+00 -0.13611302929E+03  0.21075099611E+04  0.21031099542E+04 0.  0.
        3    1    3    3  502    0 -0.12879803765E+03 -0.28233787669E+03 -0.10748795151E+04  0.11187804044E+04  0.10100000352E+00 0.  1.
       -3    1    3    3    0  502  0.12879803765E+03  0.28233787669E+03  0.93876648582E+03  0.98872955666E+03  0.10100000352E+00 0. -1.
</event>
<event>
 5   0  0.1395356E-05  0.2099385E+04  0.7818609E-02  0.8561514E-01
       -2   -1    0    0    0  501  0.00000000000E+00  0.00000000000E+00  0.53852747274E+03  0.53852747275E+03  0.25500000920E-02 0.  1.
        2   -1    0    0  501    0  0.00000000000E+00  0.00000000000E+00 -0.20460499810E+04  0.20460499810E+04  0.25500000920E-02 0. -1.
    10030    2    1    2    0    0  0.00000000000E+00  0.00000000000E+00 -0.15075225083E+04  0.25845774538E+04  0.20993847912E+04 0.  0.
        1    1    3    3  502    0  0.66223804855E+03  0.27305023260E+03  0.19086216766E+03  0.74131236975E+03  0.50400001928E-02 0.  1.
       -1    1    3    3    0  502 -0.66223804855E+03 -0.27305023260E+03 -0.16983846760E+04  0.18432650840E+04  0.50400001928E-02 0. -1.
</event>
<event>
 5   0  0.6599245E-06  0.2099041E+04  0.7818609E-02  0.8561666E-01
        1   -1    0    0  501    0  0.00000000000E+00  0.00000000000E+00  0.13462498366E+04  0.13462498366E+04  0.50400001928E-02 0.  1.
       -1   -1    0    0    0  501  0.00000000000E+00  0.00000000000E+00 -0.81819410721E+03  0.81819410722E+03  0.50400001928E-02 0. -1.
    10030    2    1    2    0    0  0.00000000000E+00  0.00000000000E+00  0.52805572938E+03  0.21644439438E+04  0.20990413842E+04 0.  0.
        2    1    3    3  502    0  0.62975035330E+03 -0.65479577025E+03 -0.27784623848E+03  0.95002186315E+03  0.25500000920E-02 0. -1.
       -2    1    3    3    0  502 -0.62975035330E+03  0.65479577025E+03  0.80590196786E+03  0.12144220807E+04  0.25500000920E-02 0.  1.
</event>
<event>
 5   0  0.1395356E-05  0.2099303E+04  0.7818609E-02  0.8561550E-01
        2   -1    0    0  501    0  0.00000000000E+00  0.00000000000E+00  0.18181895101E+04  0.18181895101E+04  0.25500000920E-02 0. -1.
       -2   -1    0    0    0  501  0.00000000000E+00  0.00000000000E+00 -0.60597009786E+03  0.60597009787E+03  0.25500000920E-02 0.  1.
    10030    2    1    2    0    0  0.00000000000E+00  0.00000000000E+00  0.12122194122E+04  0.24241596080E+04  0.20993031943E+04 0.  0.
        1    1    3    3  502    0  0.11872362612E+03 -0.83551046212E+03  0.13268735265E+04  0.15725032232E+04  0.50400001928E-02 0. -1.
       -1    1    3    3    0  502 -0.11872362612E+03  0.83551046212E+03 -0.11465411428E+03  0.85165638473E+03  0.50400001928E-02 0.  1.
</event>
<event>
 5   0  0.1390735E-05  0.2091205E+04  0.7818609E-02  0.8565128E-01
       -2   -1    0    0    0  501  0.00000000000E+00  0.00000000000E+00  0.69041446086E+03  0.69041446087E+03  0.25500000920E-02 0. -1.
        2   -1    0    0  501    0  0.00000000000E+00  0.00000000000E+00 -0.15835190282E+04  0.15835190282E+04  0.25500000920E-02 0.  1.
    10030    2    1    2    0    0  0.00000000000E+00  0.00000000000E+00 -0.89310456730E+03  0.22739334890E+04  0.20912048547E+04 0.  0.
        5    1    3    3  502    0  0.10194803618E+03 -0.44885938759E+02  0.68393253830E+03  0.69296028495E+03  0.46999998093E+01 0. -1.
       -5    1    3    3    0  502 -0.10194803618E+03  0.44885938759E+02 -0.15770371056E+04  0.15809732041E+04  0.46999998093E+01 0.  1.
</event>
<event>
 5   0  0.1390735E-05  0.2097621E+04  0.7818609E-02  0.8562292E-01
       -2   -1    0    0    0  501  0.00000000000E+00  0.00000000000E+00  0.74265173656E+03  0.74265173656E+03  0.25500000920E-02 0. -1.
        2   -1    0    0  501    0  0.00000000000E+00  0.00000000000E+00 -0.14811834883E+04  0.14811834883E+04  0.25500000920E-02 0.  1.
    10030    2    1    2    0    0  0.00000000000E+00  0.00000000000E+00 -0.73853175175E+03  0.22238352249E+04  0.20976210237E+04 0.  0.
        5    1    3    3  502    0 -0.24430646919E+03 -0.87038109398E+03 -0.93298587771E+03  0.12991280297E+04  0.46999998093E+01 0. -1.
       -5    1    3    3    0  502  0.24430646919E+03  0.87038109398E+03  0.19445412596E+03  0.92470719514E+03  0.46999998093E+01 0.  1.
</event>
<event>
 5   0  0.6917078E-06  0.2098005E+04  0.7818609E-02  0.8562122E-01
       -1   -1    0    0    0  501  0.00000000000E+00  0.00000000000E+00  0.43175566998E+03  0.43175567001E+03  0.50400001928E-02 0. -1.
        1   -1    0    0  501    0  0.00000000000E+00  0.00000000000E+00 -0.25486792914E+04  0.25486792914E+04  0.50400001928E-02 0.  1.
    10030    2    1    2    0    0  0.00000000000E+00  0.00000000000E+00 -0.21169236215E+04  0.29804349615E+04  0.20980054672E+04 0.  0.
        5    1    3    3  502    0  0.37142050246E+03  0.56619109464E+03 -0.21965944677E+04  0.22986028127E+04  0.46999998093E+01 0.  1.
       -5    1    3    3    0  502 -0.37142050246E+03 -0.56619109464E+03  0.79670846204E+02  0.68183214872E+03  0.46999998093E+01 0. -1.
</event>
<event>
 5   0  0.5009125E-06  0.2100160E+04  0.7818609E-02  0.8561173E-01
       -3   -1    0    0    0  501  0.00000000000E+00  0.00000000000E+00  0.12252498933E+04  0.12252498974E+04  0.10100000352E+00 0. -1.
        3   -1    0    0  501    0  0.00000000000E+00  0.00000000000E+00 -0.89995372194E+03  0.89995372760E+03  0.10100000352E+00 0.  1.
    10030    2    1    2    0    0  0.00000000000E+00  0.00000000000E+00  0.32529617134E+03  0.21252036250E+04  0.21001601960E+04 0.  0.
        5    1    3    3  502    0  0.49334100544E+02 -0.83043946989E+03  0.81105609643E+03  0.11618509578E+04  0.46999998093E+01 0. -1.
       -5    1    3    3    0  502 -0.49334100544E+02  0.83043946989E+03 -0.48575992509E+03  0.96335266722E+03  0.46999998093E+01 0.  1.
</event>
<event>
 5   0  0.6283269E-06  0.2098098E+04  0.7818609E-02  0.8562082E-01
        1   -1    0    0  501    0  0.00000000000E+00  0.00000000000E+00  0.42589162887E+03  0.42589162890E+03  0.50400001928E-02 0.  1.
       -1   -1    0    0    0  501  0.00000000000E+00  0.00000000000E+00 -0.25839991982E+04  0.25839991982E+04  0.50400001928E-02 0. -1.
    10030    2    1    2    0    0  0.00000000000E+00  0.00000000000E+00 -0.21581075694E+04  0.30098908271E+04  0.20980978314E+04 0.  0.
        1    1    3    3  502    0  0.43971480104E+03 -0.92029434356E+03 -0.14310755961E+04  0.17573469057E+04  0.50400001928E-02 0.  1.
       -1    1    3    3    0  502 -0.43971480104E+03  0.92029434356E+03 -0.72703197324E+03  0.12525439215E+04  0.50400001928E-02 0. -1.
</event>
<event>
 5   0  0.6589193E-06  0.2100286E+04  0.7818609E-02  0.8561117E-01
        1   -1    0    0  501    0  0.00000000000E+00  0.00000000000E+00  0.11690656803E+04  0.11690656803E+04  0.50400001928E-02 0.  1.
       -1   -1    0    0    0  501  0.00000000000E+00  0.00000000000E+00 -0.94331773445E+03  0.94331773446E+03  0.50400001928E-02 0. -1.
    10030    2    1    2    0    0  0.00000000000E+00  0.00000000000E+00  0.22574794587E+03  0.21123834148E+04  0.21002860653E+04 0.  0.
        3    1    3    3  502    0  0.28725780710E+02 -0.55903850146E+03 -0.78075436491E+03  0.96069069170E+03  0.10100000352E+00 0. -1.
       -3    1    3    3    0  502 -0.28725780710E+02  0.55903850146E+03  0.10065023108E+04  0.11516927231E+04  0.10100000352E+00 0.  1.
</event>
<event>
 5   0  0.6589193E-06  0.2099897E+04  0.7818609E-02  0.8561289E-01
        1   -1    0    0  501    0  0.00000000000E+00  0.00000000000E+00  0.75515563136E+03  0.75515563138E+03  0.50400001928E-02 0.  1.
       -1   -1    0    0    0  501  0.00000000000E+00  0.00000000000E+00 -0.14598214232E+04  0.14598214232E+04  0.50400001928E-02 0. -1.
    10030    2    1    2    0    0  0.00000000000E+00  0.00000000000E+00 -0.70466579184E+03  0.22149770546E+04  0.20998974913E+04 0.  0.
        3    1    3    3  502    0 -0.90587864076E+03 -0.44669988100E+03 -0.49850079878E+02  0.10112576013E+04  0.10100000352E+00 0.  1.
       -3    1    3    3    0  502  0.90587864076E+03  0.44669988100E+03 -0.65481571196E+03  0.12037194533E+04  0.10100000352E+00 0. -1.
</event>
<event>
 5   0  0.1395356E-05  0.2095862E+04  0.7818609E-02  0.8563068E-01
        2   -1    0    0  501    0  0.00000000000E+00  0.00000000000E+00  0.11954382438E+04  0.11954382438E+04  0.25500000920E-02 0.  1.
       -2   -1    0    0    0  501  0.00000000000E+00  0.00000000000E+00 -0.91862484424E+03  0.91862484424E+03  0.25500000920E-02 0. -1.
    10030    2    1    2    0    0  0.00000000000E+00  0.00000000000E+00  0.27681339956E+03  0.21140630880E+04  0.20958618948E+04 0.  0.
        1    1    3    3  502    0 -0.58077973199E+03  0.77233989574E+03  0.54732248101E+03  0.11105745855E+04  0.50400001928E-02 0.  1.
       -1    1    3    3    0  502  0.58077973199E+03 -0.77233989574E+03 -0.27050908145E+03  0.10034885026E+04  0.50400001928E-02 0. -1.
</event>
<event>
 5   0  0.6238363E-06  0.2101768E+04  0.7818609E-02  0.8560465E-01
        1   -1    0    0  501    0  0.00000000000E+00  0.00000000000E+00  0.95788316820E+03  0.95788316822E+03  0.50400001928E-02 0. -1.
       -1   -1    0    0    0  501  0.00000000000E+00  0.00000000000E+00 -0.11529140005E+04  0.11529140005E+04  0.50400001928E-02 0.  1.
    10030    2    1    2    0    0  0.00000000000E+00  0.00000000000E+00 -0.19503083226E+03  0.21107971687E+04  0.21017677469E+04 0.  0.
        4    1    3    3  502    0 -0.49538294759E+03  0.40924304448E+03  0.73760445582E+03  0.97823620888E+03  0.12699999809E+01 0. -1.
       -4    1    3    3    0  502  0.49538294759E+03 -0.40924304448E+03 -0.93263528808E+03  0.11325609598E+04  0.12699999809E+01 0.  1.
</event>
<event>
 5   0  0.6283269E-06  0.2095577E+04  0.7818609E-02  0.8563194E-01
       -1   -1    0    0    0  501  0.00000000000E+00  0.00000000000E+00  0.64795203589E+03  0.64795203591E+03  0.50400001928E-02 0. -1.
        1   -1    0    0  501    0  0.00000000000E+00  0.00000000000E+00 -0.16943552952E+04  0.16943552952E+04  0.50400001928E-02 0.  1.
    10030    2    1    2    0    0  0.00000000000E+00  0.00000000000E+00 -0.10464032593E+04  0.23423073311E+04  0.20955772122E+04 0.  0.
        1    1    3    3  502    0  0.87866426542E+03 -0.48023494887E+03 -0.86804608584E+03  0.13252096078E+04  0.50400001928E-02 0.  1.
       -1    1    3    3    0  502 -0.87866426542E+03  0.48023494887E+03 -0.17835717349E+03  0.10170977233E+04  0.50400001928E-02 0. -1.
</event>
<event>
 5   0  0.1398469E-05  0.2107465E+04  0.7818609E-02  0.8557962E-01
       -2   -1    0    0    0  501  0.00000000000E+00  0.00000000000E+00  0.17437119370E+04  0.17437119370E+04  0.25500000920E-02 0.  1.
        2   -1    0    0  501    0  0.00000000000E+00  0.00000000000E+00 -0.63677524670E+03  0.63677524670E+03  0.25500000920E-02 0. -1.
    10030    2    1    2    0    0  0.00000000000E+00  0.00000000000E+00  0.11069366903E+04  0.23804871837E+04  0.21074653960E+04 0.  0.
        2    1    3    3  502    0  0.76692801076E+03 -0.52604742009E+03  0.11130780858E+04  0.14504645073E+04  0.25500000920E-02 0.  1.
       -2    1    3    3    0  502 -0.76692801076E+03  0.52604742009E+03 -0.61413955030E+01  0.93002267640E+03  0.25500000920E-02 0. -1.
</event>
<event>
 5   0  0.6589193E-06  0.2103355E+04  0.7818609E-02  0.8559767E-01
        1   -1    0    0  501    0  0.00000000000E+00  0.00000000000E+00  0.13514448471E+04  0.13514448471E+04  0.50400001928E-02 0.  1.
       -1   -1    0    0    0  501  0.00000000000E+00  0.00000000000E+00 -0.81840210013E+03  0.81840210015E+03  0.50400001928E-02 0. -1.
    10030    2    1    2    0    0  0.00000000000E+00  0.00000000000E+00  0.53304274695E+03  0.21698469472E+04  0.21033547500E+04 0.  0.
        3    1    3    3  502    0 -0.70566323415E+03 -0.68185541066E+03  0.65681717550E+03  0.11808032068E+04  0.10100000352E+00 0.  1.
       -3    1    3    3    0  502  0.70566323415E+03  0.68185541066E+03 -0.12377442854E+03  0.98904374040E+03  0.10100000352E+00 0. -1.
</event>
<event>
 5   0  0.1344501E-05  0.2097779E+04  0.7818609E-02  0.8562222E-01
        2   -1    0    0  501    0  0.00000000000E+00  0.00000000000E+00  0.83314952336E+03  0.83314952336E+03  0.25500000920E-02 0. -1.
       -2   -1    0    0    0  501  0.00000000000E+00  0.00000000000E+00 -0.13204944691E+04  0.13204944691E+04  0.25500000920E-02 0.  1.
    10030    2    1    2    0    0  0.00000000000E+00  0.00000000000E+00 -0.48734494575E+03  0.21536439925E+04  0.20977791471E+04 0.  0.
        3    1    3    3  502    0  0.37300993719E+03  0.98032149992E+03 -0.24199466670E+03  0.10764423279E+04  0.10100000352E+00 0. -1.
       -3    1    3    3    0  502 -0.37300993719E+03 -0.98032149992E+03 -0.24535027905E+03  0.10772016645E+04  0.10100000352E+00 0.  1.
</event>
<event>
 5   0  0.6283269E-06  0.2098105E+04  0.7818609E-02  0.8562079E-01
        1   -1    0    0  501    0  0.00000000000E+00  0.00000000000E+00  0.12605689014E+04  0.12605689014E+04  0.50400001928E-02 0. -1.
       -1   -1    0    0    0  501  0.00000000000E+00  0.00000000000E+00 -0.87302731460E+03  0.87302731462E+03  0.50400001928E-02 0.  1.
    10030    2    1    2    0    0  0.00000000000E+00  0.00000000000E+00  0.38754158680E+03  0.21335962160E+04  0.20981049382E+04 0.  0.
        1    1    3    3  502    0  0.33013148101E+03  0.50338425961E+02  0.12050732201E+04  0.12504887915E+04  0.50400001928E-02 0. -1.
       -1    1    3    3    0  502 -0.33013148101E+03 -0.50338425961E+02 -0.81753163326E+03  0.88310742455E+03  0.50400001928E-02 0.  1.
</event>
<event>
 5   0  0.1398469E-05  0.2103911E+04  0.7818609E-02  0.8559522E-01
        2   -1    0    0  501    0  0.00000000000E+00  0.00000000000E+00  0.19020169441E+04  0.19020169441E+04  0.25500000920E-02 0. -1.
       -2   -1    0    0    0  501  0.00000000000E+00  0.00000000000E+00 -0.58180898700E+03  0.58180898701E+03  0.25500000920E-02 0.  1.
    10030    2    1    2    0    0  0.00000000000E+00  0.00000000000E+00  0.13202079571E+04  0.24838259311E+04  0.21039111688E+04 0.  0.
        2    1    3    3  502    0 -0.40764959135E+03 -0.72727005751E+03 -0.97224493348E+02  0.83937627319E+03  0.25500000920E-02 0.  1.
       -2    1    3    3    0  502  0.40764959135E+03  0.72727005751E+03  0.14174324505E+04  0.16444496579E+04  0.25500000920E-02 0. -1.
</event>
<event>
 5   0  0.6599245E-06  0.2081632E+04  0.7818609E-02  0.8569378E-01
       -1   -1    0    0    0  501  0.00000000000E+00  0.00000000000E+00  0.13761321065E+04  0.13761321065E+04  0.50400001928E-02 0. -1.
        1   -1    0    0  501    0  0.00000000000E+00  0.00000000000E+00 -0.78720505934E+03  0.78720505935E+03  0.50400001928E-02 0.  1.
    10030    2    1    2    0    0  0.00000000000E+00  0.00000000000E+00  0.58892704719E+03  0.21633371659E+04  0.20816322025E+04 0.  0.
        2    1    3    3  502    0  0.10295623556E+04  0.14084374120E+03  0.35561661735E+03  0.10983163397E+04  0.25500000920E-02 0.  1.
       -2    1    3    3    0  502 -0.10295623556E+04 -0.14084374120E+03  0.23331042983E+03  0.10650208262E+04  0.25500000920E-02 0. -1.
</event>
<event>
 5   0  0.1344501E-05  0.2098391E+04  0.7818609E-02  0.8561953E-01
       -2   -1    0    0    0  501  0.00000000000E+00  0.00000000000E+00  0.48722482371E+03  0.48722482372E+03  0.25500000920E-02 0. -1.
        2   -1    0    0  501    0  0.00000000000E+00  0.00000000000E+00 -0.22593490756E+04  0.22593490756E+04  0.25500000920E-02 0.  1.
    10030    2    1    2    0    0  0.00000000000E+00  0.00000000000E+00 -0.17721242518E+04  0.27465738993E+04  0.20983907692E+04 0.  0.
        3    1    3    3  502    0  0.19580372009E+03  0.69035658163E+03 -0.18879269391E+04  0.20197028109E+04  0.10100000352E+00 0.  1.
       -3    1    3    3    0  502 -0.19580372009E+03 -0.69035658163E+03  0.11580268726E+03  0.72687108842E+03  0.10100000352E+00 0. -1.
</event>
<event>
 5   0  0.1390735E-05  0.2105006E+04  0.7818609E-02  0.8559042E-01
       -2   -1    0    0    0  501  0.00000000000E+00  0.00000000000E+00  0.10780266558E+04  0.10780266559E+04  0.25500000920E-02 0.  1.
        2   -1    0    0  501    0  0.00000000000E+00  0.00000000000E+00 -0.10275833745E+04  0.10275833745E+04  0.25500000920E-02 0. -1.
    10030    2    1    2    0    0  0.00000000000E+00  0.00000000000E+00  0.50443281346E+02  0.21056100304E+04  0.21050057186E+04 0.  0.
        5    1    3    3  502    0  0.26327874972E+03  0.31733175532E+03 -0.94341839738E+03  0.10295996822E+04  0.46999998093E+01 0. -1.
       -5    1    3    3    0  502 -0.26327874972E+03 -0.31733175532E+03  0.99386167873E+03  0.10760103482E+04  0.46999998093E+01 0.  1.
</event>
<event>
 5   0  0.6599245E-06  0.2165769E+04  0.7818609E-02  0.8532813E-01
       -1   -1    0    0    0  501  0.00000000000E+00  0.00000000000E+00  0.62692562792E+03  0.62692562794E+03  0.50400001928E-02 0.  1.
        1   -1    0    0  501    0  0.00000000000E+00  0.00000000000E+00 -0.18704586328E+04  0.18704586328E+04  0.50400001928E-02 0. -1.
    10030    2    1    2    0    0  0.00000000000E+00  0.00000000000E+00 -0.12435330049E+04  0.24973842607E+04  0.21657686422E+04 0.  0.
        2    1    3    3  502    0  0.28456325421E+03 -0.48705282373E+03 -0.16876617858E+04  0.17794378332E+04  0.25500000920E-02 0. -1.
       -2    1    3    3    0  502 -0.28456325421E+03  0.48705282373E+03  0.44412878097E+03  0.71794642756E+03  0.25500000920E-02 0.  1.
</event>
<event>
 5   0  0.1344501E-05  0.2093750E+04  0.7818609E-02  0.8564001E-01
        2   -1    0    0  501    0  0.00000000000E+00  0.00000000000E+00  0.12146473607E+04  0.12146473607E+04  0.25500000920E-02 0. -1.
       -2   -1    0    0    0  501  0.00000000000E+00  0.00000000000E+00 -0.90227637795E+03  0.90227637795E+03  0.25500000920E-02 0.  1.
    10030    2    1    2    0    0  0.00000000000E+00  0.00000000000E+00  0.31237098272E+03  0.21169237386E+04  0.20937503395E+04 0.  0.
        3    1    3    3  502    0 -0.31492519035E+03  0.79989798838E+03 -0.44786554664E+03  0.96932874991E+03  0.10100000352E+00 0. -1.
       -3    1    3    3    0  502  0.31492519035E+03 -0.79989798838E+03  0.76023652935E+03  0.11475949887E+04  0.10100000352E+00 0.  1.
</event>
<event>
 5   0  0.1395356E-05  0.2099272E+04  0.7818609E-02  0.8561564E-01
       -2   -1    0    0    0  501  0.00000000000E+00  0.00000000000E+00  0.76497745245E+03  0.76497745246E+03  0.25500000920E-02 0.  1.
        2   -1    0    0  501    0  0.00000000000E+00  0.00000000000E+00 -0.14402192293E+04  0.14402192293E+04  0.25500000920E-02 0. -1.
    10030    2    1    2    0    0  0.00000000000E+00  0.00000000000E+00 -0.67524177680E+03  0.22051966817E+04  0.20992715279E+04 0.  0.
        1    1    3    3  502    0  0.57880827912E+03 -0.20110086288E+02 -0.12571838505E+04  0.13841729204E+04  0.50400001928E-02 0. -1.
       -1    1    3    3    0  502 -0.57880827912E+03  0.20110086288E+02  0.58194207368E+03  0.82102376135E+03  0.50400001928E-02 0.  1.
</event>
<event>
 5   0  0.6589193E-06  0.2099157E+04  0.7818609E-02  0.8561615E-01
        1   -1    0    0  501    0  0.00000000000E+00  0.00000000000E+00  0.93857589291E+03  0.93857589292E+03  0.50400001928E-02 0.  1.
       -1   -1    0    0    0  501  0.00000000000E+00  0.00000000000E+00 -0.11737092707E+04  0.11737092707E+04  0.50400001928E-02 0. -1.
    10030    2    1    2    0    0  0.00000000000E+00  0.00000000000E+00 -0.23513337781E+03  0.21122851636E+04  0.20991571897E+04 0.  0.
        3    1    3    3  502    0 -0.55060745655E+03  0.38409127900E+03  0.69427542084E+03  0.96577070363E+03  0.10100000352E+00 0. -1.
       -3    1    3    3    0  502  0.55060745655E+03 -0.38409127900E+03 -0.92940879865E+03  0.11465144600E+04  0.10100000352E+00 0.  1.
</event>
<event>
 5   0  0.1344501E-05  0.2097582E+04  0.7818609E-02  0.8562309E-01
        2   -1    0    0  501    0  0.00000000000E+00  0.00000000000E+00  0.10629544009E+04  0.10629544009E+04  0.25500000920E-02 0. -1.
       -2   -1    0    0    0  501  0.00000000000E+00  0.00000000000E+00 -0.10348163933E+04  0.10348163933E+04  0.25500000920E-02 0.  1.
    10030    2    1    2    0    0  0.00000000000E+00  0.00000000000E+00  0.28138007575E+02  0.20977707942E+04  0.20975820741E+04 0.  0.
        3    1    3    3  502    0 -0.17916932803E+03  0.50929700453E+03 -0.88516568566E+03  0.10368237016E+04  0.10100000352E+00 0.  1.
       -3    1    3    3    0  502  0.17916932803E+03 -0.50929700453E+03  0.91330369324E+03  0.10609470926E+04  0.10100000352E+00 0. -1.
</event>
<event>
 5   0  0.6238363E-06  0.2101962E+04  0.7818609E-02  0.8560379E-01
       -1   -1    0    0    0  501  0.00000000000E+00  0.00000000000E+00  0.45075262281E+03  0.45075262284E+03  0.50400001928E-02 0. -1.
        1   -1    0    0  501    0  0.00000000000E+00  0.00000000000E+00 -0.24504826105E+04  0.24504826105E+04  0.50400001928E-02 0.  1.
    10030    2    1    2    0    0  0.00000000000E+00  0.00000000000E+00 -0.19997299877E+04  0.29012352333E+04  0.21019623820E+04 0.  0.
        4    1    3    3  502    0 -0.75640935662E+02 -0.88015191703E+03 -0.17857246952E+04  0.19922859353E+04  0.12699999809E+01 0.  1.
       -4    1    3    3    0  502  0.75640935662E+02  0.88015191703E+03 -0.21400529247E+03  0.90894929798E+03  0.12699999809E+01 0. -1.
</event>
<event>
 5   0  0.6283269E-06  0.2100047E+04  0.7818609E-02  0.8561223E-01
       -1   -1    0    0    0  501  0.00000000000E+00  0.00000000000E+00  0.85863271823E+03  0.85863271825E+03  0.50400001928E-02 0. -1.
        1   -1    0    0  501    0  0.00000000000E+00  0.00000000000E+00 -0.12840756395E+04  0.12840756395E+04  0.50400001928E-02 0.  1.
    10030    2    1    2    0    0  0.00000000000E+00  0.00000000000E+00 -0.42544292124E+03  0.21427083577E+04  0.21000470059E+04 0.  0.
        1    1    3    3  502    0 -0.37035345472E+03 -0.92529207578E+03 -0.54992304526E+03  0.11383068403E+04  0.50400001928E-02 0.  1.
       -1    1    3    3    0  502  0.37035345472E+03  0.92529207578E+03  0.12448012402E+03  0.10044015174E+04  0.50400001928E-02 0. -1.
</event>
<event>
 5   0  0.6589193E-06  0.2099666E+04  0.7818609E-02  0.8561390E-01
       -1   -1    0    0    0  501  0.00000000000E+00  0.00000000000E+00  0.82470312218E+03  0.82470312220E+03  0.50400001928E-02 0.  1.
        1   -1    0    0  501    0  0.00000000000E+00  0.00000000000E+00 -0.13364197033E+04  0.13364197033E+04  0.50400001928E-02 0. -1.
    10030    2    1    2    0    0  0.00000000000E+00  0.00000000000E+00 -0.51171658114E+03  0.21611228255E+04  0.20996661658E+04 0.  0.
        3    1    3    3  502    0 -0.28077212135E+03  0.47817802724E+03 -0.11733887707E+04  0.12978167926E+04  0.10100000352E+00 0. -1.
       -3    1    3    3    0  502  0.28077212135E+03 -0.47817802724E+03  0.66167218953E+03  0.86330603291E+03  0.10100000352E+00 0.  1.
</event>
<event>
 5   0  0.1441136E-05  0.2099427E+04  0.7818609E-02  0.8561496E-01
       -2   -1    0    0    0  501  0.00000000000E+00  0.00000000000E+00  0.96610310676E+03  0.96610310676E+03  0.25500000920E-02 0.  1.
        2   -1    0    0  501    0  0.00000000000E+00  0.00000000000E+00 -0.11405597224E+04  0.11405597224E+04  0.25500000920E-02 0. -1.
    10030    2    1    2    0    0  0.00000000000E+00  0.00000000000E+00 -0.17445661560E+03  0.21066628291E+04  0.20994268658E+04 0.  0.
        4    1    3    3  502    0  0.84784315217E+03  0.19018633646E+03  0.50377350185E+03  0.10043894699E+04  0.12699999809E+01 0.  1.
       -4    1    3    3    0  502 -0.84784315217E+03 -0.19018633646E+03 -0.67823011744E+03  0.11022733592E+04  0.12699999809E+01 0. -1.
</event>
<event>
 5   0  0.1441136E-05  0.2103299E+04  0.7818609E-02  0.8559791E-01
        2   -1    0    0  501    0  0.00000000000E+00  0.00000000000E+00  0.17905848788E+04  0.17905848788E+04  0.25500000920E-02 0.  1.
       -2   -1    0    0    0  501  0.00000000000E+00  0.00000000000E+00 -0.61765672417E+03  0.61765672418E+03  0.25500000920E-02 0. -1.
    10030    2    1    2    0    0  0.00000000000E+00  0.00000000000E+00  0.11729281546E+04  0.24082416030E+04  0.21032991139E+04 0.  0.
        4    1    3    3  502    0 -0.24452048552E+02 -0.96570814054E+03  0.11053795256E+03  0.97232215198E+03  0.12699999809E+01 0. -1.
       -4    1    3    3    0  502  0.24452048552E+02  0.96570814054E+03  0.10623902021E+04  0.14359194510E+04  0.12699999809E+01 0.  1.
</event>
<event>
 5   0  0.5009125E-06  0.2100590E+04  0.7818609E-02  0.8560984E-01
       -4   -1    0    0    0  501  0.00000000000E+00  0.00000000000E+00  0.13471345651E+04  0.13471351637E+04  0.12699999809E+01 0.  1.
        4   -1    0    0  501    0  0.00000000000E+00  0.00000000000E+00 -0.81886222381E+03  0.81886320865E+03  0.12699999809E+01 0. -1.
    10030    2    1    2    0    0  0.00000000000E+00  0.00000000000E+00  0.52827234127E+03  0.21659983724E+04  0.21005897464E+04 0.  0.
        1    1    3    3  502    0  0.26091289187E+03 -0.51932139015E+03  0.11662195189E+04  0.13030112086E+04  0.50400001928E-02 0.  1.
       -1    1    3    3    0  502 -0.26091289187E+03  0.51932139015E+03 -0.63794717762E+03  0.86298716379E+03  0.50400001928E-02 0. -1.
</event>
<event>
 5   0  0.6589193E-06  0.2085328E+04  0.7818609E-02  0.8567734E-01
       -1   -1    0    0    0  501  0.00000000000E+00  0.00000000000E+00  0.71985760500E+03  0.71985760502E+03  0.50400001928E-02 0.  1.
        1   -1    0    0  501    0  0.00000000000E+00  0.00000000000E+00 -0.15102274031E+04  0.15102274031E+04  0.50400001928E-02 0. -1.
    10030    2    1    2    0    0  0.00000000000E+00  0.00000000000E+00 -0.79036979812E+03  0.22300850082E+04  0.20853284456E+04 0.  0.
        3    1    3    3  502    0  0.30058237331E+03  0.90991582052E+03  0.44255715908E+02  0.95929929749E+03  0.10100000352E+00 0.  1.
       -3    1    3    3    0  502 -0.30058237331E+03 -0.90991582052E+03 -0.83462551403E+03  0.12707857107E+04  0.10100000352E+00 0. -1.
</event>
<event>
 5   0  0.6917078E-06  0.2126357E+04  0.7818609E-02  0.8549721E-01
        1   -1    0    0  501    0  0.00000000000E+00  0.00000000000E+00  0.48005541763E+03  0.48005541766E+03  0.50400001928E-02 0.  1.
       -1   -1    0    0    0  501  0.00000000000E+00  0.00000000000E+00 -0.23546211188E+04  0.23546211188E+04  0.50400001928E-02 0. -1.
    10030    2    1    2    0    0  0.00000000000E+00  0.00000000000E+00 -0.18745657011E+04  0.28346765364E+04  0.21263570957E+04 0.  0.
        5    1    3    3  502    0  0.89190594547E+03  0.51541310791E+03 -0.58664686966E+03  0.11854634229E+04  0.46999998093E+01 0.  1.
       -5    1    3    3    0  502 -0.89190594547E+03 -0.51541310791E+03 -0.12879188315E+04  0.16492131135E+04  0.46999998093E+01 0. -1.
</event>
<event>
 5   0  0.1398469E-05  0.2103111E+04  0.7818609E-02  0.8559874E-01
        2   -1    0    0  501    0  0.00000000000E+00  0.00000000000E+00  0.21634235511E+04  0.21634235511E+04  0.25500000920E-02 0.  1.
       -2   -1    0    0    0  501  0.00000000000E+00  0.00000000000E+00 -0.51111986183E+03  0.51111986183E+03  0.25500000920E-02 0. -1.
    10030    2    1    2    0    0  0.00000000000E+00  0.00000000000E+00  0.16523036893E+04  0.26745434130E+04  0.21031107879E+04 0.  0.
        2    1    3    3  502    0  0.40538371711E+03  0.76141365182E+02 -0.40394922326E+03  0.57732871102E+03  0.25500000920E-02 0. -1.
       -2    1    3    3    0  502 -0.40538371711E+03 -0.76141365182E+02  0.20562529126E+04  0.20972147019E+04  0.25500000920E-02 0.  1.
</event>
<event>
 5   0  0.1344501E-05  0.2100661E+04  0.7818609E-02  0.8560952E-01
        2   -1    0    0  501    0  0.00000000000E+00  0.00000000000E+00  0.28614172460E+04  0.28614172460E+04  0.25500000920E-02 0. -1.
       -2   -1    0    0    0  501  0.00000000000E+00  0.00000000000E+00 -0.38554115532E+03  0.38554115533E+03  0.25500000920E-02 0.  1.
    10030    2    1    2    0    0  0.00000000000E+00  0.00000000000E+00  0.24758760907E+04  0.32469584013E+04  0.21006609540E+04 0.  0.
        3    1    3    3  502    0 -0.63146214174E+03  0.59249351220E+03  0.21568093971E+04  0.23241385036E+04  0.10100000352E+00 0. -1.
       -3    1    3    3    0  502  0.63146214174E+03 -0.59249351220E+03  0.31906669359E+03  0.92281989771E+03  0.10100000352E+00 0.  1.
</event>
<event>
 5   0  0.1395356E-05  0.2100157E+04  0.7818609E-02  0.8561174E-01
        2   -1    0    0  501    0  0.00000000000E+00  0.00000000000E+00  0.71227228959E+03  0.71227228960E+03  0.25500000920E-02 0.  1.
       -2   -1    0    0    0  501  0.00000000000E+00  0.00000000000E+00 -0.15480950663E+04  0.15480950663E+04  0.25500000920E-02 0. -1.
    10030    2    1    2    0    0  0.00000000000E+00  0.00000000000E+00 -0.83582277675E+03  0.22603673559E+04  0.21001573440E+04 0.  0.
        1    1    3    3  502    0  0.13495668743E+03 -0.62172885402E+03  0.48122462373E+03  0.79770747390E+03  0.50400001928E-02 0.  1.
       -1    1    3    3    0  502 -0.13495668743E+03  0.62172885402E+03 -0.13170474005E+04  0.14626598820E+04  0.50400001928E-02 0. -1.
</event>
<event>
 5   0  0.1398469E-05  0.2102157E+04  0.7818609E-02  0.8560294E-01
       -2   -1    0    0    0  501  0.00000000000E+00  0.00000000000E+00  0.16153176375E+04  0.16153176375E+04  0.25500000920E-02 0. -1.
        2   -1    0    0  501    0  0.00000000000E+00  0.00000000000E+00 -0.68393130467E+03  0.68393130467E+03  0.25500000920E-02 0.  1.
    10030    2    1    2    0    0  0.00000000000E+00  0.00000000000E+00  0.93138633283E+03  0.22992489422E+04  0.21021572722E+04 0.  0.
        2    1    3    3  502    0 -0.28988478293E+02  0.30714322128E+03  0.15646815396E+04  0.15948058223E+04  0.25500000920E-02 0. -1.
       -2    1    3    3    0  502  0.28988478293E+02 -0.30714322128E+03 -0.63329520679E+03  0.70444311992E+03  0.25500000920E-02 0.  1.
</event>
<event>
 5   0  0.1344501E-05  0.2101447E+04  0.7818609E-02  0.8560606E-01
       -2   -1    0    0    0  501  0.00000000000E+00  0.00000000000E+00  0.14101114112E+04  0.14101114112E+04  0.25500000920E-02 0.  1.
        2   -1    0    0  501    0  0.00000000000E+00  0.00000000000E+00 -0.78293124003E+03  0.78293124004E+03  0.25500000920E-02 0. -1.
    10030    2    1    2    0    0  0.00000000000E+00  0.00000000000E+00  0.62718017119E+03  0.21930426513E+04  0.21014473829E+04 0.  0.
        3    1    3    3  502    0 -0.63333506705E+03  0.65649172560E+03 -0.23060370696E+03  0.94088935205E+03  0.10100000352E+00 0. -1.
       -3    1    3    3    0  502  0.63333506705E+03 -0.65649172560E+03  0.85778387815E+03  0.12521532992E+04  0.10100000352E+00 0.  1.
</event>
<event>
 5   0  0.6589193E-06  0.2098810E+04  0.7818609E-02  0.8561768E-01
        1   -1    0    0  501    0  0.00000000000E+00  0.00000000000E+00  0.11966464283E+04  0.11966464283E+04  0.50400001928E-02 0.  1.
       -1   -1    0    0    0  501  0.00000000000E+00  0.00000000000E+00 -0.92028070422E+03  0.92028070423E+03  0.50400001928E-02 0. -1.
    10030    2    1    2    0    0  0.00000000000E+00  0.00000000000E+00  0.27636572410E+03  0.21169271326E+04  0.20988097749E+04 0.  0.
        3    1    3    3  502    0 -0.39124023434E+03 -0.36769617034E+03  0.10476208392E+04  0.11771910752E+04  0.10100000352E+00 0.  1.
       -3    1    3    3    0  502  0.39124023434E+03  0.36769617034E+03 -0.77125511511E+03  0.93973605733E+03  0.10100000352E+00 0. -1.
</event>
<event>
 5   0  0.1390735E-05  0.2110337E+04  0.7818609E-02  0.8556704E-01
        2   -1    0    0  501    0  0.00000000000E+00  0.00000000000E+00  0.10777262594E+04  0.10777262594E+04  0.25500000920E-02 0. -1.
       -2   -1    0    0    0  501  0.00000000000E+00  0.00000000000E+00 -0.10330827957E+04  0.10330827957E+04  0.25500000920E-02 0.  1.
    10030    2    1    2    0    0  0.00000000000E+00  0.00000000000E+00  0.44643463780E+02  0.21108090551E+04  0.21103368992E+04 0.  0.
        5    1    3    3  502    0  0.10271720331E+04  0.19506327559E+03 -0.11992928430E+03  0.10523959285E+04  0.46999998093E+01 0.  1.
       -5    1    3    3    0  502 -0.10271720331E+04 -0.19506327559E+03  0.16457274808E+03  0.10584131266E+04  0.46999998093E+01 0. -1.
</event>
<event>
 5   0  0.6917078E-06  0.2128686E+04  0.7818609E-02  0.8548711E-01
        1   -1    0    0  501    0  0.00000000000E+00  0.00000000000E+00  0.10888413495E+04  0.10888413495E+04  0.50400001928E-02 0.  1.
       -1   -1    0    0    0  501  0.00000000000E+00  0.00000000000E+00 -0.10403954621E+04  0.10403954621E+04  0.50400001928E-02 0. -1.
    10030    2    1    2    0    0  0.00000000000E+00  0.00000000000E+00  0.48445887348E+02  0.21292368116E+04  0.21286856029E+04 0.  0.
        5    1    3    3  502    0 -0.48943545967E+03  0.89886158655E+03 -0.26792166374E+03  0.10579713271E+04  0.46999998093E+01 0. -1.
       -5    1    3    3    0  502  0.48943545967E+03 -0.89886158655E+03  0.31636755109E+03  0.10712654845E+04  0.46999998093E+01 0.  1.
</event>
<event>
 5   0  0.6589193E-06  0.2101421E+04  0.7818609E-02  0.8560618E-01
        1   -1    0    0  501    0  0.00000000000E+00  0.00000000000E+00  0.15102021132E+04  0.15102021133E+04  0.50400001928E-02 0. -1.
       -1   -1    0    0    0  501  0.00000000000E+00  0.00000000000E+00 -0.73102279992E+03  0.73102279994E+03  0.50400001928E-02 0.  1.
    10030    2    1    2    0    0  0.00000000000E+00  0.00000000000E+00  0.77917931332E+03  0.22412249132E+04  0.21014206407E+04 0.  0.
        3    1    3    3  502    0  0.54004017370E+03 -0.37020127164E+03  0.12660267645E+04  0.14253126497E+04  0.10100000352E+00 0. -1.
       -3    1    3    3    0  502 -0.54004017370E+03  0.37020127164E+03 -0.48684745121E+03  0.81591226347E+03  0.10100000352E+00 0.  1.
</event>
<event>
 5   0  0.1344501E-05  0.2101708E+04  0.7818609E-02  0.8560492E-01
       -2   -1    0    0    0  501  0.00000000000E+00  0.00000000000E+00  0.86737679297E+03  0.86737679297E+03  0.25500000920E-02 0. -1.
        2   -1    0    0  501    0  0.00000000000E+00  0.00000000000E+00 -0.12731418043E+04  0.12731418043E+04  0.25500000920E-02 0.  1.
    10030    2    1    2    0    0  0.00000000000E+00  0.00000000000E+00 -0.40576501128E+03  0.21405185972E+04  0.21017075488E+04 0.  0.
        3    1    3    3  502    0  0.86307868900E+03 -0.59149629887E+03 -0.30225973021E+03  0.10890976309E+04  0.10100000352E+00 0.  1.
       -3    1    3    3    0  502 -0.86307868900E+03  0.59149629887E+03 -0.10350528108E+03  0.10514209663E+04  0.10100000352E+00 0. -1.
</event>
<event>
 5   0  0.6283269E-06  0.2098270E+04  0.7818609E-02  0.8562006E-01
        1   -1    0    0  501    0  0.00000000000E+00  0.00000000000E+00  0.93286706109E+03  0.93286706111E+03  0.50400001928E-02 0.  1.
       -1   -1    0    0    0  501  0.00000000000E+00  0.00000000000E+00 -0.11798944525E+04  0.11798944526E+04  0.50400001928E-02 0. -1.
    10030    2    1    2    0    0  0.00000000000E+00  0.00000000000E+00 -0.24702739145E+03  0.21127615137E+04  0.20982704024E+04 0.  0.
        1    1    3    3  502    0  0.47755539519E+03  0.70150677580E+02  0.81442601096E+03  0.94671537454E+03  0.50400001928E-02 0.  1.
       -1    1    3    3    0  502 -0.47755539519E+03 -0.70150677580E+02 -0.10614534024E+04  0.11660461391E+04  0.50400001928E-02 0. -1.
</event>
<event>
 5   0  0.6589193E-06  0.2126554E+04  0.7818609E-02  0.8549636E-01
       -1   -1    0    0    0  501  0.00000000000E+00  0.00000000000E+00  0.14422618770E+04  0.14422618770E+04  0.50400001928E-02 0.  1.
        1   -1    0    0  501    0  0.00000000000E+00  0.00000000000E+00 -0.78387839026E+03  0.78387839028E+03  0.50400001928E-02 0. -1.
    10030    2    1    2    0    0  0.00000000000E+00  0.00000000000E+00  0.65838348673E+03  0.22261402673E+04  0.21265539434E+04 0.  0.
        3    1    3    3  502    0  0.22381733674E+03 -0.10326992143E+04  0.45303681278E+03  0.11496974521E+04  0.10100000352E+00 0. -1.
       -3    1    3    3    0  502 -0.22381733674E+03  0.10326992143E+04  0.20534667395E+03  0.10764428151E+04  0.10100000352E+00 0.  1.
</event>
<event>
 5   0  0.6599245E-06  0.2096445E+04  0.7818609E-02  0.8562811E-01
       -1   -1    0    0    0  501  0.00000000000E+00  0.00000000000E+00  0.70141436627E+03  0.70141436628E+03  0.50400001928E-02 0.  1.
        1   -1    0    0  501    0  0.00000000000E+00  0.00000000000E+00 -0.15665063618E+04  0.15665063618E+04  0.50400001928E-02 0. -1.
    10030    2    1    2    0    0  0.00000000000E+00  0.00000000000E+00 -0.86509199550E+03  0.22679207281E+04  0.20964446733E+04 0.  0.
        2    1    3    3  502    0  0.82648111058E+03  0.52709769296E+03 -0.30871067785E+02  0.98074258952E+03  0.25500000920E-02 0.  1.
       -2    1    3    3    0  502 -0.82648111058E+03 -0.52709769296E+03 -0.83422092771E+03  0.12871781385E+04  0.25500000920E-02 0. -1.
</event>
<event>
 5   0  0.6917078E-06  0.2101597E+04  0.7818609E-02  0.8560540E-01
       -1   -1    0    0    0  501  0.00000000000E+00  0.00000000000E+00  0.20339921931E+04  0.20339921931E+04  0.50400001928E-02 0. -1.
        1   -1    0    0  501    0  0.00000000000E+00  0.00000000000E+00 -0.54286217217E+03  0.54286217219E+03  0.50400001928E-02 0.  1.
    10030    2    1    2    0    0  0.00000000000E+00  0.00000000000E+00  0.14911300209E+04  0.25768543653E+04  0.21015969358E+04 0.  0.
        5    1    3    3  502    0  0.32666441398E+03 -0.98847502621E+03  0.92053329668E+03  0.13896748386E+04  0.46999998093E+01 0.  1.
       -5    1    3    3    0  502 -0.32666441398E+03  0.98847502621E+03  0.57059672423E+03  0.11871795267E+04  0.46999998093E+01 0. -1.
</event>
<event>
 5   0  0.1441136E-05  0.2098110E+04  0.7818609E-02  0.8562077E-01
       -2   -1    0    0    0  501  0.00000000000E+00  0.00000000000E+00  0.10897897824E+04  0.10897897824E+04  0.25500000920E-02 0.  1.
        2   -1    0    0  501    0  0.00000000000E+00  0.00000000000E+00 -0.10098424343E+04  0.10098424343E+04  0.25500000920E-02 0. -1.
    10030    2    1    2    0    0  0.00000000000E+00  0.00000000000E+00  0.79947348051E+02  0.20996322167E+04  0.20981095937E+04 0.  0.
        4    1    3    3  502    0  0.66248799476E+02  0.15092528919E+03  0.10767501466E+04  0.10892932743E+04  0.12699999809E+01 0.  1.
       -4    1    3    3    0  502 -0.66248799476E+02 -0.15092528919E+03 -0.99680279858E+03  0.10103389424E+04  0.12699999809E+01 0. -1.
</event>
<event>
 5   0  0.1395356E-05  0.2101539E+04  0.7818609E-02  0.8560566E-01
        2   -1    0    0  501    0  0.00000000000E+00  0.00000000000E+00  0.18601066959E+04  0.18601066959E+04  0.25500000920E-02 0. -1.
       -2   -1    0    0    0  501  0.00000000000E+00  0.00000000000E+00 -0.59357727175E+03  0.59357727176E+03  0.25500000920E-02 0.  1.
    10030    2    1    2    0    0  0.00000000000E+00  0.00000000000E+00  0.12665294241E+04  0.24536839676E+04  0.21015394907E+04 0.  0.
        1    1    3    3  502    0 -0.57492087370E+03  0.33016901032E+02 -0.39292658415E+03  0.69714806700E+03  0.50400001928E-02 0.  1.
       -1    1    3    3    0  502  0.57492087370E+03 -0.33016901032E+02  0.16594560083E+04  0.17565359006E+04  0.50400001928E-02 0. -1.
</event>
<event>
 5   0  0.6238363E-06  0.2096175E+04  0.7818609E-02  0.8562930E-01
       -1   -1    0    0    0  501  0.00000000000E+00  0.00000000000E+00  0.14882133250E+04  0.14882133250E+04  0.50400001928E-02 0.  1.
        1   -1    0    0  501    0  0.00000000000E+00  0.00000000000E+00 -0.73812469842E+03  0.73812469843E+03  0.50400001928E-02 0. -1.
    10030    2    1    2    0    0  0.00000000000E+00  0.00000000000E+00  0.75008862658E+03  0.22263380234E+04  0.20961746222E+04 0.  0.
        4    1    3    3  502    0  0.59254126929E+03  0.85185064805E+03  0.53161147089E+03  0.11659189729E+04  0.12699999809E+01 0. -1.
       -4    1    3    3    0  502 -0.59254126929E+03 -0.85185064805E+03  0.21847715569E+03  0.10604190506E+04  0.12699999809E+01 0.  1.
</event>
<event>
 5   0  0.1398469E-05  0.2094805E+04  0.7818609E-02  0.8563535E-01
       -2   -1    0    0    0  501  0.00000000000E+00  0.00000000000E+00  0.76335862659E+03  0.76335862659E+03  0.25500000920E-02 0. -1.
        2   -1    0    0  501    0  0.00000000000E+00  0.00000000000E+00 -0.14371390056E+04  0.14371390056E+04  0.25500000920E-02 0.  1.
    10030    2    1    2    0    0  0.00000000000E+00  0.00000000000E+00 -0.67378037901E+03  0.22004976322E+04  0.20948054397E+04 0.  0.
        2    1    3    3  502    0 -0.36372790207E+03 -0.80460628808E+03  0.25488327927E+03  0.91905100600E+03  0.25500000920E-02 0. -1.
       -2    1    3    3    0  502  0.36372790207E+03  0.80460628808E+03 -0.92866365828E+03  0.12814466262E+04  0.25500000920E-02 0.  1.
</event>
<event>
 5   0  0.6917078E-06  0.2100603E+04  0.7818609E-02  0.8560978E-01
       -1   -1    0    0    0  501  0.00000000000E+00  0.00000000000E+00  0.11422647353E+04  0.11422647353E+04  0.50400001928E-02 0. -1.
        1   -1    0    0  501    0  0.00000000000E+00  0.00000000000E+00 -0.96574184876E+03  0.96574184878E+03  0.50400001928E-02 0.  1.
    10030    2    1    2    0    0  0.00000000000E+00  0.00000000000E+00  0.17652288650E+03  0.21080065841E+04  0.21006026347E+04 0.  0.
        5    1    3    3  502    0  0.31910062495E+03  0.85494783287E+03  0.61004579737E+03  0.10976971216E+04  0.46999998093E+01 0. -1.
       -5    1    3    3    0  502 -0.31910062495E+03 -0.85494783287E+03 -0.43352291087E+03  0.10103094625E+04  0.46999998093E+01 0.  1.
</event>
<event>
 5   0  0.1398469E-05  0.2106313E+04  0.7818609E-02  0.8558467E-01
       -2   -1    0    0    0  501  0.00000000000E+00  0.00000000000E+00  0.46293479034E+03  0.46293479035E+03  0.25500000920E-02 0.  1.
        2   -1    0    0  501    0  0.00000000000E+00  0.00000000000E+00 -0.23958860811E+04  0.23958860811E+04  0.25500000920E-02 0. -1.
    10030    2    1    2    0    0  0.00000000000E+00  0.00000000000E+00 -0.19329512908E+04  0.28588208715E+04  0.21063133866E+04 0.  0.
        2    1    3    3  502    0  0.19223693920E+03  0.32921301673E+03 -0.22989474902E+04  0.23303424242E+04  0.25500000920E-02 0. -1.
       -2    1    3    3    0  502 -0.19223693920E+03 -0.32921301673E+03  0.36599619947E+03  0.52847844725E+03  0.25500000920E-02 0.  1.
</event>
<event>
 5   0  0.6238363E-06  0.2097620E+04  0.7818609E-02  0.8562293E-01
        1   -1    0    0  501    0  0.00000000000E+00  0.00000000000E+00  0.10762342594E+04  0.10762342594E+04  0.50400001928E-02 0. -1.
       -1   -1    0    0    0  501  0.00000000000E+00  0.00000000000E+00 -0.10220845514E+04  0.10220845514E+04  0.50400001928E-02 0.  1.
    10030    2    1    2    0    0  0.00000000000E+00  0.00000000000E+00  0.54149707976E+02  0.20983188108E+04  0.20976199944E+04 0.  0.
        4    1    3    3  502    0 -0.71503832336E+03  0.24032190835E+03 -0.70184229682E+03  0.10303487982E+04  0.12699999809E+01 0.  1.
       -4    1    3    3    0  502  0.71503832336E+03 -0.24032190835E+03  0.75599200480E+03  0.10679700126E+04  0.12699999809E+01 0. -1.
</event>
<event>
 5   0  0.6599245E-06  0.2108208E+04  0.7818609E-02  0.8557636E-01
       -1   -1    0    0    0  501  0.00000000000E+00  0.00000000000E+00  0.55948166924E+03  0.55948166927E+03  0.50400001928E-02 0. -1.
        1   -1    0    0  501    0  0.00000000000E+00  0.00000000000E+00 -0.19860076378E+04  0.19860076378E+04  0.50400001928E-02 0.  1.
    10030    2    1    2    0    0  0.00000000000E+00  0.00000000000E+00 -0.14265259686E+04  0.25454893071E+04  0.21082076448E+04 0.  0.
        2    1    3    3  502    0 -0.75653987375E+03  0.72550532743E+03 -0.84784715774E+03  0.13481674093E+04  0.25500000920E-02 0.  1.
       -2    1    3    3    0  502  0.75653987375E+03 -0.72550532743E+03 -0.57867881081E+03  0.11973218977E+04  0.25500000920E-02 0. -1.
</event>
<event>
 5   0  0.6599245E-06  0.2100216E+04  0.7818609E-02  0.8561148E-01
       -1   -1    0    0    0  501  0.00000000000E+00  0.00000000000E+00  0.11047150025E+04  0.11047150025E+04  0.50400001928E-02 0.  1.
        1   -1    0    0  501    0  0.00000000000E+00  0.00000000000E+00 -0.99820025661E+03  0.99820025662E+03  0.50400001928E-02 0. -1.
    10030    2    1    2    0    0  0.00000000000E+00  0.00000000000E+00  0.10651474590E+03  0.21029152591E+04  0.21002159880E+04 0.  0.
        2    1    3    3  502    0  0.66002779947E+03  0.10611398948E+03 -0.75761672252E+03  0.10103860515E+04  0.25500000920E-02 0. -1.
       -2    1    3    3    0  502 -0.66002779947E+03 -0.10611398948E+03  0.86413146842E+03  0.10925292076E+04  0.25500000920E-02 0.  1.
</event>
<event>
 5   0  0.1398469E-05  0.2098604E+04  0.7818609E-02  0.8561859E-01
        2   -1    0    0  501    0  0.00000000000E+00  0.00000000000E+00  0.62028500680E+03  0.62028500680E+03  0.25500000920E-02 0. -1.
       -2   -1    0    0    0  501  0.00000000000E+00  0.00000000000E+00 -0.17750466542E+04  0.17750466542E+04  0.25500000920E-02 0.  1.
    10030    2    1    2    0    0  0.00000000000E+00  0.00000000000E+00 -0.11547616474E+04  0.23953316610E+04  0.20986041322E+04 0.  0.
        2    1    3    3  502    0 -0.28340203804E+03  0.65846260906E+03 -0.14519775610E+04  0.16192987867E+04  0.25500000920E-02 0.  1.
       -2    1    3    3    0  502  0.28340203804E+03 -0.65846260906E+03  0.29721591366E+03  0.77603287433E+03  0.25500000920E-02 0. -1.
</event>
<event>
 5   0  0.6917078E-06  0.2103290E+04  0.7818609E-02  0.8559796E-01
        1   -1    0    0  501    0  0.00000000000E+00  0.00000000000E+00  0.77036834268E+03  0.77036834270E+03  0.50400001928E-02 0.  1.
       -1   -1    0    0    0  501  0.00000000000E+00  0.00000000000E+00 -0.14356208114E+04  0.14356208114E+04  0.50400001928E-02 0. -1.
    10030    2    1    2    0    0  0.00000000000E+00  0.00000000000E+00 -0.66525246867E+03  0.22059891541E+04  0.21032896379E+04 0.  0.
        5    1    3    3  502    0  0.64982761786E+02  0.92828563214E+03 -0.84644254409E+03  0.12579443726E+04  0.46999998093E+01 0. -1.
       -5    1    3    3    0  502 -0.64982761786E+02 -0.92828563214E+03  0.18119007542E+03  0.94804478143E+03  0.46999998093E+01 0.  1.
</event>
<event>
 5   0  0.1390735E-05  0.2093513E+04  0.7818609E-02  0.8564106E-01
       -2   -1    0    0    0  501  0.00000000000E+00  0.00000000000E+00  0.76649641643E+03  0.76649641644E+03  0.25500000920E-02 0. -1.
        2   -1    0    0  501    0  0.00000000000E+00  0.00000000000E+00 -0.14294906914E+04  0.14294906914E+04  0.25500000920E-02 0.  1.
    10030    2    1    2    0    0  0.00000000000E+00  0.00000000000E+00 -0.66299427493E+03  0.21959871078E+04  0.20935133076E+04 0.  0.
        5    1    3    3  502    0 -0.16544301837E+03 -0.11064178821E+03  0.74645446534E+03  0.77254731664E+03  0.46999998093E+01 0. -1.
       -5    1    3    3    0  502  0.16544301837E+03  0.11064178821E+03 -0.14094487403E+04  0.14234397912E+04  0.46999998093E+01 0.  1.
</event>
<event>
 5   0  0.1390735E-05  0.2101339E+04  0.7818609E-02  0.8560654E-01
        2   -1    0    0  501    0  0.00000000000E+00  0.00000000000E+00  0.14640595584E+04  0.14640595584E+04  0.25500000920E-02 0.  1.
       -2   -1    0    0    0  501  0.00000000000E+00  0.00000000000E+00 -0.75400403630E+03  0.75400403631E+03  0.25500000920E-02 0. -1.
    10030    2    1    2    0    0  0.00000000000E+00  0.00000000000E+00  0.71005552206E+03  0.22180635947E+04  0.21013393980E+04 0.  0.
        5    1    3    3  502    0  0.91144372186E+03 -0.49018340671E+03  0.54641484564E+03  0.11702994078E+04  0.46999998093E+01 0.  1.
       -5    1    3    3    0  502 -0.91144372186E+03  0.49018340671E+03  0.16364067642E+03  0.10477641869E+04  0.46999998093E+01 0. -1.
</event>
<event>
 5   0  0.1441136E-05  0.2098461E+04  0.7818609E-02  0.8561922E-01
        2   -1    0    0  501    0  0.00000000000E+00  0.00000000000E+00  0.12784024156E+04  0.12784024156E+04  0.25500000920E-02 0.  1.
       -2   -1    0    0    0  501  0.00000000000E+00  0.00000000000E+00 -0.86114069442E+03  0.86114069442E+03  0.25500000920E-02 0. -1.
    10030    2    1    2    0    0  0.00000000000E+00  0.00000000000E+00  0.41726172118E+03  0.21395431100E+04  0.20984607158E+04 0.  0.
        4    1    3    3  502    0  0.81934718715E+03 -0.61270209888E+03  0.44588600767E+03  0.11160419436E+04  0.12699999809E+01 0.  1.
       -4    1    3    3    0  502 -0.81934718715E+03  0.61270209888E+03 -0.28624286497E+02  0.10235011665E+04  0.12699999809E+01 0. -1.
</event>
<event>
 5   0  0.6238363E-06  0.2101972E+04  0.7818609E-02  0.8560375E-01
       -1   -1    0    0    0  501  0.00000000000E+00  0.00000000000E+00  0.53939167372E+03  0.53939167375E+03  0.50400001928E-02 0.  1.
        1   -1    0    0  501    0  0.00000000000E+00  0.00000000000E+00 -0.20478099716E+04  0.20478099716E+04  0.50400001928E-02 0. -1.
    10030    2    1    2    0    0  0.00000000000E+00  0.00000000000E+00 -0.15084182979E+04  0.25872016454E+04  0.21019720722E+04 0.  0.
        4    1    3    3  502    0  0.45104867006E+03  0.48718158737E+03 -0.17570110945E+04  0.18782652637E+04  0.12699999809E+01 0. -1.
       -4    1    3    3    0  502 -0.45104867006E+03 -0.48718158737E+03  0.24859279658E+03  0.70893638167E+03  0.12699999809E+01 0.  1.
</event>
<event>
 5   0  0.6599245E-06  0.2100928E+04  0.7818609E-02  0.8560835E-01
       -1   -1    0    0    0  501  0.00000000000E+00  0.00000000000E+00  0.12623138891E+04  0.12623138891E+04  0.50400001928E-02 0. -1.
        1   -1    0    0  501    0  0.00000000000E+00  0.00000000000E+00 -0.87416793680E+03  0.87416793682E+03  0.50400001928E-02 0.  1.
    10030    2    1    2    0    0  0.00000000000E+00  0.00000000000E+00  0.38814595230E+03  0.21364818259E+04  0.21009277266E+04 0.  0.
        2    1    3    3  502    0 -0.91611767049E+03  0.43895610757E+03  0.46603150650E+03  0.11176490575E+04  0.25500000920E-02 0. -1.
       -2    1    3    3    0  502  0.91611767049E+03 -0.43895610757E+03 -0.77885554205E+02  0.10188327685E+04  0.25500000920E-02 0.  1.
</event>
<event>
 5   0  0.1398469E-05  0.2100361E+04  0.7818609E-02  0.8561084E-01
       -2   -1    0    0    0  501  0.00000000000E+00  0.00000000000E+00  0.63387587669E+03  0.63387587669E+03  0.25500000920E-02 0. -1.
        2   -1    0    0  501    0  0.00000000000E+00  0.00000000000E+00 -0.17398972228E+04  0.17398972228E+04  0.25500000920E-02 0.  1.
    10030    2    1    2    0    0  0.00000000000E+00  0.00000000000E+00 -0.11060213461E+04  0.23737730995E+04  0.21003608047E+04 0.  0.
        2    1    3    3  502    0 -0.14564620865E+03 -0.66365431001E+03  0.35199620923E+03  0.76521316808E+03  0.25500000920E-02 0. -1.
       -2    1    3    3    0  502  0.14564620865E+03  0.66365431001E+03 -0.14580175554E+04  0.16085599314E+04  0.25500000920E-02 0.  1.
</event>
<event>
 5   0  0.6599245E-06  0.2098841E+04  0.7818609E-02  0.8561754E-01
        1   -1    0    0  501    0  0.00000000000E+00  0.00000000000E+00  0.12474519515E+04  0.12474519515E+04  0.50400001928E-02 0. -1.
       -1   -1    0    0    0  501  0.00000000000E+00  0.00000000000E+00 -0.88282655713E+03  0.88282655714E+03  0.50400001928E-02 0.  1.
    10030    2    1    2    0    0  0.00000000000E+00  0.00000000000E+00  0.36462539434E+03  0.21302785086E+04  0.20988413104E+04 0.  0.
        2    1    3    3  502    0 -0.10092517081E+04  0.18347112879E+03  0.40706348346E+03  0.11036083295E+04  0.25500000920E-02 0. -1.
       -2    1    3    3    0  502  0.10092517081E+04 -0.18347112879E+03 -0.42438089119E+02  0.10266701791E+04  0.25500000920E-02 0.  1.
</event>
<event>
 5   0  0.1344501E-05  0.2098844E+04  0.7818609E-02  0.8561753E-01
       -2   -1    0    0    0  501  0.00000000000E+00  0.00000000000E+00  0.59533256455E+03  0.59533256455E+03  0.25500000920E-02 0. -1.
        2   -1    0    0  501    0  0.00000000000E+00  0.00000000000E+00 -0.18498676962E+04  0.18498676962E+04  0.25500000920E-02 0.  1.
    10030    2    1    2    0    0  0.00000000000E+00  0.00000000000E+00 -0.12545351317E+04  0.24452002608E+04  0.20988439481E+04 0.  0.
        3    1    3    3  502    0 -0.47196688436E+03  0.90227191473E+03 -0.92300689900E+03  0.13743322356E+04  0.10100000352E+00 0. -1.
       -3    1    3    3    0  502  0.47196688436E+03 -0.90227191473E+03 -0.33152823267E+03  0.10708680252E+04  0.10100000352E+00 0.  1.
</event>
<event>
 5   0  0.1390735E-05  0.2061352E+04  0.7818609E-02  0.8578462E-01
        2   -1    0    0  501    0  0.00000000000E+00  0.00000000000E+00  0.11594390011E+04  0.11594390011E+04  0.25500000920E-02 0. -1.
       -2   -1    0    0    0  501  0.00000000000E+00  0.00000000000E+00 -0.91621292768E+03  0.91621292768E+03  0.25500000920E-02 0.  1.
    10030    2    1    2    0    0  0.00000000000E+00  0.00000000000E+00  0.24322607342E+03  0.20756519288E+04  0.20613519851E+04 0.  0.
        5    1    3    3  502    0  0.83500611398E+03 -0.60396172083E+03  0.13803386529E+03  0.10397501664E+04  0.46999998093E+01 0.  1.
       -5    1    3    3    0  502 -0.83500611398E+03  0.60396172083E+03  0.10519220812E+03  0.10359017624E+04  0.46999998093E+01 0. -1.
</event>
<event>
 5   0  0.6917078E-06  0.2101173E+04  0.7818609E-02  0.8560727E-01
       -1   -1    0    0    0  501  0.00000000000E+00  0.00000000000E+00  0.12034405658E+04  0.12034405658E+04  0.50400001928E-02 0. -1.
        1   -1    0    0  501    0  0.00000000000E+00  0.00000000000E+00 -0.91714689490E+03  0.91714689491E+03  0.50400001928E-02 0.  1.
    10030    2    1    2    0    0  0.00000000000E+00  0.00000000000E+00  0.28629367094E+03  0.21205874608E+04  0.21011727946E+04 0.  0.
        5    1    3    3  502    0  0.53360067602E+03 -0.24197580695E+03 -0.73693567131E+03  0.94147663075E+03  0.46999998093E+01 0.  1.
       -5    1    3    3    0  502 -0.53360067602E+03  0.24197580695E+03  0.10232293422E+04  0.11791108300E+04  0.46999998093E+01 0. -1.
</event>
<event>
 5   0  0.6589193E-06  0.2103109E+04  0.7818609E-02  0.8559875E-01
        1   -1    0    0  501    0  0.00000000000E+00  0.00000000000E+00  0.10647810249E+04  0.10647810249E+04  0.50400001928E-02 0.  1.
       -1   -1    0    0    0  501  0.00000000000E+00  0.00000000000E+00 -0.10384923381E+04  0.10384923381E+04  0.50400001928E-02 0. -1.
    10030    2    1    2    0    0  0.00000000000E+00  0.00000000000E+00  0.26288686834E+02  0.21032733630E+04  0.21031090663E+04 0.  0.
        3    1    3    3  502    0  0.38299172443E+03 -0.74624617995E+03 -0.62109831276E+03  0.10437093208E+04  0.10100000352E+00 0. -1.
       -3    1    3    3    0  502 -0.38299172443E+03  0.74624617995E+03  0.64738699960E+03  0.10595640422E+04  0.10100000352E+00 0.  1.
</event>
<event>
 5   0  0.1344501E-05  0.2105955E+04  0.7818609E-02  0.8558625E-01
        2   -1    0    0  501    0  0.00000000000E+00  0.00000000000E+00  0.16202835574E+04  0.16202835574E+04  0.25500000920E-02 0.  1.
       -2   -1    0    0    0  501  0.00000000000E+00  0.00000000000E+00 -0.68430076554E+03  0.68430076555E+03  0.25500000920E-02 0. -1.
    10030    2    1    2    0    0  0.00000000000E+00  0.00000000000E+00  0.93598279188E+03  0.23045843230E+04  0.21059546802E+04 0.  0.
        3    1    3    3  502    0  0.61390989442E+03 -0.45019705817E+03 -0.32808160009E+03  0.82897544968E+03  0.10100000352E+00 0. -1.
       -3    1    3    3    0  502 -0.61390989442E+03  0.45019705817E+03  0.12640643920E+04  0.14756088733E+04  0.10100000352E+00 0.  1.
</event>
<event>
 5   0  0.1395356E-05  0.2115409E+04  0.7818609E-02  0.8554486E-01
       -2   -1    0    0    0  501  0.00000000000E+00  0.00000000000E+00  0.63913962445E+03  0.63913962445E+03  0.25500000920E-02 0.  1.
        2   -1    0    0  501    0  0.00000000000E+00  0.00000000000E+00 -0.17503827361E+04  0.17503827361E+04  0.25500000920E-02 0. -1.
    10030    2    1    2    0    0  0.00000000000E+00  0.00000000000E+00 -0.11112431117E+04  0.23895223606E+04  0.21154091468E+04 0.  0.
        1    1    3    3  502    0 -0.90819718305E+03 -0.50814394891E+03 -0.76906891133E+03  0.12940244922E+04  0.50400001928E-02 0.  1.
       -1    1    3    3    0  502  0.90819718305E+03  0.50814394891E+03 -0.34217420035E+03  0.10954978683E+04  0.50400001928E-02 0. -1.
</event>
<event>
 5   0  0.1395356E-05  0.2113470E+04  0.7818609E-02  0.8555333E-01
        2   -1    0    0  501    0  0.00000000000E+00  0.00000000000E+00  0.12225013889E+04  0.12225013889E+04  0.25500000920E-02 0. -1.
       -2   -1    0    0    0  501  0.00000000000E+00  0.00000000000E+00 -0.91344585152E+03  0.91344585153E+03  0.25500000920E-02 0.  1.
    10030    2    1    2    0    0  0.00000000000E+00  0.00000000000E+00  0.30905553742E+03  0.21359472405E+04  0.21134699640E+04 0.  0.
        1    1    3    3  502    0  0.68038732565E+03  0.33357244164E+03 -0.58984562901E+03  0.96026837541E+03  0.50400001928E-02 0.  1.
       -1    1    3    3    0  502 -0.68038732565E+03 -0.33357244164E+03  0.89890116643E+03  0.11756788651E+04  0.50400001928E-02 0. -1.
</event>
<event>
 5   0  0.1398469E-05  0.2094739E+04  0.7818609E-02  0.8563565E-01
       -2   -1    0    0    0  501  0.00000000000E+00  0.00000000000E+00  0.97112160127E+03  0.97112160127E+03  0.25500000920E-02 0.  1.
        2   -1    0    0  501    0  0.00000000000E+00  0.00000000000E+00 -0.11296035910E+04  0.11296035910E+04  0.25500000920E-02 0. -1.
    10030    2    1    2    0    0  0.00000000000E+00  0.00000000000E+00 -0.15848198974E+03  0.21007251923E+04  0.20947385976E+04 0.  0.
        2    1    3    3  502    0 -0.20905804937E+03  0.60959137888E+03 -0.90723703739E+03  0.11128279109E+04  0.25500000920E-02 0. -1.
       -2    1    3    3    0  502  0.20905804937E+03 -0.60959137888E+03  0.74875504766E+03  0.98789728140E+03  0.25500000920E-02 0.  1.
</event>
<event>
 5   0  0.6283269E-06  0.2099629E+04  0.7818609E-02  0.8561407E-01
       -1   -1    0    0    0  501  0.00000000000E+00  0.00000000000E+00  0.80623097407E+03  0.80623097409E+03  0.50400001928E-02 0.  1.
        1   -1    0    0  501    0  0.00000000000E+00  0.00000000000E+00 -0.13669913671E+04  0.13669913671E+04  0.50400001928E-02 0. -1.
    10030    2    1    2    0    0  0.00000000000E+00  0.00000000000E+00 -0.56076039300E+03  0.21732223412E+04  0.20996292829E+04 0.  0.
        1    1    3    3  502    0 -0.18457019555E+03  0.55965414771E+03 -0.11796430436E+04  0.13186495488E+04  0.50400001928E-02 0. -1.
       -1    1    3    3    0  502  0.18457019555E+03 -0.55965414771E+03  0.61888265065E+03  0.85457279236E+03  0.50400001928E-02 0.  1.
</event>
<event>
 5   0  0.1395356E-05  0.2097228E+04  0.7818609E-02  0.8562466E-01
        2   -1    0    0  501    0  0.00000000000E+00  0.00000000000E+00  0.21485252458E+04  0.21485252458E+04  0.25500000920E-02 0. -1.
       -2   -1    0    0    0  501  0.00000000000E+00  0.00000000000E+00 -0.51178864839E+03  0.51178864840E+03  0.25500000920E-02 0.  1.
    10030    2    1    2    0    0  0.00000000000E+00  0.00000000000E+00  0.16367365974E+04  0.26603138942E+04  0.20972275333E+04 0.  0.
        1    1    3    3  502    0 -0.21954525420E+03  0.84348225227E+03  0.15579413178E+04  0.17851732628E+04  0.50400001928E-02 0. -1.
       -1    1    3    3    0  502  0.21954525420E+03 -0.84348225227E+03  0.78795279582E+02  0.87514063136E+03  0.50400001928E-02 0.  1.
</event>
<event>
 5   0  0.1441136E-05  0.2096134E+04  0.7818609E-02  0.8562948E-01
        2   -1    0    0  501    0  0.00000000000E+00  0.00000000000E+00  0.57388576266E+03  0.57388576267E+03  0.25500000920E-02 0. -1.
       -2   -1    0    0    0  501  0.00000000000E+00  0.00000000000E+00 -0.19140473067E+04  0.19140473067E+04  0.25500000920E-02 0.  1.
    10030    2    1    2    0    0  0.00000000000E+00  0.00000000000E+00 -0.13401615441E+04  0.24879330694E+04  0.20961340591E+04 0.  0.
        4    1    3    3  502    0  0.65986932898E+03  0.58422595995E+03 -0.13432775850E+04  0.16065938463E+04  0.12699999809E+01 0.  1.
       -4    1    3    3    0  502 -0.65986932898E+03 -0.58422595995E+03  0.31160409460E+01  0.88133922312E+03  0.12699999809E+01 0. -1.
</event>
<event>
 5   0  0.1344501E-05  0.2101345E+04  0.7818609E-02  0.8560651E-01
        2   -1    0    0  501    0  0.00000000000E+00  0.00000000000E+00  0.12917899577E+04  0.12917899577E+04  0.25500000920E-02 0. -1.
       -2   -1    0    0    0  501  0.00000000000E+00  0.00000000000E+00 -0.85456081198E+03  0.85456081198E+03  0.25500000920E-02 0.  1.
    10030    2    1    2    0    0  0.00000000000E+00  0.00000000000E+00  0.43722914568E+03  0.21463507696E+04  0.21013453549E+04 0.  0.
        3    1    3    3  502    0 -0.18183327358E+02  0.16610298543E+03 -0.84090218886E+03  0.85734318484E+03  0.10100000352E+00 0.  1.
       -3    1    3    3    0  502  0.18183327358E+02 -0.16610298543E+03  0.12781313345E+04  0.12890075848E+04  0.10100000352E+00 0. -1.
</event>
<event>
 5   0  0.6589193E-06  0.2095507E+04  0.7818609E-02  0.8563225E-01
        1   -1    0    0  501    0  0.00000000000E+00  0.00000000000E+00  0.18249906976E+04  0.18249906976E+04  0.50400001928E-02 0.  1.
       -1   -1    0    0    0  501  0.00000000000E+00  0.00000000000E+00 -0.60153051997E+03  0.60153051999E+03  0.50400001928E-02 0. -1.
    10030    2    1    2    0    0  0.00000000000E+00  0.00000000000E+00  0.12234601776E+04  0.24265212176E+04  0.20955071971E+04 0.  0.
        3    1    3    3  502    0 -0.34791460118E+03 -0.84274794855E+03  0.12095342828E+04  0.15146754986E+04  0.10100000352E+00 0. -1.
       -3    1    3    3    0  502  0.34791460118E+03  0.84274794855E+03  0.13925894805E+02  0.91184571900E+03  0.10100000352E+00 0.  1.
</event>
<event>
 5   0  0.5009125E-06  0.2101579E+04  0.7818609E-02  0.8560548E-01
        4   -1    0    0  501    0  0.00000000000E+00  0.00000000000E+00  0.11124504007E+04  0.11124511257E+04  0.12699999809E+01 0.  1.
       -4   -1    0    0    0  501  0.00000000000E+00  0.00000000000E+00 -0.99254481493E+03  0.99254562743E+03  0.12699999809E+01 0. -1.
    10030    2    1    2    0    0  0.00000000000E+00  0.00000000000E+00  0.11990558582E+03  0.21049967531E+04  0.21015789257E+04 0.  0.
        5    1    3    3  502    0 -0.74126141050E+03 -0.70744117096E+03  0.29312941153E+03  0.10657806674E+04  0.46999998093E+01 0.  1.
       -5    1    3    3    0  502  0.74126141050E+03  0.70744117096E+03 -0.17322382571E+03  0.10392160857E+04  0.46999998093E+01 0. -1.
</event>
<event>
 5   0  0.1395356E-05  0.2100856E+04  0.7818609E-02  0.8560867E-01
        2   -1    0    0  501    0  0.00000000000E+00  0.00000000000E+00  0.14645631121E+04  0.14645631121E+04  0.25500000920E-02 0. -1.
       -2   -1    0    0    0  501  0.00000000000E+00  0.00000000000E+00 -0.75339786116E+03  0.75339786117E+03  0.25500000920E-02 0.  1.
    10030    2    1    2    0    0  0.00000000000E+00  0.00000000000E+00  0.71116525090E+03  0.22179609732E+04  0.21008557458E+04 0.  0.
        1    1    3    3  502    0  0.55534907889E+03 -0.74772776146E+02  0.12935870649E+04  0.14097414876E+04  0.50400001928E-02 0. -1.
       -1    1    3    3    0  502 -0.55534907889E+03  0.74772776146E+02 -0.58242181399E+03  0.80821948560E+03  0.50400001928E-02 0.  1.
</event>
<event>
 5   0  0.1441136E-05  0.2096761E+04  0.7818609E-02  0.8562672E-01
        2   -1    0    0  501    0  0.00000000000E+00  0.00000000000E+00  0.16521228043E+04  0.16521228043E+04  0.25500000920E-02 0. -1.
       -2   -1    0    0    0  501  0.00000000000E+00  0.00000000000E+00 -0.66526632813E+03  0.66526632813E+03  0.25500000920E-02 0.  1.
    10030    2    1    2    0    0  0.00000000000E+00  0.00000000000E+00  0.98685647617E+03  0.23173891324E+04  0.20967609989E+04 0.  0.
        4    1    3    3  502    0 -0.35260373276E+01  0.39112967950E+03 -0.58159969954E+03  0.70089562884E+03  0.12699999809E+01 0.  1.
       -4    1    3    3    0  502  0.35260373276E+01 -0.39112967950E+03  0.15684561757E+04  0.16164935036E+04  0.12699999809E+01 0. -1.
</event>
<event>
 5   0  0.1344501E-05  0.2098063E+04  0.7818609E-02  0.8562097E-01
       -2   -1    0    0    0  501  0.00000000000E+00  0.00000000000E+00  0.63140850021E+03  0.63140850021E+03  0.25500000920E-02 0.  1.
        2   -1    0    0  501    0  0.00000000000E+00  0.00000000000E+00 -0.17428770592E+04  0.17428770592E+04  0.25500000920E-02 0. -1.
    10030    2    1    2    0    0  0.00000000000E+00  0.00000000000E+00 -0.11114685590E+04  0.23742855594E+04  0.20980632879E+04 0.  0.
        3    1    3    3  502    0  0.15303821287E+03 -0.66653946874E+03  0.34446348935E+03  0.76573537445E+03  0.10100000352E+00 0.  1.
       -3    1    3    3    0  502 -0.15303821287E+03  0.66653946874E+03 -0.14559320484E+04  0.16085501850E+04  0.10100000352E+00 0. -1.
</event>
<event>
 5   0  0.6283269E-06  0.2101963E+04  0.7818609E-02  0.8560379E-01
       -1   -1    0    0    0  501  0.00000000000E+00  0.00000000000E+00  0.71486043028E+03  0.71486043030E+03  0.50400001928E-02 0.  1.
        1   -1    0    0  501    0  0.00000000000E+00  0.00000000000E+00 -0.15451434946E+04  0.15451434946E+04  0.50400001928E-02 0. -1.
    10030    2    1    2    0    0  0.00000000000E+00  0.00000000000E+00 -0.83028306432E+03  0.22600039249E+04  0.21019628383E+04 0.  0.
        1    1    3    3  502    0  0.57240396186E+03 -0.86485056429E+03 -0.23220431731E+03  0.10627942600E+04  0.50400001928E-02 0. -1.
       -1    1    3    3    0  502 -0.57240396186E+03  0.86485056429E+03 -0.59807874701E+03  0.11972096649E+04  0.50400001928E-02 0.  1.
</event>
<event>
 5   0  0.1398469E-05  0.2100680E+04  0.7818609E-02  0.8560944E-01
        2   -1    0    0  501    0  0.00000000000E+00  0.00000000000E+00  0.22874839419E+04  0.22874839419E+04  0.25500000920E-02 0.  1.
       -2   -1    0    0    0  501  0.00000000000E+00  0.00000000000E+00 -0.48228281829E+03  0.48228281830E+03  0.25500000920E-02 0. -1.
    10030    2    1    2    0    0  0.00000000000E+00  0.00000000000E+00  0.18052011236E+04  0.27697667602E+04  0.21006800825E+04 0.  0.
        2    1    3    3  502    0  0.40736825169E+03  0.59483253672E+03  0.19097205581E+04  0.20412758876E+04  0.25500000920E-02 0.  1.
       -2    1    3    3    0  502 -0.40736825169E+03 -0.59483253672E+03 -0.10451943453E+03  0.72849087257E+03  0.25500000920E-02 0. -1.
</event>
<event>
 5   0  0.6283269E-06  0.2107221E+04  0.7818609E-02  0.8558069E-01
       -1   -1    0    0    0  501  0.00000000000E+00  0.00000000000E+00  0.55526965150E+03  0.55526965152E+03  0.50400001928E-02 0.  1.
        1   -1    0    0  501    0  0.00000000000E+00  0.00000000000E+00 -0.19991990850E+04  0.19991990850E+04  0.50400001928E-02 0. -1.
    10030    2    1    2    0    0  0.00000000000E+00  0.00000000000E+00 -0.14439294335E+04  0.25544687365E+04  0.21072205193E+04 0.  0.
        1    1    3    3  502    0 -0.75561573872E+03  0.36476020095E+03  0.50540548490E+02  0.84057093446E+03  0.50400001928E-02 0.  1.
       -1    1    3    3    0  502  0.75561573872E+03 -0.36476020095E+03 -0.14944699819E+04  0.17138978020E+04  0.50400001928E-02 0. -1.
</event>
<event>
 5   0  0.6599245E-06  0.2097651E+04  0.7818609E-02  0.8562279E-01
       -1   -1    0    0    0  501  0.00000000000E+00  0.00000000000E+00  0.96414066213E+03  0.96414066215E+03  0.50400001928E-02 0.  1.
        1   -1    0    0  501    0  0.00000000000E+00  0.00000000000E+00 -0.11409488727E+04  0.11409488728E+04  0.50400001928E-02 0. -1.
    10030    2    1    2    0    0  0.00000000000E+00  0.00000000000E+00 -0.17680821061E+03  0.21050895349E+04  0.20976512595E+04 0.  0.
        2    1    3    3  502    0  0.11221952967E+03 -0.20290841597E+03 -0.11149046954E+04  0.11387614008E+04  0.25500000920E-02 0. -1.
       -2    1    3    3    0  502 -0.11221952967E+03  0.20290841597E+03  0.93809648476E+03  0.96632813414E+03  0.25500000920E-02 0.  1.
</event>
<event>
 5   0  0.1390735E-05  0.2099024E+04  0.7818609E-02  0.8561673E-01
       -2   -1    0    0    0  501  0.00000000000E+00  0.00000000000E+00  0.78986501043E+03  0.78986501044E+03  0.25500000920E-02 0. -1.
        2   -1    0    0  501    0  0.00000000000E+00  0.00000000000E+00 -0.13945110842E+04  0.13945110842E+04  0.25500000920E-02 0.  1.
    10030    2    1    2    0    0  0.00000000000E+00  0.00000000000E+00 -0.60464607380E+03  0.21843760947E+04  0.20990240705E+04 0.  0.
        5    1    3    3  502    0  0.88214616191E+03 -0.12341447958E+03 -0.87990531835E+03  0.12520656708E+04  0.46999998093E+01 0.  1.
       -5    1    3    3    0  502 -0.88214616191E+03  0.12341447958E+03  0.27525924455E+03  0.93231042387E+03  0.46999998093E+01 0. -1.
</event>
<event>
 5   0  0.6283269E-06  0.2100872E+04  0.7818609E-02  0.8560859E-01
       -1   -1    0    0    0  501  0.00000000000E+00  0.00000000000E+00  0.66065422228E+03  0.66065422230E+03  0.50400001928E-02 0. -1.
        1   -1    0    0  501    0  0.00000000000E+00  0.00000000000E+00 -0.16701872194E+04  0.16701872194E+04  0.50400001928E-02 0.  1.
    10030    2    1    2    0    0  0.00000000000E+00  0.00000000000E+00 -0.10095329971E+04  0.23308414417E+04  0.21008724269E+04 0.  0.
        1    1    3    3  502    0  0.78166035262E+02  0.22495653059E+03  0.63030793643E+03  0.67379779198E+03  0.50400001928E-02 0. -1.
       -1    1    3    3    0  502 -0.78166035262E+02 -0.22495653059E+03 -0.16398409335E+04  0.16570436497E+04  0.50400001928E-02 0.  1.
</event>
<event>
 5   0  0.1441136E-05  0.2098476E+04  0.7818609E-02  0.8561915E-01
       -2   -1    0    0    0  501  0.00000000000E+00  0.00000000000E+00  0.12057726278E+04  0.12057726278E+04  0.25500000920E-02 0. -1.
        2   -1    0    0  501    0  0.00000000000E+00  0.00000000000E+00 -0.91302510304E+03  0.91302510304E+03  0.25500000920E-02 0.  1.
    10030    2    1    2    0    0  0.00000000000E+00  0.00000000000E+00  0.29274752474E+03  0.21187977308E+04  0.20984762831E+04 0.  0.
        4    1    3    3  502    0 -0.83055546808E+03 -0.27090287277E+03  0.73311072599E+03  0.11404664403E+04  0.12699999809E+01 0. -1.
       -4    1    3    3    0  502  0.83055546808E+03  0.27090287277E+03 -0.44036320125E+03  0.97833129049E+03  0.12699999809E+01 0.  1.
</event>
<event>
 5   0  0.6917078E-06  0.2100450E+04  0.7818609E-02  0.8561045E-01
       -1   -1    0    0    0  501  0.00000000000E+00  0.00000000000E+00  0.83101423754E+03  0.83101423755E+03  0.50400001928E-02 0.  1.
        1   -1    0    0  501    0  0.00000000000E+00  0.00000000000E+00 -0.13272605668E+04  0.13272605668E+04  0.50400001928E-02 0. -1.
    10030    2    1    2    0    0  0.00000000000E+00  0.00000000000E+00 -0.49624632927E+03  0.21582748044E+04  0.21004498832E+04 0.  0.
        5    1    3    3  502    0 -0.80089651656E+03 -0.54319415958E+03 -0.66734424916E+03  0.11755277802E+04  0.46999998093E+01 0. -1.
       -5    1    3    3    0  502  0.80089651656E+03  0.54319415958E+03  0.17109791989E+03  0.98274702413E+03  0.46999998093E+01 0.  1.
</event>
<event>
 5   0  0.1344501E-05  0.2096903E+04  0.7818609E-02  0.8562609E-01
       -2   -1    0    0    0  501  0.00000000000E+00  0.00000000000E+00  0.67466489529E+03  0.67466489529E+03  0.25500000920E-02 0. -1.
        2   -1    0    0  501    0  0.00000000000E+00  0.00000000000E+00 -0.16293278472E+04  0.16293278472E+04  0.25500000920E-02 0.  1.
    10030    2    1    2    0    0  0.00000000000E+00  0.00000000000E+00 -0.95466295196E+03  0.23039927425E+04  0.20969027650E+04 0.  0.
        3    1    3    3  502    0  0.75088982480E+03  0.25255315804E+03 -0.12319097418E+04  0.14646570413E+04  0.10100000352E+00 0.  1.
       -3    1    3    3    0  502 -0.75088982480E+03 -0.25255315804E+03  0.27724678983E+03  0.83933570119E+03  0.10100000352E+00 0. -1.
</event>
<event>
 5   0  0.1344501E-05  0.2099349E+04  0.7818609E-02  0.8561530E-01
        2   -1    0    0  501    0  0.00000000000E+00  0.00000000000E+00  0.19227897975E+04  0.19227897975E+04  0.25500000920E-02 0.  1.
       -2   -1    0    0    0  501  0.00000000000E+00  0.00000000000E+00 -0.57303018086E+03  0.57303018087E+03  0.25500000920E-02 0. -1.
    10030    2    1    2    0    0  0.00000000000E+00  0.00000000000E+00  0.13497596166E+04  0.24958199783E+04  0.20993490281E+04 0.  0.
        3    1    3    3  502    0  0.43704820818E+03  0.54162558285E+03  0.16090553866E+04  0.17531196924E+04  0.10100000352E+00 0.  1.
       -3    1    3    3    0  502 -0.43704820818E+03 -0.54162558285E+03 -0.25929577001E+03  0.74270028599E+03  0.10100000352E+00 0. -1.
</event>
<event>
 5   0  0.6589193E-06  0.2107409E+04  0.7818609E-02  0.8557987E-01
       -1   -1    0    0    0  501  0.00000000000E+00  0.00000000000E+00  0.12550114108E+04  0.12550114108E+04  0.50400001928E-02 0. -1.
        1   -1    0    0  501    0  0.00000000000E+00  0.00000000000E+00 -0.88468778920E+03  0.88468778922E+03  0.50400001928E-02 0.  1.
    10030    2    1    2    0    0  0.00000000000E+00  0.00000000000E+00  0.37032362155E+03  0.21396992000E+04  0.21074090922E+04 0.  0.
        3    1    3    3  502    0  0.12199942241E+03 -0.29435062531E+03  0.12049250022E+04  0.12463428184E+04  0.10100000352E+00 0. -1.
       -3    1    3    3    0  502 -0.12199942241E+03  0.29435062531E+03 -0.83460138070E+03  0.89335638160E+03  0.10100000352E+00 0.  1.
</event>
<event>
 5   0  0.1398469E-05  0.2085569E+04  0.7818609E-02  0.8567627E-01
        2   -1    0    0  501    0  0.00000000000E+00  0.00000000000E+00  0.24849715274E+04  0.24849715274E+04  0.25500000920E-02 0.  1.
       -2   -1    0    0    0  501  0.00000000000E+00  0.00000000000E+00 -0.43759042569E+03  0.43759042570E+03  0.25500000920E-02 0. -1.
    10030    2    1    2    0    0  0.00000000000E+00  0.00000000000E+00  0.20473811017E+04  0.29225619531E+04  0.20855692254E+04 0.  0.
        2    1    3    3  502    0 -0.46132128972E+03  0.81683164856E+02 -0.28180841404E+03  0.54672246524E+03  0.25500000920E-02 0. -1.
       -2    1    3    3    0  502  0.46132128972E+03 -0.81683164856E+02  0.23291895158E+04  0.23758394879E+04  0.25500000920E-02 0.  1.
</event>
<event>
 5   0  0.1441136E-05  0.2102795E+04  0.7818609E-02  0.8560013E-01
       -2   -1    0    0    0  501  0.00000000000E+00  0.00000000000E+00  0.15087215014E+04  0.15087215014E+04  0.25500000920E-02 0.  1.
        2   -1    0    0  501    0  0.00000000000E+00  0.00000000000E+00 -0.73269780469E+03  0.73269780469E+03  0.25500000920E-02 0. -1.
    10030    2    1    2    0    0  0.00000000000E+00  0.00000000000E+00  0.77602369668E+03  0.22414193061E+04  0.21027952178E+04 0.  0.
        4    1    3    3  502    0  0.38383944513E+03 -0.62357335814E+02 -0.65322386756E+03  0.76021325364E+03  0.12699999809E+01 0. -1.
       -4    1    3    3    0  502 -0.38383944513E+03  0.62357335814E+02  0.14292475642E+04  0.14812060524E+04  0.12699999809E+01 0.  1.
</event>
<event>
 5   0  0.1441136E-05  0.2101139E+04  0.7818609E-02  0.8560742E-01
       -2   -1    0    0    0  501  0.00000000000E+00  0.00000000000E+00  0.74128275885E+03  0.74128275885E+03  0.25500000920E-02 0.  1.
        2   -1    0    0  501    0  0.00000000000E+00  0.00000000000E+00 -0.14889011552E+04  0.14889011552E+04  0.25500000920E-02 0. -1.
    10030    2    1    2    0    0  0.00000000000E+00  0.00000000000E+00 -0.74761839632E+03  0.22301839140E+04  0.21011394584E+04 0.  0.
        4    1    3    3  502    0  0.94055416552E+03  0.78210093565E+02  0.11598150321E+03  0.95090077242E+03  0.12699999809E+01 0.  1.
       -4    1    3    3    0  502 -0.94055416552E+03 -0.78210093565E+02 -0.86359989952E+03  0.12792831416E+04  0.12699999809E+01 0. -1.
</event>
<event>
 5   0  0.6238363E-06  0.2097475E+04  0.7818609E-02  0.8562356E-01
        1   -1    0    0  501    0  0.00000000000E+00  0.00000000000E+00  0.13393305056E+04  0.13393305056E+04  0.50400001928E-02 0.  1.
       -1   -1    0    0    0  501  0.00000000000E+00  0.00000000000E+00 -0.82119431480E+03  0.82119431481E+03  0.50400001928E-02 0. -1.
    10030    2    1    2    0    0  0.00000000000E+00  0.00000000000E+00  0.51813619075E+03  0.21605248204E+04  0.20974752412E+04 0.  0.
        4    1    3    3  502    0  0.24000713775E+03 -0.37295878300E+03 -0.71983953047E+03  0.84550117830E+03  0.12699999809E+01 0. -1.
       -4    1    3    3    0  502 -0.24000713775E+03  0.37295878300E+03  0.12379757212E+04  0.13150236421E+04  0.12699999809E+01 0.  1.
</event>
<event>
 5   0  0.6589193E-06  0.2100393E+04  0.7818609E-02  0.8561070E-01
       -1   -1    0    0    0  501  0.00000000000E+00  0.00000000000E+00  0.60562100393E+03  0.60562100395E+03  0.50400001928E-02 0.  1.
        1   -1    0    0  501    0  0.00000000000E+00  0.00000000000E+00 -0.18211265198E+04  0.18211265198E+04  0.50400001928E-02 0. -1.
    10030    2    1    2    0    0  0.00000000000E+00  0.00000000000E+00 -0.12155055159E+04  0.24267475238E+04  0.21003927930E+04 0.  0.
        3    1    3    3  502    0  0.26618663148E+03  0.99317687665E+03 -0.85462766692E+03  0.13370280814E+04  0.10100000352E+00 0.  1.
       -3    1    3    3    0  502 -0.26618663148E+03 -0.99317687665E+03 -0.36087784897E+03  0.10897194424E+04  0.10100000352E+00 0. -1.
</event>
<event>
 5   0  0.6283269E-06  0.2097785E+04  0.7818609E-02  0.8562220E-01
       -1   -1    0    0    0  501  0.00000000000E+00  0.00000000000E+00  0.69250814953E+03  0.69250814955E+03  0.50400001928E-02 0.  1.
        1   -1    0    0  501    0  0.00000000000E+00  0.00000000000E+00 -0.15886823266E+04  0.15886823266E+04  0.50400001928E-02 0. -1.
    10030    2    1    2    0    0  0.00000000000E+00  0.00000000000E+00 -0.89617417703E+03  0.22811904761E+04  0.20977849825E+04 0.  0.
        1    1    3    3  502    0  0.57713519865E+03  0.20902744995E+03  0.47680105748E+03  0.77724948427E+03  0.50400001928E-02 0.  1.
       -1    1    3    3    0  502 -0.57713519865E+03 -0.20902744995E+03 -0.13729752345E+04  0.15039409918E+04  0.50400001928E-02 0. -1.
</event>
<event>
 5   0  0.6238363E-06  0.2110454E+04  0.7818609E-02  0.8556652E-01
        1   -1    0    0  501    0  0.00000000000E+00  0.00000000000E+00  0.14391039295E+04  0.14391039295E+04  0.50400001928E-02 0.  1.
       -1   -1    0    0    0  501  0.00000000000E+00  0.00000000000E+00 -0.77374841636E+03  0.77374841637E+03  0.50400001928E-02 0. -1.
    10030    2    1    2    0    0  0.00000000000E+00  0.00000000000E+00  0.66535551313E+03  0.22128523459E+04  0.21104543458E+04 0.  0.
        4    1    3    3  502    0 -0.32332260855E+03 -0.10001020661E+04  0.23453543390E+03  0.10769169580E+04  0.12699999809E+01 0.  1.
       -4    1    3    3    0  502  0.32332260855E+03  0.10001020661E+04  0.43082007923E+03  0.11359353879E+04  0.12699999809E+01 0. -1.
</event>
<event>
 5   0  0.6283269E-06  0.2094137E+04  0.7818609E-02  0.8563831E-01
       -1   -1    0    0    0  501  0.00000000000E+00  0.00000000000E+00  0.88255240062E+03  0.88255240063E+03  0.50400001928E-02 0. -1.
        1   -1    0    0  501    0  0.00000000000E+00  0.00000000000E+00 -0.12422513665E+04  0.12422513665E+04  0.50400001928E-02 0.  1.
    10030    2    1    2    0    0  0.00000000000E+00  0.00000000000E+00 -0.35969896587E+03  0.21248037671E+04  0.20941365053E+04 0.  0.
        1    1    3    3  502    0 -0.67536996601E+02 -0.10308500574E+04 -0.66486558333E+01  0.10330814544E+04  0.50400001928E-02 0.  1.
       -1    1    3    3    0  502  0.67536996601E+02  0.10308500574E+04 -0.35305031004E+03  0.10917223128E+04  0.50400001928E-02 0. -1.
</event>
<event>
 5   0  0.1398469E-05  0.2098078E+04  0.7818609E-02  0.8562091E-01
        2   -1    0    0  501    0  0.00000000000E+00  0.00000000000E+00  0.10104275239E+04  0.10104275239E+04  0.25500000920E-02 0.  1.
       -2   -1    0    0    0  501  0.00000000000E+00  0.00000000000E+00 -0.10891257314E+04  0.10891257314E+04  0.25500000920E-02 0. -1.
    10030    2    1    2    0    0  0.00000000000E+00  0.00000000000E+00 -0.78698207517E+02  0.20995532553E+04  0.20980778021E+04 0.  0.
        2    1    3    3  502    0  0.37683788859E+02  0.61303643823E+03 -0.89038756750E+03  0.10816763670E+04  0.25500000920E-02 0. -1.
       -2    1    3    3    0  502 -0.37683788859E+02 -0.61303643823E+03  0.81168935999E+03  0.10178768883E+04  0.25500000920E-02 0.  1.
</event>
<event>
 5   0  0.6238363E-06  0.2096967E+04  0.7818609E-02  0.8562581E-01
        1   -1    0    0  501    0  0.00000000000E+00  0.00000000000E+00  0.10874043468E+04  0.10874043468E+04  0.50400001928E-02 0. -1.
       -1   -1    0    0    0  501  0.00000000000E+00  0.00000000000E+00 -0.10109558967E+04  0.10109558967E+04  0.50400001928E-02 0.  1.
    10030    2    1    2    0    0  0.00000000000E+00  0.00000000000E+00  0.76448450139E+02  0.20983602436E+04  0.20969671781E+04 0.  0.
        4    1    3    3  502    0 -0.14717217268E+03 -0.92186078279E+03 -0.43940751361E+03  0.10317788170E+04  0.12699999809E+01 0. -1.
       -4    1    3    3    0  502  0.14717217268E+03  0.92186078279E+03  0.51585596374E+03  0.10665814266E+04  0.12699999809E+01 0.  1.
</event>
<event>
 5   0  0.1398469E-05  0.2093200E+04  0.7818609E-02  0.8564245E-01
        2   -1    0    0  501    0  0.00000000000E+00  0.00000000000E+00  0.19571388361E+04  0.19571388361E+04  0.25500000920E-02 0.  1.
       -2   -1    0    0    0  501  0.00000000000E+00  0.00000000000E+00 -0.55968003336E+03  0.55968003336E+03  0.25500000920E-02 0. -1.
    10030    2    1    2    0    0  0.00000000000E+00  0.00000000000E+00  0.13974588027E+04  0.25168188695E+04  0.20931999705E+04 0.  0.
        2    1    3    3  502    0 -0.26875222219E+03 -0.37678239598E+03 -0.42995691783E+03  0.63170854201E+03  0.25500000920E-02 0. -1.
       -2    1    3    3    0  502  0.26875222219E+03  0.37678239598E+03  0.18274157206E+04  0.18851103275E+04  0.25500000920E-02 0.  1.
</event>
<event>
 5   0  0.6283269E-06  0.2106792E+04  0.7818609E-02  0.8558257E-01
        1   -1    0    0  501    0  0.00000000000E+00  0.00000000000E+00  0.86326675320E+03  0.86326675321E+03  0.50400001928E-02 0. -1.
       -1   -1    0    0    0  501  0.00000000000E+00  0.00000000000E+00 -0.12854003716E+04  0.12854003716E+04  0.50400001928E-02 0.  1.
    10030    2    1    2    0    0  0.00000000000E+00  0.00000000000E+00 -0.42213361839E+03  0.21486671248E+04  0.21067922587E+04 0.  0.
        1    1    3    3  502    0 -0.26610758266E+03 -0.75909537001E+03 -0.90473582285E+03  0.12106138672E+04  0.50400001928E-02 0.  1.
       -1    1    3    3    0  502  0.26610758266E+03  0.75909537001E+03  0.48260220446E+03  0.93805325760E+03  0.50400001928E-02 0. -1.
</event>
<event>
 5   0  0.6589193E-06  0.2099958E+04  0.7818609E-02  0.8561262E-01
       -1   -1    0    0    0  501  0.00000000000E+00  0.00000000000E+00  0.81166001620E+03  0.81166001621E+03  0.50400001928E-02 0.  1.
        1   -1    0    0  501    0  0.00000000000E+00  0.00000000000E+00 -0.13582727037E+04  0.13582727037E+04  0.50400001928E-02 0. -1.
    10030    2    1    2    0    0  0.00000000000E+00  0.00000000000E+00 -0.54661268747E+03  0.21699327199E+04  0.20999577564E+04 0.  0.
        3    1    3    3  502    0 -0.73769782563E+03  0.21220427393E+02  0.49844569578E+03  0.89055966129E+03  0.10100000352E+00 0.  1.
       -3    1    3    3    0  502  0.73769782563E+03 -0.21220427393E+02 -0.10450583832E+04  0.12793730586E+04  0.10100000352E+00 0. -1.
</event>
<event>
 5   0  0.1398469E-05  0.2101651E+04  0.7818609E-02  0.8560517E-01
       -2   -1    0    0    0  501  0.00000000000E+00  0.00000000000E+00  0.10848721563E+04  0.10848721563E+04  0.25500000920E-02 0.  1.
        2   -1    0    0  501    0  0.00000000000E+00  0.00000000000E+00 -0.10178471667E+04  0.10178471667E+04  0.25500000920E-02 0. -1.
    10030    2    1    2    0    0  0.00000000000E+00  0.00000000000E+00  0.67024989585E+02  0.21027193231E+04  0.21016508279E+04 0.  0.
        2    1    3    3  502    0  0.63802706195E+02 -0.20460350367E+03 -0.99574793933E+03  0.10185515881E+04  0.25500000920E-02 0. -1.
       -2    1    3    3    0  502 -0.63802706195E+02  0.20460350367E+03  0.10627729289E+04  0.10841677349E+04  0.25500000920E-02 0.  1.
</event>
<event>
 5   0  0.1395356E-05  0.2105359E+04  0.7818609E-02  0.8558887E-01
       -2   -1    0    0    0  501  0.00000000000E+00  0.00000000000E+00  0.13716268433E+04  0.13716268433E+04  0.25500000920E-02 0. -1.
        2   -1    0    0  501    0  0.00000000000E+00  0.00000000000E+00 -0.80789729729E+03  0.80789729729E+03  0.25500000920E-02 0.  1.
    10030    2    1    2    0    0  0.00000000000E+00  0.00000000000E+00  0.56372954598E+03  0.21795241406E+04  0.21053585154E+04 0.  0.
        1    1    3    3  502    0 -0.39511429659E+03 -0.97242643044E+03  0.19901329504E+03  0.10683327017E+04  0.50400001928E-02 0. -1.
       -1    1    3    3    0  502  0.39511429659E+03  0.97242643044E+03  0.36471625094E+03  0.11111914388E+04  0.50400001928E-02 0.  1.
</event>
<event>
 5   0  0.1390735E-05  0.2098413E+04  0.7818609E-02  0.8561943E-01
       -2   -1    0    0    0  501  0.00000000000E+00  0.00000000000E+00  0.16873750931E+04  0.16873750931E+04  0.25500000920E-02 0. -1.
        2   -1    0    0  501    0  0.00000000000E+00  0.00000000000E+00 -0.65239458903E+03  0.65239458904E+03  0.25500000920E-02 0.  1.
    10030    2    1    2    0    0  0.00000000000E+00  0.00000000000E+00  0.10349805041E+04  0.23397696821E+04  0.20984130960E+04 0.  0.
        5    1    3    3  502    0 -0.29070351998E+03  0.79536857215E+03  0.12081653951E+04  0.14754000861E+04  0.46999998093E+01 0. -1.
       -5    1    3    3    0  502  0.29070351998E+03 -0.79536857215E+03 -0.17318489104E+03  0.86436959605E+03  0.46999998093E+01 0.  1.
</event>
<event>
 5   0  0.6238363E-06  0.2104293E+04  0.7818609E-02  0.8559355E-01
       -1   -1    0    0    0  501  0.00000000000E+00  0.00000000000E+00  0.58176241225E+03  0.58176241227E+03  0.50400001928E-02 0. -1.
        1   -1    0    0  501    0  0.00000000000E+00  0.00000000000E+00 -0.19028598164E+04  0.19028598164E+04  0.50400001928E-02 0.  1.
    10030    2    1    2    0    0  0.00000000000E+00  0.00000000000E+00 -0.13210974041E+04  0.24846222287E+04  0.21042930566E+04 0.  0.
        4    1    3    3  502    0 -0.36442253966E+03 -0.83606957966E+03 -0.41144598866E+02  0.91296802812E+03  0.12699999809E+01 0. -1.
       -4    1    3    3    0  502  0.36442253966E+03  0.83606957966E+03 -0.12799528053E+04  0.15716542005E+04  0.12699999809E+01 0.  1.
</event>
<event>
 5   0  0.6283269E-06  0.2111779E+04  0.7818609E-02  0.8556072E-01
        1   -1    0    0  501    0  0.00000000000E+00  0.00000000000E+00  0.15825588125E+04  0.15825588125E+04  0.50400001928E-02 0. -1.
       -1   -1    0    0    0  501  0.00000000000E+00  0.00000000000E+00 -0.70449342192E+03  0.70449342194E+03  0.50400001928E-02 0.  1.
    10030    2    1    2    0    0  0.00000000000E+00  0.00000000000E+00  0.87806539056E+03  0.22870522344E+04  0.21117786562E+04 0.  0.
        1    1    3    3  502    0  0.10240439789E+03 -0.42455661209E+03 -0.60209256902E+03  0.74380806615E+03  0.50400001928E-02 0.  1.
       -1    1    3    3    0  502 -0.10240439789E+03  0.42455661209E+03  0.14801579596E+04  0.15432441683E+04  0.50400001928E-02 0. -1.
</event>
<event>
 5   0  0.6589193E-06  0.2102818E+04  0.7818609E-02  0.8560003E-01
        1   -1    0    0  501    0  0.00000000000E+00  0.00000000000E+00  0.13129536797E+04  0.13129536797E+04  0.50400001928E-02 0.  1.
       -1   -1    0    0    0  501  0.00000000000E+00  0.00000000000E+00 -0.84196523642E+03  0.84196523644E+03  0.50400001928E-02 0. -1.
    10030    2    1    2    0    0  0.00000000000E+00  0.00000000000E+00  0.47098844323E+03  0.21549189161E+04  0.21028184471E+04 0.  0.
        3    1    3    3  502    0 -0.76464196634E+03  0.14232022181E+03  0.96050382902E+03  0.12359207086E+04  0.10100000352E+00 0.  1.
       -3    1    3    3    0  502  0.76464196634E+03 -0.14232022181E+03 -0.48951538579E+03  0.91899820748E+03  0.10100000352E+00 0. -1.
</event>
<event>
 5   0  0.1344501E-05  0.2105019E+04  0.7818609E-02  0.8559036E-01
        2   -1    0    0  501    0  0.00000000000E+00  0.00000000000E+00  0.12237402625E+04  0.12237402625E+04  0.25500000920E-02 0. -1.
       -2   -1    0    0    0  501  0.00000000000E+00  0.00000000000E+00 -0.90523795099E+03  0.90523795099E+03  0.25500000920E-02 0.  1.
    10030    2    1    2    0    0  0.00000000000E+00  0.00000000000E+00  0.31850231150E+03  0.21289782135E+04  0.21050188861E+04 0.  0.
        3    1    3    3  502    0 -0.31446020320E+03  0.90585662226E+03  0.59814279383E+03  0.11301487741E+04  0.10100000352E+00 0. -1.
       -3    1    3    3    0  502  0.31446020320E+03 -0.90585662226E+03 -0.27964048233E+03  0.99882943942E+03  0.10100000352E+00 0.  1.
</event>
<event>
 5   0  0.1398469E-05  0.2099212E+04  0.7818609E-02  0.8561590E-01
       -2   -1    0    0    0  501  0.00000000000E+00  0.00000000000E+00  0.15197581832E+04  0.15197581832E+04  0.25500000920E-02 0. -1.
        2   -1    0    0  501    0  0.00000000000E+00  0.00000000000E+00 -0.72490028218E+03  0.72490028219E+03  0.25500000920E-02 0.  1.
    10030    2    1    2    0    0  0.00000000000E+00  0.00000000000E+00  0.79485790105E+03  0.22446584654E+04  0.20992123627E+04 0.  0.
        2    1    3    3  502    0  0.66326400317E+02 -0.73473297461E+03  0.11957792734E+04  0.14050337384E+04  0.25500000920E-02 0. -1.
       -2    1    3    3    0  502 -0.66326400317E+02  0.73473297461E+03 -0.40092137237E+03  0.83962472700E+03  0.25500000920E-02 0.  1.
</event>
<event>
 5   0  0.5009125E-06  0.2098513E+04  0.7818609E-02  0.8561899E-01
       -4   -1    0    0    0  501  0.00000000000E+00  0.00000000000E+00  0.12527863989E+04  0.12527870426E+04  0.12699999809E+01 0. -1.
        4   -1    0    0  501    0  0.00000000000E+00  0.00000000000E+00 -0.87879093340E+03  0.87879185108E+03  0.12699999809E+01 0.  1.
    10030    2    1    2    0    0  0.00000000000E+00  0.00000000000E+00  0.37399546547E+03  0.21315788937E+04  0.20985128000E+04 0.  0.
        5    1    3    3  502    0  0.19607750392E+03 -0.54631774631E+03 -0.70085018684E+03  0.91001238556E+03  0.46999998093E+01 0.  1.
       -5    1    3    3    0  502 -0.19607750392E+03  0.54631774631E+03  0.10748456523E+04  0.12215665081E+04  0.46999998093E+01 0. -1.
</event>
<event>
 5   0  0.6599245E-06  0.2106776E+04  0.7818609E-02  0.8558264E-01
       -1   -1    0    0    0  501  0.00000000000E+00  0.00000000000E+00  0.31300914352E+04  0.31300914352E+04  0.50400001928E-02 0.  1.
        1   -1    0    0  501    0  0.00000000000E+00  0.00000000000E+00 -0.35450283354E+03  0.35450283358E+03  0.50400001928E-02 0. -1.
    10030    2    1    2    0    0  0.00000000000E+00  0.00000000000E+00  0.27755886016E+04  0.34845942688E+04  0.21067760043E+04 0.  0.
        2    1    3    3  502    0 -0.23626231762E+03  0.35929026792E+03 -0.20272247105E+03  0.47540065169E+03  0.25500000920E-02 0. -1.
       -2    1    3    3    0  502  0.23626231762E+03 -0.35929026792E+03  0.29783110727E+04  0.30091936171E+04  0.25500000920E-02 0.  1.
</event>
<event>
 5   0  0.1395356E-05  0.2101904E+04  0.7818609E-02  0.8560405E-01
        2   -1    0    0  501    0  0.00000000000E+00  0.00000000000E+00  0.14470260702E+04  0.14470260702E+04  0.25500000920E-02 0. -1.
       -2   -1    0    0    0  501  0.00000000000E+00  0.00000000000E+00 -0.76329004353E+03  0.76329004353E+03  0.25500000920E-02 0.  1.
    10030    2    1    2    0    0  0.00000000000E+00  0.00000000000E+00  0.68373602662E+03  0.22103161137E+04  0.21019044622E+04 0.  0.
        1    1    3    3  502    0 -0.62078669804E+03  0.80673120355E+03  0.61670876112E+03  0.11901769008E+04  0.50400001928E-02 0. -1.
       -1    1    3    3    0  502  0.62078669804E+03 -0.80673120355E+03  0.67027265509E+02  0.10201392128E+04  0.50400001928E-02 0.  1.
</event>
<event>
 5   0  0.6589193E-06  0.2105541E+04  0.7818609E-02  0.8558807E-01
        1   -1    0    0  501    0  0.00000000000E+00  0.00000000000E+00  0.15409067154E+04  0.15409067154E+04  0.50400001928E-02 0.  1.
       -1   -1    0    0    0  501  0.00000000000E+00  0.00000000000E+00 -0.71926841384E+03  0.71926841385E+03  0.50400001928E-02 0. -1.
    10030    2    1    2    0    0  0.00000000000E+00  0.00000000000E+00  0.82163830154E+03  0.22601751292E+04  0.21055408133E+04 0.  0.
        3    1    3    3  502    0 -0.44636835440E+03  0.67046458937E+03  0.11385128497E+04  0.13946250366E+04  0.10100000352E+00 0.  1.
       -3    1    3    3    0  502  0.44636835440E+03 -0.67046458937E+03 -0.31687454820E+03  0.86555009267E+03  0.10100000352E+00 0. -1.
</event>
<event>
 5   0  0.1395356E-05  0.2100844E+04  0.7818609E-02  0.8560872E-01
       -2   -1    0    0    0  501  0.00000000000E+00  0.00000000000E+00  0.76979845585E+03  0.76979845586E+03  0.25500000920E-02 0. -1.
        2   -1    0    0  501    0  0.00000000000E+00  0.00000000000E+00 -0.14333444026E+04  0.14333444026E+04  0.25500000920E-02 0.  1.
    10030    2    1    2    0    0  0.00000000000E+00  0.00000000000E+00 -0.66354594677E+03  0.22031428585E+04  0.21008439331E+04 0.  0.
        1    1    3    3  502    0 -0.26941662073E+03  0.95628468695E+03 -0.68943856838E+03  0.12092937020E+04  0.50400001928E-02 0.  1.
       -1    1    3    3    0  502  0.26941662073E+03 -0.95628468695E+03  0.25892621613E+02  0.99384915651E+03  0.50400001928E-02 0. -1.
</event>
<event>
 5   0  0.6599245E-06  0.2095446E+04  0.7818609E-02  0.8563252E-01
        1   -1    0    0  501    0  0.00000000000E+00  0.00000000000E+00  0.18176204153E+04  0.18176204153E+04  0.50400001928E-02 0. -1.
       -1   -1    0    0    0  501  0.00000000000E+00  0.00000000000E+00 -0.60393426263E+03  0.60393426265E+03  0.50400001928E-02 0.  1.
    10030    2    1    2    0    0  0.00000000000E+00  0.00000000000E+00  0.12136861526E+04  0.24215546779E+04  0.20954457714E+04 0.  0.
        2    1    3    3  502    0  0.39856597101E+03  0.96228289560E+03  0.73799554623E+03  0.12765111165E+04  0.25500000920E-02 0.  1.
       -2    1    3    3    0  502 -0.39856597101E+03 -0.96228289560E+03  0.47569060641E+03  0.11450435614E+04  0.25500000920E-02 0. -1.
</event>
<event>
 5   0  0.6238363E-06  0.2099469E+04  0.7818609E-02  0.8561477E-01
        1   -1    0    0  501    0  0.00000000000E+00  0.00000000000E+00  0.18726165477E+04  0.18726165478E+04  0.50400001928E-02 0.  1.
       -1   -1    0    0    0  501  0.00000000000E+00  0.00000000000E+00 -0.58845052952E+03  0.58845052954E+03  0.50400001928E-02 0. -1.
    10030    2    1    2    0    0  0.00000000000E+00  0.00000000000E+00  0.12841660182E+04  0.24610670773E+04  0.20994686939E+04 0.  0.
        4    1    3    3  502    0  0.26294241923E+03 -0.10153206584E+04  0.69352563713E+03  0.12573759093E+04  0.12699999809E+01 0.  1.
       -4    1    3    3    0  502 -0.26294241923E+03  0.10153206584E+04  0.59064038110E+03  0.12036911680E+04  0.12699999809E+01 0. -1.
</event>
<event>
 5   0  0.1441136E-05  0.2101331E+04  0.7818609E-02  0.8560657E-01
       -2   -1    0    0    0  501  0.00000000000E+00  0.00000000000E+00  0.54183935200E+03  0.54183935200E+03  0.25500000920E-02 0.  1.
        2   -1    0    0  501    0  0.00000000000E+00  0.00000000000E+00 -0.20373165759E+04  0.20373165759E+04  0.25500000920E-02 0. -1.
    10030    2    1    2    0    0  0.00000000000E+00  0.00000000000E+00 -0.14954772239E+04  0.25791559279E+04  0.21013312859E+04 0.  0.
        4    1    3    3  502    0 -0.36822957461E+03  0.82670930499E+03 -0.14028200445E+04  0.16694151624E+04  0.12699999809E+01 0. -1.
       -4    1    3    3    0  502  0.36822957461E+03 -0.82670930499E+03 -0.92657179484E+02  0.90974076549E+03  0.12699999809E+01 0.  1.
</event>
<event>
 5   0  0.1398469E-05  0.2098216E+04  0.7818609E-02  0.8562029E-01
        2   -1    0    0  501    0  0.00000000000E+00  0.00000000000E+00  0.19851040313E+04  0.19851040313E+04  0.25500000920E-02 0. -1.
       -2   -1    0    0    0  501  0.00000000000E+00  0.00000000000E+00 -0.55444352760E+03  0.55444352761E+03  0.25500000920E-02 0.  1.
    10030    2    1    2    0    0  0.00000000000E+00  0.00000000000E+00  0.14306605037E+04  0.25395475589E+04  0.20982164634E+04 0.  0.
        2    1    3    3  502    0  0.59992502227E+03  0.34920788621E+03 -0.23674516636E+03  0.73341969835E+03  0.25500000920E-02 0.  1.
       -2    1    3    3    0  502 -0.59992502227E+03 -0.34920788621E+03  0.16674056700E+04  0.18061278605E+04  0.25500000920E-02 0. -1.
</event>
<event>
 5   0  0.6917078E-06  0.2101151E+04  0.7818609E-02  0.8560737E-01
       -1   -1    0    0    0  501  0.00000000000E+00  0.00000000000E+00  0.49595410933E+03  0.49595410936E+03  0.50400001928E-02 0.  1.
        1   -1    0    0  501    0  0.00000000000E+00  0.00000000000E+00 -0.22254252247E+04  0.22254252247E+04  0.50400001928E-02 0. -1.
    10030    2    1    2    0    0  0.00000000000E+00  0.00000000000E+00 -0.17294711153E+04  0.27213793340E+04  0.21011509086E+04 0.  0.
        5    1    3    3  502    0  0.10078473096E+04 -0.18080240980E+03 -0.56032301588E+03  0.11672316321E+04  0.46999998093E+01 0.  1.
       -5    1    3    3    0  502 -0.10078473096E+04  0.18080240980E+03 -0.11691480994E+04  0.15541477019E+04  0.46999998093E+01 0. -1.
</event>
<event>
 5   0  0.1390735E-05  0.2102793E+04  0.7818609E-02  0.8560014E-01
       -2   -1    0    0    0  501  0.00000000000E+00  0.00000000000E+00  0.64066159297E+03  0.64066159297E+03  0.25500000920E-02 0.  1.
        2   -1    0    0  501    0  0.00000000000E+00  0.00000000000E+00 -0.17254581222E+04  0.17254581222E+04  0.25500000920E-02 0. -1.
    10030    2    1    2    0    0  0.00000000000E+00  0.00000000000E+00 -0.10847965293E+04  0.23661197152E+04  0.21027931417E+04 0.  0.
        5    1    3    3  502    0 -0.48554220235E+03  0.34805202683E+03  0.43111577570E+03  0.73673220759E+03  0.46999998093E+01 0.  1.
       -5    1    3    3    0  502  0.48554220235E+03 -0.34805202683E+03 -0.15159123050E+04  0.16293875076E+04  0.46999998093E+01 0. -1.
</event>
<event>
 5   0  0.1398469E-05  0.2099865E+04  0.7818609E-02  0.8561303E-01
       -2   -1    0    0    0  501  0.00000000000E+00  0.00000000000E+00  0.85816320529E+03  0.85816320529E+03  0.25500000920E-02 0. -1.
        2   -1    0    0  501    0  0.00000000000E+00  0.00000000000E+00 -0.12845558717E+04  0.12845558717E+04  0.25500000920E-02 0.  1.
    10030    2    1    2    0    0  0.00000000000E+00  0.00000000000E+00 -0.42639266644E+03  0.21427190770E+04  0.20998653140E+04 0.  0.
        2    1    3    3  502    0 -0.89629740763E+03  0.17109505821E+03 -0.74315655220E+03  0.11768195371E+04  0.25500000920E-02 0.  1.
       -2    1    3    3    0  502  0.89629740763E+03 -0.17109505821E+03  0.31676388576E+03  0.96589953991E+03  0.25500000920E-02 0. -1.
</event>
<event>
 5   0  0.1390735E-05  0.2098763E+04  0.7818609E-02  0.8561788E-01
       -2   -1    0    0    0  501  0.00000000000E+00  0.00000000000E+00  0.11667270136E+04  0.11667270136E+04  0.25500000920E-02 0. -1.
        2   -1    0    0  501    0  0.00000000000E+00  0.00000000000E+00 -0.94383843350E+03  0.94383843351E+03  0.25500000920E-02 0.  1.
    10030    2    1    2    0    0  0.00000000000E+00  0.00000000000E+00  0.22288858013E+03  0.21105654471E+04  0.20987632519E+04 0.  0.
        5    1    3    3  502    0  0.10334885300E+04 -0.17496350551E+03  0.61476472242E+02  0.10500058173E+04  0.46999998093E+01 0. -1.
       -5    1    3    3    0  502 -0.10334885300E+04  0.17496350551E+03  0.16141210788E+03  0.10605596298E+04  0.46999998093E+01 0.  1.
</event>
<event>
 5   0  0.6589193E-06  0.2097121E+04  0.7818609E-02  0.8562513E-01
        1   -1    0    0  501    0  0.00000000000E+00  0.00000000000E+00  0.95399137002E+03  0.95399137004E+03  0.50400001928E-02 0. -1.
       -1   -1    0    0    0  501  0.00000000000E+00  0.00000000000E+00 -0.11525044610E+04  0.11525044610E+04  0.50400001928E-02 0.  1.
    10030    2    1    2    0    0  0.00000000000E+00  0.00000000000E+00 -0.19851309100E+03  0.21064958311E+04  0.20971211789E+04 0.  0.
        3    1    3    3  502    0  0.90815553934E+03  0.28584102889E+03 -0.54056974842E+03  0.10948366273E+04  0.10100000352E+00 0.  1.
       -3    1    3    3    0  502 -0.90815553934E+03 -0.28584102889E+03  0.34205665742E+03  0.10116592037E+04  0.10100000352E+00 0. -1.
</event>
<event>
 5   0  0.1395356E-05  0.2102189E+04  0.7818609E-02  0.8560280E-01
       -2   -1    0    0    0  501  0.00000000000E+00  0.00000000000E+00  0.37195196115E+03  0.37195196116E+03  0.25500000920E-02 0. -1.
        2   -1    0    0  501    0  0.00000000000E+00  0.00000000000E+00 -0.29702742249E+04  0.29702742249E+04  0.25500000920E-02 0.  1.
    10030    2    1    2    0    0  0.00000000000E+00  0.00000000000E+00 -0.25983222638E+04  0.33422261861E+04  0.21021886910E+04 0.  0.
        1    1    3    3  502    0 -0.10402477853E+04  0.14018845685E+02 -0.15375759194E+04  0.18564621436E+04  0.50400001928E-02 0.  1.
       -1    1    3    3    0  502  0.10402477853E+04 -0.14018845685E+02 -0.10607463444E+04  0.14857640425E+04  0.50400001928E-02 0. -1.
</event>
<event>
 5   0  0.6589193E-06  0.2100726E+04  0.7818609E-02  0.8560924E-01
       -1   -1    0    0    0  501  0.00000000000E+00  0.00000000000E+00  0.10115359198E+04  0.10115359198E+04  0.50400001928E-02 0.  1.
        1   -1    0    0  501    0  0.00000000000E+00  0.00000000000E+00 -0.10906804733E+04  0.10906804733E+04  0.50400001928E-02 0. -1.
    10030    2    1    2    0    0  0.00000000000E+00  0.00000000000E+00 -0.79144553536E+02  0.21022163931E+04  0.21007260418E+04 0.  0.
        3    1    3    3  502    0  0.79898290834E+03 -0.35084868704E+03  0.54547397536E+03  0.10290822887E+04  0.10100000352E+00 0. -1.
       -3    1    3    3    0  502 -0.79898290834E+03  0.35084868704E+03 -0.62461852889E+03  0.10731341043E+04  0.10100000352E+00 0.  1.
</event>
<event>
 5   0  0.1398469E-05  0.2101339E+04  0.7818609E-02  0.8560654E-01
       -2   -1    0    0    0  501  0.00000000000E+00  0.00000000000E+00  0.16469483847E+04  0.16469483848E+04  0.25500000920E-02 0.  1.
        2   -1    0    0  501    0  0.00000000000E+00  0.00000000000E+00 -0.67027402262E+03  0.67027402263E+03  0.25500000920E-02 0. -1.
    10030    2    1    2    0    0  0.00000000000E+00  0.00000000000E+00  0.97667436213E+03  0.23172224074E+04  0.21013393052E+04 0.  0.
        2    1    3    3  502    0 -0.83816298390E+03 -0.50670176306E+03  0.90772907067E+03  0.13353785718E+04  0.25500000920E-02 0.  1.
       -2    1    3    3    0  502  0.83816298390E+03  0.50670176306E+03  0.68945291456E+02  0.98184383559E+03  0.25500000920E-02 0. -1.
</event>
<event>
 5   0  0.1344501E-05  0.2101081E+04  0.7818609E-02  0.8560767E-01
       -2   -1    0    0    0  501  0.00000000000E+00  0.00000000000E+00  0.12208472480E+04  0.12208472480E+04  0.25500000920E-02 0. -1.
        2   -1    0    0  501    0  0.00000000000E+00  0.00000000000E+00 -0.90399105638E+03  0.90399105639E+03  0.25500000920E-02 0.  1.
    10030    2    1    2    0    0  0.00000000000E+00  0.00000000000E+00  0.31685619165E+03  0.21248383044E+04  0.21010806681E+04 0.  0.
        3    1    3    3  502    0 -0.36230194965E+03 -0.21815959176E+03  0.11309559812E+04  0.12074426495E+04  0.10100000352E+00 0. -1.
       -3    1    3    3    0  502  0.36230194965E+03  0.21815959176E+03 -0.81409978953E+03  0.91739565495E+03  0.10100000352E+00 0.  1.
</event>
<event>
 5   0  0.1395356E-05  0.2102161E+04  0.7818609E-02  0.8560292E-01
        2   -1    0    0  501    0  0.00000000000E+00  0.00000000000E+00  0.86032003098E+03  0.86032003098E+03  0.25500000920E-02 0. -1.
       -2   -1    0    0    0  501  0.00000000000E+00  0.00000000000E+00 -0.12841383486E+04  0.12841383486E+04  0.25500000920E-02 0.  1.
    10030    2    1    2    0    0  0.00000000000E+00  0.00000000000E+00 -0.42381831766E+03  0.21444583796E+04  0.21021607397E+04 0.  0.
        1    1    3    3  502    0  0.15382556059E+03  0.45908150419E+03  0.73978876105E+03  0.88414113216E+03  0.50400001928E-02 0. -1.
       -1    1    3    3    0  502 -0.15382556059E+03 -0.45908150419E+03 -0.11636070787E+04  0.12603172475E+04  0.50400001928E-02 0.  1.
</event>
<event>
 5   0  0.1390735E-05  0.2097321E+04  0.7818609E-02  0.8562425E-01
       -2   -1    0    0    0  501  0.00000000000E+00  0.00000000000E+00  0.12943512848E+04  0.12943512848E+04  0.25500000920E-02 0. -1.
        2   -1    0    0  501    0  0.00000000000E+00  0.00000000000E+00 -0.84960592957E+03  0.84960592958E+03  0.25500000920E-02 0.  1.
    10030    2    1    2    0    0  0.00000000000E+00  0.00000000000E+00  0.44474535518E+03  0.21439572143E+04  0.20973206970E+04 0.  0.
        5    1    3    3  502    0  0.14857020249E+03 -0.12414301057E+03  0.12759118995E+04  0.12905261940E+04  0.46999998093E+01 0. -1.
       -5    1    3    3    0  502 -0.14857020249E+03  0.12414301057E+03 -0.83116654429E+03  0.85343102035E+03  0.46999998093E+01 0.  1.
</event>
<event>
 5   0  0.6238363E-06  0.2096403E+04  0.7818609E-02  0.8562830E-01
       -1   -1    0    0    0  501  0.00000000000E+00  0.00000000000E+00  0.66380915528E+03  0.66380915530E+03  0.50400001928E-02 0.  1.
        1   -1    0    0  501    0  0.00000000000E+00  0.00000000000E+00 -0.16551840287E+04  0.16551840287E+04  0.50400001928E-02 0. -1.
    10030    2    1    2    0    0  0.00000000000E+00  0.00000000000E+00 -0.99137487338E+03  0.23189931840E+04  0.20964029307E+04 0.  0.
        4    1    3    3  502    0 -0.67487058734E+03 -0.80159668629E+03 -0.46606455772E+03  0.11468327437E+04  0.12699999809E+01 0. -1.
       -4    1    3    3    0  502  0.67487058734E+03  0.80159668629E+03 -0.52531031565E+03  0.11721604403E+04  0.12699999809E+01 0.  1.
</event>
<event>
 5   0  0.6917078E-06  0.2103784E+04  0.7818609E-02  0.8559578E-01
        1   -1    0    0  501    0  0.00000000000E+00  0.00000000000E+00  0.15180109272E+04  0.15180109272E+04  0.50400001928E-02 0. -1.
       -1   -1    0    0    0  501  0.00000000000E+00  0.00000000000E+00 -0.72889924250E+03  0.72889924252E+03  0.50400001928E-02 0.  1.
    10030    2    1    2    0    0  0.00000000000E+00  0.00000000000E+00  0.78911168471E+03  0.22469101697E+04  0.21037842237E+04 0.  0.
        5    1    3    3  502    0 -0.48137000083E+03  0.78529459568E+03  0.93710195238E+03  0.13139965140E+04  0.46999998093E+01 0. -1.
       -5    1    3    3    0  502  0.48137000083E+03 -0.78529459568E+03 -0.14799026767E+03  0.93291365572E+03  0.46999998093E+01 0.  1.
</event>
<event>
 5   0  0.1441136E-05  0.2101166E+04  0.7818609E-02  0.8560730E-01
        2   -1    0    0  501    0  0.00000000000E+00  0.00000000000E+00  0.14757656655E+04  0.14757656655E+04  0.25500000920E-02 0. -1.
       -2   -1    0    0    0  501  0.00000000000E+00  0.00000000000E+00 -0.74789956729E+03  0.74789956730E+03  0.25500000920E-02 0.  1.
    10030    2    1    2    0    0  0.00000000000E+00  0.00000000000E+00  0.72786609821E+03  0.22236652328E+04  0.21011658694E+04 0.  0.
        4    1    3    3  502    0  0.85422901032E+03 -0.22799974625E+03 -0.23662978218E+03  0.91525207078E+03  0.12699999809E+01 0.  1.
       -4    1    3    3    0  502 -0.85422901032E+03  0.22799974625E+03  0.96449588038E+03  0.13084131620E+04  0.12699999809E+01 0. -1.
</event>
<event>
 5   0  0.6238363E-06  0.2102301E+04  0.7818609E-02  0.8560231E-01
        1   -1    0    0  501    0  0.00000000000E+00  0.00000000000E+00  0.12045358931E+04  0.12045358931E+04  0.50400001928E-02 0. -1.
       -1   -1    0    0    0  501  0.00000000000E+00  0.00000000000E+00 -0.91729682830E+03  0.91729682831E+03  0.50400001928E-02 0.  1.
    10030    2    1    2    0    0  0.00000000000E+00  0.00000000000E+00  0.28723906483E+03  0.21218327215E+04  0.21023006011E+04 0.  0.
        4    1    3    3  502    0  0.66325646346E+03  0.39353942506E+02 -0.67847710708E+03  0.94962659338E+03  0.12699999809E+01 0.  1.
       -4    1    3    3    0  502 -0.66325646346E+03 -0.39353942506E+02  0.96571617191E+03  0.11722061281E+04  0.12699999809E+01 0. -1.
</event>
<event>
 5   0  0.6283269E-06  0.2097395E+04  0.7818609E-02  0.8562392E-01
       -1   -1    0    0    0  501  0.00000000000E+00  0.00000000000E+00  0.81862094811E+03  0.81862094813E+03  0.50400001928E-02 0. -1.
        1   -1    0    0  501    0  0.00000000000E+00  0.00000000000E+00 -0.13434375741E+04  0.13434375741E+04  0.50400001928E-02 0.  1.
    10030    2    1    2    0    0  0.00000000000E+00  0.00000000000E+00 -0.52481662594E+03  0.21620585222E+04  0.20973947083E+04 0.  0.
        1    1    3    3  502    0 -0.35779490632E+03 -0.27707568177E+03  0.71279116487E+03  0.84430999826E+03  0.50400001928E-02 0. -1.
       -1    1    3    3    0  502  0.35779490632E+03  0.27707568177E+03 -0.12376077908E+04  0.13177485239E+04  0.50400001928E-02 0.  1.
</event>
<event>
 5   0  0.1395356E-05  0.2095781E+04  0.7818609E-02  0.8563104E-01
        2   -1    0    0  501    0  0.00000000000E+00  0.00000000000E+00  0.17449115849E+04  0.17449115849E+04  0.25500000920E-02 0. -1.
       -2   -1    0    0    0  501  0.00000000000E+00  0.00000000000E+00 -0.62930100697E+03  0.62930100698E+03  0.25500000920E-02 0.  1.
    10030    2    1    2    0    0  0.00000000000E+00  0.00000000000E+00  0.11156105779E+04  0.23742125919E+04  0.20957811121E+04 0.  0.
        1    1    3    3  502    0 -0.81614925470E+03 -0.51535409523E+02  0.13000785115E+04  0.15358905041E+04  0.50400001928E-02 0. -1.
       -1    1    3    3    0  502  0.81614925470E+03  0.51535409523E+02 -0.18446793357E+03  0.83832208782E+03  0.50400001928E-02 0.  1.
</event>
<event>
 5   0  0.6917078E-06  0.2100204E+04  0.7818609E-02  0.8561153E-01
        1   -1    0    0  501    0  0.00000000000E+00  0.00000000000E+00  0.14549087557E+04  0.14549087557E+04  0.50400001928E-02 0. -1.
       -1   -1    0    0    0  501  0.00000000000E+00  0.00000000000E+00 -0.75792676692E+03  0.75792676694E+03  0.50400001928E-02 0.  1.
    10030    2    1    2    0    0  0.00000000000E+00  0.00000000000E+00  0.69698198877E+03  0.22128355226E+04  0.21002040752E+04 0.  0.
        5    1    3    3  502    0 -0.20958912791E+03  0.15882739274E+03 -0.72266064794E+03  0.76903461906E+03  0.46999998093E+01 0.  1.
       -5    1    3    3    0  502  0.20958912791E+03 -0.15882739274E+03  0.14196426367E+04  0.14438009036E+04  0.46999998093E+01 0. -1.
</event>
<event>
 5   0  0.1441136E-05  0.2102396E+04  0.7818609E-02  0.8560189E-01
        2   -1    0    0  501    0  0.00000000000E+00  0.00000000000E+00  0.29535464183E+04  0.29535464183E+04  0.25500000920E-02 0.  1.
       -2   -1    0    0    0  501  0.00000000000E+00  0.00000000000E+00 -0.37413232216E+03  0.37413232217E+03  0.25500000920E-02 0. -1.
    10030    2    1    2    0    0  0.00000000000E+00  0.00000000000E+00  0.25794140962E+04  0.33276787405E+04  0.21023959476E+04 0.  0.
        4    1    3    3  502    0 -0.78675358202E+03  0.18685900205E+02  0.18663388495E+03  0.80880416765E+03  0.12699999809E+01 0. -1.
       -4    1    3    3    0  502  0.78675358202E+03 -0.18685900205E+02  0.23927802112E+04  0.25188745729E+04  0.12699999809E+01 0.  1.
</event>
<event>
 5   0  0.1395356E-05  0.2083328E+04  0.7818609E-02  0.8568623E-01
        2   -1    0    0  501    0  0.00000000000E+00  0.00000000000E+00  0.39603898094E+03  0.39603898095E+03  0.25500000920E-02 0. -1.
       -2   -1    0    0    0  501  0.00000000000E+00  0.00000000000E+00 -0.27397914180E+04  0.27397914180E+04  0.25500000920E-02 0.  1.
    10030    2    1    2    0    0  0.00000000000E+00  0.00000000000E+00 -0.23437524371E+04  0.31358303990E+04  0.20833282998E+04 0.  0.
        1    1    3    3  502    0 -0.78784528779E+02 -0.10132653887E+04 -0.82814111358E+03  0.13110039870E+04  0.50400001928E-02 0.  1.
       -1    1    3    3    0  502  0.78784528779E+02  0.10132653887E+04 -0.15156113235E+04  0.18248264120E+04  0.50400001928E-02 0. -1.
</event>
<event>
 5   0  0.1344501E-05  0.2131930E+04  0.7818609E-02  0.8547307E-01
        2   -1    0    0  501    0  0.00000000000E+00  0.00000000000E+00  0.13753995416E+04  0.13753995416E+04  0.25500000920E-02 0.  1.
       -2   -1    0    0    0  501  0.00000000000E+00  0.00000000000E+00 -0.82614667660E+03  0.82614667660E+03  0.25500000920E-02 0. -1.
    10030    2    1    2    0    0  0.00000000000E+00  0.00000000000E+00  0.54925286501E+03  0.22015462182E+04  0.21319303556E+04 0.  0.
        3    1    3    3  502    0 -0.50446341440E+03 -0.10334796276E+03 -0.68918748023E+03  0.86031594835E+03  0.10100000352E+00 0. -1.
       -3    1    3    3    0  502  0.50446341440E+03  0.10334796276E+03  0.12384403452E+04  0.13412302699E+04  0.10100000352E+00 0.  1.
</event>
<event>
 5   0  0.1398469E-05  0.2100717E+04  0.7818609E-02  0.8560928E-01
       -2   -1    0    0    0  501  0.00000000000E+00  0.00000000000E+00  0.47645239729E+03  0.47645239730E+03  0.25500000920E-02 0.  1.
        2   -1    0    0  501    0  0.00000000000E+00  0.00000000000E+00 -0.23155578379E+04  0.23155578379E+04  0.25500000920E-02 0. -1.
    10030    2    1    2    0    0  0.00000000000E+00  0.00000000000E+00 -0.18391054406E+04  0.27920102352E+04  0.21007170994E+04 0.  0.
        2    1    3    3  502    0  0.51757172193E+03 -0.89585324314E+03 -0.67877526058E+03  0.12374042892E+04  0.25500000920E-02 0. -1.
       -2    1    3    3    0  502 -0.51757172193E+03  0.89585324314E+03 -0.11603301800E+04  0.15546059459E+04  0.25500000920E-02 0.  1.
</event>
<event>
 5   0  0.1395356E-05  0.2106369E+04  0.7818609E-02  0.8558443E-01
       -2   -1    0    0    0  501  0.00000000000E+00  0.00000000000E+00  0.57162513556E+03  0.57162513556E+03  0.25500000920E-02 0.  1.
        2   -1    0    0  501    0  0.00000000000E+00  0.00000000000E+00 -0.19404289434E+04  0.19404289434E+04  0.25500000920E-02 0. -1.
    10030    2    1    2    0    0  0.00000000000E+00  0.00000000000E+00 -0.13688038079E+04  0.25120540790E+04  0.21063693483E+04 0.  0.
        1    1    3    3  502    0 -0.84705540883E+03 -0.19322504112E+03  0.25529356025E+02  0.86918958242E+03  0.50400001928E-02 0.  1.
       -1    1    3    3    0  502  0.84705540883E+03  0.19322504112E+03 -0.13943331639E+04  0.16428644966E+04  0.50400001928E-02 0. -1.
</event>
<event>
 5   0  0.1344501E-05  0.2095716E+04  0.7818609E-02  0.8563133E-01
       -2   -1    0    0    0  501  0.00000000000E+00  0.00000000000E+00  0.12153183976E+04  0.12153183976E+04  0.25500000920E-02 0. -1.
        2   -1    0    0  501    0  0.00000000000E+00  0.00000000000E+00 -0.90347253277E+03  0.90347253277E+03  0.25500000920E-02 0.  1.
    10030    2    1    2    0    0  0.00000000000E+00  0.00000000000E+00  0.31184586486E+03  0.21187909304E+04  0.20957163843E+04 0.  0.
        3    1    3    3  502    0 -0.17038882913E+03  0.38408645188E+03 -0.81456907023E+03  0.91655743736E+03  0.10100000352E+00 0.  1.
       -3    1    3    3    0  502  0.17038882913E+03 -0.38408645188E+03  0.11264149351E+04  0.12022334930E+04  0.10100000352E+00 0. -1.
</event>
<event>
 5   0  0.1398469E-05  0.2102106E+04  0.7818609E-02  0.8560316E-01
       -2   -1    0    0    0  501  0.00000000000E+00  0.00000000000E+00  0.10936931757E+04  0.10936931757E+04  0.25500000920E-02 0. -1.
        2   -1    0    0  501    0  0.00000000000E+00  0.00000000000E+00 -0.10100748271E+04  0.10100748271E+04  0.25500000920E-02 0.  1.
    10030    2    1    2    0    0  0.00000000000E+00  0.00000000000E+00  0.83618348592E+02  0.21037680028E+04  0.21021055590E+04 0.  0.
        2    1    3    3  502    0 -0.83739824981E+02  0.67059598509E+03  0.84743064602E+03  0.10839049928E+04  0.25500000920E-02 0. -1.
       -2    1    3    3    0  502  0.83739824981E+02 -0.67059598509E+03 -0.76381229743E+03  0.10198630100E+04  0.25500000920E-02 0.  1.
</event>
<event>
 5   0  0.6589193E-06  0.2101952E+04  0.7818609E-02  0.8560384E-01
        1   -1    0    0  501    0  0.00000000000E+00  0.00000000000E+00  0.12936718275E+04  0.12936718275E+04  0.50400001928E-02 0.  1.
       -1   -1    0    0    0  501  0.00000000000E+00  0.00000000000E+00 -0.85381059187E+03  0.85381059188E+03  0.50400001928E-02 0. -1.
    10030    2    1    2    0    0  0.00000000000E+00  0.00000000000E+00  0.43986123559E+03  0.21474824193E+04  0.21019521486E+04 0.  0.
        3    1    3    3  502    0 -0.85916855933E+03  0.57093855381E+03  0.42530544115E+03  0.11158074090E+04  0.10100000352E+00 0.  1.
       -3    1    3    3    0  502  0.85916855933E+03 -0.57093855381E+03  0.14555794436E+02  0.10316750103E+04  0.10100000352E+00 0. -1.
</event>
<event>
 5   0  0.6283269E-06  0.2106479E+04  0.7818609E-02  0.8558395E-01
       -1   -1    0    0    0  501  0.00000000000E+00  0.00000000000E+00  0.12148802405E+04  0.12148802405E+04  0.50400001928E-02 0. -1.
        1   -1    0    0  501    0  0.00000000000E+00  0.00000000000E+00 -0.91310508034E+03  0.91310508035E+03  0.50400001928E-02 0.  1.
    10030    2    1    2    0    0  0.00000000000E+00  0.00000000000E+00  0.30177516016E+03  0.21279853209E+04  0.21064788816E+04 0.  0.
        1    1    3    3  502    0  0.59204199485E+02  0.36286745342E+03 -0.84617215873E+03  0.92259701291E+03  0.50400001928E-02 0.  1.
       -1    1    3    3    0  502 -0.59204199485E+02 -0.36286745342E+03  0.11479473189E+04  0.12053883080E+04  0.50400001928E-02 0. -1.
</event>
<event>
 5   0  0.1398469E-05  0.2136701E+04  0.7818609E-02  0.8545246E-01
       -2   -1    0    0    0  501  0.00000000000E+00  0.00000000000E+00  0.72024400001E+03  0.72024400001E+03  0.25500000920E-02 0.  1.
        2   -1    0    0  501    0  0.00000000000E+00  0.00000000000E+00 -0.15847036015E+04  0.15847036015E+04  0.25500000920E-02 0. -1.
    10030    2    1    2    0    0  0.00000000000E+00  0.00000000000E+00 -0.86445960146E+03  0.23049476015E+04  0.21367014398E+04 0.  0.
        2    1    3    3  502    0 -0.30115362684E+03 -0.58724768812E+03 -0.13385134938E+04  0.14923711761E+04  0.25500000920E-02 0. -1.
       -2    1    3    3    0  502  0.30115362684E+03  0.58724768812E+03  0.47405389237E+03  0.81257642536E+03  0.25500000920E-02 0.  1.
</event>
<event>
 5   0  0.1390735E-05  0.2100043E+04  0.7818609E-02  0.8561224E-01
        2   -1    0    0  501    0  0.00000000000E+00  0.00000000000E+00  0.60115330881E+03  0.60115330882E+03  0.25500000920E-02 0. -1.
       -2   -1    0    0    0  501  0.00000000000E+00  0.00000000000E+00 -0.18340498450E+04  0.18340498450E+04  0.25500000920E-02 0.  1.
    10030    2    1    2    0    0  0.00000000000E+00  0.00000000000E+00 -0.12328965361E+04  0.24352031538E+04  0.21000429832E+04 0.  0.
        5    1    3    3  502    0 -0.68016824870E+03  0.78161391056E+03 -0.41906495898E+03  0.11176702025E+04  0.46999998093E+01 0. -1.
       -5    1    3    3    0  502  0.68016824870E+03 -0.78161391056E+03 -0.81383157716E+03  0.13175329513E+04  0.46999998093E+01 0.  1.
</event>
<event>
 5   0  0.1390735E-05  0.2100706E+04  0.7818609E-02  0.8560932E-01
       -2   -1    0    0    0  501  0.00000000000E+00  0.00000000000E+00  0.13273005995E+04  0.13273005995E+04  0.25500000920E-02 0. -1.
        2   -1    0    0  501    0  0.00000000000E+00  0.00000000000E+00 -0.83119191122E+03  0.83119191122E+03  0.25500000920E-02 0.  1.
    10030    2    1    2    0    0  0.00000000000E+00  0.00000000000E+00  0.49610868829E+03  0.21584925107E+04  0.21007060928E+04 0.  0.
        5    1    3    3  502    0 -0.27980683297E+03 -0.36022737591E+03  0.12202115691E+04  0.13026872186E+04  0.46999998093E+01 0. -1.
       -5    1    3    3    0  502  0.27980683297E+03  0.36022737591E+03 -0.72410288078E+03  0.85580529216E+03  0.46999998093E+01 0.  1.
</event>
<event>
 5   0  0.6238363E-06  0.2098487E+04  0.7818609E-02  0.8561910E-01
        1   -1    0    0  501    0  0.00000000000E+00  0.00000000000E+00  0.12855848131E+04  0.12855848131E+04  0.50400001928E-02 0.  1.
       -1   -1    0    0    0  501  0.00000000000E+00  0.00000000000E+00 -0.85635104883E+03  0.85635104884E+03  0.50400001928E-02 0. -1.
    10030    2    1    2    0    0  0.00000000000E+00  0.00000000000E+00  0.42923376422E+03  0.21419358619E+04  0.20984869816E+04 0.  0.
        4    1    3    3  502    0 -0.16193412058E+03 -0.26846942124E+03  0.12366538122E+04  0.12757792731E+04  0.12699999809E+01 0.  1.
       -4    1    3    3    0  502  0.16193412058E+03  0.26846942124E+03 -0.80742004798E+03  0.86615658880E+03  0.12699999809E+01 0. -1.
</event>
<event>
 5   0  0.6917078E-06  0.2102591E+04  0.7818609E-02  0.8560103E-01
        1   -1    0    0  501    0  0.00000000000E+00  0.00000000000E+00  0.13235271975E+04  0.13235271975E+04  0.50400001928E-02 0.  1.
       -1   -1    0    0    0  501  0.00000000000E+00  0.00000000000E+00 -0.83505803667E+03  0.83505803669E+03  0.50400001928E-02 0. -1.
    10030    2    1    2    0    0  0.00000000000E+00  0.00000000000E+00  0.48846916079E+03  0.21585852342E+04  0.21025908047E+04 0.  0.
        5    1    3    3  502    0 -0.29495172944E+03  0.94571633238E+03  0.60549210911E+03  0.11610420700E+04  0.46999998093E+01 0.  1.
       -5    1    3    3    0  502  0.29495172944E+03 -0.94571633238E+03 -0.11702294832E+03  0.99754316421E+03  0.46999998093E+01 0. -1.
</event>
<event>
 5   0  0.1395356E-05  0.2101642E+04  0.7818609E-02  0.8560521E-01
        2   -1    0    0  501    0  0.00000000000E+00  0.00000000000E+00  0.16334184185E+04  0.16334184185E+04  0.25500000920E-02 0. -1.
       -2   -1    0    0    0  501  0.00000000000E+00  0.00000000000E+00 -0.67602054846E+03  0.67602054846E+03  0.25500000920E-02 0.  1.
    10030    2    1    2    0    0  0.00000000000E+00  0.00000000000E+00  0.95739787000E+03  0.23094389669E+04  0.21016416584E+04 0.  0.
        1    1    3    3  502    0 -0.89420007933E+03  0.45492255478E+03  0.82213190181E+03  0.12970925860E+04  0.50400001928E-02 0. -1.
       -1    1    3    3    0  502  0.89420007933E+03 -0.45492255478E+03  0.13526596819E+03  0.10123463809E+04  0.50400001928E-02 0.  1.
</event>
<event>
 5   0  0.1441136E-05  0.2100740E+04  0.7818609E-02  0.8560918E-01
       -2   -1    0    0    0  501  0.00000000000E+00  0.00000000000E+00  0.99010787059E+03  0.99010787059E+03  0.25500000920E-02 0.  1.
        2   -1    0    0  501    0  0.00000000000E+00  0.00000000000E+00 -0.11142994533E+04  0.11142994533E+04  0.25500000920E-02 0. -1.
    10030    2    1    2    0    0  0.00000000000E+00  0.00000000000E+00 -0.12419158270E+03  0.21044073239E+04  0.21007395449E+04 0.  0.
        4    1    3    3  502    0  0.37454975062E+03  0.15978369561E+01 -0.10451270998E+04  0.11102172474E+04  0.12699999809E+01 0. -1.
       -4    1    3    3    0  502 -0.37454975062E+03 -0.15978369561E+01  0.92093551706E+03  0.99419007653E+03  0.12699999809E+01 0.  1.
</event>
<event>
 5   0  0.1398469E-05  0.2092576E+04  0.7818609E-02  0.8564521E-01
        2   -1    0    0  501    0  0.00000000000E+00  0.00000000000E+00  0.14367580042E+04  0.14367580042E+04  0.25500000920E-02 0. -1.
       -2   -1    0    0    0  501  0.00000000000E+00  0.00000000000E+00 -0.76193698498E+03  0.76193698498E+03  0.25500000920E-02 0.  1.
    10030    2    1    2    0    0  0.00000000000E+00  0.00000000000E+00  0.67482101921E+03  0.21986949892E+04  0.20925764616E+04 0.  0.
        2    1    3    3  502    0  0.31348898576E+03  0.41285523224E+02  0.13853549844E+04  0.14209814466E+04  0.25500000920E-02 0. -1.
       -2    1    3    3    0  502 -0.31348898576E+03 -0.41285523224E+02 -0.71053396521E+03  0.77771354260E+03  0.25500000920E-02 0.  1.
</event>
<event>
 5   0  0.1398469E-05  0.2108296E+04  0.7818609E-02  0.8557598E-01
       -2   -1    0    0    0  501  0.00000000000E+00  0.00000000000E+00  0.10623500625E+04  0.10623500626E+04  0.25500000920E-02 0. -1.
        2   -1    0    0  501    0  0.00000000000E+00  0.00000000000E+00 -0.10460093317E+04  0.10460093317E+04  0.25500000920E-02 0.  1.
    10030    2    1    2    0    0  0.00000000000E+00  0.00000000000E+00  0.16340730894E+02  0.21083593942E+04  0.21082960693E+04 0.  0.
        2    1    3    3  502    0  0.51651009777E+03 -0.12521052641E+03  0.91856451553E+03  0.10612356601E+04  0.25500000920E-02 0. -1.
       -2    1    3    3    0  502 -0.51651009777E+03  0.12521052641E+03 -0.90222378463E+03  0.10471237341E+04  0.25500000920E-02 0.  1.
</event>
<event>
 5   0  0.5009125E-06  0.2092719E+04  0.7818609E-02  0.8564457E-01
        4   -1    0    0  501    0  0.00000000000E+00  0.00000000000E+00  0.88829662883E+03  0.88829753669E+03  0.12699999809E+01 0.  1.
       -4   -1    0    0    0  501  0.00000000000E+00  0.00000000000E+00 -0.12325461755E+04  0.12325468298E+04  0.12699999809E+01 0. -1.
    10030    2    1    2    0    0  0.00000000000E+00  0.00000000000E+00 -0.34424954663E+03  0.21208443665E+04  0.20927190629E+04 0.  0.
        1    1    3    3  502    0  0.62120611964E+03  0.57186810679E+03  0.45419245482E+03  0.95876011634E+03  0.50400001928E-02 0.  1.
       -1    1    3    3    0  502 -0.62120611964E+03 -0.57186810679E+03 -0.79844200145E+03  0.11620842501E+04  0.50400001928E-02 0. -1.
</event>
<event>
 5   0  0.6283269E-06  0.2085903E+04  0.7818609E-02  0.8567479E-01
       -1   -1    0    0    0  501  0.00000000000E+00  0.00000000000E+00  0.43269235922E+03  0.43269235925E+03  0.50400001928E-02 0. -1.
        1   -1    0    0  501    0  0.00000000000E+00  0.00000000000E+00 -0.25139059917E+04  0.25139059917E+04  0.50400001928E-02 0.  1.
    10030    2    1    2    0    0  0.00000000000E+00  0.00000000000E+00 -0.20812136325E+04  0.29465983510E+04  0.20859030797E+04 0.  0.
        1    1    3    3  502    0 -0.11558238069E+03 -0.12480574749E+03  0.41296426769E+03  0.44662651931E+03  0.50400001928E-02 0. -1.
       -1    1    3    3    0  502  0.11558238069E+03  0.12480574749E+03 -0.24941779002E+04  0.24999718317E+04  0.50400001928E-02 0.  1.
</event>
<event>
 5   0  0.1390735E-05  0.2099006E+04  0.7818609E-02  0.8561681E-01
        2   -1    0    0  501    0  0.00000000000E+00  0.00000000000E+00  0.91467119940E+03  0.91467119940E+03  0.25500000920E-02 0.  1.
       -2   -1    0    0    0  501  0.00000000000E+00  0.00000000000E+00 -0.12042106658E+04  0.12042106658E+04  0.25500000920E-02 0. -1.
    10030    2    1    2    0    0  0.00000000000E+00  0.00000000000E+00 -0.28953946640E+03  0.21188818652E+04  0.20990062544E+04 0.  0.
        5    1    3    3  502    0  0.53551988894E+03  0.76911844330E+03  0.33204813574E+03  0.99428506261E+03  0.46999998093E+01 0.  1.
       -5    1    3    3    0  502 -0.53551988894E+03 -0.76911844330E+03 -0.62158760214E+03  0.11245968026E+04  0.46999998093E+01 0. -1.
</event>
<event>
 5   0  0.1395356E-05  0.2107790E+04  0.7818609E-02  0.8557820E-01
        2   -1    0    0  501    0  0.00000000000E+00  0.00000000000E+00  0.14837357241E+04  0.14837357241E+04  0.25500000920E-02 0.  1.
       -2   -1    0    0    0  501  0.00000000000E+00  0.00000000000E+00 -0.74857953059E+03  0.74857953059E+03  0.25500000920E-02 0. -1.
    10030    2    1    2    0    0  0.00000000000E+00  0.00000000000E+00  0.73515619347E+03  0.22323152547E+04  0.21077895453E+04 0.  0.
        1    1    3    3  502    0 -0.94223490081E+03  0.31855740218E+03  0.73660098333E+03  0.12376859196E+04  0.50400001928E-02 0.  1.
       -1    1    3    3    0  502  0.94223490081E+03 -0.31855740218E+03 -0.14447898641E+01  0.99462933510E+03  0.50400001928E-02 0. -1.
</event>
<event>
 5   0  0.6238363E-06  0.2097676E+04  0.7818609E-02  0.8562268E-01
       -1   -1    0    0    0  501  0.00000000000E+00  0.00000000000E+00  0.13005124139E+04  0.13005124139E+04  0.50400001928E-02 0. -1.
        1   -1    0    0  501    0  0.00000000000E+00  0.00000000000E+00 -0.84586734823E+03  0.84586734824E+03  0.50400001928E-02 0.  1.
    10030    2    1    2    0    0  0.00000000000E+00  0.00000000000E+00  0.45464506565E+03  0.21463797621E+04  0.20976758443E+04 0.  0.
        4    1    3    3  502    0 -0.48721188286E+03 -0.86816060714E+03  0.56511021770E+03  0.11447398961E+04  0.12699999809E+01 0. -1.
       -4    1    3    3    0  502  0.48721188286E+03  0.86816060714E+03 -0.11046515205E+03  0.10016398661E+04  0.12699999809E+01 0.  1.
</event>
<event>
 5   0  0.6589193E-06  0.2102312E+04  0.7818609E-02  0.8560226E-01
        1   -1    0    0  501    0  0.00000000000E+00  0.00000000000E+00  0.10417334672E+04  0.10417334672E+04  0.50400001928E-02 0. -1.
       -1   -1    0    0    0  501  0.00000000000E+00  0.00000000000E+00 -0.10606636068E+04  0.10606636068E+04  0.50400001928E-02 0.  1.
    10030    2    1    2    0    0  0.00000000000E+00  0.00000000000E+00 -0.18930139656E+02  0.21023970740E+04  0.21023118481E+04 0.  0.
        3    1    3    3  502    0 -0.13254478449E+03 -0.68674737051E+03  0.77525693170E+03  0.10441328417E+04  0.10100000352E+00 0. -1.
       -3    1    3    3    0  502  0.13254478449E+03  0.68674737051E+03 -0.79418707136E+03  0.10582642323E+04  0.10100000352E+00 0.  1.
</event>
<event>
 5   0  0.1390735E-05  0.2145852E+04  0.7818609E-02  0.8541310E-01
        2   -1    0    0  501    0  0.00000000000E+00  0.00000000000E+00  0.97493461879E+03  0.97493461879E+03  0.25500000920E-02 0.  1.
       -2   -1    0    0    0  501  0.00000000000E+00  0.00000000000E+00 -0.11807661591E+04  0.11807661591E+04  0.25500000920E-02 0. -1.
    10030    2    1    2    0    0  0.00000000000E+00  0.00000000000E+00 -0.20583154034E+03  0.21557007779E+04  0.21458516307E+04 0.  0.
        5    1    3    3  502    0  0.44201544513E+01 -0.23397784494E+02  0.97465880120E+03  0.97496095452E+03  0.46999998093E+01 0.  1.
       -5    1    3    3    0  502 -0.44201544513E+01  0.23397784494E+02 -0.11804903415E+04  0.11807398234E+04  0.46999998093E+01 0. -1.
</event>
<event>
 5   0  0.1390735E-05  0.2099333E+04  0.7818609E-02  0.8561537E-01
        2   -1    0    0  501    0  0.00000000000E+00  0.00000000000E+00  0.16039061853E+04  0.16039061853E+04  0.25500000920E-02 0.  1.
       -2   -1    0    0    0  501  0.00000000000E+00  0.00000000000E+00 -0.68694774205E+03  0.68694774205E+03  0.25500000920E-02 0. -1.
    10030    2    1    2    0    0  0.00000000000E+00  0.00000000000E+00  0.91695844326E+03  0.22908539274E+04  0.20993329726E+04 0.  0.
        5    1    3    3  502    0 -0.35944895085E+03  0.78394598259E+03 -0.19443973355E+03  0.88408356611E+03  0.46999998093E+01 0. -1.
       -5    1    3    3    0  502  0.35944895085E+03 -0.78394598259E+03  0.11113981768E+04  0.14067703613E+04  0.46999998093E+01 0.  1.
</event>
<event>
 5   0  0.1398469E-05  0.2100661E+04  0.7818609E-02  0.8560952E-01
        2   -1    0    0  501    0  0.00000000000E+00  0.00000000000E+00  0.12455134299E+04  0.12455134299E+04  0.25500000920E-02 0.  1.
       -2   -1    0    0    0  501  0.00000000000E+00  0.00000000000E+00 -0.88573486443E+03  0.88573486444E+03  0.25500000920E-02 0. -1.
    10030    2    1    2    0    0  0.00000000000E+00  0.00000000000E+00  0.35977856549E+03  0.21312482944E+04  0.21006614853E+04 0.  0.
        2    1    3    3  502    0 -0.53808131272E+03  0.44562458270E+03  0.97558029020E+03  0.11999456948E+04  0.25500000920E-02 0.  1.
       -2    1    3    3    0  502  0.53808131272E+03 -0.44562458270E+03 -0.61580172471E+03  0.93130259957E+03  0.25500000920E-02 0. -1.
</event>
<event>
 5   0  0.1441136E-05  0.2094815E+04  0.7818609E-02  0.8563531E-01
       -2   -1    0    0    0  501  0.00000000000E+00  0.00000000000E+00  0.97618450525E+03  0.97618450525E+03  0.25500000920E-02 0. -1.
        2   -1    0    0  501    0  0.00000000000E+00  0.00000000000E+00 -0.11238270548E+04  0.11238270548E+04  0.25500000920E-02 0.  1.
    10030    2    1    2    0    0  0.00000000000E+00  0.00000000000E+00 -0.14764254954E+03  0.21000115600E+04  0.20948150825E+04 0.  0.
        4    1    3    3  502    0  0.49401763927E+03 -0.77330702919E+03  0.43241036033E+03  0.10144148668E+04  0.12699999809E+01 0. -1.
       -4    1    3    3    0  502 -0.49401763927E+03  0.77330702919E+03 -0.58005290987E+03  0.10855966933E+04  0.12699999809E+01 0.  1.
</event>
<event>
 5   0  0.6283269E-06  0.2104216E+04  0.7818609E-02  0.8559388E-01
        1   -1    0    0  501    0  0.00000000000E+00  0.00000000000E+00  0.14080035163E+04  0.14080035163E+04  0.50400001928E-02 0. -1.
       -1   -1    0    0    0  501  0.00000000000E+00  0.00000000000E+00 -0.78617075680E+03  0.78617075682E+03  0.50400001928E-02 0.  1.
    10030    2    1    2    0    0  0.00000000000E+00  0.00000000000E+00  0.62183275950E+03  0.21941742731E+04  0.21042159490E+04 0.  0.
        1    1    3    3  502    0  0.13575719536E+03  0.76333939366E+03 -0.43069484622E+03  0.88691324073E+03  0.50400001928E-02 0.  1.
       -1    1    3    3    0  502 -0.13575719536E+03 -0.76333939366E+03  0.10525276057E+04  0.13072610324E+04  0.50400001928E-02 0. -1.
</event>
<event>
 5   0  0.6283269E-06  0.2099178E+04  0.7818609E-02  0.8561606E-01
        1   -1    0    0  501    0  0.00000000000E+00  0.00000000000E+00  0.19882669524E+04  0.19882669524E+04  0.50400001928E-02 0.  1.
       -1   -1    0    0    0  501  0.00000000000E+00  0.00000000000E+00 -0.55406878521E+03  0.55406878523E+03  0.50400001928E-02 0. -1.
    10030    2    1    2    0    0  0.00000000000E+00  0.00000000000E+00  0.14341981672E+04  0.25423357377E+04  0.20991776057E+04 0.  0.
        1    1    3    3  502    0  0.33557906557E+03 -0.36952028038E+03  0.18353141392E+04  0.19019822651E+04  0.50400001928E-02 0.  1.
       -1    1    3    3    0  502 -0.33557906557E+03  0.36952028038E+03 -0.40111597201E+03  0.64035347262E+03  0.50400001928E-02 0. -1.
</event>
<event>
 5   0  0.6589193E-06  0.2099562E+04  0.7818609E-02  0.8561436E-01
       -1   -1    0    0    0  501  0.00000000000E+00  0.00000000000E+00  0.71352984212E+03  0.71352984214E+03  0.50400001928E-02 0.  1.
        1   -1    0    0  501    0  0.00000000000E+00  0.00000000000E+00 -0.15444907659E+04  0.15444907659E+04  0.50400001928E-02 0. -1.
    10030    2    1    2    0    0  0.00000000000E+00  0.00000000000E+00 -0.83096092373E+03  0.22580206080E+04  0.20995620994E+04 0.  0.
        3    1    3    3  502    0  0.53792178354E+03 -0.29483298044E+03 -0.13316880179E+04  0.14661784744E+04  0.10100000352E+00 0. -1.
       -3    1    3    3    0  502 -0.53792178354E+03  0.29483298044E+03  0.50072709415E+03  0.79184213362E+03  0.10100000352E+00 0.  1.
</event>
<event>
 5   0  0.1395356E-05  0.2102429E+04  0.7818609E-02  0.8560174E-01
       -2   -1    0    0    0  501  0.00000000000E+00  0.00000000000E+00  0.14400662524E+04  0.14400662524E+04  0.25500000920E-02 0.  1.
        2   -1    0    0  501    0  0.00000000000E+00  0.00000000000E+00 -0.76736151476E+03  0.76736151476E+03  0.25500000920E-02 0. -1.
    10030    2    1    2    0    0  0.00000000000E+00  0.00000000000E+00  0.67270473767E+03  0.22074277672E+04  0.21024285204E+04 0.  0.
        1    1    3    3  502    0  0.73722517813E+02 -0.46370305441E+03 -0.65114903151E+03  0.80277680183E+03  0.50400001928E-02 0. -1.
       -1    1    3    3    0  502 -0.73722517813E+02  0.46370305441E+03  0.13238537692E+04  0.14046509654E+04  0.50400001928E-02 0.  1.
</event>
<event>
 5   0  0.5009125E-06  0.2099041E+04  0.7818609E-02  0.8561666E-01
       -3   -1    0    0    0  501  0.00000000000E+00  0.00000000000E+00  0.82916881090E+03  0.82916881705E+03  0.10100000352E+00 0.  1.
        3   -1    0    0  501    0  0.00000000000E+00  0.00000000000E+00 -0.13284306566E+04  0.13284306604E+04  0.10100000352E+00 0. -1.
    10030    2    1    2    0    0  0.00000000000E+00  0.00000000000E+00 -0.49926184567E+03  0.21575994775E+04  0.20990409988E+04 0.  0.
        1    1    3    3  502    0  0.10736492962E+03  0.96811818345E+02  0.81888521768E+03  0.83154840872E+03  0.50400001928E-02 0.  1.
       -1    1    3    3    0  502 -0.10736492962E+03 -0.96811818345E+02 -0.13181470633E+04  0.13260510687E+04  0.50400001928E-02 0. -1.
</event>
<event>
 5   0  0.1441136E-05  0.2101350E+04  0.7818609E-02  0.8560649E-01
        2   -1    0    0  501    0  0.00000000000E+00  0.00000000000E+00  0.78160458083E+03  0.78160458083E+03  0.25500000920E-02 0. -1.
       -2   -1    0    0    0  501  0.00000000000E+00  0.00000000000E+00 -0.14123744119E+04  0.14123744119E+04  0.25500000920E-02 0.  1.
    10030    2    1    2    0    0  0.00000000000E+00  0.00000000000E+00 -0.63076983104E+03  0.21939789927E+04  0.21013503374E+04 0.  0.
        4    1    3    3  502    0 -0.81270089636E+01  0.14639456567E+03 -0.14016398454E+04  0.14092882198E+04  0.12699999809E+01 0.  1.
       -4    1    3    3    0  502  0.81270089636E+01 -0.14639456567E+03  0.77087001440E+03  0.78469077294E+03  0.12699999809E+01 0. -1.
</event>
<event>
 5   0  0.6238363E-06  0.2100921E+04  0.7818609E-02  0.8560838E-01
        1   -1    0    0  501    0  0.00000000000E+00  0.00000000000E+00  0.18232122323E+04  0.18232122323E+04  0.50400001928E-02 0. -1.
       -1   -1    0    0    0  501  0.00000000000E+00  0.00000000000E+00 -0.60523249735E+03  0.60523249737E+03  0.50400001928E-02 0.  1.
    10030    2    1    2    0    0  0.00000000000E+00  0.00000000000E+00  0.12179797349E+04  0.24284447296E+04  0.21009210290E+04 0.  0.
        4    1    3    3  502    0  0.12470642632E+03 -0.41511997749E+03  0.17150248704E+04  0.17689511603E+04  0.12699999809E+01 0. -1.
       -4    1    3    3    0  502 -0.12470642632E+03  0.41511997749E+03 -0.49704513545E+03  0.65949356938E+03  0.12699999809E+01 0.  1.
</event>
<event>
 5   0  0.6917078E-06  0.2100536E+04  0.7818609E-02  0.8561007E-01
        1   -1    0    0  501    0  0.00000000000E+00  0.00000000000E+00  0.14386450017E+04  0.14386450017E+04  0.50400001928E-02 0. -1.
       -1   -1    0    0    0  501  0.00000000000E+00  0.00000000000E+00 -0.76673724027E+03  0.76673724029E+03  0.50400001928E-02 0.  1.
    10030    2    1    2    0    0  0.00000000000E+00  0.00000000000E+00  0.67190776141E+03  0.22053822420E+04  0.21005358348E+04 0.  0.
        5    1    3    3  502    0  0.21057177156E+03  0.10083932126E+04  0.55072039397E+03  0.11681234458E+04  0.46999998093E+01 0. -1.
       -5    1    3    3    0  502 -0.21057177156E+03 -0.10083932126E+04  0.12118736744E+03  0.10372587962E+04  0.46999998093E+01 0.  1.
</event>
<event>
 5   0  0.1395356E-05  0.2099796E+04  0.7818609E-02  0.8561333E-01
        2   -1    0    0  501    0  0.00000000000E+00  0.00000000000E+00  0.13939541850E+04  0.13939541850E+04  0.25500000920E-02 0. -1.
       -2   -1    0    0    0  501  0.00000000000E+00  0.00000000000E+00 -0.79076151282E+03  0.79076151283E+03  0.25500000920E-02 0.  1.
    10030    2    1    2    0    0  0.00000000000E+00  0.00000000000E+00  0.60319267213E+03  0.21847156978E+04  0.20997955330E+04 0.  0.
        1    1    3    3  502    0  0.79410139313E+03 -0.68539448826E+03  0.25597448624E+03  0.10797618093E+04  0.50400001928E-02 0. -1.
       -1    1    3    3    0  502 -0.79410139313E+03  0.68539448826E+03  0.34721818589E+03  0.11049538885E+04  0.50400001928E-02 0.  1.
</event>
<event>
 5   0  0.6589193E-06  0.2099744E+04  0.7818609E-02  0.8561356E-01
       -1   -1    0    0    0  501  0.00000000000E+00  0.00000000000E+00  0.12037101348E+04  0.12037101348E+04  0.50400001928E-02 0.  1.
        1   -1    0    0  501    0  0.00000000000E+00  0.00000000000E+00 -0.91569511524E+03  0.91569511525E+03  0.50400001928E-02 0. -1.
    10030    2    1    2    0    0  0.00000000000E+00  0.00000000000E+00  0.28801501951E+03  0.21194052500E+04  0.20997442612E+04 0.  0.
        3    1    3    3  502    0 -0.15806059454E+03 -0.10339729639E+04  0.23512032700E+03  0.10720843344E+04  0.10100000352E+00 0. -1.
       -3    1    3    3    0  502  0.15806059454E+03  0.10339729639E+04  0.52894692513E+02  0.10473209156E+04  0.10100000352E+00 0.  1.
</event>
<event>
 5   0  0.1398469E-05  0.2099243E+04  0.7818609E-02  0.8561577E-01
       -2   -1    0    0    0  501  0.00000000000E+00  0.00000000000E+00  0.10191341744E+04  0.10191341744E+04  0.25500000920E-02 0.  1.
        2   -1    0    0  501    0  0.00000000000E+00  0.00000000000E+00 -0.10810205262E+04  0.10810205262E+04  0.25500000920E-02 0. -1.
    10030    2    1    2    0    0  0.00000000000E+00  0.00000000000E+00 -0.61886351781E+02  0.21001547006E+04  0.20992426839E+04 0.  0.
        2    1    3    3  502    0 -0.13419465751E+03 -0.94724663895E+03  0.40100887756E+03  0.10373487943E+04  0.25500000920E-02 0.  1.
       -2    1    3    3    0  502  0.13419465751E+03  0.94724663895E+03 -0.46289522934E+03  0.10628059063E+04  0.25500000920E-02 0. -1.
</event>
<event>
 5   0  0.1398469E-05  0.2108967E+04  0.7818609E-02  0.8557303E-01
       -2   -1    0    0    0  501  0.00000000000E+00  0.00000000000E+00  0.56415286494E+03  0.56415286495E+03  0.25500000920E-02 0.  1.
        2   -1    0    0  501    0  0.00000000000E+00  0.00000000000E+00 -0.19709833620E+04  0.19709833620E+04  0.25500000920E-02 0. -1.
    10030    2    1    2    0    0  0.00000000000E+00  0.00000000000E+00 -0.14068304970E+04  0.25351362269E+04  0.21089674349E+04 0.  0.
        2    1    3    3  502    0 -0.64581580936E+02 -0.25901236722E+03  0.52286450164E+03  0.58706513612E+03  0.25500000920E-02 0.  1.
       -2    1    3    3    0  502  0.64581580936E+02  0.25901236722E+03 -0.19296949986E+04  0.19480710908E+04  0.25500000920E-02 0. -1.
</event>
<event>
 5   0  0.1441136E-05  0.2092514E+04  0.7818609E-02  0.8564548E-01
        2   -1    0    0  501    0  0.00000000000E+00  0.00000000000E+00  0.19137376310E+04  0.19137376310E+04  0.25500000920E-02 0.  1.
       -2   -1    0    0    0  501  0.00000000000E+00  0.00000000000E+00 -0.57199774387E+03  0.57199774388E+03  0.25500000920E-02 0. -1.
    10030    2    1    2    0    0  0.00000000000E+00  0.00000000000E+00  0.13417398871E+04  0.24857353748E+04  0.20925139018E+04 0.  0.
        4    1    3    3  502    0 -0.68848682947E+03  0.71850285000E+03  0.28705738423E+03  0.10356949428E+04  0.12699999809E+01 0. -1.
       -4    1    3    3    0  502  0.68848682947E+03 -0.71850285000E+03  0.10546825029E+04  0.14500404320E+04  0.12699999809E+01 0.  1.
</event>
<event>
 5   0  0.1344501E-05  0.2097917E+04  0.7818609E-02  0.8562162E-01
       -2   -1    0    0    0  501  0.00000000000E+00  0.00000000000E+00  0.93542594059E+03  0.93542594059E+03  0.25500000920E-02 0.  1.
        2   -1    0    0  501    0  0.00000000000E+00  0.00000000000E+00 -0.11762699401E+04  0.11762699401E+04  0.25500000920E-02 0. -1.
    10030    2    1    2    0    0  0.00000000000E+00  0.00000000000E+00 -0.24084399947E+03  0.21116958807E+04  0.20979165046E+04 0.  0.
        3    1    3    3  502    0  0.98938513641E+03 -0.21698194578E+03  0.15403960075E+03  0.10245449340E+04  0.10100000352E+00 0.  1.
       -3    1    3    3    0  502 -0.98938513641E+03  0.21698194578E+03 -0.39488360022E+03  0.10871509467E+04  0.10100000352E+00 0. -1.
</event>
<event>
 5   0  0.1395356E-05  0.2102968E+04  0.7818609E-02  0.8559937E-01
        2   -1    0    0  501    0  0.00000000000E+00  0.00000000000E+00  0.13073064114E+04  0.13073064114E+04  0.25500000920E-02 0.  1.
       -2   -1    0    0    0  501  0.00000000000E+00  0.00000000000E+00 -0.84572230091E+03  0.84572230091E+03  0.25500000920E-02 0. -1.
    10030    2    1    2    0    0  0.00000000000E+00  0.00000000000E+00  0.46158411048E+03  0.21530287123E+04  0.21029676044E+04 0.  0.
        1    1    3    3  502    0  0.47325774454E+03  0.61428621943E+03 -0.49625203284E+03  0.92064462866E+03  0.50400001928E-02 0. -1.
       -1    1    3    3    0  502 -0.47325774454E+03 -0.61428621943E+03  0.95783614332E+03  0.12323840836E+04  0.50400001928E-02 0.  1.
</event>
<event>
 5   0  0.1390735E-05  0.2096177E+04  0.7818609E-02  0.8562929E-01
       -2   -1    0    0    0  501  0.00000000000E+00  0.00000000000E+00  0.13465156088E+04  0.13465156088E+04  0.25500000920E-02 0.  1.
        2   -1    0    0  501    0  0.00000000000E+00  0.00000000000E+00 -0.81580126376E+03  0.81580126376E+03  0.25500000920E-02 0. -1.
    10030    2    1    2    0    0  0.00000000000E+00  0.00000000000E+00  0.53071434506E+03  0.21623168726E+04  0.20961766484E+04 0.  0.
        5    1    3    3  502    0  0.45954984821E+03  0.27898252301E+03 -0.66272493700E+03  0.85337198410E+03  0.46999998093E+01 0. -1.
       -5    1    3    3    0  502 -0.45954984821E+03 -0.27898252301E+03  0.11934392821E+04  0.13089448885E+04  0.46999998093E+01 0.  1.
</event>
<event>
 5   0  0.6238363E-06  0.2099725E+04  0.7818609E-02  0.8561365E-01
        1   -1    0    0  501    0  0.00000000000E+00  0.00000000000E+00  0.12849098634E+04  0.12849098634E+04  0.50400001928E-02 0.  1.
       -1   -1    0    0    0  501  0.00000000000E+00  0.00000000000E+00 -0.85781178898E+03  0.85781178900E+03  0.50400001928E-02 0. -1.
    10030    2    1    2    0    0  0.00000000000E+00  0.00000000000E+00  0.42709807443E+03  0.21427216524E+04  0.20997245806E+04 0.  0.
        4    1    3    3  502    0 -0.73608176826E+02  0.61737388973E+03 -0.64972939515E+03  0.89928782002E+03  0.12699999809E+01 0. -1.
       -4    1    3    3    0  502  0.73608176826E+02 -0.61737388973E+03  0.10768274696E+04  0.12434338324E+04  0.12699999809E+01 0.  1.
</event>
<event>
 5   0  0.6917078E-06  0.2108085E+04  0.7818609E-02  0.8557690E-01
       -1   -1    0    0    0  501  0.00000000000E+00  0.00000000000E+00  0.13100434407E+04  0.13100434407E+04  0.50400001928E-02 0.  1.
        1   -1    0    0  501    0  0.00000000000E+00  0.00000000000E+00 -0.84806778084E+03  0.84806778085E+03  0.50400001928E-02 0. -1.
    10030    2    1    2    0    0  0.00000000000E+00  0.00000000000E+00  0.46197565985E+03  0.21581112215E+04  0.21080850396E+04 0.  0.
        5    1    3    3  502    0  0.43570550282E+03 -0.82756304670E+03  0.72861323415E+03  0.11855796964E+04  0.46999998093E+01 0.  1.
       -5    1    3    3    0  502 -0.43570550282E+03  0.82756304670E+03 -0.26663757430E+03  0.97253152519E+03  0.46999998093E+01 0. -1.
</event>
<event>
 5   0  0.1441136E-05  0.2101521E+04  0.7818609E-02  0.8560574E-01
        2   -1    0    0  501    0  0.00000000000E+00  0.00000000000E+00  0.72937931714E+03  0.72937931715E+03  0.25500000920E-02 0. -1.
       -2   -1    0    0    0  501  0.00000000000E+00  0.00000000000E+00 -0.15137489572E+04  0.15137489572E+04  0.25500000920E-02 0.  1.
    10030    2    1    2    0    0  0.00000000000E+00  0.00000000000E+00 -0.78436964001E+03  0.22431282743E+04  0.21015205740E+04 0.  0.
        4    1    3    3  502    0  0.68595300851E+03 -0.27467330459E+03  0.40522892422E+03  0.84272714924E+03  0.12699999809E+01 0. -1.
       -4    1    3    3    0  502 -0.68595300851E+03  0.27467330459E+03 -0.11895985642E+04  0.14004011251E+04  0.12699999809E+01 0.  1.
</event>
<event>
 5   0  0.1398469E-05  0.2099113E+04  0.7818609E-02  0.8561634E-01
       -2   -1    0    0    0  501  0.00000000000E+00  0.00000000000E+00  0.68339755890E+03  0.68339755890E+03  0.25500000920E-02 0. -1.
        2   -1    0    0  501    0  0.00000000000E+00  0.00000000000E+00 -0.16119006690E+04  0.16119006690E+04  0.25500000920E-02 0.  1.
    10030    2    1    2    0    0  0.00000000000E+00  0.00000000000E+00 -0.92850311011E+03  0.22952982279E+04  0.20991131293E+04 0.  0.
        2    1    3    3  502    0  0.84340844504E+03  0.49010869137E+03 -0.40721158935E+02  0.97632092434E+03  0.25500000920E-02 0. -1.
       -2    1    3    3    0  502 -0.84340844504E+03 -0.49010869137E+03 -0.88778195118E+03  0.13189773036E+04  0.25500000920E-02 0.  1.
</event>
<event>
 5   0  0.6917078E-06  0.2101265E+04  0.7818609E-02  0.8560686E-01
       -1   -1    0    0    0  501  0.00000000000E+00  0.00000000000E+00  0.81469628271E+03  0.81469628273E+03  0.50400001928E-02 0. -1.
        1   -1    0    0  501    0  0.00000000000E+00  0.00000000000E+00 -0.13548960595E+04  0.13548960595E+04  0.50400001928E-02 0.  1.
    10030    2    1    2    0    0  0.00000000000E+00  0.00000000000E+00 -0.54019977674E+03  0.21695923422E+04  0.21012651267E+04 0.  0.
        5    1    3    3  502    0 -0.41409609889E+02  0.41009547194E+03  0.72771653057E+03  0.83635308976E+03  0.46999998093E+01 0. -1.
       -5    1    3    3    0  502  0.41409609889E+02 -0.41009547194E+03 -0.12679163073E+04  0.13332392524E+04  0.46999998093E+01 0.  1.
</event>
<event>
 5   0  0.6599245E-06  0.2097604E+04  0.7818609E-02  0.8562300E-01
        1   -1    0    0  501    0  0.00000000000E+00  0.00000000000E+00  0.17737387123E+04  0.17737387123E+04  0.50400001928E-02 0.  1.
       -1   -1    0    0    0  501  0.00000000000E+00  0.00000000000E+00 -0.62015077999E+03  0.62015078001E+03  0.50400001928E-02 0. -1.
    10030    2    1    2    0    0  0.00000000000E+00  0.00000000000E+00  0.11535879323E+04  0.23938894923E+04  0.20976038196E+04 0.  0.
        2    1    3    3  502    0 -0.75418732457E+03  0.64984921201E+03  0.95337680673E+03  0.13784157045E+04  0.25500000920E-02 0. -1.
       -2    1    3    3    0  502  0.75418732457E+03 -0.64984921201E+03  0.20021112560E+03  0.10154737878E+04  0.25500000920E-02 0.  1.
</event>
<event>
 5   0  0.1390735E-05  0.2092322E+04  0.7818609E-02  0.8564633E-01
       -2   -1    0    0    0  501  0.00000000000E+00  0.00000000000E+00  0.65503833943E+03  0.65503833943E+03  0.25500000920E-02 0. -1.
        2   -1    0    0  501    0  0.00000000000E+00  0.00000000000E+00 -0.16708225366E+04  0.16708225366E+04  0.25500000920E-02 0.  1.
    10030    2    1    2    0    0  0.00000000000E+00  0.00000000000E+00 -0.10157841972E+04  0.23258608760E+04  0.20923219827E+04 0.  0.
        5    1    3    3  502    0 -0.25558261331E+03  0.40474351841E+02 -0.16346738592E+04  0.16550351541E+04  0.46999998093E+01 0.  1.
       -5    1    3    3    0  502  0.25558261331E+03 -0.40474351841E+02  0.61888966205E+03  0.67082572191E+03  0.46999998093E+01 0. -1.
</event>
<event>
 5   0  0.6599245E-06  0.2093705E+04  0.7818609E-02  0.8564021E-01
       -1   -1    0    0    0  501  0.00000000000E+00  0.00000000000E+00  0.72471170175E+03  0.72471170176E+03  0.50400001928E-02 0. -1.
        1   -1    0    0  501    0  0.00000000000E+00  0.00000000000E+00 -0.15121881167E+04  0.15121881167E+04  0.50400001928E-02 0.  1.
    10030    2    1    2    0    0  0.00000000000E+00  0.00000000000E+00 -0.78747641494E+03  0.22368998185E+04  0.20937052547E+04 0.  0.
        2    1    3    3  502    0  0.63499483316E+03 -0.40703960734E+03  0.38185965792E+03  0.84540905982E+03  0.25500000920E-02 0. -1.
       -2    1    3    3    0  502 -0.63499483316E+03  0.40703960734E+03 -0.11693360729E+04  0.13914907586E+04  0.25500000920E-02 0.  1.
</event>
<event>
 5   0  0.6589193E-06  0.2114039E+04  0.7818609E-02  0.8555084E-01
       -1   -1    0    0    0  501  0.00000000000E+00  0.00000000000E+00  0.13783646147E+04  0.13783646147E+04  0.50400001928E-02 0.  1.
        1   -1    0    0  501    0  0.00000000000E+00  0.00000000000E+00 -0.81059102683E+03  0.81059102685E+03  0.50400001928E-02 0. -1.
    10030    2    1    2    0    0  0.00000000000E+00  0.00000000000E+00  0.56777358788E+03  0.21889556416E+04  0.21140387777E+04 0.  0.
        3    1    3    3  502    0  0.97707779485E+03 -0.27234294450E+03  0.59181123322E+03  0.11743475817E+04  0.10100000352E+00 0.  1.
       -3    1    3    3    0  502 -0.97707779485E+03  0.27234294450E+03 -0.24037645339E+02  0.10146080599E+04  0.10100000352E+00 0. -1.
</event>
<event>
 5   0  0.6283269E-06  0.2098949E+04  0.7818609E-02  0.8561707E-01
        1   -1    0    0  501    0  0.00000000000E+00  0.00000000000E+00  0.11210943313E+04  0.11210943313E+04  0.50400001928E-02 0. -1.
       -1   -1    0    0    0  501  0.00000000000E+00  0.00000000000E+00 -0.98242967441E+03  0.98242967442E+03  0.50400001928E-02 0.  1.
    10030    2    1    2    0    0  0.00000000000E+00  0.00000000000E+00  0.13866465689E+03  0.21035240057E+04  0.20989486310E+04 0.  0.
        1    1    3    3  502    0  0.39311764730E+03 -0.19252943218E+02 -0.90566256708E+03  0.98749017507E+03  0.50400001928E-02 0.  1.
       -1    1    3    3    0  502 -0.39311764730E+03  0.19252943218E+02  0.10443272240E+04  0.11160338307E+04  0.50400001928E-02 0. -1.
</event>
<event>
 5   0  0.1395356E-05  0.2099622E+04  0.7818609E-02  0.8561410E-01
       -2   -1    0    0    0  501  0.00000000000E+00  0.00000000000E+00  0.63076493542E+03  0.63076493543E+03  0.25500000920E-02 0. -1.
        2   -1    0    0  501    0  0.00000000000E+00  0.00000000000E+00 -0.17472484918E+04  0.17472484918E+04  0.25500000920E-02 0.  1.
    10030    2    1    2    0    0  0.00000000000E+00  0.00000000000E+00 -0.11164835564E+04  0.23780134272E+04  0.20996219489E+04 0.  0.
        1    1    3    3  502    0 -0.76842127273E+03 -0.72114778861E+02  0.24775529189E+03  0.81058897007E+03  0.50400001928E-02 0. -1.
       -1    1    3    3    0  502  0.76842127273E+03  0.72114778861E+02 -0.13642388483E+04  0.15674244571E+04  0.50400001928E-02 0.  1.
</event>
<event>
 5   0  0.5009125E-06  0.2101315E+04  0.7818609E-02  0.8560664E-01
       -3   -1    0    0    0  501  0.00000000000E+00  0.00000000000E+00  0.10736669076E+04  0.10736669123E+04  0.10100000352E+00 0. -1.
        3   -1    0    0  501    0  0.00000000000E+00  0.00000000000E+00 -0.10281410972E+04  0.10281411022E+04  0.10100000352E+00 0.  1.
    10030    2    1    2    0    0  0.00000000000E+00  0.00000000000E+00  0.45525810385E+02  0.21018080145E+04  0.21013149051E+04 0.  0.
        3    1    3    3  502    0 -0.68406264915E+02  0.41960620771E+03  0.98378610684E+03  0.10717200665E+04  0.10100000352E+00 0. -1.
       -3    1    3    3    0  502  0.68406264915E+02 -0.41960620771E+03 -0.93826029646E+03  0.10300879481E+04  0.10100000352E+00 0.  1.
</event>
<event>
 5   0  0.1344501E-05  0.2096200E+04  0.7818609E-02  0.8562919E-01
        2   -1    0    0  501    0  0.00000000000E+00  0.00000000000E+00  0.15211417750E+04  0.15211417750E+04  0.25500000920E-02 0.  1.
       -2   -1    0    0    0  501  0.00000000000E+00  0.00000000000E+00 -0.72216374627E+03  0.72216374627E+03  0.25500000920E-02 0. -1.
    10030    2    1    2    0    0  0.00000000000E+00  0.00000000000E+00  0.79897802875E+03  0.22433055213E+04  0.20961998405E+04 0.  0.
        3    1    3    3  502    0  0.75145361276E+03  0.68479138935E+03  0.67210427425E+03  0.12187476953E+04  0.10100000352E+00 0.  1.
       -3    1    3    3    0  502 -0.75145361276E+03 -0.68479138935E+03  0.12687375450E+03  0.10245578260E+04  0.10100000352E+00 0. -1.
</event>
<event>
 5   0  0.1390735E-05  0.2101944E+04  0.7818609E-02  0.8560387E-01
       -2   -1    0    0    0  501  0.00000000000E+00  0.00000000000E+00  0.33784871409E+03  0.33784871410E+03  0.25500000920E-02 0. -1.
        2   -1    0    0  501    0  0.00000000000E+00  0.00000000000E+00 -0.32693406374E+04  0.32693406374E+04  0.25500000920E-02 0.  1.
    10030    2    1    2    0    0  0.00000000000E+00  0.00000000000E+00 -0.29314919233E+04  0.36071893515E+04  0.21019443668E+04 0.  0.
        5    1    3    3  502    0  0.13144157145E+03  0.82403774637E+03 -0.36930041689E+03  0.91253492101E+03  0.46999998093E+01 0. -1.
       -5    1    3    3    0  502 -0.13144157145E+03 -0.82403774637E+03 -0.25621915064E+04  0.26946544305E+04  0.46999998093E+01 0.  1.
</event>
<event>
 5   0  0.1441136E-05  0.2099280E+04  0.7818609E-02  0.8561561E-01
       -2   -1    0    0    0  501  0.00000000000E+00  0.00000000000E+00  0.10063226733E+04  0.10063226733E+04  0.25500000920E-02 0.  1.
        2   -1    0    0  501    0  0.00000000000E+00  0.00000000000E+00 -0.10948220063E+04  0.10948220063E+04  0.25500000920E-02 0. -1.
    10030    2    1    2    0    0  0.00000000000E+00  0.00000000000E+00 -0.88499332942E+02  0.21011446796E+04  0.20992800749E+04 0.  0.
        4    1    3    3  502    0  0.57640433807E+03 -0.15673794962E+03  0.81961244916E+03  0.10141868297E+04  0.12699999809E+01 0.  1.
       -4    1    3    3    0  502 -0.57640433807E+03  0.15673794962E+03 -0.90811178211E+03  0.10869578499E+04  0.12699999809E+01 0. -1.
</event>
<event>
 5   0  0.1395356E-05  0.2122310E+04  0.7818609E-02  0.8551479E-01
       -2   -1    0    0    0  501  0.00000000000E+00  0.00000000000E+00  0.83130305992E+03  0.83130305992E+03  0.25500000920E-02 0.  1.
        2   -1    0    0  501    0  0.00000000000E+00  0.00000000000E+00 -0.13545598019E+04  0.13545598019E+04  0.25500000920E-02 0. -1.
    10030    2    1    2    0    0  0.00000000000E+00  0.00000000000E+00 -0.52325674200E+03  0.21858628618E+04  0.21223097872E+04 0.  0.
        1    1    3    3  502    0 -0.84572753828E+03  0.33307578373E+03  0.30235967494E+03  0.95792271075E+03  0.50400001928E-02 0.  1.
       -1    1    3    3    0  502  0.84572753828E+03 -0.33307578373E+03 -0.82561641694E+03  0.12279401511E+04  0.50400001928E-02 0. -1.
</event>
<event>
 5   0  0.6599245E-06  0.2099323E+04  0.7818609E-02  0.8561542E-01
       -1   -1    0    0    0  501  0.00000000000E+00  0.00000000000E+00  0.90043818023E+03  0.90043818024E+03  0.50400001928E-02 0. -1.
        1   -1    0    0  501    0  0.00000000000E+00  0.00000000000E+00 -0.12236147938E+04  0.12236147938E+04  0.50400001928E-02 0.  1.
    10030    2    1    2    0    0  0.00000000000E+00  0.00000000000E+00 -0.32317661359E+03  0.21240529741E+04  0.20993232036E+04 0.  0.
        2    1    3    3  502    0  0.19514632011E+03 -0.92155481217E+03  0.30694784830E+03  0.99073828011E+03  0.25500000920E-02 0.  1.
       -2    1    3    3    0  502 -0.19514632011E+03  0.92155481217E+03 -0.63012446190E+03  0.11333146940E+04  0.25500000920E-02 0. -1.
</event>
<event>
 5   0  0.6589193E-06  0.2078524E+04  0.7818609E-02  0.8570763E-01
       -1   -1    0    0    0  501  0.00000000000E+00  0.00000000000E+00  0.13447713203E+04  0.13447713203E+04  0.50400001928E-02 0. -1.
        1   -1    0    0  501    0  0.00000000000E+00  0.00000000000E+00 -0.80315911233E+03  0.80315911235E+03  0.50400001928E-02 0.  1.
    10030    2    1    2    0    0  0.00000000000E+00  0.00000000000E+00  0.54161220800E+03  0.21479304327E+04  0.20785238415E+04 0.  0.
        3    1    3    3  502    0 -0.80604463924E+03  0.51554241538E+03 -0.14841680269E+03  0.96825590627E+03  0.10100000352E+00 0.  1.
       -3    1    3    3    0  502  0.80604463924E+03 -0.51554241538E+03  0.69002901069E+03  0.11796745264E+04  0.10100000352E+00 0. -1.
</event>
<event>
 5   0  0.1344501E-05  0.2081993E+04  0.7818609E-02  0.8569217E-01
        2   -1    0    0  501    0  0.00000000000E+00  0.00000000000E+00  0.20937911295E+04  0.20937911295E+04  0.25500000920E-02 0.  1.
       -2   -1    0    0    0  501  0.00000000000E+00  0.00000000000E+00 -0.51756551778E+03  0.51756551779E+03  0.25500000920E-02 0. -1.
    10030    2    1    2    0    0  0.00000000000E+00  0.00000000000E+00  0.15762256117E+04  0.26113566473E+04  0.20819933622E+04 0.  0.
        3    1    3    3  502    0  0.48847608430E+02  0.85500391512E+03  0.15304134283E+04  0.17537340321E+04  0.10100000352E+00 0. -1.
       -3    1    3    3    0  502 -0.48847608430E+02 -0.85500391512E+03  0.45812183440E+02  0.85762261518E+03  0.10100000352E+00 0.  1.
</event>
<event>
 5   0  0.1344501E-05  0.2100881E+04  0.7818609E-02  0.8560855E-01
       -2   -1    0    0    0  501  0.00000000000E+00  0.00000000000E+00  0.60114913049E+03  0.60114913050E+03  0.25500000920E-02 0.  1.
        2   -1    0    0  501    0  0.00000000000E+00  0.00000000000E+00 -0.18355262529E+04  0.18355262529E+04  0.25500000920E-02 0. -1.
    10030    2    1    2    0    0  0.00000000000E+00  0.00000000000E+00 -0.12343771224E+04  0.24366753834E+04  0.21008807781E+04 0.  0.
        3    1    3    3  502    0 -0.44958430558E+03  0.15071872695E+03  0.46995681043E+03  0.66760886479E+03  0.10100000352E+00 0.  1.
       -3    1    3    3    0  502  0.44958430558E+03 -0.15071872695E+03 -0.17043339328E+04  0.17690665186E+04  0.10100000352E+00 0. -1.
</event>
<event>
 5   0  0.6599245E-06  0.2098242E+04  0.7818609E-02  0.8562018E-01
       -1   -1    0    0    0  501  0.00000000000E+00  0.00000000000E+00  0.88717088138E+03  0.88717088139E+03  0.50400001928E-02 0.  1.
        1   -1    0    0  501    0  0.00000000000E+00  0.00000000000E+00 -0.12406347809E+04  0.12406347809E+04  0.50400001928E-02 0. -1.
    10030    2    1    2    0    0  0.00000000000E+00  0.00000000000E+00 -0.35346389954E+03  0.21278056623E+04  0.20982421710E+04 0.  0.
        2    1    3    3  502    0 -0.10373547516E+04  0.10241174133E+03 -0.56477820620E+02  0.10439266208E+04  0.25500000920E-02 0. -1.
       -2    1    3    3    0  502  0.10373547516E+04 -0.10241174133E+03 -0.29698607892E+03  0.10838790415E+04  0.25500000920E-02 0.  1.
</event>
<event>
 5   0  0.6283269E-06  0.2099185E+04  0.7818609E-02  0.8561602E-01
       -1   -1    0    0    0  501  0.00000000000E+00  0.00000000000E+00  0.11796852640E+04  0.11796852640E+04  0.50400001928E-02 0. -1.
        1   -1    0    0  501    0  0.00000000000E+00  0.00000000000E+00 -0.93384622680E+03  0.93384622682E+03  0.50400001928E-02 0.  1.
    10030    2    1    2    0    0  0.00000000000E+00  0.00000000000E+00  0.24583903715E+03  0.21135314908E+04  0.20991852063E+04 0.  0.
        1    1    3    3  502    0 -0.46099497486E+03  0.92034093857E+03 -0.83667608560E+02  0.10327362097E+04  0.50400001928E-02 0. -1.
       -1    1    3    3    0  502  0.46099497486E+03 -0.92034093857E+03  0.32950664571E+03  0.10807952811E+04  0.50400001928E-02 0.  1.
</event>
<event>
 5   0  0.1390735E-05  0.2102779E+04  0.7818609E-02  0.8560020E-01
       -2   -1    0    0    0  501  0.00000000000E+00  0.00000000000E+00  0.52158575470E+03  0.52158575471E+03  0.25500000920E-02 0. -1.
        2   -1    0    0  501    0  0.00000000000E+00  0.00000000000E+00 -0.21193437602E+04  0.21193437602E+04  0.25500000920E-02 0.  1.
    10030    2    1    2    0    0  0.00000000000E+00  0.00000000000E+00 -0.15977580055E+04  0.26409295149E+04  0.21027786518E+04 0.  0.
        5    1    3    3  502    0 -0.72654261812E+03 -0.61566272210E+03 -0.23933341135E+03  0.98194059653E+03  0.46999998093E+01 0. -1.
       -5    1    3    3    0  502  0.72654261812E+03  0.61566272210E+03 -0.13584245942E+04  0.16589889184E+04  0.46999998093E+01 0.  1.
</event>
<event>
 5   0  0.6238363E-06  0.2098564E+04  0.7818609E-02  0.8561876E-01
       -1   -1    0    0    0  501  0.00000000000E+00  0.00000000000E+00  0.80535095405E+03  0.80535095407E+03  0.50400001928E-02 0.  1.
        1   -1    0    0  501    0  0.00000000000E+00  0.00000000000E+00 -0.13670962810E+04  0.13670962810E+04  0.50400001928E-02 0. -1.
    10030    2    1    2    0    0  0.00000000000E+00  0.00000000000E+00 -0.56174532691E+03  0.21724472350E+04  0.20985635984E+04 0.  0.
        4    1    3    3  502    0  0.77117664116E+03 -0.71030711568E+03 -0.32406784671E+03  0.10973929071E+04  0.12699999809E+01 0. -1.
       -4    1    3    3    0  502 -0.77117664116E+03  0.71030711568E+03 -0.23767748021E+03  0.10750543279E+04  0.12699999809E+01 0.  1.
</event>
<event>
 5   0  0.6283269E-06  0.2095940E+04  0.7818609E-02  0.8563034E-01
        1   -1    0    0  501    0  0.00000000000E+00  0.00000000000E+00  0.16010842894E+04  0.16010842894E+04  0.50400001928E-02 0. -1.
       -1   -1    0    0    0  501  0.00000000000E+00  0.00000000000E+00 -0.68593572436E+03  0.68593572438E+03  0.50400001928E-02 0.  1.
    10030    2    1    2    0    0  0.00000000000E+00  0.00000000000E+00  0.91514856502E+03  0.22870200138E+04  0.20959398005E+04 0.  0.
        1    1    3    3  502    0  0.63709481981E+03  0.74226210527E+03  0.86788503718E+03  0.13076954080E+04  0.50400001928E-02 0. -1.
       -1    1    3    3    0  502 -0.63709481981E+03 -0.74226210527E+03  0.47263527843E+02  0.97932460575E+03  0.50400001928E-02 0.  1.
</event>
<event>
 5   0  0.1441136E-05  0.2100116E+04  0.7818609E-02  0.8561192E-01
        2   -1    0    0  501    0  0.00000000000E+00  0.00000000000E+00  0.13530774769E+04  0.13530774769E+04  0.25500000920E-02 0. -1.
       -2   -1    0    0    0  501  0.00000000000E+00  0.00000000000E+00 -0.81489952209E+03  0.81489952209E+03  0.25500000920E-02 0.  1.
    10030    2    1    2    0    0  0.00000000000E+00  0.00000000000E+00  0.53817795485E+03  0.21679769990E+04  0.21001163676E+04 0.  0.
        4    1    3    3  502    0  0.10282417409E+04 -0.10573828177E+03  0.45988237484E+03  0.11313509948E+04  0.12699999809E+01 0. -1.
       -4    1    3    3    0  502 -0.10282417409E+04  0.10573828177E+03  0.78295580002E+02  0.10366260042E+04  0.12699999809E+01 0.  1.
</event>
<event>
 5   0  0.6283269E-06  0.2112506E+04  0.7818609E-02  0.8555754E-01
       -1   -1    0    0    0  501  0.00000000000E+00  0.00000000000E+00  0.99098277827E+03  0.99098277829E+03  0.50400001928E-02 0. -1.
        1   -1    0    0  501    0  0.00000000000E+00  0.00000000000E+00 -0.11258220969E+04  0.11258220969E+04  0.50400001928E-02 0.  1.
    10030    2    1    2    0    0  0.00000000000E+00  0.00000000000E+00 -0.13483931859E+03  0.21168048752E+04  0.21125059142E+04 0.  0.
        1    1    3    3  502    0  0.80904210655E+03  0.51109482516E+03  0.38059562525E+03  0.10298641078E+04  0.50400001928E-02 0. -1.
       -1    1    3    3    0  502 -0.80904210655E+03 -0.51109482516E+03 -0.51543494384E+03  0.10869407674E+04  0.50400001928E-02 0.  1.
</event>
<event>
 5   0  0.6283269E-06  0.2096065E+04  0.7818609E-02  0.8562979E-01
        1   -1    0    0  501    0  0.00000000000E+00  0.00000000000E+00  0.10397949023E+04  0.10397949023E+04  0.50400001928E-02 0. -1.
       -1   -1    0    0    0  501  0.00000000000E+00  0.00000000000E+00 -0.10563352453E+04  0.10563352454E+04  0.50400001928E-02 0.  1.
    10030    2    1    2    0    0  0.00000000000E+00  0.00000000000E+00 -0.16540343017E+02  0.20961301477E+04  0.20960648876E+04 0.  0.
        1    1    3    3  502    0  0.31050027986E+03  0.70587036169E+03 -0.71801658956E+03  0.10536656083E+04  0.50400001928E-02 0.  1.
       -1    1    3    3    0  502 -0.31050027986E+03 -0.70587036169E+03  0.70147624654E+03  0.10424645393E+04  0.50400001928E-02 0. -1.
</event>
<event>
 5   0  0.6283269E-06  0.2097954E+04  0.7818609E-02  0.8562145E-01
        1   -1    0    0  501    0  0.00000000000E+00  0.00000000000E+00  0.11486052384E+04  0.11486052384E+04  0.50400001928E-02 0. -1.
       -1   -1    0    0    0  501  0.00000000000E+00  0.00000000000E+00 -0.95799043510E+03  0.95799043511E+03  0.50400001928E-02 0.  1.
    10030    2    1    2    0    0  0.00000000000E+00  0.00000000000E+00  0.19061480330E+03  0.21065956735E+04  0.20979540816E+04 0.  0.
        1    1    3    3  502    0  0.18124018952E+03 -0.81913980314E+03  0.72759536629E+03  0.11105102613E+04  0.50400001928E-02 0. -1.
       -1    1    3    3    0  502 -0.18124018952E+03  0.81913980314E+03 -0.53698056298E+03  0.99608541222E+03  0.50400001928E-02 0.  1.
</event>
<event>
 5   0  0.6917078E-06  0.2105845E+04  0.7818609E-02  0.8558673E-01
        1   -1    0    0  501    0  0.00000000000E+00  0.00000000000E+00  0.16495884878E+04  0.16495884878E+04  0.50400001928E-02 0. -1.
       -1   -1    0    0    0  501  0.00000000000E+00  0.00000000000E+00 -0.67207389195E+03  0.67207389197E+03  0.50400001928E-02 0.  1.
    10030    2    1    2    0    0  0.00000000000E+00  0.00000000000E+00  0.97751459582E+03  0.23216623798E+04  0.21058445860E+04 0.  0.
        5    1    3    3  502    0  0.73921602748E+03 -0.44263182549E+03  0.11559748942E+04  0.14417570233E+04  0.46999998093E+01 0. -1.
       -5    1    3    3    0  502 -0.73921602748E+03  0.44263182549E+03 -0.17846029838E+03  0.87990535645E+03  0.46999998093E+01 0.  1.
</event>
<event>
 5   0  0.6917078E-06  0.2097160E+04  0.7818609E-02  0.8562496E-01
        1   -1    0    0  501    0  0.00000000000E+00  0.00000000000E+00  0.21281145425E+04  0.21281145425E+04  0.50400001928E-02 0. -1.
       -1   -1    0    0    0  501  0.00000000000E+00  0.00000000000E+00 -0.51666372229E+03  0.51666372232E+03  0.50400001928E-02 0.  1.
    10030    2    1    2    0    0  0.00000000000E+00  0.00000000000E+00  0.16114508202E+04  0.26447782649E+04  0.20971595848E+04 0.  0.
        5    1    3    3  502    0 -0.30700048365E+03 -0.14658601229E+02 -0.45856841693E+03  0.55206091562E+03  0.46999998093E+01 0.  1.
       -5    1    3    3    0  502  0.30700048365E+03  0.14658601229E+02  0.20700192372E+04  0.20927173492E+04  0.46999998093E+01 0. -1.
</event>
<event>
 5   0  0.6599245E-06  0.2062127E+04  0.7818609E-02  0.8578113E-01
        1   -1    0    0  501    0  0.00000000000E+00  0.00000000000E+00  0.72196055033E+03  0.72196055035E+03  0.50400001928E-02 0.  1.
       -1   -1    0    0    0  501  0.00000000000E+00  0.00000000000E+00 -0.14725065806E+04  0.14725065806E+04  0.50400001928E-02 0. -1.
    10030    2    1    2    0    0  0.00000000000E+00  0.00000000000E+00 -0.75054603031E+03  0.21944671310E+04  0.20621267287E+04 0.  0.
        2    1    3    3  502    0  0.89303582764E+03 -0.40076434406E+03 -0.72005083534E+03  0.12151535929E+04  0.25500000920E-02 0. -1.
       -2    1    3    3    0  502 -0.89303582764E+03  0.40076434406E+03 -0.30495194972E+02  0.97931353807E+03  0.25500000920E-02 0.  1.
</event>
<event>
 5   0  0.6599245E-06  0.2100448E+04  0.7818609E-02  0.8561046E-01
        1   -1    0    0  501    0  0.00000000000E+00  0.00000000000E+00  0.79618966518E+03  0.79618966520E+03  0.50400001928E-02 0. -1.
       -1   -1    0    0    0  501  0.00000000000E+00  0.00000000000E+00 -0.13853112807E+04  0.13853112807E+04  0.50400001928E-02 0.  1.
    10030    2    1    2    0    0  0.00000000000E+00  0.00000000000E+00 -0.58912161549E+03  0.21815009459E+04  0.21004480710E+04 0.  0.
        2    1    3    3  502    0 -0.95398869182E+03 -0.25826739840E+03 -0.66347764864E+03  0.11903776978E+04  0.25500000920E-02 0.  1.
       -2    1    3    3    0  502  0.95398869182E+03  0.25826739840E+03  0.74356033145E+02  0.99112324807E+03  0.25500000920E-02 0. -1.
</event>
<event>
 5   0  0.6599245E-06  0.2101626E+04  0.7818609E-02  0.8560527E-01
       -1   -1    0    0    0  501  0.00000000000E+00  0.00000000000E+00  0.70460836201E+03  0.70460836202E+03  0.50400001928E-02 0. -1.
        1   -1    0    0  501    0  0.00000000000E+00  0.00000000000E+00 -0.15671231386E+04  0.15671231386E+04  0.50400001928E-02 0.  1.
    10030    2    1    2    0    0  0.00000000000E+00  0.00000000000E+00 -0.86251477661E+03  0.22717315006E+04  0.21016261017E+04 0.  0.
        2    1    3    3  502    0 -0.15451289134E+03  0.89450872682E+03  0.14091420208E+03  0.91862773108E+03  0.25500000920E-02 0.  1.
       -2    1    3    3    0  502  0.15451289134E+03 -0.89450872682E+03 -0.10034289787E+04  0.13531037696E+04  0.25500000920E-02 0. -1.
</event>
<event>
 5   0  0.1390735E-05  0.2099461E+04  0.7818609E-02  0.8561481E-01
        2   -1    0    0  501    0  0.00000000000E+00  0.00000000000E+00  0.73185860241E+03  0.73185860242E+03  0.25500000920E-02 0. -1.
       -2   -1    0    0    0  501  0.00000000000E+00  0.00000000000E+00 -0.15056646834E+04  0.15056646834E+04  0.25500000920E-02 0.  1.
    10030    2    1    2    0    0  0.00000000000E+00  0.00000000000E+00 -0.77380608094E+03  0.22375232858E+04  0.20994605506E+04 0.  0.
        5    1    3    3  502    0  0.45366176078E+03 -0.60428075915E+03 -0.11634819048E+04  0.13873270926E+04  0.46999998093E+01 0. -1.
       -5    1    3    3    0  502 -0.45366176078E+03  0.60428075915E+03  0.38967582391E+03  0.85019619313E+03  0.46999998093E+01 0.  1.
</event>
<event>
 5   0  0.6283269E-06  0.2097957E+04  0.7818609E-02  0.8562144E-01
       -1   -1    0    0    0  501  0.00000000000E+00  0.00000000000E+00  0.74490426824E+03  0.74490426826E+03  0.50400001928E-02 0.  1.
        1   -1    0    0  501    0  0.00000000000E+00  0.00000000000E+00 -0.14771777832E+04  0.14771777832E+04  0.50400001928E-02 0. -1.
    10030    2    1    2    0    0  0.00000000000E+00  0.00000000000E+00 -0.73227351498E+03  0.22220820515E+04  0.20979571356E+04 0.  0.
        1    1    3    3  502    0  0.61288671579E+03  0.34238583627E+03 -0.11916724459E+04  0.13830912499E+04  0.50400001928E-02 0. -1.
       -1    1    3    3    0  502 -0.61288671579E+03 -0.34238583627E+03  0.45939893095E+03  0.83899080153E+03  0.50400001928E-02 0.  1.
</event>
<event>
 5   0  0.5009125E-06  0.2093411E+04  0.7818609E-02  0.8564152E-01
        3   -1    0    0  501    0  0.00000000000E+00  0.00000000000E+00  0.75388671297E+03  0.75388671974E+03  0.10100000352E+00 0. -1.
       -3   -1    0    0    0  501  0.00000000000E+00  0.00000000000E+00 -0.14532580465E+04  0.14532580500E+04  0.10100000352E+00 0.  1.
    10030    2    1    2    0    0  0.00000000000E+00  0.00000000000E+00 -0.69937133356E+03  0.22071447698E+04  0.20934105600E+04 0.  0.
        2    1    3    3  502    0 -0.10087334176E+04  0.26977566792E+03 -0.27314740375E+03  0.10793199354E+04  0.25500000920E-02 0.  1.
       -2    1    3    3    0  502  0.10087334176E+04 -0.26977566792E+03 -0.42622392981E+03  0.11278248344E+04  0.25500000920E-02 0. -1.
</event>
<event>
 5   0  0.1344501E-05  0.2099436E+04  0.7818609E-02  0.8561492E-01
        2   -1    0    0  501    0  0.00000000000E+00  0.00000000000E+00  0.18973555974E+04  0.18973555974E+04  0.25500000920E-02 0. -1.
       -2   -1    0    0    0  501  0.00000000000E+00  0.00000000000E+00 -0.58075991930E+03  0.58075991930E+03  0.25500000920E-02 0.  1.
    10030    2    1    2    0    0  0.00000000000E+00  0.00000000000E+00  0.13165956781E+04  0.24781155167E+04  0.20994361944E+04 0.  0.
        3    1    3    3  502    0  0.67721504886E+03  0.71594605043E+03  0.23154955309E+03  0.10123310601E+04  0.10100000352E+00 0.  1.
       -3    1    3    3    0  502 -0.67721504886E+03 -0.71594605043E+03  0.10850461250E+04  0.14657844566E+04  0.10100000352E+00 0. -1.
</event>
<event>
 5   0  0.6238363E-06  0.2101669E+04  0.7818609E-02  0.8560508E-01
        1   -1    0    0  501    0  0.00000000000E+00  0.00000000000E+00  0.10361219748E+04  0.10361219748E+04  0.50400001928E-02 0.  1.
       -1   -1    0    0    0  501  0.00000000000E+00  0.00000000000E+00 -0.10657563468E+04  0.10657563468E+04  0.50400001928E-02 0. -1.
    10030    2    1    2    0    0  0.00000000000E+00  0.00000000000E+00 -0.29634372026E+02  0.21018783216E+04  0.21016694038E+04 0.  0.
        4    1    3    3  502    0  0.47383570338E+03  0.36906987099E+02 -0.95212407107E+03  0.10641542459E+04  0.12699999809E+01 0. -1.
       -4    1    3    3    0  502 -0.47383570338E+03 -0.36906987099E+02  0.92248969904E+03  0.10377240757E+04  0.12699999809E+01 0.  1.
</event>
<event>
 5   0  0.1441136E-05  0.2098143E+04  0.7818609E-02  0.8562062E-01
       -2   -1    0    0    0  501  0.00000000000E+00  0.00000000000E+00  0.62698161768E+03  0.62698161769E+03  0.25500000920E-02 0.  1.
        2   -1    0    0  501    0  0.00000000000E+00  0.00000000000E+00 -0.17553162733E+04  0.17553162733E+04  0.25500000920E-02 0. -1.
    10030    2    1    2    0    0  0.00000000000E+00  0.00000000000E+00 -0.11283346557E+04  0.23822978910E+04  0.20981430234E+04 0.  0.
        4    1    3    3  502    0 -0.10166608027E+04  0.85183653991E+01 -0.85779809175E+03  0.13302221354E+04  0.12699999809E+01 0. -1.
       -4    1    3    3    0  502  0.10166608027E+04 -0.85183653991E+01 -0.27053656391E+03  0.10520757557E+04  0.12699999809E+01 0.  1.
</event>
<event>
 5   0  0.1395356E-05  0.2104741E+04  0.7818609E-02  0.8559158E-01
       -2   -1    0    0    0  501  0.00000000000E+00  0.00000000000E+00  0.15765299046E+04  0.15765299046E+04  0.25500000920E-02 0.  1.
        2   -1    0    0  501    0  0.00000000000E+00  0.00000000000E+00 -0.70248166877E+03  0.70248166877E+03  0.25500000920E-02 0. -1.
    10030    2    1    2    0    0  0.00000000000E+00  0.00000000000E+00  0.87404823581E+03  0.22790115733E+04  0.21047407044E+04 0.  0.
        1    1    3    3  502    0  0.22501491634E+03 -0.48639845868E+03 -0.54365259829E+03  0.76339591356E+03  0.50400001928E-02 0. -1.
       -1    1    3    3    0  502 -0.22501491634E+03  0.48639845868E+03  0.14177008341E+04  0.15156156598E+04  0.50400001928E-02 0.  1.
</event>
<event>
 5   0  0.6589193E-06  0.2102408E+04  0.7818609E-02  0.8560183E-01
        1   -1    0    0  501    0  0.00000000000E+00  0.00000000000E+00  0.13655681026E+04  0.13655681026E+04  0.50400001928E-02 0. -1.
       -1   -1    0    0    0  501  0.00000000000E+00  0.00000000000E+00 -0.80920918190E+03  0.80920918191E+03  0.50400001928E-02 0.  1.
    10030    2    1    2    0    0  0.00000000000E+00  0.00000000000E+00  0.55635892073E+03  0.21747772846E+04  0.21024083782E+04 0.  0.
        3    1    3    3  502    0  0.57603530518E+03  0.19022191122E+03  0.11662348481E+04  0.13145739916E+04  0.10100000352E+00 0. -1.
       -3    1    3    3    0  502 -0.57603530518E+03 -0.19022191122E+03 -0.60987592732E+03  0.86020329298E+03  0.10100000352E+00 0.  1.
</event>
<event>
 5   0  0.1344501E-05  0.2098636E+04  0.7818609E-02  0.8561844E-01
       -2   -1    0    0    0  501  0.00000000000E+00  0.00000000000E+00  0.12608343169E+04  0.12608343169E+04  0.25500000920E-02 0. -1.
        2   -1    0    0  501    0  0.00000000000E+00  0.00000000000E+00 -0.87328557301E+03  0.87328557301E+03  0.25500000920E-02 0.  1.
    10030    2    1    2    0    0  0.00000000000E+00  0.00000000000E+00  0.38754874392E+03  0.21341198899E+04  0.20986361466E+04 0.  0.
        3    1    3    3  502    0 -0.93435529879E+03 -0.80795644688E+02  0.67239208950E+03  0.11539752566E+04  0.10100000352E+00 0. -1.
       -3    1    3    3    0  502  0.93435529879E+03  0.80795644688E+02 -0.28484334558E+03  0.98014463336E+03  0.10100000352E+00 0.  1.
</event>
<event>
 5   0  0.6238363E-06  0.2104035E+04  0.7818609E-02  0.8559468E-01
        1   -1    0    0  501    0  0.00000000000E+00  0.00000000000E+00  0.18579282773E+04  0.18579282773E+04  0.50400001928E-02 0. -1.
       -1   -1    0    0    0  501  0.00000000000E+00  0.00000000000E+00 -0.59568561391E+03  0.59568561393E+03  0.50400001928E-02 0.  1.
    10030    2    1    2    0    0  0.00000000000E+00  0.00000000000E+00  0.12622426634E+04  0.24536138912E+04  0.21040353100E+04 0.  0.
        4    1    3    3  502    0 -0.49784073651E+03  0.92077083097E+03  0.50839741373E+03  0.11636725765E+04  0.12699999809E+01 0.  1.
       -4    1    3    3    0  502  0.49784073651E+03 -0.92077083097E+03  0.75384524962E+03  0.12899413147E+04  0.12699999809E+01 0. -1.
</event>
<event>
 5   0  0.1398469E-05  0.2105002E+04  0.7818609E-02  0.8559043E-01
        2   -1    0    0  501    0  0.00000000000E+00  0.00000000000E+00  0.19786035742E+04  0.19786035742E+04  0.25500000920E-02 0.  1.
       -2   -1    0    0    0  501  0.00000000000E+00  0.00000000000E+00 -0.55986858501E+03  0.55986858502E+03  0.25500000920E-02 0. -1.
    10030    2    1    2    0    0  0.00000000000E+00  0.00000000000E+00  0.14187349891E+04  0.25384721592E+04  0.21050016469E+04 0.  0.
        2    1    3    3  502    0  0.70394032242E+03  0.35299477766E+03 -0.13272738820E+03  0.79859492245E+03  0.25500000920E-02 0. -1.
       -2    1    3    3    0  502 -0.70394032242E+03 -0.35299477766E+03  0.15514623773E+04  0.17398772367E+04  0.25500000920E-02 0.  1.
</event>
<event>
 5   0  0.6238363E-06  0.2100426E+04  0.7818609E-02  0.8561056E-01
        1   -1    0    0  501    0  0.00000000000E+00  0.00000000000E+00  0.86507575732E+03  0.86507575733E+03  0.50400001928E-02 0. -1.
       -1   -1    0    0    0  501  0.00000000000E+00  0.00000000000E+00 -0.12749714991E+04  0.12749714991E+04  0.50400001928E-02 0.  1.
    10030    2    1    2    0    0  0.00000000000E+00  0.00000000000E+00 -0.40989574181E+03  0.21400472565E+04  0.21004256094E+04 0.  0.
        4    1    3    3  502    0  0.56881667102E+03  0.56965769813E+03 -0.89212061204E+03  0.12016418342E+04  0.12699999809E+01 0.  1.
       -4    1    3    3    0  502 -0.56881667102E+03 -0.56965769813E+03  0.48222487023E+03  0.93840542232E+03  0.12699999809E+01 0. -1.
</event>
<event>
 5   0  0.6238363E-06  0.2093719E+04  0.7818609E-02  0.8564015E-01
        1   -1    0    0  501    0  0.00000000000E+00  0.00000000000E+00  0.15121190898E+04  0.15121190898E+04  0.50400001928E-02 0.  1.
       -1   -1    0    0    0  501  0.00000000000E+00  0.00000000000E+00 -0.72475433869E+03  0.72475433871E+03  0.50400001928E-02 0. -1.
    10030    2    1    2    0    0  0.00000000000E+00  0.00000000000E+00  0.78736475110E+03  0.22368734285E+04  0.20937190556E+04 0.  0.
        4    1    3    3  502    0  0.75399875418E+03 -0.37514327705E+03  0.10580238523E+04  0.13522805495E+04  0.12699999809E+01 0.  1.
       -4    1    3    3    0  502 -0.75399875418E+03  0.37514327705E+03 -0.27065910120E+03  0.88459287900E+03  0.12699999809E+01 0. -1.
</event>
<event>
 5   0  0.6599245E-06  0.2100034E+04  0.7818609E-02  0.8561228E-01
       -1   -1    0    0    0  501  0.00000000000E+00  0.00000000000E+00  0.80631693359E+03  0.80631693360E+03  0.50400001928E-02 0. -1.
        1   -1    0    0  501    0  0.00000000000E+00  0.00000000000E+00 -0.13673731276E+04  0.13673731276E+04  0.50400001928E-02 0.  1.
    10030    2    1    2    0    0  0.00000000000E+00  0.00000000000E+00 -0.56105619402E+03  0.21736900612E+04  0.21000343877E+04 0.  0.
        2    1    3    3  502    0 -0.96928526812E+03  0.39917334009E+03 -0.21771336471E+03  0.10706317741E+04  0.25500000920E-02 0.  1.
       -2    1    3    3    0  502  0.96928526812E+03 -0.39917334009E+03 -0.34334282931E+03  0.11030582872E+04  0.25500000920E-02 0. -1.
</event>
<event>
 5   0  0.1398469E-05  0.2108842E+04  0.7818609E-02  0.8557358E-01
        2   -1    0    0  501    0  0.00000000000E+00  0.00000000000E+00  0.21291088522E+04  0.21291088522E+04  0.25500000920E-02 0. -1.
       -2   -1    0    0    0  501  0.00000000000E+00  0.00000000000E+00 -0.52219215290E+03  0.52219215290E+03  0.25500000920E-02 0.  1.
    10030    2    1    2    0    0  0.00000000000E+00  0.00000000000E+00  0.16069166993E+04  0.26513010051E+04  0.21088422751E+04 0.  0.
        2    1    3    3  502    0  0.72801298985E+03  0.15887223523E+03 -0.13447327667E+03  0.75718317642E+03  0.25500000920E-02 0.  1.
       -2    1    3    3    0  502 -0.72801298985E+03 -0.15887223523E+03  0.17413899760E+04  0.18941178287E+04  0.25500000920E-02 0. -1.
</event>
<event>
 5   0  0.1395356E-05  0.2101419E+04  0.7818609E-02  0.8560619E-01
       -2   -1    0    0    0  501  0.00000000000E+00  0.00000000000E+00  0.94475714521E+03  0.94475714522E+03  0.25500000920E-02 0.  1.
        2   -1    0    0  501    0  0.00000000000E+00  0.00000000000E+00 -0.11685441463E+04  0.11685441463E+04  0.25500000920E-02 0. -1.
    10030    2    1    2    0    0  0.00000000000E+00  0.00000000000E+00 -0.22378700113E+03  0.21133012916E+04  0.21014189794E+04 0.  0.
        1    1    3    3  502    0 -0.25664315677E+02  0.82232475609E+03 -0.76912830643E+03  0.11262482024E+04  0.50400001928E-02 0. -1.
       -1    1    3    3    0  502  0.25664315677E+02 -0.82232475609E+03  0.54534130530E+03  0.98705308919E+03  0.50400001928E-02 0.  1.
</event>
<event>
 5   0  0.1390735E-05  0.2101570E+04  0.7818609E-02  0.8560552E-01
        2   -1    0    0  501    0  0.00000000000E+00  0.00000000000E+00  0.17321685508E+04  0.17321685508E+04  0.25500000920E-02 0. -1.
       -2   -1    0    0    0  501  0.00000000000E+00  0.00000000000E+00 -0.63743758851E+03  0.63743758851E+03  0.25500000920E-02 0.  1.
    10030    2    1    2    0    0  0.00000000000E+00  0.00000000000E+00  0.10947309623E+04  0.23696061393E+04  0.21015702167E+04 0.  0.
        5    1    3    3  502    0  0.15947468217E+03 -0.52266795740E+01 -0.62368633204E+03  0.64379051189E+03  0.46999998093E+01 0.  1.
       -5    1    3    3    0  502 -0.15947468217E+03  0.52266795740E+01  0.17184172943E+04  0.17258156274E+04  0.46999998093E+01 0. -1.
</event>
<event>
 5   0  0.1395356E-05  0.2101004E+04  0.7818609E-02  0.8560801E-01
       -2   -1    0    0    0  501  0.00000000000E+00  0.00000000000E+00  0.73617392992E+03  0.73617392993E+03  0.25500000920E-02 0.  1.
        2   -1    0    0  501    0  0.00000000000E+00  0.00000000000E+00 -0.14990407730E+04  0.14990407730E+04  0.25500000920E-02 0. -1.
    10030    2    1    2    0    0  0.00000000000E+00  0.00000000000E+00 -0.76286684307E+03  0.22352147029E+04  0.21010042713E+04 0.  0.
        1    1    3    3  502    0 -0.70338768930E+03 -0.54984965871E+03 -0.97039010254E+03  0.13186151219E+04  0.50400001928E-02 0. -1.
       -1    1    3    3    0  502  0.70338768930E+03  0.54984965871E+03  0.20752325947E+03  0.91659958100E+03  0.50400001928E-02 0.  1.
</event>
<event>
 5   0  0.6283269E-06  0.2087858E+04  0.7818609E-02  0.8566611E-01
       -1   -1    0    0    0  501  0.00000000000E+00  0.00000000000E+00  0.13993737111E+04  0.13993737111E+04  0.50400001928E-02 0.  1.
        1   -1    0    0  501    0  0.00000000000E+00  0.00000000000E+00 -0.77876830520E+03  0.77876830522E+03  0.50400001928E-02 0. -1.
    10030    2    1    2    0    0  0.00000000000E+00  0.00000000000E+00  0.62060540588E+03  0.21781420163E+04  0.20878581306E+04 0.  0.
        1    1    3    3  502    0  0.68317607285E+03 -0.30232987173E+03 -0.45037407272E+03  0.87233577438E+03  0.50400001928E-02 0. -1.
       -1    1    3    3    0  502 -0.68317607285E+03  0.30232987173E+03  0.10709794786E+04  0.13058062419E+04  0.50400001928E-02 0.  1.
</event>
<event>
 5   0  0.1390735E-05  0.2098027E+04  0.7818609E-02  0.8562113E-01
       -2   -1    0    0    0  501  0.00000000000E+00  0.00000000000E+00  0.69923177751E+03  0.69923177752E+03  0.25500000920E-02 0.  1.
        2   -1    0    0  501    0  0.00000000000E+00  0.00000000000E+00 -0.15737693295E+04  0.15737693295E+04  0.25500000920E-02 0. -1.
    10030    2    1    2    0    0  0.00000000000E+00  0.00000000000E+00 -0.87453755201E+03  0.22730011070E+04  0.20980271930E+04 0.  0.
        5    1    3    3  502    0 -0.86712395493E+03 -0.53932814392E+03 -0.17718832878E+03  0.10364345584E+04  0.46999998093E+01 0.  1.
       -5    1    3    3    0  502  0.86712395493E+03  0.53932814392E+03 -0.69734922324E+03  0.12365665486E+04  0.46999998093E+01 0. -1.
</event>
<event>
 5   0  0.5009125E-06  0.2108702E+04  0.7818609E-02  0.8557420E-01
       -3   -1    0    0    0  501  0.00000000000E+00  0.00000000000E+00  0.17285982353E+04  0.17285982382E+04  0.10100000352E+00 0.  1.
        3   -1    0    0  501    0  0.00000000000E+00  0.00000000000E+00 -0.64309687891E+03  0.64309688684E+03  0.10100000352E+00 0. -1.
    10030    2    1    2    0    0  0.00000000000E+00  0.00000000000E+00  0.10855013564E+04  0.23716951250E+04  0.21087021059E+04 0.  0.
        1    1    3    3  502    0 -0.74504587446E+03  0.69519131854E+03  0.84719796922E+03  0.13251900707E+04  0.50400001928E-02 0. -1.
       -1    1    3    3    0  502  0.74504587446E+03 -0.69519131854E+03  0.23830338713E+03  0.10465050543E+04  0.50400001928E-02 0.  1.
</event>
<event>
 5   0  0.1441136E-05  0.2097095E+04  0.7818609E-02  0.8562524E-01
        2   -1    0    0  501    0  0.00000000000E+00  0.00000000000E+00  0.18328356246E+04  0.18328356246E+04  0.25500000920E-02 0.  1.
       -2   -1    0    0    0  501  0.00000000000E+00  0.00000000000E+00 -0.59986388025E+03  0.59986388026E+03  0.25500000920E-02 0. -1.
    10030    2    1    2    0    0  0.00000000000E+00  0.00000000000E+00  0.12329717443E+04  0.24326995048E+04  0.20970950285E+04 0.  0.
        4    1    3    3  502    0  0.44969236908E+03  0.79175773521E+03  0.12196436374E+04  0.15220498524E+04  0.12699999809E+01 0.  1.
       -4    1    3    3    0  502 -0.44969236908E+03 -0.79175773521E+03  0.13328106886E+02  0.91064965240E+03  0.12699999809E+01 0. -1.
</event>
<event>
 5   0  0.1441136E-05  0.2101250E+04  0.7818609E-02  0.8560693E-01
        2   -1    0    0  501    0  0.00000000000E+00  0.00000000000E+00  0.19002090468E+04  0.19002090468E+04  0.25500000920E-02 0. -1.
       -2   -1    0    0    0  501  0.00000000000E+00  0.00000000000E+00 -0.58089025502E+03  0.58089025503E+03  0.25500000920E-02 0.  1.
    10030    2    1    2    0    0  0.00000000000E+00  0.00000000000E+00  0.13193187918E+04  0.24810993018E+04  0.21012500258E+04 0.  0.
        4    1    3    3  502    0 -0.72595622453E+03  0.44664335413E+03 -0.65635723155E+02  0.85487565574E+03  0.12699999809E+01 0.  1.
       -4    1    3    3    0  502  0.72595622453E+03 -0.44664335413E+03  0.13849545149E+04  0.16262236461E+04  0.12699999809E+01 0. -1.
</event>
<event>
 5   0  0.6599245E-06  0.2106178E+04  0.7818609E-02  0.8558527E-01
       -1   -1    0    0    0  501  0.00000000000E+00  0.00000000000E+00  0.17558693955E+04  0.17558693955E+04  0.50400001928E-02 0.  1.
        1   -1    0    0  501    0  0.00000000000E+00  0.00000000000E+00 -0.63159388525E+03  0.63159388527E+03  0.50400001928E-02 0. -1.
    10030    2    1    2    0    0  0.00000000000E+00  0.00000000000E+00  0.11242755102E+04  0.23874632808E+04  0.21061779350E+04 0.  0.
        2    1    3    3  502    0 -0.63664511262E+03 -0.47552708891E+03  0.13454818890E+04  0.15626146439E+04  0.25500000920E-02 0.  1.
       -2    1    3    3    0  502  0.63664511262E+03  0.47552708891E+03 -0.22120637877E+03  0.82484863686E+03  0.25500000920E-02 0. -1.
</event>
<event>
 5   0  0.6283269E-06  0.2099145E+04  0.7818609E-02  0.8561620E-01
        1   -1    0    0  501    0  0.00000000000E+00  0.00000000000E+00  0.14015004276E+04  0.14015004276E+04  0.50400001928E-02 0.  1.
       -1   -1    0    0    0  501  0.00000000000E+00  0.00000000000E+00 -0.78601664190E+03  0.78601664192E+03  0.50400001928E-02 0. -1.
    10030    2    1    2    0    0  0.00000000000E+00  0.00000000000E+00  0.61548378568E+03  0.21875170695E+04  0.20991452163E+04 0.  0.
        1    1    3    3  502    0  0.27450297163E+03 -0.62825800811E+03 -0.52041059482E+03  0.86074804294E+03  0.50400001928E-02 0. -1.
       -1    1    3    3    0  502 -0.27450297163E+03  0.62825800811E+03  0.11358943805E+04  0.13267690266E+04  0.50400001928E-02 0.  1.
</event>
<event>
 5   0  0.6917078E-06  0.2107165E+04  0.7818609E-02  0.8558094E-01
        1   -1    0    0  501    0  0.00000000000E+00  0.00000000000E+00  0.84326460323E+03  0.84326460324E+03  0.50400001928E-02 0. -1.
       -1   -1    0    0    0  501  0.00000000000E+00  0.00000000000E+00 -0.13163561062E+04  0.13163561062E+04  0.50400001928E-02 0.  1.
    10030    2    1    2    0    0  0.00000000000E+00  0.00000000000E+00 -0.47309150299E+03  0.21596207095E+04  0.21071654037E+04 0.  0.
        5    1    3    3  502    0  0.44644326358E+03 -0.52244778144E+03 -0.10550189838E+04  0.12591069923E+04  0.46999998093E+01 0.  1.
       -5    1    3    3    0  502 -0.44644326358E+03  0.52244778144E+03  0.58192748078E+03  0.90051371717E+03  0.46999998093E+01 0. -1.
</event>
<event>
 5   0  0.1441136E-05  0.2103855E+04  0.7818609E-02  0.8559547E-01
       -2   -1    0    0    0  501  0.00000000000E+00  0.00000000000E+00  0.64692909316E+03  0.64692909317E+03  0.25500000920E-02 0. -1.
        2   -1    0    0  501    0  0.00000000000E+00  0.00000000000E+00 -0.17104673903E+04  0.17104673903E+04  0.25500000920E-02 0.  1.
    10030    2    1    2    0    0  0.00000000000E+00  0.00000000000E+00 -0.10635382971E+04  0.23573964835E+04  0.21038546696E+04 0.  0.
        4    1    3    3  502    0 -0.68389320754E+03  0.69960544909E+03 -0.96486126337E+03  0.13740875424E+04  0.12699999809E+01 0.  1.
       -4    1    3    3    0  502  0.68389320754E+03 -0.69960544909E+03 -0.98677033764E+02  0.98330894108E+03  0.12699999809E+01 0. -1.
</event>
<event>
 5   0  0.1390735E-05  0.2094804E+04  0.7818609E-02  0.8563536E-01
       -2   -1    0    0    0  501  0.00000000000E+00  0.00000000000E+00  0.71468022554E+03  0.71468022554E+03  0.25500000920E-02 0. -1.
        2   -1    0    0  501    0  0.00000000000E+00  0.00000000000E+00 -0.15350240271E+04  0.15350240271E+04  0.25500000920E-02 0.  1.
    10030    2    1    2    0    0  0.00000000000E+00  0.00000000000E+00 -0.82034380155E+03  0.22497042526E+04  0.20948043516E+04 0.  0.
        5    1    3    3  502    0 -0.31100719553E+03  0.98439099553E+03 -0.22023808925E+03  0.10555936783E+04  0.46999998093E+01 0. -1.
       -5    1    3    3    0  502  0.31100719553E+03 -0.98439099553E+03 -0.60010571230E+03  0.11941105743E+04  0.46999998093E+01 0.  1.
</event>
<event>
 5   0  0.1395356E-05  0.2099053E+04  0.7818609E-02  0.8561661E-01
       -2   -1    0    0    0  501  0.00000000000E+00  0.00000000000E+00  0.58091604964E+03  0.58091604965E+03  0.25500000920E-02 0.  1.
        2   -1    0    0  501    0  0.00000000000E+00  0.00000000000E+00 -0.18961528285E+04  0.18961528285E+04  0.25500000920E-02 0. -1.
    10030    2    1    2    0    0  0.00000000000E+00  0.00000000000E+00 -0.13152367788E+04  0.24770688781E+04  0.20990527489E+04 0.  0.
        1    1    3    3  502    0  0.65093838679E+03 -0.64538079871E+03 -0.12608140609E+04  0.15588102049E+04  0.50400001928E-02 0. -1.
       -1    1    3    3    0  502 -0.65093838679E+03  0.64538079871E+03 -0.54422717969E+02  0.91825867324E+03  0.50400001928E-02 0.  1.
</event>
<event>
 5   0  0.1395356E-05  0.2035357E+04  0.7818609E-02  0.8590266E-01
        2   -1    0    0  501    0  0.00000000000E+00  0.00000000000E+00  0.80444068545E+03  0.80444068546E+03  0.25500000920E-02 0.  1.
       -2   -1    0    0    0  501  0.00000000000E+00  0.00000000000E+00 -0.12874409970E+04  0.12874409970E+04  0.25500000920E-02 0. -1.
    10030    2    1    2    0    0  0.00000000000E+00  0.00000000000E+00 -0.48300031157E+03  0.20918816825E+04  0.20353573820E+04 0.  0.
        1    1    3    3  502    0 -0.63269538295E+03  0.74561810193E+03 -0.53114226439E+03  0.11128171038E+04  0.50400001928E-02 0. -1.
       -1    1    3    3    0  502  0.63269538295E+03 -0.74561810193E+03  0.48141952820E+02  0.97906457865E+03  0.50400001928E-02 0.  1.
</event>
<event>
 5   0  0.6917078E-06  0.2115648E+04  0.7818609E-02  0.8554381E-01
        1   -1    0    0  501    0  0.00000000000E+00  0.00000000000E+00  0.19119697582E+04  0.19119697582E+04  0.50400001928E-02 0.  1.
       -1   -1    0    0    0  501  0.00000000000E+00  0.00000000000E+00 -0.58525601157E+03  0.58525601160E+03  0.50400001928E-02 0. -1.
    10030    2    1    2    0    0  0.00000000000E+00  0.00000000000E+00  0.13267137467E+04  0.24972257698E+04  0.21156481702E+04 0.  0.
        5    1    3    3  502    0  0.18715705920E+03 -0.10410785950E+04  0.67499998751E+03  0.12547985810E+04  0.46999998093E+01 0. -1.
       -5    1    3    3    0  502 -0.18715705920E+03  0.10410785950E+04  0.65171375914E+03  0.12424271888E+04  0.46999998093E+01 0.  1.
</event>
<event>
 5   0  0.6917078E-06  0.2099526E+04  0.7818609E-02  0.8561452E-01
       -1   -1    0    0    0  501  0.00000000000E+00  0.00000000000E+00  0.10839374284E+04  0.10839374284E+04  0.50400001928E-02 0. -1.
        1   -1    0    0  501    0  0.00000000000E+00  0.00000000000E+00 -0.10166656379E+04  0.10166656379E+04  0.50400001928E-02 0.  1.
    10030    2    1    2    0    0  0.00000000000E+00  0.00000000000E+00  0.67271790515E+02  0.21006030663E+04  0.20995256008E+04 0.  0.
        5    1    3    3  502    0 -0.10375001458E+04 -0.68629041032E+02 -0.11087973945E+03  0.10456734215E+04  0.46999998093E+01 0.  1.
       -5    1    3    3    0  502  0.10375001458E+04  0.68629041032E+02  0.17815152997E+03  0.10549296448E+04  0.46999998093E+01 0. -1.
</event>
<event>
 5   0  0.1441136E-05  0.2109926E+04  0.7818609E-02  0.8556884E-01
       -2   -1    0    0    0  501  0.00000000000E+00  0.00000000000E+00  0.81952877907E+03  0.81952877908E+03  0.25500000920E-02 0. -1.
        2   -1    0    0  501    0  0.00000000000E+00  0.00000000000E+00 -0.13580322153E+04  0.13580322153E+04  0.25500000920E-02 0.  1.
    10030    2    1    2    0    0  0.00000000000E+00  0.00000000000E+00 -0.53850343626E+03  0.21775609944E+04  0.21099255753E+04 0.  0.
        4    1    3    3  502    0  0.94240695895E+02 -0.86227584568E+03  0.35044940740E+03  0.93553051412E+03  0.12699999809E+01 0. -1.
       -4    1    3    3    0  502 -0.94240695895E+02  0.86227584568E+03 -0.88895284366E+03  0.12420304803E+04  0.12699999809E+01 0.  1.
</event>
<event>
 5   0  0.6238363E-06  0.2098196E+04  0.7818609E-02  0.8562039E-01
       -1   -1    0    0    0  501  0.00000000000E+00  0.00000000000E+00  0.12983634990E+04  0.12983634990E+04  0.50400001928E-02 0.  1.
        1   -1    0    0  501    0  0.00000000000E+00  0.00000000000E+00 -0.84768748822E+03  0.84768748824E+03  0.50400001928E-02 0. -1.
    10030    2    1    2    0    0  0.00000000000E+00  0.00000000000E+00  0.45067601075E+03  0.21460509872E+04  0.20981958853E+04 0.  0.
        4    1    3    3  502    0  0.92151938816E+02  0.34697172568E+02  0.12936258053E+04  0.12973685716E+04  0.12699999809E+01 0.  1.
       -4    1    3    3    0  502 -0.92151938816E+02 -0.34697172568E+02 -0.84294979452E+03  0.84868241563E+03  0.12699999809E+01 0. -1.
</event>
<event>
 5   0  0.1441136E-05  0.2129556E+04  0.7818609E-02  0.8548334E-01
       -2   -1    0    0    0  501  0.00000000000E+00  0.00000000000E+00  0.74967256095E+03  0.74967256096E+03  0.25500000920E-02 0. -1.
        2   -1    0    0  501    0  0.00000000000E+00  0.00000000000E+00 -0.15123299167E+04  0.15123299167E+04  0.25500000920E-02 0.  1.
    10030    2    1    2    0    0  0.00000000000E+00  0.00000000000E+00 -0.76265735572E+03  0.22620024776E+04  0.21295560492E+04 0.  0.
        4    1    3    3  502    0 -0.73585590600E+03  0.47113000987E+03  0.26504364239E+03  0.91307017577E+03  0.12699999809E+01 0.  1.
       -4    1    3    3    0  502  0.73585590600E+03 -0.47113000987E+03 -0.10277009981E+04  0.13489323019E+04  0.12699999809E+01 0. -1.
</event>
<event>
 5   0  0.6589193E-06  0.2102247E+04  0.7818609E-02  0.8560254E-01
        1   -1    0    0  501    0  0.00000000000E+00  0.00000000000E+00  0.11333748151E+04  0.11333748151E+04  0.50400001928E-02 0. -1.
       -1   -1    0    0    0  501  0.00000000000E+00  0.00000000000E+00 -0.97484100505E+03  0.97484100507E+03  0.50400001928E-02 0.  1.
    10030    2    1    2    0    0  0.00000000000E+00  0.00000000000E+00  0.15853381008E+03  0.21082158202E+04  0.21022466496E+04 0.  0.
        3    1    3    3  502    0 -0.92820088936E+03  0.47451231156E+03  0.21433939466E+03  0.10642651038E+04  0.10100000352E+00 0. -1.
       -3    1    3    3    0  502  0.92820088936E+03 -0.47451231156E+03 -0.55805584585E+02  0.10439507164E+04  0.10100000352E+00 0.  1.
</event>
<event>
 5   0  0.6238363E-06  0.2101167E+04  0.7818609E-02  0.8560730E-01
       -1   -1    0    0    0  501  0.00000000000E+00  0.00000000000E+00  0.85487521710E+03  0.85487521711E+03  0.50400001928E-02 0. -1.
        1   -1    0    0  501    0  0.00000000000E+00  0.00000000000E+00 -0.12910955912E+04  0.12910955912E+04  0.50400001928E-02 0.  1.
    10030    2    1    2    0    0  0.00000000000E+00  0.00000000000E+00 -0.43622037411E+03  0.21459708083E+04  0.21011669366E+04 0.  0.
        4    1    3    3  502    0 -0.79434751574E+03 -0.10341842569E+03 -0.91234014630E+03  0.12141044033E+04  0.12699999809E+01 0.  1.
       -4    1    3    3    0  502  0.79434751574E+03  0.10341842569E+03  0.47611977219E+03  0.93186640508E+03  0.12699999809E+01 0. -1.
</event>
<event>
 5   0  0.6599245E-06  0.2105048E+04  0.7818609E-02  0.8559023E-01
       -1   -1    0    0    0  501  0.00000000000E+00  0.00000000000E+00  0.80602850403E+03  0.80602850405E+03  0.50400001928E-02 0.  1.
        1   -1    0    0  501    0  0.00000000000E+00  0.00000000000E+00 -0.13744008536E+04  0.13744008537E+04  0.50400001928E-02 0. -1.
    10030    2    1    2    0    0  0.00000000000E+00  0.00000000000E+00 -0.56837234961E+03  0.21804293577E+04  0.21050475187E+04 0.  0.
        2    1    3    3  502    0 -0.22527779474E+02  0.48564894495E+03 -0.12511268407E+04  0.13422670264E+04  0.25500000920E-02 0. -1.
       -2    1    3    3    0  502  0.22527779474E+02 -0.48564894495E+03  0.68275449107E+03  0.83816233133E+03  0.25500000920E-02 0.  1.
</event>
<event>
 5   0  0.1395356E-05  0.2108635E+04  0.7818609E-02  0.8557449E-01
       -2   -1    0    0    0  501  0.00000000000E+00  0.00000000000E+00  0.10599715120E+04  0.10599715120E+04  0.25500000920E-02 0. -1.
        2   -1    0    0  501    0  0.00000000000E+00  0.00000000000E+00 -0.10486941262E+04  0.10486941262E+04  0.25500000920E-02 0.  1.
    10030    2    1    2    0    0  0.00000000000E+00  0.00000000000E+00  0.11277385747E+02  0.21086656382E+04  0.21086354816E+04 0.  0.
        1    1    3    3  502    0 -0.92552586424E+03 -0.42543989812E+03 -0.26637377479E+03  0.10528780652E+04  0.50400001928E-02 0. -1.
       -1    1    3    3    0  502  0.92552586424E+03  0.42543989812E+03  0.27765116053E+03  0.10557875730E+04  0.50400001928E-02 0.  1.
</event>
<event>
 5   0  0.6283269E-06  0.2098077E+04  0.7818609E-02  0.8562091E-01
        1   -1    0    0  501    0  0.00000000000E+00  0.00000000000E+00  0.12020202909E+04  0.12020202909E+04  0.50400001928E-02 0.  1.
       -1   -1    0    0    0  501  0.00000000000E+00  0.00000000000E+00 -0.91552694874E+03  0.91552694875E+03  0.50400001928E-02 0. -1.
    10030    2    1    2    0    0  0.00000000000E+00  0.00000000000E+00  0.28649334212E+03  0.21175472396E+04  0.20980771857E+04 0.  0.
        1    1    3    3  502    0 -0.62841123042E+03  0.14767858170E+03 -0.69133224297E+03  0.94585934906E+03  0.50400001928E-02 0. -1.
       -1    1    3    3    0  502  0.62841123042E+03 -0.14767858170E+03  0.97782558508E+03  0.11716878906E+04  0.50400001928E-02 0.  1.
</event>
<event>
 5   0  0.1395356E-05  0.2101004E+04  0.7818609E-02  0.8560801E-01
        2   -1    0    0  501    0  0.00000000000E+00  0.00000000000E+00  0.12110205678E+04  0.12110205678E+04  0.25500000920E-02 0. -1.
       -2   -1    0    0    0  501  0.00000000000E+00  0.00000000000E+00 -0.91125976313E+03  0.91125976313E+03  0.25500000920E-02 0.  1.
    10030    2    1    2    0    0  0.00000000000E+00  0.00000000000E+00  0.29976080468E+03  0.21222803309E+04  0.21010038703E+04 0.  0.
        1    1    3    3  502    0 -0.84261208400E+03 -0.13458585990E+03 -0.46906101315E+03  0.97371798375E+03  0.50400001928E-02 0.  1.
       -1    1    3    3    0  502  0.84261208400E+03  0.13458585990E+03  0.76882181783E+03  0.11485623472E+04  0.50400001928E-02 0. -1.
</event>
<event>
 5   0  0.1398469E-05  0.2099390E+04  0.7818609E-02  0.8561512E-01
        2   -1    0    0  501    0  0.00000000000E+00  0.00000000000E+00  0.84342453468E+03  0.84342453468E+03  0.25500000920E-02 0.  1.
       -2   -1    0    0    0  501  0.00000000000E+00  0.00000000000E+00 -0.13064117391E+04  0.13064117391E+04  0.25500000920E-02 0. -1.
    10030    2    1    2    0    0  0.00000000000E+00  0.00000000000E+00 -0.46298720438E+03  0.21498362737E+04  0.20993901144E+04 0.  0.
        2    1    3    3  502    0 -0.16108558277E+03 -0.67987975358E+03  0.57070395831E+03  0.90215744322E+03  0.25500000920E-02 0.  1.
       -2    1    3    3    0  502  0.16108558277E+03  0.67987975358E+03 -0.10336911627E+04  0.12476788305E+04  0.25500000920E-02 0. -1.
</event>
<event>
 5   0  0.1441136E-05  0.2101167E+04  0.7818609E-02  0.8560730E-01
       -2   -1    0    0    0  501  0.00000000000E+00  0.00000000000E+00  0.10744557100E+04  0.10744557100E+04  0.25500000920E-02 0.  1.
        2   -1    0    0  501    0  0.00000000000E+00  0.00000000000E+00 -0.10272412557E+04  0.10272412557E+04  0.25500000920E-02 0. -1.
    10030    2    1    2    0    0  0.00000000000E+00  0.00000000000E+00  0.47214454314E+02  0.21016969658E+04  0.21011665644E+04 0.  0.
        4    1    3    3  502    0 -0.10176811219E+04 -0.26003639159E+03  0.28696720408E+01  0.10503826154E+04  0.12699999809E+01 0.  1.
       -4    1    3    3    0  502  0.10176811219E+04  0.26003639159E+03  0.44344782273E+02  0.10513143504E+04  0.12699999809E+01 0. -1.
</event>
<event>
 5   0  0.6599245E-06  0.2108197E+04  0.7818609E-02  0.8557641E-01
       -1   -1    0    0    0  501  0.00000000000E+00  0.00000000000E+00  0.52014079100E+03  0.52014079102E+03  0.50400001928E-02 0. -1.
        1   -1    0    0  501    0  0.00000000000E+00  0.00000000000E+00 -0.21361988183E+04  0.21361988183E+04  0.50400001928E-02 0.  1.
    10030    2    1    2    0    0  0.00000000000E+00  0.00000000000E+00 -0.16160580273E+04  0.26563396094E+04  0.21081974700E+04 0.  0.
        2    1    3    3  502    0  0.46994272179E+03  0.56817437102E+03 -0.17571866696E+04  0.19056162440E+04  0.25500000920E-02 0.  1.
       -2    1    3    3    0  502 -0.46994272179E+03 -0.56817437102E+03  0.14112864223E+03  0.75072336537E+03  0.25500000920E-02 0. -1.
</event>
<event>
 5   0  0.6283269E-06  0.2100492E+04  0.7818609E-02  0.8561026E-01
        1   -1    0    0  501    0  0.00000000000E+00  0.00000000000E+00  0.78523322299E+03  0.78523322300E+03  0.50400001928E-02 0.  1.
       -1   -1    0    0    0  501  0.00000000000E+00  0.00000000000E+00 -0.14046999679E+04  0.14046999679E+04  0.50400001928E-02 0. -1.
    10030    2    1    2    0    0  0.00000000000E+00  0.00000000000E+00 -0.61946674492E+03  0.21899331909E+04  0.21004924024E+04 0.  0.
        1    1    3    3  502    0  0.22003412884E+03  0.36366499071E+03  0.69155134864E+03  0.81173302948E+03  0.50400001928E-02 0.  1.
       -1    1    3    3    0  502 -0.22003412884E+03 -0.36366499071E+03 -0.13110180936E+04  0.13782001614E+04  0.50400001928E-02 0. -1.
</event>
<event>
 5   0  0.1441136E-05  0.2098535E+04  0.7818609E-02  0.8561889E-01
       -2   -1    0    0    0  501  0.00000000000E+00  0.00000000000E+00  0.86788718669E+03  0.86788718670E+03  0.25500000920E-02 0.  1.
        2   -1    0    0  501    0  0.00000000000E+00  0.00000000000E+00 -0.12685547211E+04  0.12685547211E+04  0.25500000920E-02 0. -1.
    10030    2    1    2    0    0  0.00000000000E+00  0.00000000000E+00 -0.40066753443E+03  0.21364419078E+04  0.20985350968E+04 0.  0.
        4    1    3    3  502    0 -0.64270317363E+03 -0.76980062021E+03 -0.51461774272E+03  0.11271616558E+04  0.12699999809E+01 0. -1.
       -4    1    3    3    0  502  0.64270317363E+03  0.76980062021E+03  0.11395020829E+03  0.10092802520E+04  0.12699999809E+01 0.  1.
</event>
<event>
 5   0  0.1344501E-05  0.2100412E+04  0.7818609E-02  0.8561062E-01
       -2   -1    0    0    0  501  0.00000000000E+00  0.00000000000E+00  0.14312015775E+04  0.14312015775E+04  0.25500000920E-02 0. -1.
        2   -1    0    0  501    0  0.00000000000E+00  0.00000000000E+00 -0.77063370889E+03  0.77063370890E+03  0.25500000920E-02 0.  1.
    10030    2    1    2    0    0  0.00000000000E+00  0.00000000000E+00  0.66056786856E+03  0.22018352864E+04  0.21004115595E+04 0.  0.
        3    1    3    3  502    0 -0.40564780237E+03  0.34496678541E+03 -0.61862184829E+03  0.81623846025E+03  0.10100000352E+00 0.  1.
       -3    1    3    3    0  502  0.40564780237E+03 -0.34496678541E+03  0.12791897169E+04  0.13855968261E+04  0.10100000352E+00 0. -1.
</event>
<event>
 5   0  0.6599245E-06  0.2086122E+04  0.7818609E-02  0.8567382E-01
        1   -1    0    0  501    0  0.00000000000E+00  0.00000000000E+00  0.17500266243E+04  0.17500266243E+04  0.50400001928E-02 0. -1.
       -1   -1    0    0    0  501  0.00000000000E+00  0.00000000000E+00 -0.62169109092E+03  0.62169109094E+03  0.50400001928E-02 0.  1.
    10030    2    1    2    0    0  0.00000000000E+00  0.00000000000E+00  0.11283355334E+04  0.23717177153E+04  0.20861217234E+04 0.  0.
        2    1    3    3  502    0 -0.13178990198E+03 -0.67376050643E+03  0.14569472181E+04  0.16105952300E+04  0.25500000920E-02 0. -1.
       -2    1    3    3    0  502  0.13178990198E+03  0.67376050643E+03 -0.32861168474E+03  0.76112248531E+03  0.25500000920E-02 0.  1.
</event>
<event>
 5   0  0.5009125E-06  0.2103476E+04  0.7818609E-02  0.8559714E-01
        3   -1    0    0  501    0  0.00000000000E+00  0.00000000000E+00  0.93136124658E+03  0.93136125205E+03  0.10100000352E+00 0. -1.
       -3   -1    0    0    0  501  0.00000000000E+00  0.00000000000E+00 -0.11876734929E+04  0.11876734972E+04  0.10100000352E+00 0.  1.
    10030    2    1    2    0    0  0.00000000000E+00  0.00000000000E+00 -0.25631224629E+03  0.21190347492E+04  0.21034762420E+04 0.  0.
        5    1    3    3  502    0 -0.76045815829E+03  0.40889098999E+03 -0.73313322870E+03  0.11326936361E+04  0.46999998093E+01 0.  1.
       -5    1    3    3    0  502  0.76045815829E+03 -0.40889098999E+03  0.47682098241E+03  0.98634111314E+03  0.46999998093E+01 0. -1.
</event>
<event>
 5   0  0.6589193E-06  0.2089003E+04  0.7818609E-02  0.8566103E-01
        1   -1    0    0  501    0  0.00000000000E+00  0.00000000000E+00  0.19419948771E+04  0.19419948771E+04  0.50400001928E-02 0.  1.
       -1   -1    0    0    0  501  0.00000000000E+00  0.00000000000E+00 -0.56178485233E+03  0.56178485236E+03  0.50400001928E-02 0. -1.
    10030    2    1    2    0    0  0.00000000000E+00  0.00000000000E+00  0.13802100248E+04  0.25037797295E+04  0.20890029251E+04 0.  0.
        3    1    3    3  502    0 -0.10015337313E+04  0.28956185863E+02  0.33643042065E+03  0.10569265414E+04  0.10100000352E+00 0.  1.
       -3    1    3    3    0  502  0.10015337313E+04 -0.28956185863E+02  0.10437796041E+04  0.14468531881E+04  0.10100000352E+00 0. -1.
</event>
<event>
 5   0  0.1398469E-05  0.2099238E+04  0.7818609E-02  0.8561579E-01
        2   -1    0    0  501    0  0.00000000000E+00  0.00000000000E+00  0.14994275772E+04  0.14994275772E+04  0.25500000920E-02 0. -1.
       -2   -1    0    0    0  501  0.00000000000E+00  0.00000000000E+00 -0.73474706590E+03  0.73474706591E+03  0.25500000920E-02 0.  1.
    10030    2    1    2    0    0  0.00000000000E+00  0.00000000000E+00  0.76468051131E+03  0.22341746431E+04  0.20992379693E+04 0.  0.
        2    1    3    3  502    0  0.69130817520E+03 -0.73227392864E+03  0.67400166762E+02  0.10092942495E+04  0.25500000920E-02 0.  1.
       -2    1    3    3    0  502 -0.69130817520E+03  0.73227392864E+03  0.69728034454E+03  0.12248803936E+04  0.25500000920E-02 0. -1.
</event>
<event>
 5   0  0.1441136E-05  0.2097049E+04  0.7818609E-02  0.8562544E-01
       -2   -1    0    0    0  501  0.00000000000E+00  0.00000000000E+00  0.83406686560E+03  0.83406686560E+03  0.25500000920E-02 0.  1.
        2   -1    0    0  501    0  0.00000000000E+00  0.00000000000E+00 -0.13181246512E+04  0.13181246512E+04  0.25500000920E-02 0. -1.
    10030    2    1    2    0    0  0.00000000000E+00  0.00000000000E+00 -0.48405778563E+03  0.21521915168E+04  0.20970494475E+04 0.  0.
        4    1    3    3  502    0 -0.99736796194E+03  0.31447130932E+03 -0.16408836948E+03  0.10585658514E+04  0.12699999809E+01 0.  1.
       -4    1    3    3    0  502  0.99736796194E+03 -0.31447130932E+03 -0.31996941615E+03  0.10936256654E+04  0.12699999809E+01 0. -1.
</event>
<event>
 5   0  0.6283269E-06  0.2097778E+04  0.7818609E-02  0.8562223E-01
        1   -1    0    0  501    0  0.00000000000E+00  0.00000000000E+00  0.16175044151E+04  0.16175044151E+04  0.50400001928E-02 0.  1.
       -1   -1    0    0    0  501  0.00000000000E+00  0.00000000000E+00 -0.68016420325E+03  0.68016420327E+03  0.50400001928E-02 0. -1.
    10030    2    1    2    0    0  0.00000000000E+00  0.00000000000E+00  0.93734021182E+03  0.22976686183E+04  0.20977784457E+04 0.  0.
        1    1    3    3  502    0  0.19570626627E+02 -0.93077655911E+03  0.99786538272E+03  0.13647209731E+04  0.50400001928E-02 0.  1.
       -1    1    3    3    0  502 -0.19570626627E+02  0.93077655911E+03 -0.60525170895E+02  0.93294764523E+03  0.50400001928E-02 0. -1.
</event>
<event>
 5   0  0.6283269E-06  0.2094547E+04  0.7818609E-02  0.8563649E-01
       -1   -1    0    0    0  501  0.00000000000E+00  0.00000000000E+00  0.75280724194E+03  0.75280724196E+03  0.50400001928E-02 0. -1.
        1   -1    0    0  501    0  0.00000000000E+00  0.00000000000E+00 -0.14569225254E+04  0.14569225254E+04  0.50400001928E-02 0.  1.
    10030    2    1    2    0    0  0.00000000000E+00  0.00000000000E+00 -0.70411528342E+03  0.22097297673E+04  0.20945470423E+04 0.  0.
        1    1    3    3  502    0 -0.50165872371E+03 -0.90982114333E+03 -0.49100385547E+03  0.11491391448E+04  0.50400001928E-02 0. -1.
       -1    1    3    3    0  502  0.50165872371E+03  0.90982114333E+03 -0.21311142795E+03  0.10605906226E+04  0.50400001928E-02 0.  1.
</event>
<event>
 5   0  0.1344501E-05  0.2099200E+04  0.7818609E-02  0.8561596E-01
        2   -1    0    0  501    0  0.00000000000E+00  0.00000000000E+00  0.71206942350E+03  0.71206942350E+03  0.25500000920E-02 0. -1.
       -2   -1    0    0    0  501  0.00000000000E+00  0.00000000000E+00 -0.15471248039E+04  0.15471248039E+04  0.25500000920E-02 0.  1.
    10030    2    1    2    0    0  0.00000000000E+00  0.00000000000E+00 -0.83505538035E+03  0.22591942274E+04  0.20992001021E+04 0.  0.
        3    1    3    3  502    0  0.20747164742E+03  0.39000892310E+03  0.60714637926E+03  0.75085163689E+03  0.10100000352E+00 0. -1.
       -3    1    3    3    0  502 -0.20747164742E+03 -0.39000892310E+03 -0.14422017596E+04  0.15083425905E+04  0.10100000352E+00 0.  1.
</event>
<event>
 5   0  0.6238363E-06  0.2100098E+04  0.7818609E-02  0.8561200E-01
       -1   -1    0    0    0  501  0.00000000000E+00  0.00000000000E+00  0.49186481354E+03  0.49186481356E+03  0.50400001928E-02 0.  1.
        1   -1    0    0  501    0  0.00000000000E+00  0.00000000000E+00 -0.22416789737E+04  0.22416789738E+04  0.50400001928E-02 0. -1.
    10030    2    1    2    0    0  0.00000000000E+00  0.00000000000E+00 -0.17498141602E+04  0.27335437873E+04  0.21000981029E+04 0.  0.
        4    1    3    3  502    0 -0.97684303498E+03  0.22225831491E+03 -0.46540049669E+03  0.11046358263E+04  0.12699999809E+01 0.  1.
       -4    1    3    3    0  502  0.97684303498E+03 -0.22225831491E+03 -0.12844136635E+04  0.16289079610E+04  0.12699999809E+01 0. -1.
</event>
<event>
 5   0  0.6283269E-06  0.2098996E+04  0.7818609E-02  0.8561686E-01
       -1   -1    0    0    0  501  0.00000000000E+00  0.00000000000E+00  0.12327770230E+04  0.12327770230E+04  0.50400001928E-02 0. -1.
        1   -1    0    0  501    0  0.00000000000E+00  0.00000000000E+00 -0.89346753157E+03  0.89346753159E+03  0.50400001928E-02 0.  1.
    10030    2    1    2    0    0  0.00000000000E+00  0.00000000000E+00  0.33930949142E+03  0.21262445546E+04  0.20989961827E+04 0.  0.
        1    1    3    3  502    0 -0.24619716897E+01 -0.99319697771E+03 -0.17386395430E+03  0.10083030162E+04  0.50400001928E-02 0. -1.
       -1    1    3    3    0  502  0.24619716897E+01  0.99319697771E+03  0.51317344572E+03  0.11179415384E+04  0.50400001928E-02 0.  1.
</event>
<event>
 5   0  0.6283269E-06  0.2099921E+04  0.7818609E-02  0.8561278E-01
       -1   -1    0    0    0  501  0.00000000000E+00  0.00000000000E+00  0.11459997777E+04  0.11459997777E+04  0.50400001928E-02 0.  1.
        1   -1    0    0  501    0  0.00000000000E+00  0.00000000000E+00 -0.96196972883E+03  0.96196972884E+03  0.50400001928E-02 0. -1.
    10030    2    1    2    0    0  0.00000000000E+00  0.00000000000E+00  0.18403004887E+03  0.21079695066E+04  0.20999210418E+04 0.  0.
        1    1    3    3  502    0 -0.38839059421E+03  0.59403323549E+03  0.86873404629E+03  0.11217939123E+04  0.50400001928E-02 0.  1.
       -1    1    3    3    0  502  0.38839059421E+03 -0.59403323549E+03 -0.68470399742E+03  0.98617559422E+03  0.50400001928E-02 0. -1.
</event>
<event>
 5   0  0.6589193E-06  0.2096600E+04  0.7818609E-02  0.8562743E-01
       -1   -1    0    0    0  501  0.00000000000E+00  0.00000000000E+00  0.74620261134E+03  0.74620261135E+03  0.50400001928E-02 0.  1.
        1   -1    0    0  501    0  0.00000000000E+00  0.00000000000E+00 -0.14727003179E+04  0.14727003179E+04  0.50400001928E-02 0. -1.
    10030    2    1    2    0    0  0.00000000000E+00  0.00000000000E+00 -0.72649770656E+03  0.22189029293E+04  0.20965999360E+04 0.  0.
        3    1    3    3  502    0 -0.41723121450E+03 -0.82671612433E+02 -0.13772721640E+04  0.14414558979E+04  0.10100000352E+00 0. -1.
       -3    1    3    3    0  502  0.41723121450E+03  0.82671612433E+02  0.65077445742E+03  0.77744703131E+03  0.10100000352E+00 0.  1.
</event>
<event>
 5   0  0.1390735E-05  0.2095347E+04  0.7818609E-02  0.8563296E-01
        2   -1    0    0  501    0  0.00000000000E+00  0.00000000000E+00  0.10850493830E+04  0.10850493830E+04  0.25500000920E-02 0.  1.
       -2   -1    0    0    0  501  0.00000000000E+00  0.00000000000E+00 -0.10115851954E+04  0.10115851954E+04  0.25500000920E-02 0. -1.
    10030    2    1    2    0    0  0.00000000000E+00  0.00000000000E+00  0.73464187683E+02  0.20966345784E+04  0.20953471236E+04 0.  0.
        5    1    3    3  502    0 -0.61816037764E+03 -0.95478566089E+01 -0.80959158695E+03  0.10186628695E+04  0.46999998093E+01 0. -1.
       -5    1    3    3    0  502  0.61816037764E+03  0.95478566089E+01  0.88305577464E+03  0.10779717089E+04  0.46999998093E+01 0.  1.
</event>
<event>
 5   0  0.6238363E-06  0.2099313E+04  0.7818609E-02  0.8561546E-01
        1   -1    0    0  501    0  0.00000000000E+00  0.00000000000E+00  0.11428337565E+04  0.11428337565E+04  0.50400001928E-02 0. -1.
       -1   -1    0    0    0  501  0.00000000000E+00  0.00000000000E+00 -0.96407600114E+03  0.96407600116E+03  0.50400001928E-02 0.  1.
    10030    2    1    2    0    0  0.00000000000E+00  0.00000000000E+00  0.17875775532E+03  0.21069097576E+04  0.20993128380E+04 0.  0.
        4    1    3    3  502    0  0.53997378253E+03 -0.20297388643E+03  0.96948266785E+03  0.11281260304E+04  0.12699999809E+01 0. -1.
       -4    1    3    3    0  502 -0.53997378253E+03  0.20297388643E+03 -0.79072491254E+03  0.97878372719E+03  0.12699999809E+01 0.  1.
</event>
<event>
 5   0  0.6283269E-06  0.2102518E+04  0.7818609E-02  0.8560135E-01
       -1   -1    0    0    0  501  0.00000000000E+00  0.00000000000E+00  0.85731395303E+03  0.85731395305E+03  0.50400001928E-02 0.  1.
        1   -1    0    0  501    0  0.00000000000E+00  0.00000000000E+00 -0.12890787210E+04  0.12890787210E+04  0.50400001928E-02 0. -1.
    10030    2    1    2    0    0  0.00000000000E+00  0.00000000000E+00 -0.43176476797E+03  0.21463926741E+04  0.21025177042E+04 0.  0.
        1    1    3    3  502    0 -0.28826989672E+03 -0.76213370459E+03  0.46220585689E+03  0.93679323823E+03  0.50400001928E-02 0.  1.
       -1    1    3    3    0  502  0.28826989672E+03  0.76213370459E+03 -0.89397062486E+03  0.12095994358E+04  0.50400001928E-02 0. -1.
</event>
<event>
 5   0  0.6283269E-06  0.2109767E+04  0.7818609E-02  0.8556953E-01
       -1   -1    0    0    0  501  0.00000000000E+00  0.00000000000E+00  0.11919216642E+04  0.11919216642E+04  0.50400001928E-02 0.  1.
        1   -1    0    0  501    0  0.00000000000E+00  0.00000000000E+00 -0.93360091543E+03  0.93360091545E+03  0.50400001928E-02 0. -1.
    10030    2    1    2    0    0  0.00000000000E+00  0.00000000000E+00  0.25832074878E+03  0.21255225797E+04  0.21097669605E+04 0.  0.
        1    1    3    3  502    0  0.58664438579E+03  0.44579100015E+03 -0.63139312076E+03  0.97032908035E+03  0.50400001928E-02 0. -1.
       -1    1    3    3    0  502 -0.58664438579E+03 -0.44579100015E+03  0.88971386955E+03  0.11551934993E+04  0.50400001928E-02 0.  1.
</event>
<event>
 5   0  0.1390735E-05  0.2099897E+04  0.7818609E-02  0.8561289E-01
       -2   -1    0    0    0  501  0.00000000000E+00  0.00000000000E+00  0.57617183505E+03  0.57617183505E+03  0.25500000920E-02 0.  1.
        2   -1    0    0  501    0  0.00000000000E+00  0.00000000000E+00 -0.19133032128E+04  0.19133032128E+04  0.25500000920E-02 0. -1.
    10030    2    1    2    0    0  0.00000000000E+00  0.00000000000E+00 -0.13371313777E+04  0.24894750479E+04  0.20998965909E+04 0.  0.
        5    1    3    3  502    0  0.13687886613E+03  0.14650746383E+03 -0.18903841842E+04  0.19009930865E+04  0.46999998093E+01 0. -1.
       -5    1    3    3    0  502 -0.13687886613E+03 -0.14650746383E+03  0.55325280648E+03  0.58848196135E+03  0.46999998093E+01 0.  1.
</event>
<event>
 5   0  0.1441136E-05  0.2097885E+04  0.7818609E-02  0.8562176E-01
        2   -1    0    0  501    0  0.00000000000E+00  0.00000000000E+00  0.16169948340E+04  0.16169948340E+04  0.25500000920E-02 0.  1.
       -2   -1    0    0    0  501  0.00000000000E+00  0.00000000000E+00 -0.68044759970E+03  0.68044759970E+03  0.25500000920E-02 0. -1.
    10030    2    1    2    0    0  0.00000000000E+00  0.00000000000E+00  0.93654723428E+03  0.22974424337E+04  0.20978848906E+04 0.  0.
        4    1    3    3  502    0  0.14734089349E+02 -0.92214607592E+03 -0.78968295391E+02  0.92563928358E+03  0.12699999809E+01 0. -1.
       -4    1    3    3    0  502 -0.14734089349E+02  0.92214607592E+03  0.10155155297E+04  0.13718031501E+04  0.12699999809E+01 0.  1.
</event>
<event>
 5   0  0.6917078E-06  0.2098932E+04  0.7818609E-02  0.8561714E-01
        1   -1    0    0  501    0  0.00000000000E+00  0.00000000000E+00  0.10353159172E+04  0.10353159172E+04  0.50400001928E-02 0.  1.
       -1   -1    0    0    0  501  0.00000000000E+00  0.00000000000E+00 -0.10638091198E+04  0.10638091198E+04  0.50400001928E-02 0. -1.
    10030    2    1    2    0    0  0.00000000000E+00  0.00000000000E+00 -0.28493202566E+02  0.20991250370E+04  0.20989316469E+04 0.  0.
        5    1    3    3  502    0 -0.94498951899E+03 -0.43444863116E+03 -0.15427957391E+03  0.10514633047E+04  0.46999998093E+01 0. -1.
       -5    1    3    3    0  502  0.94498951899E+03  0.43444863116E+03  0.12578637135E+03  0.10476617323E+04  0.46999998093E+01 0.  1.
</event>
<event>
 5   0  0.1441136E-05  0.2054361E+04  0.7818609E-02  0.8581619E-01
        2   -1    0    0  501    0  0.00000000000E+00  0.00000000000E+00  0.11506594927E+04  0.11506594927E+04  0.25500000920E-02 0. -1.
       -2   -1    0    0    0  501  0.00000000000E+00  0.00000000000E+00 -0.91695195614E+03  0.91695195614E+03  0.25500000920E-02 0.  1.
    10030    2    1    2    0    0  0.00000000000E+00  0.00000000000E+00  0.23370753659E+03  0.20676114489E+04  0.20543607013E+04 0.  0.
        4    1    3    3  502    0  0.25381249840E+03 -0.43526329528E+02 -0.88393546124E+03  0.92068389702E+03  0.12699999809E+01 0.  1.
       -4    1    3    3    0  502 -0.25381249840E+03  0.43526329528E+02  0.11176429978E+04  0.11469275519E+04  0.12699999809E+01 0. -1.
</event>
<event>
 5   0  0.6589193E-06  0.2100603E+04  0.7818609E-02  0.8560978E-01
       -1   -1    0    0    0  501  0.00000000000E+00  0.00000000000E+00  0.44836414391E+03  0.44836414394E+03  0.50400001928E-02 0. -1.
        1   -1    0    0  501    0  0.00000000000E+00  0.00000000000E+00 -0.24603519980E+04  0.24603519980E+04  0.50400001928E-02 0.  1.
    10030    2    1    2    0    0  0.00000000000E+00  0.00000000000E+00 -0.20119878541E+04  0.29087161420E+04  0.21006033584E+04 0.  0.
        3    1    3    3  502    0 -0.81939154377E+03  0.35385521315E+03 -0.17726224775E+04  0.19846426559E+04  0.10100000352E+00 0.  1.
       -3    1    3    3    0  502  0.81939154377E+03 -0.35385521315E+03 -0.23936537663E+03  0.92407348604E+03  0.10100000352E+00 0. -1.
</event>
<event>
 5   0  0.1398469E-05  0.2117071E+04  0.7818609E-02  0.8553760E-01
        2   -1    0    0  501    0  0.00000000000E+00  0.00000000000E+00  0.89311029147E+03  0.89311029147E+03  0.25500000920E-02 0.  1.
       -2   -1    0    0    0  501  0.00000000000E+00  0.00000000000E+00 -0.12546018737E+04  0.12546018737E+04  0.25500000920E-02 0. -1.
    10030    2    1    2    0    0  0.00000000000E+00  0.00000000000E+00 -0.36149158218E+03  0.21477121651E+04  0.21170714160E+04 0.  0.
        2    1    3    3  502    0 -0.39851337129E+03 -0.42374694348E+02  0.81317356680E+03  0.90656481929E+03  0.25500000920E-02 0.  1.
       -2    1    3    3    0  502  0.39851337129E+03  0.42374694348E+02 -0.11746651490E+04  0.12411473458E+04  0.25500000920E-02 0. -1.
</event>
<event>
 5   0  0.1395356E-05  0.2097079E+04  0.7818609E-02  0.8562531E-01
        2   -1    0    0  501    0  0.00000000000E+00  0.00000000000E+00  0.16183210921E+04  0.16183210921E+04  0.25500000920E-02 0.  1.
       -2   -1    0    0    0  501  0.00000000000E+00  0.00000000000E+00 -0.67936801629E+03  0.67936801630E+03  0.25500000920E-02 0. -1.
    10030    2    1    2    0    0  0.00000000000E+00  0.00000000000E+00  0.93895307581E+03  0.22976891084E+04  0.20970794835E+04 0.  0.
        1    1    3    3  502    0 -0.36096353203E+03 -0.75445565195E+03  0.11623796080E+04  0.14320001241E+04  0.50400001928E-02 0.  1.
       -1    1    3    3    0  502  0.36096353203E+03  0.75445565195E+03 -0.22342653223E+03  0.86568898430E+03  0.50400001928E-02 0. -1.
</event>
<event>
 5   0  0.6238363E-06  0.2098579E+04  0.7818609E-02  0.8561869E-01
       -1   -1    0    0    0  501  0.00000000000E+00  0.00000000000E+00  0.74324050397E+03  0.74324050398E+03  0.50400001928E-02 0.  1.
        1   -1    0    0  501    0  0.00000000000E+00  0.00000000000E+00 -0.14813625909E+04  0.14813625909E+04  0.50400001928E-02 0. -1.
    10030    2    1    2    0    0  0.00000000000E+00  0.00000000000E+00 -0.73812208691E+03  0.22246030949E+04  0.20985792133E+04 0.  0.
        4    1    3    3  502    0 -0.89843419866E+03  0.15573118620E+03 -0.91944230272E+03  0.12949177474E+04  0.12699999809E+01 0. -1.
       -4    1    3    3    0  502  0.89843419866E+03 -0.15573118620E+03  0.18132021581E+03  0.92968534744E+03  0.12699999809E+01 0.  1.
</event>
<event>
 5   0  0.1395356E-05  0.2098731E+04  0.7818609E-02  0.8561803E-01
        2   -1    0    0  501    0  0.00000000000E+00  0.00000000000E+00  0.12063846795E+04  0.12063846795E+04  0.25500000920E-02 0. -1.
       -2   -1    0    0    0  501  0.00000000000E+00  0.00000000000E+00 -0.91278355087E+03  0.91278355087E+03  0.25500000920E-02 0.  1.
    10030    2    1    2    0    0  0.00000000000E+00  0.00000000000E+00  0.29360112862E+03  0.21191682304E+04  0.20987311323E+04 0.  0.
        1    1    3    3  502    0  0.56164587957E+03 -0.21049286477E+03 -0.72263868353E+03  0.93912725821E+03  0.50400001928E-02 0.  1.
       -1    1    3    3    0  502 -0.56164587957E+03  0.21049286477E+03  0.10162398121E+04  0.11800409722E+04  0.50400001928E-02 0. -1.
</event>
<event>
 5   0  0.5009125E-06  0.2100228E+04  0.7818609E-02  0.8561143E-01
        4   -1    0    0  501    0  0.00000000000E+00  0.00000000000E+00  0.14721808346E+04  0.14721813824E+04  0.12699999809E+01 0. -1.
       -4   -1    0    0    0  501  0.00000000000E+00  0.00000000000E+00 -0.74905068692E+03  0.74905176355E+03  0.12699999809E+01 0.  1.
    10030    2    1    2    0    0  0.00000000000E+00  0.00000000000E+00  0.72313014766E+03  0.22212331459E+04  0.21002284347E+04 0.  0.
        5    1    3    3  502    0 -0.53517796030E+03  0.21702368893E+03 -0.56600795036E+03  0.80864196071E+03  0.46999998093E+01 0.  1.
       -5    1    3    3    0  502  0.53517796030E+03 -0.21702368893E+03  0.12891380980E+04  0.14125911852E+04  0.46999998093E+01 0. -1.
</event>
<event>
 5   0  0.1441136E-05  0.2101114E+04  0.7818609E-02  0.8560753E-01
       -2   -1    0    0    0  501  0.00000000000E+00  0.00000000000E+00  0.13835960600E+04  0.13835960600E+04  0.25500000920E-02 0.  1.
        2   -1    0    0  501    0  0.00000000000E+00  0.00000000000E+00 -0.79768254919E+03  0.79768254919E+03  0.25500000920E-02 0. -1.
    10030    2    1    2    0    0  0.00000000000E+00  0.00000000000E+00  0.58591351082E+03  0.21812786092E+04  0.21011144016E+04 0.  0.
        4    1    3    3  502    0 -0.78665241029E+03  0.54594424517E+02  0.10136072634E+04  0.12842133247E+04  0.12699999809E+01 0.  1.
       -4    1    3    3    0  502  0.78665241029E+03 -0.54594424517E+02 -0.42769375263E+03  0.89706528455E+03  0.12699999809E+01 0. -1.
</event>
<event>
 5   0  0.1344501E-05  0.2099675E+04  0.7818609E-02  0.8561386E-01
        2   -1    0    0  501    0  0.00000000000E+00  0.00000000000E+00  0.97665182274E+03  0.97665182274E+03  0.25500000920E-02 0. -1.
       -2   -1    0    0    0  501  0.00000000000E+00  0.00000000000E+00 -0.11285077295E+04  0.11285077295E+04  0.25500000920E-02 0.  1.
    10030    2    1    2    0    0  0.00000000000E+00  0.00000000000E+00 -0.15185590680E+03  0.21051595523E+04  0.20996753378E+04 0.  0.
        3    1    3    3  502    0  0.32198579012E+03 -0.44797951056E+03 -0.97145666216E+03  0.11171788342E+04  0.10100000352E+00 0.  1.
       -3    1    3    3    0  502 -0.32198579012E+03  0.44797951056E+03  0.81960075536E+03  0.98798071809E+03  0.10100000352E+00 0. -1.
</event>
<event>
 5   0  0.6599245E-06  0.2097724E+04  0.7818609E-02  0.8562247E-01
       -1   -1    0    0    0  501  0.00000000000E+00  0.00000000000E+00  0.11247925703E+04  0.11247925703E+04  0.50400001928E-02 0. -1.
        1   -1    0    0  501    0  0.00000000000E+00  0.00000000000E+00 -0.97805689328E+03  0.97805689329E+03  0.50400001928E-02 0.  1.
    10030    2    1    2    0    0  0.00000000000E+00  0.00000000000E+00  0.14673567703E+03  0.21028494636E+04  0.20977236490E+04 0.  0.
        2    1    3    3  502    0 -0.30161637831E+03  0.99827070139E+03 -0.39130685172E+02  0.10435746468E+04  0.25500000920E-02 0.  1.
       -2    1    3    3    0  502  0.30161637831E+03 -0.99827070139E+03  0.18586636221E+03  0.10592748168E+04  0.25500000920E-02 0. -1.
</event>
<event>
 5   0  0.6238363E-06  0.2099275E+04  0.7818609E-02  0.8561563E-01
       -1   -1    0    0    0  501  0.00000000000E+00  0.00000000000E+00  0.69562099716E+03  0.69562099718E+03  0.50400001928E-02 0.  1.
        1   -1    0    0  501    0  0.00000000000E+00  0.00000000000E+00 -0.15838209524E+04  0.15838209524E+04  0.50400001928E-02 0. -1.
    10030    2    1    2    0    0  0.00000000000E+00  0.00000000000E+00 -0.88819995525E+03  0.22794419496E+04  0.20992752180E+04 0.  0.
        4    1    3    3  502    0  0.10720043098E+03 -0.20374326327E+03 -0.15560669368E+04  0.15730064128E+04  0.12699999809E+01 0. -1.
       -4    1    3    3    0  502 -0.10720043098E+03  0.20374326327E+03  0.66786698159E+03  0.70643553685E+03  0.12699999809E+01 0.  1.
</event>
<event>
 5   0  0.6589193E-06  0.2099586E+04  0.7818609E-02  0.8561426E-01
        1   -1    0    0  501    0  0.00000000000E+00  0.00000000000E+00  0.14395476303E+04  0.14395476303E+04  0.50400001928E-02 0. -1.
       -1   -1    0    0    0  501  0.00000000000E+00  0.00000000000E+00 -0.76556352512E+03  0.76556352514E+03  0.50400001928E-02 0.  1.
    10030    2    1    2    0    0  0.00000000000E+00  0.00000000000E+00  0.67398410517E+03  0.22051111554E+04  0.20995858243E+04 0.  0.
        3    1    3    3  502    0 -0.56089131415E+03  0.41639722248E+03  0.11600096689E+04  0.13541078817E+04  0.10100000352E+00 0. -1.
       -3    1    3    3    0  502  0.56089131415E+03 -0.41639722248E+03 -0.48602556369E+03  0.85100327375E+03  0.10100000352E+00 0.  1.
</event>
<event>
 5   0  0.6589193E-06  0.2091377E+04  0.7818609E-02  0.8565051E-01
       -1   -1    0    0    0  501  0.00000000000E+00  0.00000000000E+00  0.56904723736E+03  0.56904723738E+03  0.50400001928E-02 0. -1.
        1   -1    0    0  501    0  0.00000000000E+00  0.00000000000E+00 -0.19215714148E+04  0.19215714148E+04  0.50400001928E-02 0.  1.
    10030    2    1    2    0    0  0.00000000000E+00  0.00000000000E+00 -0.13525241775E+04  0.24906186522E+04  0.20913774456E+04 0.  0.
        3    1    3    3  502    0 -0.26634317165E+03 -0.85642195554E+03 -0.35975275783E+02  0.89760318721E+03  0.10100000352E+00 0.  1.
       -3    1    3    3    0  502  0.26634317165E+03  0.85642195554E+03 -0.13165489017E+04  0.15930154650E+04  0.10100000352E+00 0. -1.
</event>
<event>
 5   0  0.1395356E-05  0.2082729E+04  0.7818609E-02  0.8568890E-01
        2   -1    0    0  501    0  0.00000000000E+00  0.00000000000E+00  0.12089094573E+04  0.12089094573E+04  0.25500000920E-02 0.  1.
       -2   -1    0    0    0  501  0.00000000000E+00  0.00000000000E+00 -0.89704015623E+03  0.89704015623E+03  0.25500000920E-02 0. -1.
    10030    2    1    2    0    0  0.00000000000E+00  0.00000000000E+00  0.31186930105E+03  0.21059496135E+04  0.20827292944E+04 0.  0.
        1    1    3    3  502    0  0.33370003642E+03 -0.51926832923E+03  0.10040017772E+04  0.11785647546E+04  0.50400001928E-02 0.  1.
       -1    1    3    3    0  502 -0.33370003642E+03  0.51926832923E+03 -0.69213247614E+03  0.92738485895E+03  0.50400001928E-02 0. -1.
</event>
<event>
 5   0  0.1390735E-05  0.2104128E+04  0.7818609E-02  0.8559427E-01
       -2   -1    0    0    0  501  0.00000000000E+00  0.00000000000E+00  0.94525223880E+03  0.94525223880E+03  0.25500000920E-02 0.  1.
        2   -1    0    0  501    0  0.00000000000E+00  0.00000000000E+00 -0.11709458447E+04  0.11709458447E+04  0.25500000920E-02 0. -1.
    10030    2    1    2    0    0  0.00000000000E+00  0.00000000000E+00 -0.22569360595E+03  0.21161980835E+04  0.21041284954E+04 0.  0.
        5    1    3    3  502    0 -0.84920936749E+02 -0.48022920810E+03 -0.10503878850E+04  0.11580882768E+04  0.46999998093E+01 0. -1.
       -5    1    3    3    0  502  0.84920936749E+02  0.48022920810E+03  0.82469427910E+03  0.95810980675E+03  0.46999998093E+01 0.  1.
</event>
<event>
 5   0  0.1398469E-05  0.2094640E+04  0.7818609E-02  0.8563608E-01
       -2   -1    0    0    0  501  0.00000000000E+00  0.00000000000E+00  0.80041529190E+03  0.80041529191E+03  0.25500000920E-02 0. -1.
        2   -1    0    0  501    0  0.00000000000E+00  0.00000000000E+00 -0.13703870594E+04  0.13703870594E+04  0.25500000920E-02 0.  1.
    10030    2    1    2    0    0  0.00000000000E+00  0.00000000000E+00 -0.56997176750E+03  0.21708023513E+04  0.20946395950E+04 0.  0.
        2    1    3    3  502    0  0.29517934339E+03  0.84878449783E+03 -0.84242159934E+03  0.12317630127E+04  0.25500000920E-02 0.  1.
       -2    1    3    3    0  502 -0.29517934339E+03 -0.84878449783E+03  0.27244983184E+03  0.93903933858E+03  0.25500000920E-02 0. -1.
</event>
<event>
 5   0  0.6283269E-06  0.2100712E+04  0.7818609E-02  0.8560930E-01
        1   -1    0    0  501    0  0.00000000000E+00  0.00000000000E+00  0.24552605690E+04  0.24552605690E+04  0.50400001928E-02 0.  1.
       -1   -1    0    0    0  501  0.00000000000E+00  0.00000000000E+00 -0.44934032746E+03  0.44934032749E+03  0.50400001928E-02 0. -1.
    10030    2    1    2    0    0  0.00000000000E+00  0.00000000000E+00  0.20059202415E+04  0.29046008964E+04  0.21007118680E+04 0.  0.
        1    1    3    3  502    0  0.63458084868E+03 -0.60527737860E+03  0.18022776209E+04  0.20043099015E+04  0.50400001928E-02 0.  1.
       -1    1    3    3    0  502 -0.63458084868E+03  0.60527737860E+03  0.20364262058E+03  0.90029099490E+03  0.50400001928E-02 0. -1.
</event>
<event>
 5   0  0.1398469E-05  0.2106041E+04  0.7818609E-02  0.8558587E-01
       -2   -1    0    0    0  501  0.00000000000E+00  0.00000000000E+00  0.10475726605E+04  0.10475726605E+04  0.25500000920E-02 0. -1.
        2   -1    0    0  501    0  0.00000000000E+00  0.00000000000E+00 -0.10584964830E+04  0.10584964830E+04  0.25500000920E-02 0.  1.
    10030    2    1    2    0    0  0.00000000000E+00  0.00000000000E+00 -0.10923822561E+02  0.21060691435E+04  0.21060408133E+04 0.  0.
        2    1    3    3  502    0 -0.26392222855E+03  0.10072399470E+04  0.15159026744E+03  0.10522199688E+04  0.25500000920E-02 0. -1.
       -2    1    3    3    0  502  0.26392222855E+03 -0.10072399470E+04 -0.16251409000E+03  0.10538491747E+04  0.25500000920E-02 0.  1.
</event>
<event>
 5   0  0.6283269E-06  0.2100133E+04  0.7818609E-02  0.8561185E-01
        1   -1    0    0  501    0  0.00000000000E+00  0.00000000000E+00  0.12169505475E+04  0.12169505475E+04  0.50400001928E-02 0.  1.
       -1   -1    0    0    0  501  0.00000000000E+00  0.00000000000E+00 -0.90606761478E+03  0.90606761480E+03  0.50400001928E-02 0. -1.
    10030    2    1    2    0    0  0.00000000000E+00  0.00000000000E+00  0.31088293268E+03  0.21230181623E+04  0.21001328338E+04 0.  0.
        1    1    3    3  502    0 -0.50113612159E+03  0.84308586910E+03 -0.22375718087E+03  0.10059813473E+04  0.50400001928E-02 0. -1.
       -1    1    3    3    0  502  0.50113612159E+03 -0.84308586910E+03  0.53464011355E+03  0.11170368150E+04  0.50400001928E-02 0.  1.
</event>
<event>
 5   0  0.6917078E-06  0.2100568E+04  0.7818609E-02  0.8560993E-01
       -1   -1    0    0    0  501  0.00000000000E+00  0.00000000000E+00  0.15510442027E+04  0.15510442027E+04  0.50400001928E-02 0.  1.
        1   -1    0    0  501    0  0.00000000000E+00  0.00000000000E+00 -0.71119610668E+03  0.71119610670E+03  0.50400001928E-02 0. -1.
    10030    2    1    2    0    0  0.00000000000E+00  0.00000000000E+00  0.83984809599E+03  0.22622403094E+04  0.21005681120E+04 0.  0.
        5    1    3    3  502    0 -0.27730814732E+03  0.24718819173E+03 -0.63806697536E+03  0.73834501809E+03  0.46999998093E+01 0. -1.
       -5    1    3    3    0  502  0.27730814732E+03 -0.24718819173E+03  0.14779150713E+04  0.15238952913E+04  0.46999998093E+01 0.  1.
</event>
<event>
 5   0  0.1441136E-05  0.2101604E+04  0.7818609E-02  0.8560537E-01
       -2   -1    0    0    0  501  0.00000000000E+00  0.00000000000E+00  0.85577256642E+03  0.85577256642E+03  0.25500000920E-02 0.  1.
        2   -1    0    0  501    0  0.00000000000E+00  0.00000000000E+00 -0.12902781881E+04  0.12902781881E+04  0.25500000920E-02 0. -1.
    10030    2    1    2    0    0  0.00000000000E+00  0.00000000000E+00 -0.43450562170E+03  0.21460507545E+04  0.21016038413E+04 0.  0.
        4    1    3    3  502    0  0.59515375522E+03 -0.17891486915E+02  0.66688476083E+03  0.89401621617E+03  0.12699999809E+01 0.  1.
       -4    1    3    3    0  502 -0.59515375522E+03  0.17891486915E+02 -0.11013903825E+04  0.12520345384E+04  0.12699999809E+01 0. -1.
</event>
<event>
 5   0  0.6283269E-06  0.2092867E+04  0.7818609E-02  0.8564392E-01
       -1   -1    0    0    0  501  0.00000000000E+00  0.00000000000E+00  0.69425284626E+03  0.69425284628E+03  0.50400001928E-02 0. -1.
        1   -1    0    0  501    0  0.00000000000E+00  0.00000000000E+00 -0.15772679103E+04  0.15772679103E+04  0.50400001928E-02 0.  1.
    10030    2    1    2    0    0  0.00000000000E+00  0.00000000000E+00 -0.88301506404E+03  0.22715207566E+04  0.20928666810E+04 0.  0.
        1    1    3    3  502    0 -0.80850159508E+03 -0.72038758904E+02  0.27529119992E+03  0.85711706132E+03  0.50400001928E-02 0. -1.
       -1    1    3    3    0  502  0.80850159508E+03  0.72038758904E+02 -0.11583062640E+04  0.14144036953E+04  0.50400001928E-02 0.  1.
</event>
<event>
 5   0  0.5009125E-06  0.2102520E+04  0.7818609E-02  0.8560134E-01
        3   -1    0    0  501    0  0.00000000000E+00  0.00000000000E+00  0.13208078490E+04  0.13208078529E+04  0.10100000352E+00 0.  1.
       -3   -1    0    0    0  501  0.00000000000E+00  0.00000000000E+00 -0.83672086824E+03  0.83672087434E+03  0.10100000352E+00 0. -1.
    10030    2    1    2    0    0  0.00000000000E+00  0.00000000000E+00  0.48408698076E+03  0.21575287272E+04  0.21025199176E+04 0.  0.
        2    1    3    3  502    0  0.52051005890E+03  0.87054920055E+03 -0.41521035425E+02  0.10151406939E+04  0.25500000920E-02 0.  1.
       -2    1    3    3    0  502 -0.52051005890E+03 -0.87054920055E+03  0.52560801619E+03  0.11423880333E+04  0.25500000920E-02 0. -1.
</event>
<event>
 5   0  0.6283269E-06  0.2105920E+04  0.7818609E-02  0.8558640E-01
        1   -1    0    0  501    0  0.00000000000E+00  0.00000000000E+00  0.86402740160E+03  0.86402740161E+03  0.50400001928E-02 0. -1.
       -1   -1    0    0    0  501  0.00000000000E+00  0.00000000000E+00 -0.12832050087E+04  0.12832050087E+04  0.50400001928E-02 0.  1.
    10030    2    1    2    0    0  0.00000000000E+00  0.00000000000E+00 -0.41917760706E+03  0.21472324103E+04  0.21059195515E+04 0.  0.
        1    1    3    3  502    0  0.24719833359E+03 -0.21388209611E+03 -0.12301600692E+04  0.12728497017E+04  0.50400001928E-02 0.  1.
       -1    1    3    3    0  502 -0.24719833359E+03  0.21388209611E+03  0.81098246215E+03  0.87438270860E+03  0.50400001928E-02 0. -1.
</event>
<event>
 5   0  0.6599245E-06  0.2094275E+04  0.7818609E-02  0.8563770E-01
       -1   -1    0    0    0  501  0.00000000000E+00  0.00000000000E+00  0.91777840440E+03  0.91777840442E+03  0.50400001928E-02 0. -1.
        1   -1    0    0  501    0  0.00000000000E+00  0.00000000000E+00 -0.11947291218E+04  0.11947291218E+04  0.50400001928E-02 0.  1.
    10030    2    1    2    0    0  0.00000000000E+00  0.00000000000E+00 -0.27695071737E+03  0.21125075262E+04  0.20942746593E+04 0.  0.
        2    1    3    3  502    0 -0.45657002405E+03  0.39018232551E+03 -0.10037300721E+04  0.11696890577E+04  0.25500000920E-02 0.  1.
       -2    1    3    3    0  502  0.45657002405E+03 -0.39018232551E+03  0.72677935477E+03  0.94281846849E+03  0.25500000920E-02 0. -1.
</event>
<event>
 5   0  0.6238363E-06  0.2099222E+04  0.7818609E-02  0.8561586E-01
       -1   -1    0    0    0  501  0.00000000000E+00  0.00000000000E+00  0.77832407396E+03  0.77832407398E+03  0.50400001928E-02 0.  1.
        1   -1    0    0  501    0  0.00000000000E+00  0.00000000000E+00 -0.14154552674E+04  0.14154552674E+04  0.50400001928E-02 0. -1.
    10030    2    1    2    0    0  0.00000000000E+00  0.00000000000E+00 -0.63713119346E+03  0.21937793414E+04  0.20992216751E+04 0.  0.
        4    1    3    3  502    0 -0.69644526976E+03 -0.44244741960E+03 -0.99654524267E+03  0.12937927834E+04  0.12699999809E+01 0. -1.
       -4    1    3    3    0  502  0.69644526976E+03  0.44244741960E+03  0.35941404921E+03  0.89998655798E+03  0.12699999809E+01 0.  1.
</event>
<event>
 5   0  0.6917078E-06  0.2099445E+04  0.7818609E-02  0.8561488E-01
       -1   -1    0    0    0  501  0.00000000000E+00  0.00000000000E+00  0.94775938345E+03  0.94775938347E+03  0.50400001928E-02 0.  1.
        1   -1    0    0  501    0  0.00000000000E+00  0.00000000000E+00 -0.11626546249E+04  0.11626546249E+04  0.50400001928E-02 0. -1.
    10030    2    1    2    0    0  0.00000000000E+00  0.00000000000E+00 -0.21489524144E+03  0.21104140084E+04  0.20994445270E+04 0.  0.
        5    1    3    3  502    0  0.32508303557E+03  0.98125375646E+02  0.89101311043E+03  0.95353763550E+03  0.46999998093E+01 0.  1.
       -5    1    3    3    0  502 -0.32508303557E+03 -0.98125375646E+02 -0.11059083519E+04  0.11568763729E+04  0.46999998093E+01 0. -1.
</event>
<event>
 5   0  0.1395356E-05  0.2101977E+04  0.7818609E-02  0.8560373E-01
        2   -1    0    0  501    0  0.00000000000E+00  0.00000000000E+00  0.25236562199E+04  0.25236562199E+04  0.25500000920E-02 0. -1.
       -2   -1    0    0    0  501  0.00000000000E+00  0.00000000000E+00 -0.43768926449E+03  0.43768926450E+03  0.25500000920E-02 0.  1.
    10030    2    1    2    0    0  0.00000000000E+00  0.00000000000E+00  0.20859669554E+04  0.29613454844E+04  0.21019773878E+04 0.  0.
        1    1    3    3  502    0  0.36187772106E+03  0.93637454439E+03  0.14813663567E+04  0.17894689310E+04  0.50400001928E-02 0. -1.
       -1    1    3    3    0  502 -0.36187772106E+03 -0.93637454439E+03  0.60460059879E+03  0.11718765534E+04  0.50400001928E-02 0.  1.
</event>
<event>
 5   0  0.6599245E-06  0.2105355E+04  0.7818609E-02  0.8558888E-01
        1   -1    0    0  501    0  0.00000000000E+00  0.00000000000E+00  0.13980131372E+04  0.13980131372E+04  0.50400001928E-02 0.  1.
       -1   -1    0    0    0  501  0.00000000000E+00  0.00000000000E+00 -0.79264591755E+03  0.79264591756E+03  0.50400001928E-02 0. -1.
    10030    2    1    2    0    0  0.00000000000E+00  0.00000000000E+00  0.60536721969E+03  0.21906590548E+04  0.21053545126E+04 0.  0.
        2    1    3    3  502    0 -0.75908158983E+03  0.71865357662E+03  0.17330081459E+03  0.10595758564E+04  0.25500000920E-02 0.  1.
       -2    1    3    3    0  502  0.75908158983E+03 -0.71865357662E+03  0.43206640509E+03  0.11310831984E+04  0.25500000920E-02 0. -1.
</event>
<event>
 5   0  0.1344501E-05  0.2098036E+04  0.7818609E-02  0.8562109E-01
        2   -1    0    0  501    0  0.00000000000E+00  0.00000000000E+00  0.10794419581E+04  0.10794419581E+04  0.25500000920E-02 0. -1.
       -2   -1    0    0    0  501  0.00000000000E+00  0.00000000000E+00 -0.10194514014E+04  0.10194514014E+04  0.25500000920E-02 0.  1.
    10030    2    1    2    0    0  0.00000000000E+00  0.00000000000E+00  0.59990556695E+02  0.20988933595E+04  0.20980358595E+04 0.  0.
        3    1    3    3  502    0  0.12819904582E+03  0.54260238952E+03  0.91894512095E+03  0.10748546385E+04  0.10100000352E+00 0. -1.
       -3    1    3    3    0  502 -0.12819904582E+03 -0.54260238952E+03 -0.85895456426E+03  0.10240387210E+04  0.10100000352E+00 0.  1.
</event>
<event>
 5   0  0.6238363E-06  0.2101491E+04  0.7818609E-02  0.8560587E-01
       -1   -1    0    0    0  501  0.00000000000E+00  0.00000000000E+00  0.67615919908E+03  0.67615919910E+03  0.50400001928E-02 0.  1.
        1   -1    0    0  501    0  0.00000000000E+00  0.00000000000E+00 -0.16328498974E+04  0.16328498974E+04  0.50400001928E-02 0. -1.
    10030    2    1    2    0    0  0.00000000000E+00  0.00000000000E+00 -0.95669069833E+03  0.23090090965E+04  0.21014913551E+04 0.  0.
        4    1    3    3  502    0  0.18217177821E+03  0.53328642318E+03  0.49606739285E+03  0.75077655602E+03  0.12699999809E+01 0.  1.
       -4    1    3    3    0  502 -0.18217177821E+03 -0.53328642318E+03 -0.14527580912E+04  0.15582325405E+04  0.12699999809E+01 0. -1.
</event>
<event>
 5   0  0.1395356E-05  0.2101869E+04  0.7818609E-02  0.8560421E-01
       -2   -1    0    0    0  501  0.00000000000E+00  0.00000000000E+00  0.75911347221E+03  0.75911347222E+03  0.25500000920E-02 0.  1.
        2   -1    0    0  501    0  0.00000000000E+00  0.00000000000E+00 -0.14549382528E+04  0.14549382528E+04  0.25500000920E-02 0. -1.
    10030    2    1    2    0    0  0.00000000000E+00  0.00000000000E+00 -0.69582478061E+03  0.22140517250E+04  0.21018689102E+04 0.  0.
        1    1    3    3  502    0 -0.22877006801E+03  0.85805273777E+03  0.24411033524E+03  0.92096693785E+03  0.50400001928E-02 0.  1.
       -1    1    3    3    0  502  0.22877006801E+03 -0.85805273777E+03 -0.93993511585E+03  0.12930847872E+04  0.50400001928E-02 0. -1.
</event>
<event>
 5   0  0.6589193E-06  0.2105535E+04  0.7818609E-02  0.8558809E-01
       -1   -1    0    0    0  501  0.00000000000E+00  0.00000000000E+00  0.89553210379E+03  0.89553210381E+03  0.50400001928E-02 0.  1.
        1   -1    0    0  501    0  0.00000000000E+00  0.00000000000E+00 -0.12376104879E+04  0.12376104879E+04  0.50400001928E-02 0. -1.
    10030    2    1    2    0    0  0.00000000000E+00  0.00000000000E+00 -0.34207838411E+03  0.21331425917E+04  0.21055354891E+04 0.  0.
        3    1    3    3  502    0  0.48797915631E+03 -0.93278753112E+03 -0.16072342046E+03  0.10649170218E+04  0.10100000352E+00 0.  1.
       -3    1    3    3    0  502 -0.48797915631E+03  0.93278753112E+03 -0.18135496366E+03  0.10682255699E+04  0.10100000352E+00 0. -1.
</event>
<event>
 5   0  0.1441136E-05  0.2094802E+04  0.7818609E-02  0.8563536E-01
        2   -1    0    0  501    0  0.00000000000E+00  0.00000000000E+00  0.16143922067E+04  0.16143922067E+04  0.25500000920E-02 0. -1.
       -2   -1    0    0    0  501  0.00000000000E+00  0.00000000000E+00 -0.67954324567E+03  0.67954324568E+03  0.25500000920E-02 0.  1.
    10030    2    1    2    0    0  0.00000000000E+00  0.00000000000E+00  0.93484896104E+03  0.22939354524E+04  0.20948024441E+04 0.  0.
        4    1    3    3  502    0 -0.34002640711E+03 -0.75255349888E+03 -0.23809793458E+03  0.85944573160E+03  0.12699999809E+01 0.  1.
       -4    1    3    3    0  502  0.34002640711E+03  0.75255349888E+03  0.11729468956E+04  0.14344897208E+04  0.12699999809E+01 0. -1.
</event>
<event>
 5   0  0.5009125E-06  0.2098288E+04  0.7818609E-02  0.8561998E-01
        3   -1    0    0  501    0  0.00000000000E+00  0.00000000000E+00  0.12792500654E+04  0.12792500693E+04  0.10100000352E+00 0.  1.
       -3   -1    0    0    0  501  0.00000000000E+00  0.00000000000E+00 -0.86042872619E+03  0.86042873212E+03  0.10100000352E+00 0. -1.
    10030    2    1    2    0    0  0.00000000000E+00  0.00000000000E+00  0.41882133917E+03  0.21396788015E+04  0.20982883642E+04 0.  0.
        5    1    3    3  502    0  0.27540895261E+03  0.97741667186E+03  0.47821624061E+03  0.11224554799E+04  0.46999998093E+01 0.  1.
       -5    1    3    3    0  502 -0.27540895261E+03 -0.97741667186E+03 -0.59394901446E+02  0.10172233216E+04  0.46999998093E+01 0. -1.
</event>
<event>
 5   0  0.1441136E-05  0.2101187E+04  0.7818609E-02  0.8560721E-01
        2   -1    0    0  501    0  0.00000000000E+00  0.00000000000E+00  0.98987046002E+03  0.98987046002E+03  0.25500000920E-02 0. -1.
       -2   -1    0    0    0  501  0.00000000000E+00  0.00000000000E+00 -0.11150417609E+04  0.11150417609E+04  0.25500000920E-02 0.  1.
    10030    2    1    2    0    0  0.00000000000E+00  0.00000000000E+00 -0.12517130088E+03  0.21049122209E+04  0.21011871890E+04 0.  0.
        4    1    3    3  502    0 -0.30142488376E+03  0.58684770904E+03  0.75648116716E+03  0.10037492532E+04  0.12699999809E+01 0. -1.
       -4    1    3    3    0  502  0.30142488376E+03 -0.58684770904E+03 -0.88165246804E+03  0.11011629677E+04  0.12699999809E+01 0.  1.
</event>
<event>
 5   0  0.1390735E-05  0.2100899E+04  0.7818609E-02  0.8560847E-01
       -2   -1    0    0    0  501  0.00000000000E+00  0.00000000000E+00  0.13925350104E+04  0.13925350104E+04  0.25500000920E-02 0. -1.
        2   -1    0    0  501    0  0.00000000000E+00  0.00000000000E+00 -0.79239992022E+03  0.79239992023E+03  0.25500000920E-02 0.  1.
    10030    2    1    2    0    0  0.00000000000E+00  0.00000000000E+00  0.60013509022E+03  0.21849349307E+04  0.21008994561E+04 0.  0.
        5    1    3    3  502    0 -0.18646007651E+03  0.84768708081E+03  0.91541159025E+03  0.12614837362E+04  0.46999998093E+01 0. -1.
       -5    1    3    3    0  502  0.18646007651E+03 -0.84768708081E+03 -0.31527650004E+03  0.92345119448E+03  0.46999998093E+01 0.  1.
</event>
<event>
 5   0  0.1398469E-05  0.2100492E+04  0.7818609E-02  0.8561027E-01
       -2   -1    0    0    0  501  0.00000000000E+00  0.00000000000E+00  0.80056705625E+03  0.80056705626E+03  0.25500000920E-02 0.  1.
        2   -1    0    0  501    0  0.00000000000E+00  0.00000000000E+00 -0.13777937334E+04  0.13777937334E+04  0.25500000920E-02 0. -1.
    10030    2    1    2    0    0  0.00000000000E+00  0.00000000000E+00 -0.57722667716E+03  0.21783607897E+04  0.21004916313E+04 0.  0.
        2    1    3    3  502    0 -0.43697491758E+03  0.56315679854E+02  0.70009083416E+03  0.82719145938E+03  0.25500000920E-02 0.  1.
       -2    1    3    3    0  502  0.43697491758E+03 -0.56315679854E+02 -0.12773175113E+04  0.13511693303E+04  0.25500000920E-02 0. -1.
</event>
<event>
 5   0  0.1344501E-05  0.2102020E+04  0.7818609E-02  0.8560354E-01
        2   -1    0    0  501    0  0.00000000000E+00  0.00000000000E+00  0.12687447393E+04  0.12687447393E+04  0.25500000920E-02 0. -1.
       -2   -1    0    0    0  501  0.00000000000E+00  0.00000000000E+00 -0.87064141845E+03  0.87064141845E+03  0.25500000920E-02 0.  1.
    10030    2    1    2    0    0  0.00000000000E+00  0.00000000000E+00  0.39810332082E+03  0.21393861577E+04  0.21020197139E+04 0.  0.
        3    1    3    3  502    0 -0.21726070469E+03 -0.56242068316E+03 -0.67712469133E+03  0.90665158493E+03  0.10100000352E+00 0.  1.
       -3    1    3    3    0  502  0.21726070469E+03  0.56242068316E+03  0.10752280122E+04  0.12327345728E+04  0.10100000352E+00 0. -1.
</event>
<event>
 5   0  0.1344501E-05  0.2100638E+04  0.7818609E-02  0.8560963E-01
       -2   -1    0    0    0  501  0.00000000000E+00  0.00000000000E+00  0.98855693655E+03  0.98855693656E+03  0.25500000920E-02 0.  1.
        2   -1    0    0  501    0  0.00000000000E+00  0.00000000000E+00 -0.11159393721E+04  0.11159393721E+04  0.25500000920E-02 0. -1.
    10030    2    1    2    0    0  0.00000000000E+00  0.00000000000E+00 -0.12738243554E+03  0.21044963086E+04  0.21006376242E+04 0.  0.
        3    1    3    3  502    0 -0.18419185667E+03 -0.72811108113E+03  0.67188989714E+03  0.10077243823E+04  0.10100000352E+00 0.  1.
       -3    1    3    3    0  502  0.18419185667E+03  0.72811108113E+03 -0.79927233268E+03  0.10967719264E+04  0.10100000352E+00 0. -1.
</event>
<event>
 5   0  0.1398469E-05  0.2101574E+04  0.7818609E-02  0.8560550E-01
       -2   -1    0    0    0  501  0.00000000000E+00  0.00000000000E+00  0.99966444884E+03  0.99966444884E+03  0.25500000920E-02 0.  1.
        2   -1    0    0  501    0  0.00000000000E+00  0.00000000000E+00 -0.11045236616E+04  0.11045236616E+04  0.25500000920E-02 0. -1.
    10030    2    1    2    0    0  0.00000000000E+00  0.00000000000E+00 -0.10485921273E+03  0.21041881104E+04  0.21015737316E+04 0.  0.
        2    1    3    3  502    0 -0.67711264351E+02  0.93620675334E+03  0.42047685645E+03  0.10285274363E+04  0.25500000920E-02 0. -1.
       -2    1    3    3    0  502  0.67711264351E+02 -0.93620675334E+03 -0.52533606918E+03  0.10756606742E+04  0.25500000920E-02 0.  1.
</event>
<event>
 5   0  0.5009125E-06  0.2100187E+04  0.7818609E-02  0.8561161E-01
       -3   -1    0    0    0  501  0.00000000000E+00  0.00000000000E+00  0.19359105600E+04  0.19359105627E+04  0.10100000352E+00 0. -1.
        3   -1    0    0  501    0  0.00000000000E+00  0.00000000000E+00 -0.56960063490E+03  0.56960064386E+03  0.10100000352E+00 0.  1.
    10030    2    1    2    0    0  0.00000000000E+00  0.00000000000E+00  0.13663099251E+04  0.25055112065E+04  0.21001865618E+04 0.  0.
        4    1    3    3  502    0 -0.72545241167E+03  0.99564547427E+02 -0.21476665141E+03  0.76309935668E+03  0.12699999809E+01 0.  1.
       -4    1    3    3    0  502  0.72545241167E+03 -0.99564547427E+02  0.15810765765E+04  0.17424118498E+04  0.12699999809E+01 0. -1.
</event>
<event>
 5   0  0.1390735E-05  0.2063271E+04  0.7818609E-02  0.8577598E-01
       -2   -1    0    0    0  501  0.00000000000E+00  0.00000000000E+00  0.44898609725E+03  0.44898609726E+03  0.25500000920E-02 0. -1.
        2   -1    0    0  501    0  0.00000000000E+00  0.00000000000E+00 -0.23703883153E+04  0.23703883153E+04  0.25500000920E-02 0.  1.
    10030    2    1    2    0    0  0.00000000000E+00  0.00000000000E+00 -0.19214022180E+04  0.28193744125E+04  0.20632706063E+04 0.  0.
        5    1    3    3  502    0 -0.88844106222E+03  0.15559150444E+03 -0.16449042308E+04  0.18759712833E+04  0.46999998093E+01 0.  1.
       -5    1    3    3    0  502  0.88844106222E+03 -0.15559150444E+03 -0.27649798720E+03  0.94340312921E+03  0.46999998093E+01 0. -1.
</event>
<event>
 5   0  0.1344501E-05  0.2100798E+04  0.7818609E-02  0.8560892E-01
        2   -1    0    0  501    0  0.00000000000E+00  0.00000000000E+00  0.19975623614E+04  0.19975623614E+04  0.25500000920E-02 0.  1.
       -2   -1    0    0    0  501  0.00000000000E+00  0.00000000000E+00 -0.55234245608E+03  0.55234245609E+03  0.25500000920E-02 0. -1.
    10030    2    1    2    0    0  0.00000000000E+00  0.00000000000E+00  0.14452199053E+04  0.25499048175E+04  0.21007984205E+04 0.  0.
        3    1    3    3  502    0  0.69129962350E+01 -0.70195901458E+03  0.16710243922E+04  0.18124891110E+04  0.10100000352E+00 0.  1.
       -3    1    3    3    0  502 -0.69129962350E+01  0.70195901458E+03 -0.22580448695E+03  0.73741570651E+03  0.10100000352E+00 0. -1.
</event>
<event>
 5   0  0.6238363E-06  0.2100325E+04  0.7818609E-02  0.8561100E-01
        1   -1    0    0  501    0  0.00000000000E+00  0.00000000000E+00  0.87809042568E+03  0.87809042570E+03  0.50400001928E-02 0.  1.
       -1   -1    0    0    0  501  0.00000000000E+00  0.00000000000E+00 -0.12559544133E+04  0.12559544133E+04  0.50400001928E-02 0. -1.
    10030    2    1    2    0    0  0.00000000000E+00  0.00000000000E+00 -0.37786398759E+03  0.21340448390E+04  0.21003252562E+04 0.  0.
        4    1    3    3  502    0 -0.16234774904E+03 -0.10321307480E+04 -0.81454466701E+02  0.10479919445E+04  0.12699999809E+01 0.  1.
       -4    1    3    3    0  502  0.16234774904E+03  0.10321307480E+04 -0.29640952089E+03  0.10860528945E+04  0.12699999809E+01 0. -1.
</event>
<event>
 5   0  0.1395356E-05  0.2098250E+04  0.7818609E-02  0.8562015E-01
       -2   -1    0    0    0  501  0.00000000000E+00  0.00000000000E+00  0.97998081979E+03  0.97998081980E+03  0.25500000920E-02 0. -1.
        2   -1    0    0  501    0  0.00000000000E+00  0.00000000000E+00 -0.11231481232E+04  0.11231481232E+04  0.25500000920E-02 0.  1.
    10030    2    1    2    0    0  0.00000000000E+00  0.00000000000E+00 -0.14316730336E+03  0.21031289430E+04  0.20982503363E+04 0.  0.
        1    1    3    3  502    0  0.22764990670E+02 -0.96399693264E+03 -0.48589116632E+03  0.10797678253E+04  0.50400001928E-02 0.  1.
       -1    1    3    3    0  502 -0.22764990670E+02  0.96399693264E+03  0.34272386296E+03  0.10233611177E+04  0.50400001928E-02 0. -1.
</event>
<event>
 5   0  0.1398469E-05  0.2102747E+04  0.7818609E-02  0.8560034E-01
        2   -1    0    0  501    0  0.00000000000E+00  0.00000000000E+00  0.13706667860E+04  0.13706667860E+04  0.25500000920E-02 0. -1.
       -2   -1    0    0    0  501  0.00000000000E+00  0.00000000000E+00 -0.80645877033E+03  0.80645877034E+03  0.25500000920E-02 0.  1.
    10030    2    1    2    0    0  0.00000000000E+00  0.00000000000E+00  0.56420801568E+03  0.21771255564E+04  0.21027470136E+04 0.  0.
        2    1    3    3  502    0 -0.81582936256E+03  0.17964305050E+03  0.94307136807E+03  0.12598542692E+04  0.25500000920E-02 0. -1.
       -2    1    3    3    0  502  0.81582936256E+03 -0.17964305050E+03 -0.37886335239E+03  0.91727128713E+03  0.25500000920E-02 0.  1.
</event>
<event>
 5   0  0.6599245E-06  0.2100188E+04  0.7818609E-02  0.8561160E-01
        1   -1    0    0  501    0  0.00000000000E+00  0.00000000000E+00  0.11255747935E+04  0.11255747935E+04  0.50400001928E-02 0.  1.
       -1   -1    0    0    0  501  0.00000000000E+00  0.00000000000E+00 -0.97967514359E+03  0.97967514360E+03  0.50400001928E-02 0. -1.
    10030    2    1    2    0    0  0.00000000000E+00  0.00000000000E+00  0.14589964994E+03  0.21052499371E+04  0.21001882273E+04 0.  0.
        2    1    3    3  502    0  0.74845665944E+03 -0.10186351890E+03 -0.65828352162E+03  0.10019484729E+04  0.25500000920E-02 0. -1.
       -2    1    3    3    0  502 -0.74845665944E+03  0.10186351890E+03  0.80418317156E+03  0.11033014642E+04  0.25500000920E-02 0.  1.
</event>
<event>
 5   0  0.1390735E-05  0.2114457E+04  0.7818609E-02  0.8554901E-01
       -2   -1    0    0    0  501  0.00000000000E+00  0.00000000000E+00  0.35075194290E+03  0.35075194291E+03  0.25500000920E-02 0.  1.
        2   -1    0    0  501    0  0.00000000000E+00  0.00000000000E+00 -0.31866752424E+04  0.31866752424E+04  0.25500000920E-02 0. -1.
    10030    2    1    2    0    0  0.00000000000E+00  0.00000000000E+00 -0.28359232995E+04  0.35374271854E+04  0.21144574081E+04 0.  0.
        5    1    3    3  502    0  0.87054482542E+02 -0.68036138671E+03 -0.27638881909E+04  0.28477306968E+04  0.46999998093E+01 0. -1.
       -5    1    3    3    0  502 -0.87054482542E+02  0.68036138671E+03 -0.72035108601E+02  0.68969648856E+03  0.46999998093E+01 0.  1.
</event>
<event>
 5   0  0.6589193E-06  0.2099273E+04  0.7818609E-02  0.8561564E-01
        1   -1    0    0  501    0  0.00000000000E+00  0.00000000000E+00  0.93716806105E+03  0.93716806106E+03  0.50400001928E-02 0.  1.
       -1   -1    0    0    0  501  0.00000000000E+00  0.00000000000E+00 -0.11756016602E+04  0.11756016602E+04  0.50400001928E-02 0. -1.
    10030    2    1    2    0    0  0.00000000000E+00  0.00000000000E+00 -0.23843359917E+03  0.21127697213E+04  0.20992725678E+04 0.  0.
        3    1    3    3  502    0  0.70550382173E+02 -0.83850942754E+03  0.51224120817E+03  0.98512257210E+03  0.10100000352E+00 0.  1.
       -3    1    3    3    0  502 -0.70550382173E+02  0.83850942754E+03 -0.75067480734E+03  0.11276471492E+04  0.10100000352E+00 0. -1.
</event>
<event>
 5   0  0.6589193E-06  0.2071770E+04  0.7818609E-02  0.8573782E-01
        1   -1    0    0  501    0  0.00000000000E+00  0.00000000000E+00  0.41455196621E+03  0.41455196624E+03  0.50400001928E-02 0. -1.
       -1   -1    0    0    0  501  0.00000000000E+00  0.00000000000E+00 -0.25884762745E+04  0.25884762745E+04  0.50400001928E-02 0.  1.
    10030    2    1    2    0    0  0.00000000000E+00  0.00000000000E+00 -0.21739243083E+04  0.30030282407E+04  0.20717701891E+04 0.  0.
        3    1    3    3  502    0 -0.10072137577E+04 -0.14955889389E+03 -0.81113621062E+03  0.13018407655E+04  0.10100000352E+00 0. -1.
       -3    1    3    3    0  502  0.10072137577E+04  0.14955889389E+03 -0.13627880976E+04  0.17011874752E+04  0.10100000352E+00 0.  1.
</event>
<event>
 5   0  0.6238363E-06  0.2099304E+04  0.7818609E-02  0.8561550E-01
       -1   -1    0    0    0  501  0.00000000000E+00  0.00000000000E+00  0.69147596821E+03  0.69147596823E+03  0.50400001928E-02 0.  1.
        1   -1    0    0  501    0  0.00000000000E+00  0.00000000000E+00 -0.15933593739E+04  0.15933593739E+04  0.50400001928E-02 0. -1.
    10030    2    1    2    0    0  0.00000000000E+00  0.00000000000E+00 -0.90188340570E+03  0.22848353422E+04  0.20993043760E+04 0.  0.
        4    1    3    3  502    0  0.16488732422E+03 -0.10283132582E+04 -0.59348222734E+03  0.11986820904E+04  0.12699999809E+01 0.  1.
       -4    1    3    3    0  502 -0.16488732422E+03  0.10283132582E+04 -0.30840117836E+03  0.10861532518E+04  0.12699999809E+01 0. -1.
</event>
<event>
 5   0  0.1441136E-05  0.2100496E+04  0.7818609E-02  0.8561025E-01
        2   -1    0    0  501    0  0.00000000000E+00  0.00000000000E+00  0.83579847226E+03  0.83579847227E+03  0.25500000920E-02 0.  1.
       -2   -1    0    0    0  501  0.00000000000E+00  0.00000000000E+00 -0.13197206872E+04  0.13197206872E+04  0.25500000920E-02 0. -1.
    10030    2    1    2    0    0  0.00000000000E+00  0.00000000000E+00 -0.48392221496E+03  0.21555191595E+04  0.21004956884E+04 0.  0.
        4    1    3    3  502    0  0.42064583672E+03  0.84092585662E+03  0.23818401360E+03  0.96996518160E+03  0.12699999809E+01 0.  1.
       -4    1    3    3    0  502 -0.42064583672E+03 -0.84092585662E+03 -0.72210622856E+03  0.11855539779E+04  0.12699999809E+01 0. -1.
</event>
<event>
 5   0  0.1398469E-05  0.2096957E+04  0.7818609E-02  0.8562585E-01
        2   -1    0    0  501    0  0.00000000000E+00  0.00000000000E+00  0.69014134242E+03  0.69014134243E+03  0.25500000920E-02 0.  1.
       -2   -1    0    0    0  501  0.00000000000E+00  0.00000000000E+00 -0.15928722640E+04  0.15928722640E+04  0.25500000920E-02 0. -1.
    10030    2    1    2    0    0  0.00000000000E+00  0.00000000000E+00 -0.90273092153E+03  0.22830136064E+04  0.20969568451E+04 0.  0.
        2    1    3    3  502    0 -0.58140466468E+03  0.40593765979E+03 -0.12922196187E+04  0.14739906074E+04  0.25500000920E-02 0. -1.
       -2    1    3    3    0  502  0.58140466468E+03 -0.40593765979E+03  0.38948869713E+03  0.80902299902E+03  0.25500000920E-02 0.  1.
</event>
<event>
 5   0  0.1441136E-05  0.2102967E+04  0.7818609E-02  0.8559938E-01
        2   -1    0    0  501    0  0.00000000000E+00  0.00000000000E+00  0.13905801263E+04  0.13905801263E+04  0.25500000920E-02 0.  1.
       -2   -1    0    0    0  501  0.00000000000E+00  0.00000000000E+00 -0.79507611212E+03  0.79507611212E+03  0.25500000920E-02 0. -1.
    10030    2    1    2    0    0  0.00000000000E+00  0.00000000000E+00  0.59550401419E+03  0.21856562384E+04  0.21029665146E+04 0.  0.
        4    1    3    3  502    0  0.23391883920E+03 -0.93438387693E+03 -0.14052117827E+03  0.97341618398E+03  0.12699999809E+01 0. -1.
       -4    1    3    3    0  502 -0.23391883920E+03  0.93438387693E+03  0.73602519245E+03  0.12122400545E+04  0.12699999809E+01 0.  1.
</event>
<event>
 5   0  0.1395356E-05  0.2103374E+04  0.7818609E-02  0.8559759E-01
        2   -1    0    0  501    0  0.00000000000E+00  0.00000000000E+00  0.25201165387E+04  0.25201165387E+04  0.25500000920E-02 0.  1.
       -2   -1    0    0    0  501  0.00000000000E+00  0.00000000000E+00 -0.43888652421E+03  0.43888652422E+03  0.25500000920E-02 0. -1.
    10030    2    1    2    0    0  0.00000000000E+00  0.00000000000E+00  0.20812300145E+04  0.29590030629E+04  0.21033736599E+04 0.  0.
        1    1    3    3  502    0  0.94504870530E+03  0.21377948727E+03  0.46533207863E+03  0.10748733265E+04  0.50400001928E-02 0.  1.
       -1    1    3    3    0  502 -0.94504870530E+03 -0.21377948727E+03  0.16158979358E+04  0.18841297364E+04  0.50400001928E-02 0. -1.
</event>
<event>
 5   0  0.1344501E-05  0.2108077E+04  0.7818609E-02  0.8557694E-01
        2   -1    0    0  501    0  0.00000000000E+00  0.00000000000E+00  0.13832229153E+04  0.13832229153E+04  0.25500000920E-02 0.  1.
       -2   -1    0    0    0  501  0.00000000000E+00  0.00000000000E+00 -0.80319440860E+03  0.80319440860E+03  0.25500000920E-02 0. -1.
    10030    2    1    2    0    0  0.00000000000E+00  0.00000000000E+00  0.58002850667E+03  0.21864173239E+04  0.21080767646E+04 0.  0.
        3    1    3    3  502    0  0.35110182241E+03 -0.20947592956E+03 -0.71760580604E+03  0.82589996842E+03  0.10100000352E+00 0. -1.
       -3    1    3    3    0  502 -0.35110182241E+03  0.20947592956E+03  0.12976343127E+04  0.13605173555E+04  0.10100000352E+00 0.  1.
</event>
<event>
 5   0  0.6283269E-06  0.2114960E+04  0.7818609E-02  0.8554682E-01
        1   -1    0    0  501    0  0.00000000000E+00  0.00000000000E+00  0.88437237200E+03  0.88437237201E+03  0.50400001928E-02 0. -1.
       -1   -1    0    0    0  501  0.00000000000E+00  0.00000000000E+00 -0.12644719943E+04  0.12644719943E+04  0.50400001928E-02 0.  1.
    10030    2    1    2    0    0  0.00000000000E+00  0.00000000000E+00 -0.38009962233E+03  0.21488443664E+04  0.21149601386E+04 0.  0.
        1    1    3    3  502    0 -0.69428481951E+03 -0.10988688779E+03  0.61264395949E+03  0.93243721495E+03  0.50400001928E-02 0. -1.
       -1    1    3    3    0  502  0.69428481951E+03  0.10988688779E+03 -0.99274358182E+03  0.12164071514E+04  0.50400001928E-02 0.  1.
</event>
<event>
 5   0  0.1398469E-05  0.2093710E+04  0.7818609E-02  0.8564019E-01
        2   -1    0    0  501    0  0.00000000000E+00  0.00000000000E+00  0.15647237202E+04  0.15647237202E+04  0.25500000920E-02 0. -1.
       -2   -1    0    0    0  501  0.00000000000E+00  0.00000000000E+00 -0.70038240205E+03  0.70038240206E+03  0.25500000920E-02 0.  1.
    10030    2    1    2    0    0  0.00000000000E+00  0.00000000000E+00  0.86434131812E+03  0.22651061222E+04  0.20937095861E+04 0.  0.
        2    1    3    3  502    0 -0.99705598973E+03  0.20666356678E+03  0.69511999028E+03  0.12328918352E+04  0.25500000920E-02 0. -1.
       -2    1    3    3    0  502  0.99705598973E+03 -0.20666356678E+03  0.16922132784E+03  0.10322142870E+04  0.25500000920E-02 0.  1.
</event>
<event>
 5   0  0.6599245E-06  0.2099974E+04  0.7818609E-02  0.8561255E-01
        1   -1    0    0  501    0  0.00000000000E+00  0.00000000000E+00  0.12525180361E+04  0.12525180361E+04  0.50400001928E-02 0. -1.
       -1   -1    0    0    0  501  0.00000000000E+00  0.00000000000E+00 -0.88020486391E+03  0.88020486393E+03  0.50400001928E-02 0.  1.
    10030    2    1    2    0    0  0.00000000000E+00  0.00000000000E+00  0.37231317222E+03  0.21327229001E+04  0.20999737785E+04 0.  0.
        2    1    3    3  502    0  0.38266645991E+03 -0.50254750975E+03  0.10379767854E+04  0.12150651942E+04  0.25500000920E-02 0. -1.
       -2    1    3    3    0  502 -0.38266645991E+03  0.50254750975E+03 -0.66566361323E+03  0.91765770584E+03  0.25500000920E-02 0.  1.
</event>
<event>
 5   0  0.1398469E-05  0.2098220E+04  0.7818609E-02  0.8562028E-01
       -2   -1    0    0    0  501  0.00000000000E+00  0.00000000000E+00  0.14536098012E+04  0.14536098012E+04  0.25500000920E-02 0. -1.
        2   -1    0    0  501    0  0.00000000000E+00  0.00000000000E+00 -0.75717128193E+03  0.75717128193E+03  0.25500000920E-02 0.  1.
    10030    2    1    2    0    0  0.00000000000E+00  0.00000000000E+00  0.69643851932E+03  0.22107810832E+04  0.20982198137E+04 0.  0.
        2    1    3    3  502    0  0.94642419679E+03 -0.15702291655E+03 -0.99123478622E+02  0.96446898375E+03  0.25500000920E-02 0.  1.
       -2    1    3    3    0  502 -0.94642419679E+03  0.15702291655E+03  0.79556199794E+03  0.12463120994E+04  0.25500000920E-02 0. -1.
</event>
<event>
 5   0  0.1441136E-05  0.2100915E+04  0.7818609E-02  0.8560840E-01
        2   -1    0    0  501    0  0.00000000000E+00  0.00000000000E+00  0.15360622758E+04  0.15360622758E+04  0.25500000920E-02 0.  1.
       -2   -1    0    0    0  501  0.00000000000E+00  0.00000000000E+00 -0.71836985089E+03  0.71836985090E+03  0.25500000920E-02 0. -1.
    10030    2    1    2    0    0  0.00000000000E+00  0.00000000000E+00  0.81769242494E+03  0.22544321267E+04  0.21009148751E+04 0.  0.
        4    1    3    3  502    0 -0.19702663734E+03  0.90444377689E+03  0.94174396537E+03  0.13205004167E+04  0.12699999809E+01 0. -1.
       -4    1    3    3    0  502  0.19702663734E+03 -0.90444377689E+03 -0.12405154042E+03  0.93393171001E+03  0.12699999809E+01 0.  1.
</event>
<event>
 5   0  0.6283269E-06  0.2099901E+04  0.7818609E-02  0.8561287E-01
        1   -1    0    0  501    0  0.00000000000E+00  0.00000000000E+00  0.12030158250E+04  0.12030158250E+04  0.50400001928E-02 0. -1.
       -1   -1    0    0    0  501  0.00000000000E+00  0.00000000000E+00 -0.91636001554E+03  0.91636001556E+03  0.50400001928E-02 0.  1.
    10030    2    1    2    0    0  0.00000000000E+00  0.00000000000E+00  0.28665580943E+03  0.21193758405E+04  0.20999005692E+04 0.  0.
        1    1    3    3  502    0  0.69842712645E+03 -0.78374975929E+03  0.12495290350E+03  0.10572026127E+04  0.50400001928E-02 0.  1.
       -1    1    3    3    0  502 -0.69842712645E+03  0.78374975929E+03  0.16170290593E+03  0.10621732279E+04  0.50400001928E-02 0. -1.
</event>
<event>
 5   0  0.6589193E-06  0.2130642E+04  0.7818609E-02  0.8547864E-01
       -1   -1    0    0    0  501  0.00000000000E+00  0.00000000000E+00  0.94629819493E+03  0.94629819494E+03  0.50400001928E-02 0.  1.
        1   -1    0    0  501    0  0.00000000000E+00  0.00000000000E+00 -0.11993142910E+04  0.11993142910E+04  0.50400001928E-02 0. -1.
    10030    2    1    2    0    0  0.00000000000E+00  0.00000000000E+00 -0.25301609610E+03  0.21456124860E+04  0.21306421086E+04 0.  0.
        3    1    3    3  502    0  0.37147782660E+03 -0.56481432754E+03  0.70262254222E+03  0.97503304933E+03  0.10100000352E+00 0.  1.
       -3    1    3    3    0  502 -0.37147782660E+03  0.56481432754E+03 -0.95563863832E+03  0.11705794366E+04  0.10100000352E+00 0. -1.
</event>
<event>
 5   0  0.1344501E-05  0.2104531E+04  0.7818609E-02  0.8559250E-01
        2   -1    0    0  501    0  0.00000000000E+00  0.00000000000E+00  0.12562019710E+04  0.12562019710E+04  0.25500000920E-02 0. -1.
       -2   -1    0    0    0  501  0.00000000000E+00  0.00000000000E+00 -0.88143673741E+03  0.88143673741E+03  0.25500000920E-02 0.  1.
    10030    2    1    2    0    0  0.00000000000E+00  0.00000000000E+00  0.37476523361E+03  0.21376387084E+04  0.21045308901E+04 0.  0.
        3    1    3    3  502    0 -0.42069505740E+03 -0.80905761263E+03  0.72071817262E+03  0.11623223505E+04  0.10100000352E+00 0. -1.
       -3    1    3    3    0  502  0.42069505740E+03  0.80905761263E+03 -0.34595293901E+03  0.97531635795E+03  0.10100000352E+00 0.  1.
</event>
<event>
 5   0  0.6917078E-06  0.2101882E+04  0.7818609E-02  0.8560415E-01
        1   -1    0    0  501    0  0.00000000000E+00  0.00000000000E+00  0.76458594036E+03  0.76458594038E+03  0.50400001928E-02 0.  1.
       -1   -1    0    0    0  501  0.00000000000E+00  0.00000000000E+00 -0.14445431290E+04  0.14445431290E+04  0.50400001928E-02 0. -1.
    10030    2    1    2    0    0  0.00000000000E+00  0.00000000000E+00 -0.67995718859E+03  0.22091290693E+04  0.21018823627E+04 0.  0.
        5    1    3    3  502    0  0.39708121030E+03 -0.82669872866E+03 -0.87934037791E+03  0.12705769814E+04  0.46999998093E+01 0. -1.
       -5    1    3    3    0  502 -0.39708121030E+03  0.82669872866E+03  0.19938318932E+03  0.93855208791E+03  0.46999998093E+01 0.  1.
</event>
<event>
 5   0  0.6238363E-06  0.2098705E+04  0.7818609E-02  0.8561814E-01
        1   -1    0    0  501    0  0.00000000000E+00  0.00000000000E+00  0.20549550283E+04  0.20549550283E+04  0.50400001928E-02 0. -1.
       -1   -1    0    0    0  501  0.00000000000E+00  0.00000000000E+00 -0.53584665826E+03  0.53584665828E+03  0.50400001928E-02 0.  1.
    10030    2    1    2    0    0  0.00000000000E+00  0.00000000000E+00  0.15191083701E+04  0.25908016866E+04  0.20987051101E+04 0.  0.
        4    1    3    3  502    0  0.55740559449E+03  0.17932320758E+03 -0.31541976971E+03  0.66509326682E+03  0.12699999809E+01 0.  1.
       -4    1    3    3    0  502 -0.55740559449E+03 -0.17932320758E+03  0.18345281398E+04  0.19257084198E+04  0.12699999809E+01 0. -1.
</event>
<event>
 5   0  0.1441136E-05  0.2099311E+04  0.7818609E-02  0.8561547E-01
        2   -1    0    0  501    0  0.00000000000E+00  0.00000000000E+00  0.25816308417E+04  0.25816308417E+04  0.25500000920E-02 0. -1.
       -2   -1    0    0    0  501  0.00000000000E+00  0.00000000000E+00 -0.42677559837E+03  0.42677559838E+03  0.25500000920E-02 0.  1.
    10030    2    1    2    0    0  0.00000000000E+00  0.00000000000E+00  0.21548552433E+04  0.30084064401E+04  0.20993113606E+04 0.  0.
        4    1    3    3  502    0  0.20610240137E+03 -0.98533214297E+03  0.65130998250E+03  0.11989845445E+04  0.12699999809E+01 0. -1.
       -4    1    3    3    0  502 -0.20610240137E+03  0.98533214297E+03  0.15035452608E+04  0.18094218955E+04  0.12699999809E+01 0.  1.
</event>
<event>
 5   0  0.1395356E-05  0.2115541E+04  0.7818609E-02  0.8554428E-01
       -2   -1    0    0    0  501  0.00000000000E+00  0.00000000000E+00  0.67319977434E+03  0.67319977434E+03  0.25500000920E-02 0. -1.
        2   -1    0    0  501    0  0.00000000000E+00  0.00000000000E+00 -0.16620301043E+04  0.16620301043E+04  0.25500000920E-02 0.  1.
    10030    2    1    2    0    0  0.00000000000E+00  0.00000000000E+00 -0.98883032994E+03  0.23352298786E+04  0.21155408681E+04 0.  0.
        1    1    3    3  502    0  0.59482090790E+02 -0.10534604538E+04 -0.41209728010E+03  0.11327582333E+04  0.50400001928E-02 0.  1.
       -1    1    3    3    0  502 -0.59482090790E+02  0.10534604538E+04 -0.57673304984E+03  0.12024716453E+04  0.50400001928E-02 0. -1.
</event>
<event>
 5   0  0.6599245E-06  0.2066104E+04  0.7818609E-02  0.8576324E-01
       -1   -1    0    0    0  501  0.00000000000E+00  0.00000000000E+00  0.16303243295E+04  0.16303243295E+04  0.50400001928E-02 0.  1.
        1   -1    0    0  501    0  0.00000000000E+00  0.00000000000E+00 -0.65459155076E+03  0.65459155078E+03  0.50400001928E-02 0. -1.
    10030    2    1    2    0    0  0.00000000000E+00  0.00000000000E+00  0.97573277874E+03  0.22849158803E+04  0.20661040933E+04 0.  0.
        2    1    3    3  502    0  0.79382041856E+03 -0.62373851591E+03  0.73014789263E+03  0.12459199566E+04  0.25500000920E-02 0.  1.
       -2    1    3    3    0  502 -0.79382041856E+03  0.62373851591E+03  0.24558488612E+03  0.10389959237E+04  0.25500000920E-02 0. -1.
</event>
<event>
 5   0  0.1398469E-05  0.2102848E+04  0.7818609E-02  0.8559990E-01
        2   -1    0    0  501    0  0.00000000000E+00  0.00000000000E+00  0.95409554556E+03  0.95409554556E+03  0.25500000920E-02 0.  1.
       -2   -1    0    0    0  501  0.00000000000E+00  0.00000000000E+00 -0.11586812698E+04  0.11586812698E+04  0.25500000920E-02 0. -1.
    10030    2    1    2    0    0  0.00000000000E+00  0.00000000000E+00 -0.20458572422E+03  0.21127768153E+04  0.21028482002E+04 0.  0.
        2    1    3    3  502    0  0.37365770292E+03  0.96257868209E+03  0.96923018701E+02  0.10370978111E+04  0.25500000920E-02 0.  1.
       -2    1    3    3    0  502 -0.37365770292E+03 -0.96257868209E+03 -0.30150874292E+03  0.10756790043E+04  0.25500000920E-02 0. -1.
</event>
<event>
 5   0  0.1395356E-05  0.2096926E+04  0.7818609E-02  0.8562599E-01
        2   -1    0    0  501    0  0.00000000000E+00  0.00000000000E+00  0.19461757155E+04  0.19461757155E+04  0.25500000920E-02 0. -1.
       -2   -1    0    0    0  501  0.00000000000E+00  0.00000000000E+00 -0.56483826656E+03  0.56483826657E+03  0.25500000920E-02 0.  1.
    10030    2    1    2    0    0  0.00000000000E+00  0.00000000000E+00  0.13813374489E+04  0.25110139821E+04  0.20969258619E+04 0.  0.
        1    1    3    3  502    0  0.20007133336E+03 -0.63044596838E+03 -0.28347747517E+03  0.71961804899E+03  0.50400001928E-02 0.  1.
       -1    1    3    3    0  502 -0.20007133336E+03  0.63044596838E+03  0.16648149241E+04  0.17913959331E+04  0.50400001928E-02 0. -1.
</event>
<event>
 5   0  0.1344501E-05  0.2091115E+04  0.7818609E-02  0.8565167E-01
       -2   -1    0    0    0  501  0.00000000000E+00  0.00000000000E+00  0.75064976324E+03  0.75064976325E+03  0.25500000920E-02 0.  1.
        2   -1    0    0  501    0  0.00000000000E+00  0.00000000000E+00 -0.14563262710E+04  0.14563262710E+04  0.25500000920E-02 0. -1.
    10030    2    1    2    0    0  0.00000000000E+00  0.00000000000E+00 -0.70567650772E+03  0.22069760342E+04  0.20911154636E+04 0.  0.
        3    1    3    3  502    0 -0.83144948886E+03 -0.55862640123E+03 -0.36534519261E+02  0.10023504826E+04  0.10100000352E+00 0.  1.
       -3    1    3    3    0  502  0.83144948886E+03  0.55862640123E+03 -0.66914198846E+03  0.12046255516E+04  0.10100000352E+00 0. -1.
</event>
<event>
 5   0  0.1398469E-05  0.2097266E+04  0.7818609E-02  0.8562449E-01
        2   -1    0    0  501    0  0.00000000000E+00  0.00000000000E+00  0.90248086916E+03  0.90248086916E+03  0.25500000920E-02 0. -1.
       -2   -1    0    0    0  501  0.00000000000E+00  0.00000000000E+00 -0.12184534932E+04  0.12184534932E+04  0.25500000920E-02 0.  1.
    10030    2    1    2    0    0  0.00000000000E+00  0.00000000000E+00 -0.31597262400E+03  0.21209343623E+04  0.20972658082E+04 0.  0.
        2    1    3    3  502    0  0.39896478768E+03  0.16158127564E+03 -0.11249938984E+04  0.12045300668E+04  0.25500000920E-02 0.  1.
       -2    1    3    3    0  502 -0.39896478768E+03 -0.16158127564E+03  0.80902127437E+03  0.91640429552E+03  0.25500000920E-02 0. -1.
</event>
<event>
 5   0  0.6917078E-06  0.2098329E+04  0.7818609E-02  0.8561980E-01
        1   -1    0    0  501    0  0.00000000000E+00  0.00000000000E+00  0.13155056590E+04  0.13155056590E+04  0.50400001928E-02 0.  1.
       -1   -1    0    0    0  501  0.00000000000E+00  0.00000000000E+00 -0.83674788752E+03  0.83674788753E+03  0.50400001928E-02 0. -1.
    10030    2    1    2    0    0  0.00000000000E+00  0.00000000000E+00  0.47875777151E+03  0.21522535466E+04  0.20983294129E+04 0.  0.
        5    1    3    3  502    0  0.69464382378E+03 -0.32808444830E+03  0.97227268863E+03  0.12391552438E+04  0.46999998093E+01 0.  1.
       -5    1    3    3    0  502 -0.69464382378E+03  0.32808444830E+03 -0.49351491712E+03  0.91309830279E+03  0.46999998093E+01 0. -1.
</event>
<event>
 5   0  0.1441136E-05  0.2101073E+04  0.7818609E-02  0.8560771E-01
        2   -1    0    0  501    0  0.00000000000E+00  0.00000000000E+00  0.13862295650E+04  0.13862295650E+04  0.25500000920E-02 0. -1.
       -2   -1    0    0    0  501  0.00000000000E+00  0.00000000000E+00 -0.79613569776E+03  0.79613569776E+03  0.25500000920E-02 0.  1.
    10030    2    1    2    0    0  0.00000000000E+00  0.00000000000E+00  0.59009386728E+03  0.21823652628E+04  0.21010729088E+04 0.  0.
        4    1    3    3  502    0  0.24418462345E+03  0.97586658637E+03 -0.19461227736E+02  0.10061421753E+04  0.12699999809E+01 0.  1.
       -4    1    3    3    0  502 -0.24418462345E+03 -0.97586658637E+03  0.60955509502E+03  0.11762230875E+04  0.12699999809E+01 0. -1.
</event>
<event>
 5   0  0.6589193E-06  0.2101128E+04  0.7818609E-02  0.8560747E-01
        1   -1    0    0  501    0  0.00000000000E+00  0.00000000000E+00  0.11441690558E+04  0.11441690558E+04  0.50400001928E-02 0.  1.
       -1   -1    0    0    0  501  0.00000000000E+00  0.00000000000E+00 -0.96461677606E+03  0.96461677608E+03  0.50400001928E-02 0. -1.
    10030    2    1    2    0    0  0.00000000000E+00  0.00000000000E+00  0.17955227975E+03  0.21087858319E+04  0.21011279503E+04 0.  0.
        3    1    3    3  502    0 -0.96199694673E+03  0.35269142338E+03  0.32268937075E+03  0.10742242810E+04  0.10100000352E+00 0.  1.
       -3    1    3    3    0  502  0.96199694673E+03 -0.35269142338E+03 -0.14313709100E+03  0.10345615509E+04  0.10100000352E+00 0. -1.
</event>
<event>
 5   0  0.6283269E-06  0.2096782E+04  0.7818609E-02  0.8562662E-01
        1   -1    0    0  501    0  0.00000000000E+00  0.00000000000E+00  0.11431413096E+04  0.11431413096E+04  0.50400001928E-02 0. -1.
       -1   -1    0    0    0  501  0.00000000000E+00  0.00000000000E+00 -0.96149398567E+03  0.96149398568E+03  0.50400001928E-02 0.  1.
    10030    2    1    2    0    0  0.00000000000E+00  0.00000000000E+00  0.18164732396E+03  0.21046352953E+04  0.20967818141E+04 0.  0.
        1    1    3    3  502    0  0.11027919887E+03  0.93894612167E+03 -0.36402056282E+03  0.10130608527E+04  0.50400001928E-02 0.  1.
       -1    1    3    3    0  502 -0.11027919887E+03 -0.93894612167E+03  0.54566788679E+03  0.10915744426E+04  0.50400001928E-02 0. -1.
</event>
<event>
 5   0  0.1344501E-05  0.2100860E+04  0.7818609E-02  0.8560865E-01
       -2   -1    0    0    0  501  0.00000000000E+00  0.00000000000E+00  0.96310341676E+03  0.96310341676E+03  0.25500000920E-02 0. -1.
        2   -1    0    0  501    0  0.00000000000E+00  0.00000000000E+00 -0.11456746323E+04  0.11456746323E+04  0.25500000920E-02 0.  1.
    10030    2    1    2    0    0  0.00000000000E+00  0.00000000000E+00 -0.18257121552E+03  0.21087780490E+04  0.21008599695E+04 0.  0.
        3    1    3    3  502    0  0.16969341980E+03 -0.72872573268E+03  0.64876248742E+03  0.99031804259E+03  0.10100000352E+00 0. -1.
       -3    1    3    3    0  502 -0.16969341980E+03  0.72872573268E+03 -0.83133370294E+03  0.11184600065E+04  0.10100000352E+00 0.  1.
</event>
<event>
 5   0  0.5009125E-06  0.2096617E+04  0.7818609E-02  0.8562735E-01
       -3   -1    0    0    0  501  0.00000000000E+00  0.00000000000E+00  0.11952469935E+04  0.11952469977E+04  0.10100000352E+00 0. -1.
        3   -1    0    0  501    0  0.00000000000E+00  0.00000000000E+00 -0.91943436499E+03  0.91943437054E+03  0.10100000352E+00 0.  1.
    10030    2    1    2    0    0  0.00000000000E+00  0.00000000000E+00  0.27581262848E+03  0.21146813683E+04  0.20966174385E+04 0.  0.
        2    1    3    3  502    0 -0.90850109638E+03 -0.31717012429E+03 -0.28158574376E+03  0.10026273789E+04  0.25500000920E-02 0.  1.
       -2    1    3    3    0  502  0.90850109638E+03  0.31717012429E+03  0.55739837224E+03  0.11120539894E+04  0.25500000920E-02 0. -1.
</event>
<event>
 5   0  0.6589193E-06  0.2113890E+04  0.7818609E-02  0.8555149E-01
        1   -1    0    0  501    0  0.00000000000E+00  0.00000000000E+00  0.13617402410E+04  0.13617402410E+04  0.50400001928E-02 0.  1.
       -1   -1    0    0    0  501  0.00000000000E+00  0.00000000000E+00 -0.82037123504E+03  0.82037123505E+03  0.50400001928E-02 0. -1.
    10030    2    1    2    0    0  0.00000000000E+00  0.00000000000E+00  0.54136900596E+03  0.21821114761E+04  0.21138898016E+04 0.  0.
        3    1    3    3  502    0 -0.59952561848E+03 -0.55233200416E+03 -0.42380660686E+03  0.91875658379E+03  0.10100000352E+00 0. -1.
       -3    1    3    3    0  502  0.59952561848E+03  0.55233200416E+03  0.96517561282E+03  0.12633548923E+04  0.10100000352E+00 0.  1.
</event>
<event>
 5   0  0.6238363E-06  0.2101409E+04  0.7818609E-02  0.8560623E-01
       -1   -1    0    0    0  501  0.00000000000E+00  0.00000000000E+00  0.72103450625E+03  0.72103450627E+03  0.50400001928E-02 0.  1.
        1   -1    0    0  501    0  0.00000000000E+00  0.00000000000E+00 -0.15311050752E+04  0.15311050752E+04  0.50400001928E-02 0. -1.
    10030    2    1    2    0    0  0.00000000000E+00  0.00000000000E+00 -0.81007056891E+03  0.22521395814E+04  0.21014086627E+04 0.  0.
        4    1    3    3  502    0 -0.10470106623E+04  0.67330967422E+02 -0.34428431866E+03  0.11042183168E+04  0.12699999809E+01 0.  1.
       -4    1    3    3    0  502  0.10470106623E+04 -0.67330967422E+02 -0.46578625025E+03  0.11479212647E+04  0.12699999809E+01 0. -1.
</event>
<event>
 5   0  0.6917078E-06  0.2104225E+04  0.7818609E-02  0.8559384E-01
       -1   -1    0    0    0  501  0.00000000000E+00  0.00000000000E+00  0.18576942591E+04  0.18576942591E+04  0.50400001928E-02 0. -1.
        1   -1    0    0  501    0  0.00000000000E+00  0.00000000000E+00 -0.59586819862E+03  0.59586819864E+03  0.50400001928E-02 0.  1.
    10030    2    1    2    0    0  0.00000000000E+00  0.00000000000E+00  0.12618260605E+04  0.24535624577E+04  0.21042252083E+04 0.  0.
        5    1    3    3  502    0 -0.31418985295E+03 -0.74801858416E+03  0.14119458326E+04  0.16284533123E+04  0.46999998093E+01 0. -1.
       -5    1    3    3    0  502  0.31418985295E+03  0.74801858416E+03 -0.15011977216E+03  0.82510914547E+03  0.46999998093E+01 0.  1.
</event>
<event>
 5   0  0.6238363E-06  0.2095756E+04  0.7818609E-02  0.8563115E-01
       -1   -1    0    0    0  501  0.00000000000E+00  0.00000000000E+00  0.10229869258E+04  0.10229869258E+04  0.50400001928E-02 0. -1.
        1   -1    0    0  501    0  0.00000000000E+00  0.00000000000E+00 -0.10733744220E+04  0.10733744220E+04  0.50400001928E-02 0.  1.
    10030    2    1    2    0    0  0.00000000000E+00  0.00000000000E+00 -0.50387496239E+02  0.20963613478E+04  0.20957557111E+04 0.  0.
        4    1    3    3  502    0  0.12473500619E+03  0.45671309053E+03  0.90990297168E+03  0.10257049769E+04  0.12699999809E+01 0. -1.
       -4    1    3    3    0  502 -0.12473500619E+03 -0.45671309053E+03 -0.96029046792E+03  0.10706563709E+04  0.12699999809E+01 0.  1.
</event>
<event>
 5   0  0.1344501E-05  0.2100839E+04  0.7818609E-02  0.8560874E-01
       -2   -1    0    0    0  501  0.00000000000E+00  0.00000000000E+00  0.76372895287E+03  0.76372895288E+03  0.25500000920E-02 0.  1.
        2   -1    0    0  501    0  0.00000000000E+00  0.00000000000E+00 -0.14447293396E+04  0.14447293396E+04  0.25500000920E-02 0. -1.
    10030    2    1    2    0    0  0.00000000000E+00  0.00000000000E+00 -0.68100038674E+03  0.22084582925E+04  0.21008394758E+04 0.  0.
        3    1    3    3  502    0 -0.25714916149E+03  0.19944821731E+03  0.70939907345E+03  0.78048211911E+03  0.10100000352E+00 0.  1.
       -3    1    3    3    0  502  0.25714916149E+03 -0.19944821731E+03 -0.13903994602E+04  0.14279761734E+04  0.10100000352E+00 0. -1.
</event>
<event>
 5   0  0.6238363E-06  0.2097703E+04  0.7818609E-02  0.8562256E-01
       -1   -1    0    0    0  501  0.00000000000E+00  0.00000000000E+00  0.97036453845E+03  0.97036453847E+03  0.50400001928E-02 0. -1.
        1   -1    0    0  501    0  0.00000000000E+00  0.00000000000E+00 -0.11336870771E+04  0.11336870771E+04  0.50400001928E-02 0.  1.
    10030    2    1    2    0    0  0.00000000000E+00  0.00000000000E+00 -0.16332253865E+03  0.21040516156E+04  0.20977032558E+04 0.  0.
        4    1    3    3  502    0 -0.14812544757E+03  0.40400686276E+03  0.87775082067E+03  0.97755348164E+03  0.12699999809E+01 0. -1.
       -4    1    3    3    0  502  0.14812544757E+03 -0.40400686276E+03 -0.10410733593E+04  0.11264981339E+04  0.12699999809E+01 0.  1.
</event>
<event>
 5   0  0.1344501E-05  0.2107984E+04  0.7818609E-02  0.8557734E-01
       -2   -1    0    0    0  501  0.00000000000E+00  0.00000000000E+00  0.67924404677E+03  0.67924404678E+03  0.25500000920E-02 0.  1.
        2   -1    0    0  501    0  0.00000000000E+00  0.00000000000E+00 -0.16354935004E+04  0.16354935004E+04  0.25500000920E-02 0. -1.
    10030    2    1    2    0    0  0.00000000000E+00  0.00000000000E+00 -0.95624945363E+03  0.23147375472E+04  0.21079840831E+04 0.  0.
        3    1    3    3  502    0 -0.66430859378E+03 -0.40359856923E+03 -0.12597714729E+04  0.14802776385E+04  0.10100000352E+00 0. -1.
       -3    1    3    3    0  502  0.66430859378E+03  0.40359856923E+03  0.30352201926E+03  0.83445990870E+03  0.10100000352E+00 0.  1.
</event>
<event>
 5   0  0.1441136E-05  0.2073786E+04  0.7818609E-02  0.8572880E-01
       -2   -1    0    0    0  501  0.00000000000E+00  0.00000000000E+00  0.10204794936E+04  0.10204794936E+04  0.25500000920E-02 0. -1.
        2   -1    0    0  501    0  0.00000000000E+00  0.00000000000E+00 -0.10535701711E+04  0.10535701711E+04  0.25500000920E-02 0.  1.
    10030    2    1    2    0    0  0.00000000000E+00  0.00000000000E+00 -0.33090677510E+02  0.20740496646E+04  0.20737856732E+04 0.  0.
        4    1    3    3  502    0 -0.10051086304E+04  0.22912920667E+03 -0.12792193867E+03  0.10388018038E+04  0.12699999809E+01 0.  1.
       -4    1    3    3    0  502  0.10051086304E+04 -0.22912920667E+03  0.94831261156E+02  0.10352478608E+04  0.12699999809E+01 0. -1.
</event>
<event>
 5   0  0.6238363E-06  0.2100935E+04  0.7818609E-02  0.8560832E-01
       -1   -1    0    0    0  501  0.00000000000E+00  0.00000000000E+00  0.95183997703E+03  0.95183997704E+03  0.50400001928E-02 0.  1.
        1   -1    0    0  501    0  0.00000000000E+00  0.00000000000E+00 -0.11593144208E+04  0.11593144208E+04  0.50400001928E-02 0. -1.
    10030    2    1    2    0    0  0.00000000000E+00  0.00000000000E+00 -0.20747444380E+03  0.21111543979E+04  0.21009348507E+04 0.  0.
        4    1    3    3  502    0  0.77718392986E+03 -0.65214448401E+01 -0.81387333287E+03  0.11253660760E+04  0.12699999809E+01 0. -1.
       -4    1    3    3    0  502 -0.77718392986E+03  0.65214448401E+01  0.60639888907E+03  0.98578832192E+03  0.12699999809E+01 0.  1.
</event>
<event>
 5   0  0.6283269E-06  0.2104249E+04  0.7818609E-02  0.8559374E-01
       -1   -1    0    0    0  501  0.00000000000E+00  0.00000000000E+00  0.10086620007E+04  0.10086620007E+04  0.50400001928E-02 0. -1.
        1   -1    0    0  501    0  0.00000000000E+00  0.00000000000E+00 -0.10974601822E+04  0.10974601822E+04  0.50400001928E-02 0.  1.
    10030    2    1    2    0    0  0.00000000000E+00  0.00000000000E+00 -0.88798181515E+02  0.21061221829E+04  0.21042493988E+04 0.  0.
        1    1    3    3  502    0  0.77608707179E+03  0.53276013983E+03  0.42593601503E+03  0.10332308544E+04  0.50400001928E-02 0. -1.
       -1    1    3    3    0  502 -0.77608707179E+03 -0.53276013983E+03 -0.51473419655E+03  0.10728913285E+04  0.50400001928E-02 0.  1.
</event>
<event>
 5   0  0.1398469E-05  0.2101710E+04  0.7818609E-02  0.8560491E-01
        2   -1    0    0  501    0  0.00000000000E+00  0.00000000000E+00  0.23549901384E+04  0.23549901384E+04  0.25500000920E-02 0.  1.
       -2   -1    0    0    0  501  0.00000000000E+00  0.00000000000E+00 -0.46891746765E+03  0.46891746765E+03  0.25500000920E-02 0. -1.
    10030    2    1    2    0    0  0.00000000000E+00  0.00000000000E+00  0.18860726707E+04  0.28239076060E+04  0.21017097916E+04 0.  0.
        2    1    3    3  502    0  0.49250501327E+03  0.27200687282E+01 -0.30424003024E+03  0.57890464057E+03  0.25500000920E-02 0. -1.
       -2    1    3    3    0  502 -0.49250501327E+03 -0.27200687282E+01  0.21903127010E+04  0.22450029655E+04  0.25500000920E-02 0.  1.
</event>
<event>
 5   0  0.1344501E-05  0.2097012E+04  0.7818609E-02  0.8562561E-01
       -2   -1    0    0    0  501  0.00000000000E+00  0.00000000000E+00  0.64961001880E+03  0.64961001880E+03  0.25500000920E-02 0. -1.
        2   -1    0    0  501    0  0.00000000000E+00  0.00000000000E+00 -0.16923461255E+04  0.16923461255E+04  0.25500000920E-02 0.  1.
    10030    2    1    2    0    0  0.00000000000E+00  0.00000000000E+00 -0.10427361067E+04  0.23419561443E+04  0.20970121587E+04 0.  0.
        3    1    3    3  502    0  0.90565263166E+03  0.17859683778E+03 -0.10767043142E+04  0.14182368314E+04  0.10100000352E+00 0.  1.
       -3    1    3    3    0  502 -0.90565263166E+03 -0.17859683778E+03  0.33968207436E+02  0.92371931290E+03  0.10100000352E+00 0. -1.
</event>
<event>
 5   0  0.6238363E-06  0.2099989E+04  0.7818609E-02  0.8561248E-01
        1   -1    0    0  501    0  0.00000000000E+00  0.00000000000E+00  0.11264654410E+04  0.11264654410E+04  0.50400001928E-02 0. -1.
       -1   -1    0    0    0  501  0.00000000000E+00  0.00000000000E+00 -0.97871514110E+03  0.97871514111E+03  0.50400001928E-02 0.  1.
    10030    2    1    2    0    0  0.00000000000E+00  0.00000000000E+00  0.14775029992E+03  0.21051805821E+04  0.20999893172E+04 0.  0.
        4    1    3    3  502    0  0.51171221183E+03  0.89530243885E+02 -0.84086184077E+03  0.98839025718E+03  0.12699999809E+01 0.  1.
       -4    1    3    3    0  502 -0.51171221183E+03 -0.89530243885E+02  0.98861214070E+03  0.11167903250E+04  0.12699999809E+01 0. -1.
</event>
<event>
 5   0  0.6599245E-06  0.2098387E+04  0.7818609E-02  0.8561954E-01
        1   -1    0    0  501    0  0.00000000000E+00  0.00000000000E+00  0.15000166281E+04  0.15000166281E+04  0.50400001928E-02 0.  1.
       -1   -1    0    0    0  501  0.00000000000E+00  0.00000000000E+00 -0.73386335693E+03  0.73386335695E+03  0.50400001928E-02 0. -1.
    10030    2    1    2    0    0  0.00000000000E+00  0.00000000000E+00  0.76615327112E+03  0.22338799850E+04  0.20983872266E+04 0.  0.
        2    1    3    3  502    0  0.74431747721E+03 -0.19454546533E+03  0.11425492192E+04  0.13774161184E+04  0.25500000920E-02 0.  1.
       -2    1    3    3    0  502 -0.74431747721E+03  0.19454546533E+03 -0.37639594811E+03  0.85646386656E+03  0.25500000920E-02 0. -1.
</event>
<event>
 5   0  0.6283269E-06  0.2094796E+04  0.7818609E-02  0.8563539E-01
        1   -1    0    0  501    0  0.00000000000E+00  0.00000000000E+00  0.13535887814E+04  0.13535887814E+04  0.50400001928E-02 0. -1.
       -1   -1    0    0    0  501  0.00000000000E+00  0.00000000000E+00 -0.81046991090E+03  0.81046991092E+03  0.50400001928E-02 0.  1.
    10030    2    1    2    0    0  0.00000000000E+00  0.00000000000E+00  0.54311887052E+03  0.21640586924E+04  0.20947963902E+04 0.  0.
        1    1    3    3  502    0  0.14890749115E+03 -0.98937187777E+03  0.59166398283E+03  0.11623667330E+04  0.50400001928E-02 0.  1.
       -1    1    3    3    0  502 -0.14890749115E+03  0.98937187777E+03 -0.48545112307E+02  0.10016919593E+04  0.50400001928E-02 0. -1.
</event>
<event>
 5   0  0.1398469E-05  0.2100788E+04  0.7818609E-02  0.8560896E-01
        2   -1    0    0  501    0  0.00000000000E+00  0.00000000000E+00  0.17009877542E+04  0.17009877542E+04  0.25500000920E-02 0.  1.
       -2   -1    0    0    0  501  0.00000000000E+00  0.00000000000E+00 -0.64863962290E+03  0.64863962291E+03  0.25500000920E-02 0. -1.
    10030    2    1    2    0    0  0.00000000000E+00  0.00000000000E+00  0.10523481313E+04  0.23496273771E+04  0.21007884762E+04 0.  0.
        2    1    3    3  502    0 -0.11125592598E+03 -0.34944060988E+03 -0.57471363414E+03  0.68174950104E+03  0.25500000920E-02 0. -1.
       -2    1    3    3    0  502  0.11125592598E+03  0.34944060988E+03  0.16270617654E+04  0.16678778760E+04  0.25500000920E-02 0.  1.
</event>
<event>
 5   0  0.6917078E-06  0.2066450E+04  0.7818609E-02  0.8576168E-01
        1   -1    0    0  501    0  0.00000000000E+00  0.00000000000E+00  0.25284273234E+04  0.25284273235E+04  0.50400001928E-02 0. -1.
       -1   -1    0    0    0  501  0.00000000000E+00  0.00000000000E+00 -0.42222036559E+03  0.42222036562E+03  0.50400001928E-02 0.  1.
    10030    2    1    2    0    0  0.00000000000E+00  0.00000000000E+00  0.21062069579E+04  0.29506476891E+04  0.20664496209E+04 0.  0.
        5    1    3    3  502    0 -0.58337411319E+03 -0.23059933243E+03 -0.11917867151E+03  0.63853508424E+03  0.46999998093E+01 0.  1.
       -5    1    3    3    0  502  0.58337411319E+03  0.23059933243E+03  0.22253856294E+04  0.23121126048E+04  0.46999998093E+01 0. -1.
</event>
<event>
 5   0  0.6589193E-06  0.2101216E+04  0.7818609E-02  0.8560708E-01
        1   -1    0    0  501    0  0.00000000000E+00  0.00000000000E+00  0.10558041761E+04  0.10558041761E+04  0.50400001928E-02 0.  1.
       -1   -1    0    0    0  501  0.00000000000E+00  0.00000000000E+00 -0.10454378886E+04  0.10454378886E+04  0.50400001928E-02 0. -1.
    10030    2    1    2    0    0  0.00000000000E+00  0.00000000000E+00  0.10366287552E+02  0.21012420647E+04  0.21012164940E+04 0.  0.
        3    1    3    3  502    0  0.78382946035E+03 -0.69746066308E+03 -0.49017875892E+02  0.10503536365E+04  0.10100000352E+00 0. -1.
       -3    1    3    3    0  502 -0.78382946035E+03  0.69746066308E+03  0.59384163443E+02  0.10508884282E+04  0.10100000352E+00 0.  1.
</event>
<event>
 5   0  0.1344501E-05  0.2092980E+04  0.7818609E-02  0.8564342E-01
        2   -1    0    0  501    0  0.00000000000E+00  0.00000000000E+00  0.70424209451E+03  0.70424209451E+03  0.25500000920E-02 0. -1.
       -2   -1    0    0    0  501  0.00000000000E+00  0.00000000000E+00 -0.15550639567E+04  0.15550639567E+04  0.25500000920E-02 0.  1.
    10030    2    1    2    0    0  0.00000000000E+00  0.00000000000E+00 -0.85082186217E+03  0.22593060512E+04  0.20929801699E+04 0.  0.
        3    1    3    3  502    0  0.28038472438E+03  0.87517390512E+03 -0.96578870551E+03  0.13331514512E+04  0.10100000352E+00 0. -1.
       -3    1    3    3    0  502 -0.28038472438E+03 -0.87517390512E+03  0.11496684334E+03  0.92615460002E+03  0.10100000352E+00 0.  1.
</event>
<event>
 5   0  0.1344501E-05  0.2092099E+04  0.7818609E-02  0.8564732E-01
       -2   -1    0    0    0  501  0.00000000000E+00  0.00000000000E+00  0.99835075452E+03  0.99835075452E+03  0.25500000920E-02 0. -1.
        2   -1    0    0  501    0  0.00000000000E+00  0.00000000000E+00 -0.10960270483E+04  0.10960270483E+04  0.25500000920E-02 0.  1.
    10030    2    1    2    0    0  0.00000000000E+00  0.00000000000E+00 -0.97676293754E+02  0.20943778028E+04  0.20920988797E+04 0.  0.
        3    1    3    3  502    0 -0.59946877255E+03 -0.51256675624E+03  0.63902890300E+03  0.10151085843E+04  0.10100000352E+00 0. -1.
       -3    1    3    3    0  502  0.59946877255E+03  0.51256675624E+03 -0.73670519675E+03  0.10792692185E+04  0.10100000352E+00 0.  1.
</event>
<event>
 5   0  0.6283269E-06  0.2099952E+04  0.7818609E-02  0.8561265E-01
       -1   -1    0    0    0  501  0.00000000000E+00  0.00000000000E+00  0.69910312496E+03  0.69910312498E+03  0.50400001928E-02 0. -1.
        1   -1    0    0  501    0  0.00000000000E+00  0.00000000000E+00 -0.15769484622E+04  0.15769484622E+04  0.50400001928E-02 0.  1.
    10030    2    1    2    0    0  0.00000000000E+00  0.00000000000E+00 -0.87784533726E+03  0.22760515872E+04  0.20999519974E+04 0.  0.
        1    1    3    3  502    0  0.22480145675E+03  0.10256272762E+04 -0.44066805553E+03  0.11386989680E+04  0.50400001928E-02 0.  1.
       -1    1    3    3    0  502 -0.22480145675E+03 -0.10256272762E+04 -0.43717728173E+03  0.11373526192E+04  0.50400001928E-02 0. -1.
</event>
<event>
 5   0  0.1395356E-05  0.2099369E+04  0.7818609E-02  0.8561521E-01
        2   -1    0    0  501    0  0.00000000000E+00  0.00000000000E+00  0.11302792684E+04  0.11302792684E+04  0.25500000920E-02 0.  1.
       -2   -1    0    0    0  501  0.00000000000E+00  0.00000000000E+00 -0.97483649811E+03  0.97483649811E+03  0.25500000920E-02 0. -1.
    10030    2    1    2    0    0  0.00000000000E+00  0.00000000000E+00  0.15544277029E+03  0.21051157665E+04  0.20993689375E+04 0.  0.
        1    1    3    3  502    0  0.43696260317E+03  0.27438996155E+03  0.99434147867E+03  0.11202415560E+04  0.50400001928E-02 0.  1.
       -1    1    3    3    0  502 -0.43696260317E+03 -0.27438996155E+03 -0.83889870838E+03  0.98487421050E+03  0.50400001928E-02 0. -1.
</event>
<event>
 5   0  0.6599245E-06  0.2099818E+04  0.7818609E-02  0.8561323E-01
        1   -1    0    0  501    0  0.00000000000E+00  0.00000000000E+00  0.23759722814E+04  0.23759722814E+04  0.50400001928E-02 0. -1.
       -1   -1    0    0    0  501  0.00000000000E+00  0.00000000000E+00 -0.46394022417E+03  0.46394022420E+03  0.50400001928E-02 0.  1.
    10030    2    1    2    0    0  0.00000000000E+00  0.00000000000E+00  0.19120320572E+04  0.28399125056E+04  0.20998181949E+04 0.  0.
        2    1    3    3  502    0  0.69275279857E+03  0.70583821431E+03  0.14326395551E+04  0.17408532734E+04  0.25500000920E-02 0. -1.
       -2    1    3    3    0  502 -0.69275279857E+03 -0.70583821431E+03  0.47939250208E+03  0.10990592321E+04  0.25500000920E-02 0.  1.
</event>
<event>
 5   0  0.6283269E-06  0.2090395E+04  0.7818609E-02  0.8565486E-01
        1   -1    0    0  501    0  0.00000000000E+00  0.00000000000E+00  0.85835094130E+03  0.85835094131E+03  0.50400001928E-02 0. -1.
       -1   -1    0    0    0  501  0.00000000000E+00  0.00000000000E+00 -0.12727175583E+04  0.12727175583E+04  0.50400001928E-02 0.  1.
    10030    2    1    2    0    0  0.00000000000E+00  0.00000000000E+00 -0.41436661700E+03  0.21310684996E+04  0.20903954786E+04 0.  0.
        1    1    3    3  502    0  0.52407946519E+03 -0.38962814785E+03 -0.10391308408E+04  0.12272987752E+04  0.50400001928E-02 0.  1.
       -1    1    3    3    0  502 -0.52407946519E+03  0.38962814785E+03  0.62476422376E+03  0.90376972440E+03  0.50400001928E-02 0. -1.
</event>
<event>
 5   0  0.1390735E-05  0.2099296E+04  0.7818609E-02  0.8561554E-01
       -2   -1    0    0    0  501  0.00000000000E+00  0.00000000000E+00  0.11807375235E+04  0.11807375235E+04  0.25500000920E-02 0. -1.
        2   -1    0    0  501    0  0.00000000000E+00  0.00000000000E+00 -0.93311239792E+03  0.93311239792E+03  0.25500000920E-02 0.  1.
    10030    2    1    2    0    0  0.00000000000E+00  0.00000000000E+00  0.24762512556E+03  0.21138499214E+04  0.20992959028E+04 0.  0.
        5    1    3    3  502    0 -0.19702352220E+03  0.77492770135E+03 -0.56090731634E+03  0.97671404113E+03  0.46999998093E+01 0.  1.
       -5    1    3    3    0  502  0.19702352220E+03 -0.77492770135E+03  0.80853244191E+03  0.11371358803E+04  0.46999998093E+01 0. -1.
</event>
<event>
 5   0  0.1395356E-05  0.2098916E+04  0.7818609E-02  0.8561721E-01
       -2   -1    0    0    0  501  0.00000000000E+00  0.00000000000E+00  0.87939284252E+03  0.87939284253E+03  0.25500000920E-02 0.  1.
        2   -1    0    0  501    0  0.00000000000E+00  0.00000000000E+00 -0.12524120673E+04  0.12524120673E+04  0.25500000920E-02 0. -1.
    10030    2    1    2    0    0  0.00000000000E+00  0.00000000000E+00 -0.37301922474E+03  0.21318049098E+04  0.20989161087E+04 0.  0.
        1    1    3    3  502    0 -0.87662799143E+03  0.29576549555E+03  0.31663988126E+03  0.97786230020E+03  0.50400001928E-02 0.  1.
       -1    1    3    3    0  502  0.87662799143E+03 -0.29576549555E+03 -0.68965910600E+03  0.11539426096E+04  0.50400001928E-02 0. -1.
</event>
<event>
 5   0  0.6599245E-06  0.2095686E+04  0.7818609E-02  0.8563146E-01
       -1   -1    0    0    0  501  0.00000000000E+00  0.00000000000E+00  0.53553332272E+03  0.53553332275E+03  0.50400001928E-02 0.  1.
        1   -1    0    0  501    0  0.00000000000E+00  0.00000000000E+00 -0.20502461667E+04  0.20502461667E+04  0.50400001928E-02 0. -1.
    10030    2    1    2    0    0  0.00000000000E+00  0.00000000000E+00 -0.15147128440E+04  0.25857794895E+04  0.20956861808E+04 0.  0.
        2    1    3    3  502    0 -0.88097013688E+03 -0.16652520694E+03 -0.14265309680E+04  0.16848826752E+04  0.25500000920E-02 0. -1.
       -2    1    3    3    0  502  0.88097013688E+03  0.16652520694E+03 -0.88181875975E+02  0.90089681422E+03  0.25500000920E-02 0.  1.
</event>
<event>
 5   0  0.6599245E-06  0.2101415E+04  0.7818609E-02  0.8560621E-01
       -1   -1    0    0    0  501  0.00000000000E+00  0.00000000000E+00  0.76679623380E+03  0.76679623382E+03  0.50400001928E-02 0. -1.
        1   -1    0    0  501    0  0.00000000000E+00  0.00000000000E+00 -0.14397381480E+04  0.14397381480E+04  0.50400001928E-02 0.  1.
    10030    2    1    2    0    0  0.00000000000E+00  0.00000000000E+00 -0.67294191417E+03  0.22065343818E+04  0.21014145612E+04 0.  0.
        2    1    3    3  502    0  0.34368278112E+03 -0.80364945857E+03 -0.94874846888E+03  0.12899976603E+04  0.25500000920E-02 0.  1.
       -2    1    3    3    0  502 -0.34368278112E+03  0.80364945857E+03  0.27580655471E+03  0.91653672153E+03  0.25500000920E-02 0. -1.
</event>
<event>
 5   0  0.1398469E-05  0.2101590E+04  0.7818609E-02  0.8560543E-01
        2   -1    0    0  501    0  0.00000000000E+00  0.00000000000E+00  0.46446622204E+03  0.46446622205E+03  0.25500000920E-02 0. -1.
       -2   -1    0    0    0  501  0.00000000000E+00  0.00000000000E+00 -0.23772879834E+04  0.23772879834E+04  0.25500000920E-02 0.  1.
    10030    2    1    2    0    0  0.00000000000E+00  0.00000000000E+00 -0.19128217613E+04  0.28417542054E+04  0.21015898443E+04 0.  0.
        2    1    3    3  502    0  0.74965943244E+03 -0.24780718511E+03 -0.18831019540E+02  0.78977988892E+03  0.25500000920E-02 0. -1.
       -2    1    3    3    0  502 -0.74965943244E+03  0.24780718511E+03 -0.18939907418E+04  0.20519743165E+04  0.25500000920E-02 0.  1.
</event>
<event>
 5   0  0.5009125E-06  0.2099775E+04  0.7818609E-02  0.8561342E-01
       -3   -1    0    0    0  501  0.00000000000E+00  0.00000000000E+00  0.94950272162E+03  0.94950272699E+03  0.10100000352E+00 0. -1.
        3   -1    0    0  501    0  0.00000000000E+00  0.00000000000E+00 -0.11608854249E+04  0.11608854293E+04  0.10100000352E+00 0.  1.
    10030    2    1    2    0    0  0.00000000000E+00  0.00000000000E+00 -0.21138270330E+03  0.21103881563E+04  0.20997751125E+04 0.  0.
        5    1    3    3  502    0 -0.58245738207E+03 -0.86653363888E+03 -0.21626853491E+03  0.10662698150E+04  0.46999998093E+01 0. -1.
       -5    1    3    3    0  502  0.58245738207E+03  0.86653363888E+03  0.48858316123E+01  0.10441183413E+04  0.46999998093E+01 0.  1.
</event>
<event>
 5   0  0.6589193E-06  0.2100617E+04  0.7818609E-02  0.8560972E-01
        1   -1    0    0  501    0  0.00000000000E+00  0.00000000000E+00  0.78617730303E+03  0.78617730304E+03  0.50400001928E-02 0. -1.
       -1   -1    0    0    0  501  0.00000000000E+00  0.00000000000E+00 -0.14031789682E+04  0.14031789682E+04  0.50400001928E-02 0.  1.
    10030    2    1    2    0    0  0.00000000000E+00  0.00000000000E+00 -0.61700166520E+03  0.21893562713E+04  0.21006165351E+04 0.  0.
        3    1    3    3  502    0  0.38076139382E+03  0.94174288887E+03 -0.58677924491E+03  0.11731022122E+04  0.10100000352E+00 0.  1.
       -3    1    3    3    0  502 -0.38076139382E+03 -0.94174288887E+03 -0.30222420289E+02  0.10162540591E+04  0.10100000352E+00 0. -1.
</event>
<event>
 5   0  0.1390735E-05  0.2100904E+04  0.7818609E-02  0.8560845E-01
       -2   -1    0    0    0  501  0.00000000000E+00  0.00000000000E+00  0.44214709885E+03  0.44214709886E+03  0.25500000920E-02 0.  1.
        2   -1    0    0  501    0  0.00000000000E+00  0.00000000000E+00 -0.24956605990E+04  0.24956605990E+04  0.25500000920E-02 0. -1.
    10030    2    1    2    0    0  0.00000000000E+00  0.00000000000E+00 -0.20535135001E+04  0.29378076978E+04  0.21009037042E+04 0.  0.
        5    1    3    3  502    0  0.62108793646E+03  0.83459559436E+03 -0.12300092295E+04  0.16109763579E+04  0.46999998093E+01 0. -1.
       -5    1    3    3    0  502 -0.62108793646E+03 -0.83459559436E+03 -0.82350427058E+03  0.13268313399E+04  0.46999998093E+01 0.  1.
</event>
<event>
 5   0  0.6589193E-06  0.2114358E+04  0.7818609E-02  0.8554945E-01
       -1   -1    0    0    0  501  0.00000000000E+00  0.00000000000E+00  0.64857315389E+03  0.64857315391E+03  0.50400001928E-02 0.  1.
        1   -1    0    0  501    0  0.00000000000E+00  0.00000000000E+00 -0.17232091883E+04  0.17232091883E+04  0.50400001928E-02 0. -1.
    10030    2    1    2    0    0  0.00000000000E+00  0.00000000000E+00 -0.10746360344E+04  0.23717823422E+04  0.21143577919E+04 0.  0.
        3    1    3    3  502    0 -0.41640594874E+03 -0.65230028379E+03 -0.13452414958E+04  0.15519549821E+04  0.10100000352E+00 0. -1.
       -3    1    3    3    0  502  0.41640594874E+03  0.65230028379E+03  0.27060546138E+03  0.81982736007E+03  0.10100000352E+00 0.  1.
</event>
<event>
 5   0  0.1398469E-05  0.2101749E+04  0.7818609E-02  0.8560473E-01
        2   -1    0    0  501    0  0.00000000000E+00  0.00000000000E+00  0.11485996868E+04  0.11485996868E+04  0.25500000920E-02 0. -1.
       -2   -1    0    0    0  501  0.00000000000E+00  0.00000000000E+00 -0.96146389186E+03  0.96146389186E+03  0.25500000920E-02 0.  1.
    10030    2    1    2    0    0  0.00000000000E+00  0.00000000000E+00  0.18713579498E+03  0.21100635787E+04  0.21017489147E+04 0.  0.
        2    1    3    3  502    0  0.69975422253E+03 -0.25648337721E+03 -0.65023918317E+03  0.98906556409E+03  0.25500000920E-02 0.  1.
       -2    1    3    3    0  502 -0.69975422253E+03  0.25648337721E+03  0.83737497815E+03  0.11209980146E+04  0.25500000920E-02 0. -1.
</event>
<event>
 5   0  0.1398469E-05  0.2095646E+04  0.7818609E-02  0.8563164E-01
       -2   -1    0    0    0  501  0.00000000000E+00  0.00000000000E+00  0.77896637778E+03  0.77896637779E+03  0.25500000920E-02 0.  1.
        2   -1    0    0  501    0  0.00000000000E+00  0.00000000000E+00 -0.14094746552E+04  0.14094746552E+04  0.25500000920E-02 0. -1.
    10030    2    1    2    0    0  0.00000000000E+00  0.00000000000E+00 -0.63050827740E+03  0.21884410330E+04  0.20956463125E+04 0.  0.
        2    1    3    3  502    0 -0.67644592523E+03  0.60259924467E+03  0.23458511603E+03  0.93580720029E+03  0.25500000920E-02 0.  1.
       -2    1    3    3    0  502  0.67644592523E+03 -0.60259924467E+03 -0.86509339344E+03  0.12526338327E+04  0.25500000920E-02 0. -1.
</event>
<event>
 5   0  0.6283269E-06  0.2106009E+04  0.7818609E-02  0.8558601E-01
       -1   -1    0    0    0  501  0.00000000000E+00  0.00000000000E+00  0.15677897003E+04  0.15677897003E+04  0.50400001928E-02 0.  1.
        1   -1    0    0  501    0  0.00000000000E+00  0.00000000000E+00 -0.70724974173E+03  0.70724974174E+03  0.50400001928E-02 0. -1.
    10030    2    1    2    0    0  0.00000000000E+00  0.00000000000E+00  0.86053995859E+03  0.22750394421E+04  0.21060093643E+04 0.  0.
        1    1    3    3  502    0 -0.73664834896E+03  0.46324324396E+03 -0.21025616931E+03  0.89523893451E+03  0.50400001928E-02 0.  1.
       -1    1    3    3    0  502  0.73664834896E+03 -0.46324324396E+03  0.10707961279E+04  0.13798005076E+04  0.50400001928E-02 0. -1.
</event>
<event>
 5   0  0.1344501E-05  0.2100626E+04  0.7818609E-02  0.8560968E-01
       -2   -1    0    0    0  501  0.00000000000E+00  0.00000000000E+00  0.14146306841E+04  0.14146306841E+04  0.25500000920E-02 0.  1.
        2   -1    0    0  501    0  0.00000000000E+00  0.00000000000E+00 -0.77982004779E+03  0.77982004779E+03  0.25500000920E-02 0. -1.
    10030    2    1    2    0    0  0.00000000000E+00  0.00000000000E+00  0.63481063634E+03  0.21944507319E+04  0.21006259712E+04 0.  0.
        3    1    3    3  502    0 -0.10353535682E+04  0.84345294606E+02  0.47953458060E+03  0.11441261137E+04  0.10100000352E+00 0. -1.
       -3    1    3    3    0  502  0.10353535682E+04 -0.84345294606E+02  0.15527605574E+03  0.10503246182E+04  0.10100000352E+00 0.  1.
</event>
<event>
 5   0  0.1398469E-05  0.2100336E+04  0.7818609E-02  0.8561095E-01
        2   -1    0    0  501    0  0.00000000000E+00  0.00000000000E+00  0.20943675144E+04  0.20943675144E+04  0.25500000920E-02 0. -1.
       -2   -1    0    0    0  501  0.00000000000E+00  0.00000000000E+00 -0.52658057633E+03  0.52658057634E+03  0.25500000920E-02 0.  1.
    10030    2    1    2    0    0  0.00000000000E+00  0.00000000000E+00  0.15677869380E+04  0.26209480907E+04  0.21003364043E+04 0.  0.
        2    1    3    3  502    0 -0.83094105948E+03  0.40407946300E+03  0.14067171789E+04  0.16830319303E+04  0.25500000920E-02 0. -1.
       -2    1    3    3    0  502  0.83094105948E+03 -0.40407946300E+03  0.16106975910E+03  0.93791616046E+03  0.25500000920E-02 0.  1.
</event>
<event>
 5   0  0.6589193E-06  0.2106865E+04  0.7818609E-02  0.8558225E-01
       -1   -1    0    0    0  501  0.00000000000E+00  0.00000000000E+00  0.65142224298E+03  0.65142224300E+03  0.50400001928E-02 0. -1.
        1   -1    0    0  501    0  0.00000000000E+00  0.00000000000E+00 -0.17035339200E+04  0.17035339200E+04  0.50400001928E-02 0.  1.
    10030    2    1    2    0    0  0.00000000000E+00  0.00000000000E+00 -0.10521116770E+04  0.23549561630E+04  0.21068648625E+04 0.  0.
        3    1    3    3  502    0  0.45996599189E+03  0.94708672456E+03 -0.48769392545E+03  0.11603393265E+04  0.10100000352E+00 0.  1.
       -3    1    3    3    0  502 -0.45996599189E+03 -0.94708672456E+03 -0.56441775158E+03  0.11946168365E+04  0.10100000352E+00 0. -1.
</event>
<event>
 5   0  0.6589193E-06  0.2102079E+04  0.7818609E-02  0.8560328E-01
       -1   -1    0    0    0  501  0.00000000000E+00  0.00000000000E+00  0.57907947602E+03  0.57907947605E+03  0.50400001928E-02 0.  1.
        1   -1    0    0  501    0  0.00000000000E+00  0.00000000000E+00 -0.19076550554E+04  0.19076550555E+04  0.50400001928E-02 0. -1.
    10030    2    1    2    0    0  0.00000000000E+00  0.00000000000E+00 -0.13285755794E+04  0.24867345315E+04  0.21020788662E+04 0.  0.
        3    1    3    3  502    0  0.94768788802E+03  0.14835142933E+03 -0.15606608296E+03  0.97184212305E+03  0.10100000352E+00 0.  1.
       -3    1    3    3    0  502 -0.94768788802E+03 -0.14835142933E+03 -0.11725094965E+04  0.15148924084E+04  0.10100000352E+00 0. -1.
</event>
<event>
 5   0  0.6238363E-06  0.2083926E+04  0.7818609E-02  0.8568358E-01
       -1   -1    0    0    0  501  0.00000000000E+00  0.00000000000E+00  0.92320791637E+03  0.92320791639E+03  0.50400001928E-02 0.  1.
        1   -1    0    0  501    0  0.00000000000E+00  0.00000000000E+00 -0.11759933808E+04  0.11759933808E+04  0.50400001928E-02 0. -1.
    10030    2    1    2    0    0  0.00000000000E+00  0.00000000000E+00 -0.25278546439E+03  0.20992012972E+04  0.20839255253E+04 0.  0.
        4    1    3    3  502    0 -0.22732320426E+03 -0.33099550453E+03 -0.10949243926E+04  0.11662310670E+04  0.12699999809E+01 0. -1.
       -4    1    3    3    0  502  0.22732320426E+03  0.33099550453E+03  0.84213892817E+03  0.93297023021E+03  0.12699999809E+01 0.  1.
</event>
<event>
 5   0  0.1344501E-05  0.2097661E+04  0.7818609E-02  0.8562274E-01
        2   -1    0    0  501    0  0.00000000000E+00  0.00000000000E+00  0.19508439539E+04  0.19508439539E+04  0.25500000920E-02 0. -1.
       -2   -1    0    0    0  501  0.00000000000E+00  0.00000000000E+00 -0.56388176798E+03  0.56388176799E+03  0.25500000920E-02 0.  1.
    10030    2    1    2    0    0  0.00000000000E+00  0.00000000000E+00  0.13869621859E+04  0.25147257219E+04  0.20976609238E+04 0.  0.
        3    1    3    3  502    0  0.76242542237E+03  0.71397290009E+03  0.80718306853E+03  0.13200736127E+04  0.10100000352E+00 0. -1.
       -3    1    3    3    0  502 -0.76242542237E+03 -0.71397290009E+03  0.57977911740E+03  0.11946521092E+04  0.10100000352E+00 0.  1.
</event>
<event>
 5   0  0.1398469E-05  0.2106331E+04  0.7818609E-02  0.8558460E-01
       -2   -1    0    0    0  501  0.00000000000E+00  0.00000000000E+00  0.11524200152E+04  0.11524200152E+04  0.25500000920E-02 0. -1.
        2   -1    0    0  501    0  0.00000000000E+00  0.00000000000E+00 -0.96245935848E+03  0.96245935849E+03  0.25500000920E-02 0.  1.
    10030    2    1    2    0    0  0.00000000000E+00  0.00000000000E+00  0.18996065675E+03  0.21148793737E+04  0.21063308653E+04 0.  0.
        2    1    3    3  502    0  0.10241330739E+04 -0.38960954126E+02  0.33843277116E+03  0.10793068375E+04  0.25500000920E-02 0.  1.
       -2    1    3    3    0  502 -0.10241330739E+04  0.38960954126E+02 -0.14847211442E+03  0.10355725362E+04  0.25500000920E-02 0. -1.
</event>
<event>
 5   0  0.1441136E-05  0.2092580E+04  0.7818609E-02  0.8564519E-01
       -2   -1    0    0    0  501  0.00000000000E+00  0.00000000000E+00  0.59993865276E+03  0.59993865277E+03  0.25500000920E-02 0.  1.
        2   -1    0    0  501    0  0.00000000000E+00  0.00000000000E+00 -0.18247247903E+04  0.18247247903E+04  0.25500000920E-02 0. -1.
    10030    2    1    2    0    0  0.00000000000E+00  0.00000000000E+00 -0.12247861375E+04  0.24246634431E+04  0.20925801608E+04 0.  0.
        4    1    3    3  502    0 -0.78752097150E+03  0.51772043537E+03 -0.85858542330E+02  0.94635988501E+03  0.12699999809E+01 0.  1.
       -4    1    3    3    0  502  0.78752097150E+03 -0.51772043537E+03 -0.11389275952E+04  0.14783035581E+04  0.12699999809E+01 0. -1.
</event>
<event>
 5   0  0.6599245E-06  0.2092305E+04  0.7818609E-02  0.8564641E-01
        1   -1    0    0  501    0  0.00000000000E+00  0.00000000000E+00  0.77843252711E+03  0.77843252713E+03  0.50400001928E-02 0. -1.
       -1   -1    0    0    0  501  0.00000000000E+00  0.00000000000E+00 -0.14059466671E+04  0.14059466671E+04  0.50400001928E-02 0.  1.
    10030    2    1    2    0    0  0.00000000000E+00  0.00000000000E+00 -0.62751414001E+03  0.21843791943E+04  0.20923045831E+04 0.  0.
        2    1    3    3  502    0 -0.33946056141E+03 -0.79613316131E+03 -0.92730345358E+03  0.12684451814E+04  0.25500000920E-02 0.  1.
       -2    1    3    3    0  502  0.33946056141E+03  0.79613316131E+03  0.29978931358E+03  0.91593401282E+03  0.25500000920E-02 0. -1.
</event>
<event>
 5   0  0.5009125E-06  0.2101812E+04  0.7818609E-02  0.8560446E-01
       -3   -1    0    0    0  501  0.00000000000E+00  0.00000000000E+00  0.17618465470E+04  0.17618465499E+04  0.10100000352E+00 0.  1.
        3   -1    0    0  501    0  0.00000000000E+00  0.00000000000E+00 -0.62684419427E+03  0.62684420241E+03  0.10100000352E+00 0. -1.
    10030    2    1    2    0    0  0.00000000000E+00  0.00000000000E+00  0.11350023527E+04  0.23886907523E+04  0.21018118778E+04 0.  0.
        4    1    3    3  502    0  0.49964356894E+03 -0.92775627964E+02  0.16129190876E+04  0.16910826736E+04  0.12699999809E+01 0.  1.
       -4    1    3    3    0  502 -0.49964356894E+03  0.92775627964E+02 -0.47791673482E+03  0.69760807869E+03  0.12699999809E+01 0. -1.
</event>
<event>
 5   0  0.1395356E-05  0.2100491E+04  0.7818609E-02  0.8561027E-01
        2   -1    0    0  501    0  0.00000000000E+00  0.00000000000E+00  0.15023046976E+04  0.15023046976E+04  0.25500000920E-02 0.  1.
       -2   -1    0    0    0  501  0.00000000000E+00  0.00000000000E+00 -0.73421555972E+03  0.73421555973E+03  0.25500000920E-02 0. -1.
    10030    2    1    2    0    0  0.00000000000E+00  0.00000000000E+00  0.76808913792E+03  0.22365202574E+04  0.21004908802E+04 0.  0.
        1    1    3    3  502    0 -0.79971338990E+03  0.25514103791E+03 -0.28800170909E+03  0.88745897915E+03  0.50400001928E-02 0. -1.
       -1    1    3    3    0  502  0.79971338990E+03 -0.25514103791E+03  0.10560908470E+04  0.13490612782E+04  0.50400001928E-02 0.  1.
</event>
<event>
 5   0  0.1398469E-05  0.2102329E+04  0.7818609E-02  0.8560218E-01
        2   -1    0    0  501    0  0.00000000000E+00  0.00000000000E+00  0.10662391313E+04  0.10662391313E+04  0.25500000920E-02 0. -1.
       -2   -1    0    0    0  501  0.00000000000E+00  0.00000000000E+00 -0.10363025189E+04  0.10363025189E+04  0.25500000920E-02 0.  1.
    10030    2    1    2    0    0  0.00000000000E+00  0.00000000000E+00  0.29936612390E+02  0.21025416503E+04  0.21023285163E+04 0.  0.
        2    1    3    3  502    0  0.68735611752E+02  0.99526130530E+03 -0.31623991624E+03  0.10465549841E+04  0.25500000920E-02 0.  1.
       -2    1    3    3    0  502 -0.68735611752E+02 -0.99526130530E+03  0.34617652863E+03  0.10559866662E+04  0.25500000920E-02 0. -1.
</event>
<event>
 5   0  0.6283269E-06  0.2116185E+04  0.7818609E-02  0.8554147E-01
       -1   -1    0    0    0  501  0.00000000000E+00  0.00000000000E+00  0.12118090344E+04  0.12118090344E+04  0.50400001928E-02 0.  1.
        1   -1    0    0  501    0  0.00000000000E+00  0.00000000000E+00 -0.92387445540E+03  0.92387445541E+03  0.50400001928E-02 0. -1.
    10030    2    1    2    0    0  0.00000000000E+00  0.00000000000E+00  0.28793457903E+03  0.21356834899E+04  0.21161846911E+04 0.  0.
        1    1    3    3  502    0 -0.10330389042E+03  0.10236312143E+03  0.12016744977E+04  0.12104426880E+04  0.50400001928E-02 0.  1.
       -1    1    3    3    0  502  0.10330389042E+03 -0.10236312143E+03 -0.91373991869E+03  0.92524080187E+03  0.50400001928E-02 0. -1.
</event>
<event>
 5   0  0.6589193E-06  0.2097563E+04  0.7818609E-02  0.8562318E-01
       -1   -1    0    0    0  501  0.00000000000E+00  0.00000000000E+00  0.98133092264E+03  0.98133092265E+03  0.50400001928E-02 0. -1.
        1   -1    0    0  501    0  0.00000000000E+00  0.00000000000E+00 -0.11208682484E+04  0.11208682484E+04  0.50400001928E-02 0.  1.
    10030    2    1    2    0    0  0.00000000000E+00  0.00000000000E+00 -0.13953732572E+03  0.21021991710E+04  0.20975630359E+04 0.  0.
        3    1    3    3  502    0  0.60140154121E+03 -0.13863469493E+03  0.78006737607E+03  0.99469015970E+03  0.10100000352E+00 0. -1.
       -3    1    3    3    0  502 -0.60140154121E+03  0.13863469493E+03 -0.91960470179E+03  0.11075090113E+04  0.10100000352E+00 0.  1.
</event>
<event>
 5   0  0.6238363E-06  0.2093878E+04  0.7818609E-02  0.8563945E-01
       -1   -1    0    0    0  501  0.00000000000E+00  0.00000000000E+00  0.65833931195E+03  0.65833931197E+03  0.50400001928E-02 0. -1.
        1   -1    0    0  501    0  0.00000000000E+00  0.00000000000E+00 -0.16649176731E+04  0.16649176731E+04  0.50400001928E-02 0.  1.
    10030    2    1    2    0    0  0.00000000000E+00  0.00000000000E+00 -0.10065783612E+04  0.23232569851E+04  0.20938775087E+04 0.  0.
        4    1    3    3  502    0  0.18894956667E+03  0.74245513744E+03  0.28841612150E+03  0.81861287670E+03  0.12699999809E+01 0.  1.
       -4    1    3    3    0  502 -0.18894956667E+03 -0.74245513744E+03 -0.12949944827E+04  0.15046441084E+04  0.12699999809E+01 0. -1.
</event>
<event>
 5   0  0.5009125E-06  0.2101521E+04  0.7818609E-02  0.8560574E-01
       -3   -1    0    0    0  501  0.00000000000E+00  0.00000000000E+00  0.77066760850E+03  0.77066761512E+03  0.10100000352E+00 0.  1.
        3   -1    0    0  501    0  0.00000000000E+00  0.00000000000E+00 -0.14326504665E+04  0.14326504701E+04  0.10100000352E+00 0. -1.
    10030    2    1    2    0    0  0.00000000000E+00  0.00000000000E+00 -0.66198285802E+03  0.22033180852E+04  0.21015207066E+04 0.  0.
        5    1    3    3  502    0 -0.61780178723E+03  0.30771090717E+03  0.49966821468E+03  0.85208888354E+03  0.46999998093E+01 0.  1.
       -5    1    3    3    0  502  0.61780178723E+03 -0.30771090717E+03 -0.11616510727E+04  0.13512292017E+04  0.46999998093E+01 0. -1.
</event>
<event>
 5   0  0.6283269E-06  0.2069369E+04  0.7818609E-02  0.8574858E-01
        1   -1    0    0  501    0  0.00000000000E+00  0.00000000000E+00  0.10181486674E+04  0.10181486674E+04  0.50400001928E-02 0.  1.
       -1   -1    0    0    0  501  0.00000000000E+00  0.00000000000E+00 -0.10514891144E+04  0.10514891144E+04  0.50400001928E-02 0. -1.
    10030    2    1    2    0    0  0.00000000000E+00  0.00000000000E+00 -0.33340446997E+02  0.20696377817E+04  0.20693692184E+04 0.  0.
        1    1    3    3  502    0  0.26990972013E+03 -0.33823467515E+03  0.92330189178E+03  0.10196765840E+04  0.50400001928E-02 0.  1.
       -1    1    3    3    0  502 -0.26990972013E+03  0.33823467515E+03 -0.95664233877E+03  0.10499611978E+04  0.50400001928E-02 0. -1.
</event>
<event>
 5   0  0.1344501E-05  0.2100217E+04  0.7818609E-02  0.8561148E-01
       -2   -1    0    0    0  501  0.00000000000E+00  0.00000000000E+00  0.76371886111E+03  0.76371886112E+03  0.25500000920E-02 0.  1.
        2   -1    0    0  501    0  0.00000000000E+00  0.00000000000E+00 -0.14438918091E+04  0.14438918091E+04  0.25500000920E-02 0. -1.
    10030    2    1    2    0    0  0.00000000000E+00  0.00000000000E+00 -0.68017294795E+03  0.22076106702E+04  0.21002165679E+04 0.  0.
        3    1    3    3  502    0 -0.55986404947E+03 -0.52357096917E+03 -0.10945296878E+04  0.13362520576E+04  0.10100000352E+00 0. -1.
       -3    1    3    3    0  502  0.55986404947E+03  0.52357096917E+03  0.41435673989E+03  0.87135861259E+03  0.10100000352E+00 0.  1.
</event>
<event>
 5   0  0.6599245E-06  0.2098983E+04  0.7818609E-02  0.8561691E-01
        1   -1    0    0  501    0  0.00000000000E+00  0.00000000000E+00  0.10320722801E+04  0.10320722801E+04  0.50400001928E-02 0.  1.
       -1   -1    0    0    0  501  0.00000000000E+00  0.00000000000E+00 -0.10672052232E+04  0.10672052232E+04  0.50400001928E-02 0. -1.
    10030    2    1    2    0    0  0.00000000000E+00  0.00000000000E+00 -0.35132943163E+02  0.20992775033E+04  0.20989834950E+04 0.  0.
        2    1    3    3  502    0 -0.72850042866E+03 -0.48162059574E+03  0.56454740368E+03  0.10398966505E+04  0.25500000920E-02 0.  1.
       -2    1    3    3    0  502  0.72850042866E+03  0.48162059574E+03 -0.59968034684E+03  0.10593808528E+04  0.25500000920E-02 0. -1.
</event>
<event>
 5   0  0.1395356E-05  0.2103450E+04  0.7818609E-02  0.8559725E-01
       -2   -1    0    0    0  501  0.00000000000E+00  0.00000000000E+00  0.59053016012E+03  0.59053016013E+03  0.25500000920E-02 0. -1.
        2   -1    0    0  501    0  0.00000000000E+00  0.00000000000E+00 -0.18731053975E+04  0.18731053975E+04  0.25500000920E-02 0.  1.
    10030    2    1    2    0    0  0.00000000000E+00  0.00000000000E+00 -0.12825752374E+04  0.24636355576E+04  0.21034497667E+04 0.  0.
        1    1    3    3  502    0  0.72066471729E+03 -0.79347712077E+02  0.25106146703E+03  0.76725846650E+03  0.50400001928E-02 0. -1.
       -1    1    3    3    0  502 -0.72066471729E+03  0.79347712077E+02 -0.15336367044E+04  0.16963770911E+04  0.50400001928E-02 0.  1.
</event>
<event>
 5   0  0.6599245E-06  0.2098991E+04  0.7818609E-02  0.8561688E-01
        1   -1    0    0  501    0  0.00000000000E+00  0.00000000000E+00  0.17839539489E+04  0.17839539489E+04  0.50400001928E-02 0. -1.
       -1   -1    0    0    0  501  0.00000000000E+00  0.00000000000E+00 -0.61741548429E+03  0.61741548431E+03  0.50400001928E-02 0.  1.
    10030    2    1    2    0    0  0.00000000000E+00  0.00000000000E+00  0.11665384646E+04  0.24013694332E+04  0.20989909875E+04 0.  0.
        2    1    3    3  502    0 -0.40524480866E+03  0.20535002672E+03 -0.49909083863E+03  0.67489529086E+03  0.25500000920E-02 0.  1.
       -2    1    3    3    0  502  0.40524480866E+03 -0.20535002672E+03  0.16656293032E+04  0.17264741424E+04  0.25500000920E-02 0. -1.
</event>
<event>
 5   0  0.6589193E-06  0.2101300E+04  0.7818609E-02  0.8560671E-01
        1   -1    0    0  501    0  0.00000000000E+00  0.00000000000E+00  0.82502984495E+03  0.82502984497E+03  0.50400001928E-02 0.  1.
       -1   -1    0    0    0  501  0.00000000000E+00  0.00000000000E+00 -0.13379704440E+04  0.13379704440E+04  0.50400001928E-02 0. -1.
    10030    2    1    2    0    0  0.00000000000E+00  0.00000000000E+00 -0.51294059901E+03  0.21630002889E+04  0.21013001194E+04 0.  0.
        3    1    3    3  502    0 -0.99464976999E+03  0.33540942414E+03 -0.30293883336E+03  0.10925198368E+04  0.10100000352E+00 0. -1.
       -3    1    3    3    0  502  0.99464976999E+03 -0.33540942414E+03 -0.21000176565E+03  0.10704804522E+04  0.10100000352E+00 0.  1.
</event>
<event>
 5   0  0.1441136E-05  0.2104517E+04  0.7818609E-02  0.8559256E-01
       -2   -1    0    0    0  501  0.00000000000E+00  0.00000000000E+00  0.73077322364E+03  0.73077322364E+03  0.25500000920E-02 0. -1.
        2   -1    0    0  501    0  0.00000000000E+00  0.00000000000E+00 -0.15151733167E+04  0.15151733167E+04  0.25500000920E-02 0.  1.
    10030    2    1    2    0    0  0.00000000000E+00  0.00000000000E+00 -0.78440009302E+03  0.22459465403E+04  0.21045171313E+04 0.  0.
        4    1    3    3  502    0  0.57141844662E+03  0.85823318242E+03 -0.61647326257E+03  0.12013010168E+04  0.12699999809E+01 0.  1.
       -4    1    3    3    0  502 -0.57141844662E+03 -0.85823318242E+03 -0.16792683045E+03  0.10446455235E+04  0.12699999809E+01 0. -1.
</event>
<event>
 5   0  0.6238363E-06  0.2100196E+04  0.7818609E-02  0.8561157E-01
        1   -1    0    0  501    0  0.00000000000E+00  0.00000000000E+00  0.10152869659E+04  0.10152869659E+04  0.50400001928E-02 0. -1.
       -1   -1    0    0    0  501  0.00000000000E+00  0.00000000000E+00 -0.10861030422E+04  0.10861030422E+04  0.50400001928E-02 0.  1.
    10030    2    1    2    0    0  0.00000000000E+00  0.00000000000E+00 -0.70816076327E+02  0.21013900081E+04  0.21001964311E+04 0.  0.
        4    1    3    3  502    0  0.76773586297E+03 -0.42536032919E+03 -0.61223795900E+03  0.10701339618E+04  0.12699999809E+01 0.  1.
       -4    1    3    3    0  502 -0.76773586297E+03  0.42536032919E+03  0.54142188267E+03  0.10312560462E+04  0.12699999809E+01 0. -1.
</event>
<event>
 5   0  0.1398469E-05  0.2107529E+04  0.7818609E-02  0.8557934E-01
        2   -1    0    0  501    0  0.00000000000E+00  0.00000000000E+00  0.14783606915E+04  0.14783606915E+04  0.25500000920E-02 0. -1.
       -2   -1    0    0    0  501  0.00000000000E+00  0.00000000000E+00 -0.75111540161E+03  0.75111540161E+03  0.25500000920E-02 0.  1.
    10030    2    1    2    0    0  0.00000000000E+00  0.00000000000E+00  0.72724528986E+03  0.22294760931E+04  0.21075288700E+04 0.  0.
        2    1    3    3  502    0  0.40646158760E+03  0.21301251974E+03 -0.63986150616E+03  0.78740593269E+03  0.25500000920E-02 0.  1.
       -2    1    3    3    0  502 -0.40646158760E+03 -0.21301251974E+03  0.13671067960E+04  0.14420701604E+04  0.25500000920E-02 0. -1.
</event>
<event>
 5   0  0.6589193E-06  0.2098999E+04  0.7818609E-02  0.8561685E-01
        1   -1    0    0  501    0  0.00000000000E+00  0.00000000000E+00  0.18956689801E+04  0.18956689801E+04  0.50400001928E-02 0. -1.
       -1   -1    0    0    0  501  0.00000000000E+00  0.00000000000E+00 -0.58103443516E+03  0.58103443518E+03  0.50400001928E-02 0.  1.
    10030    2    1    2    0    0  0.00000000000E+00  0.00000000000E+00  0.13146345449E+04  0.24767034153E+04  0.20989987662E+04 0.  0.
        3    1    3    3  502    0  0.39363942452E+03 -0.36348842530E+03 -0.40749618955E+03  0.67314856203E+03  0.10100000352E+00 0.  1.
       -3    1    3    3    0  502 -0.39363942452E+03  0.36348842530E+03  0.17221307345E+04  0.18035548533E+04  0.10100000352E+00 0. -1.
</event>
<event>
 5   0  0.1344501E-05  0.2104030E+04  0.7818609E-02  0.8559470E-01
        2   -1    0    0  501    0  0.00000000000E+00  0.00000000000E+00  0.14493484956E+04  0.14493484957E+04  0.25500000920E-02 0. -1.
       -2   -1    0    0    0  501  0.00000000000E+00  0.00000000000E+00 -0.76360907012E+03  0.76360907012E+03  0.25500000920E-02 0.  1.
    10030    2    1    2    0    0  0.00000000000E+00  0.00000000000E+00  0.68573942553E+03  0.22129575658E+04  0.21040300920E+04 0.  0.
        3    1    3    3  502    0  0.39660503285E+03 -0.64492741147E+03 -0.42536142172E+03  0.86842343787E+03  0.10100000352E+00 0.  1.
       -3    1    3    3    0  502 -0.39660503285E+03  0.64492741147E+03  0.11111008473E+04  0.13445341279E+04  0.10100000352E+00 0. -1.
</event>
<event>
 5   0  0.6599245E-06  0.2095066E+04  0.7818609E-02  0.8563420E-01
       -1   -1    0    0    0  501  0.00000000000E+00  0.00000000000E+00  0.10196093503E+04  0.10196093503E+04  0.50400001928E-02 0.  1.
        1   -1    0    0  501    0  0.00000000000E+00  0.00000000000E+00 -0.10762216885E+04  0.10762216885E+04  0.50400001928E-02 0. -1.
    10030    2    1    2    0    0  0.00000000000E+00  0.00000000000E+00 -0.56612338161E+02  0.20958310388E+04  0.20950662964E+04 0.  0.
        2    1    3    3  502    0  0.44596126801E+03  0.93473795330E+03 -0.18555515855E+03  0.10521631103E+04  0.25500000920E-02 0.  1.
       -2    1    3    3    0  502 -0.44596126801E+03 -0.93473795330E+03  0.12894282039E+03  0.10436679284E+04  0.25500000920E-02 0. -1.
</event>
<event>
 5   0  0.1398469E-05  0.2102355E+04  0.7818609E-02  0.8560207E-01
        2   -1    0    0  501    0  0.00000000000E+00  0.00000000000E+00  0.13805887893E+04  0.13805887893E+04  0.25500000920E-02 0.  1.
       -2   -1    0    0    0  501  0.00000000000E+00  0.00000000000E+00 -0.80036447332E+03  0.80036447332E+03  0.25500000920E-02 0. -1.
    10030    2    1    2    0    0  0.00000000000E+00  0.00000000000E+00  0.58022431600E+03  0.21809532626E+04  0.21023550787E+04 0.  0.
        2    1    3    3  502    0  0.94533672831E+03 -0.41258487563E+03  0.50038800302E+03  0.11464187555E+04  0.25500000920E-02 0.  1.
       -2    1    3    3    0  502 -0.94533672831E+03  0.41258487563E+03  0.79836312980E+02  0.10345345071E+04  0.25500000920E-02 0. -1.
</event>
<event>
 5   0  0.1395356E-05  0.2099049E+04  0.7818609E-02  0.8561663E-01
        2   -1    0    0  501    0  0.00000000000E+00  0.00000000000E+00  0.87457316554E+03  0.87457316555E+03  0.25500000920E-02 0.  1.
       -2   -1    0    0    0  501  0.00000000000E+00  0.00000000000E+00 -0.12594731521E+04  0.12594731521E+04  0.25500000920E-02 0. -1.
    10030    2    1    2    0    0  0.00000000000E+00  0.00000000000E+00 -0.38489998659E+03  0.21340463177E+04  0.20990487575E+04 0.  0.
        1    1    3    3  502    0  0.55897837967E+03 -0.42781033595E+03 -0.98390427956E+03  0.12097711122E+04  0.50400001928E-02 0. -1.
       -1    1    3    3    0  502 -0.55897837967E+03  0.42781033595E+03  0.59900429298E+03  0.92427520551E+03  0.50400001928E-02 0.  1.
</event>
<event>
 5   0  0.6283269E-06  0.2102730E+04  0.7818609E-02  0.8560042E-01
        1   -1    0    0  501    0  0.00000000000E+00  0.00000000000E+00  0.12399404237E+04  0.12399404237E+04  0.50400001928E-02 0. -1.
       -1   -1    0    0    0  501  0.00000000000E+00  0.00000000000E+00 -0.89146856037E+03  0.89146856038E+03  0.50400001928E-02 0.  1.
    10030    2    1    2    0    0  0.00000000000E+00  0.00000000000E+00  0.34847186331E+03  0.21314089841E+04  0.21027295637E+04 0.  0.
        1    1    3    3  502    0  0.90686325752E+03 -0.17583944098E+03 -0.33465475868E+03  0.98250408873E+03  0.50400001928E-02 0.  1.
       -1    1    3    3    0  502 -0.90686325752E+03  0.17583944098E+03  0.68312662199E+03  0.11489048953E+04  0.50400001928E-02 0. -1.
</event>
<event>
 5   0  0.6599245E-06  0.2098063E+04  0.7818609E-02  0.8562097E-01
        1   -1    0    0  501    0  0.00000000000E+00  0.00000000000E+00  0.13113935768E+04  0.13113935768E+04  0.50400001928E-02 0. -1.
       -1   -1    0    0    0  501  0.00000000000E+00  0.00000000000E+00 -0.83915836224E+03  0.83915836226E+03  0.50400001928E-02 0.  1.
    10030    2    1    2    0    0  0.00000000000E+00  0.00000000000E+00  0.47223521452E+03  0.21505519390E+04  0.20980628076E+04 0.  0.
        2    1    3    3  502    0 -0.90037119631E+03  0.54804785768E+02 -0.31281276590E+03  0.95473749387E+03  0.25500000920E-02 0.  1.
       -2    1    3    3    0  502  0.90037119631E+03 -0.54804785768E+02  0.78504798041E+03  0.11958144452E+04  0.25500000920E-02 0. -1.
</event>
<event>
 5   0  0.1398469E-05  0.2099499E+04  0.7818609E-02  0.8561464E-01
       -2   -1    0    0    0  501  0.00000000000E+00  0.00000000000E+00  0.48846494779E+03  0.48846494779E+03  0.25500000920E-02 0. -1.
        2   -1    0    0  501    0  0.00000000000E+00  0.00000000000E+00 -0.22559938305E+04  0.22559938305E+04  0.25500000920E-02 0.  1.
    10030    2    1    2    0    0  0.00000000000E+00  0.00000000000E+00 -0.17675288828E+04  0.27444587783E+04  0.20994989008E+04 0.  0.
        2    1    3    3  502    0 -0.44821257736E+03  0.45558459052E+03 -0.19723716483E+04  0.20733310765E+04  0.25500000920E-02 0.  1.
       -2    1    3    3    0  502  0.44821257736E+03 -0.45558459052E+03  0.20484276554E+03  0.67112770187E+03  0.25500000920E-02 0. -1.
</event>
<event>
 5   0  0.1441136E-05  0.2099941E+04  0.7818609E-02  0.8561269E-01
       -2   -1    0    0    0  501  0.00000000000E+00  0.00000000000E+00  0.72468794970E+03  0.72468794970E+03  0.25500000920E-02 0.  1.
        2   -1    0    0  501    0  0.00000000000E+00  0.00000000000E+00 -0.15212585434E+04  0.15212585434E+04  0.25500000920E-02 0. -1.
    10030    2    1    2    0    0  0.00000000000E+00  0.00000000000E+00 -0.79657059371E+03  0.22459464931E+04  0.20999406990E+04 0.  0.
        4    1    3    3  502    0 -0.65646287464E+03 -0.91673097038E+01 -0.12746518963E+04  0.14337944814E+04  0.12699999809E+01 0. -1.
       -4    1    3    3    0  502  0.65646287464E+03  0.91673097038E+01  0.47808130257E+03  0.81215201170E+03  0.12699999809E+01 0.  1.
</event>
<event>
 5   0  0.1344501E-05  0.2094282E+04  0.7818609E-02  0.8563767E-01
        2   -1    0    0  501    0  0.00000000000E+00  0.00000000000E+00  0.91959890532E+03  0.91959890532E+03  0.25500000920E-02 0.  1.
       -2   -1    0    0    0  501  0.00000000000E+00  0.00000000000E+00 -0.11923717822E+04  0.11923717822E+04  0.25500000920E-02 0. -1.
    10030    2    1    2    0    0  0.00000000000E+00  0.00000000000E+00 -0.27277287686E+03  0.21119706875E+04  0.20942815337E+04 0.  0.
        3    1    3    3  502    0 -0.30372662490E+03  0.81000618956E+03  0.45863444574E+03  0.97913505443E+03  0.10100000352E+00 0.  1.
       -3    1    3    3    0  502  0.30372662490E+03 -0.81000618956E+03 -0.73140732260E+03  0.11328356331E+04  0.10100000352E+00 0. -1.
</event>
<event>
 5   0  0.1390735E-05  0.2099144E+04  0.7818609E-02  0.8561621E-01
       -2   -1    0    0    0  501  0.00000000000E+00  0.00000000000E+00  0.94920165047E+03  0.94920165047E+03  0.25500000920E-02 0.  1.
        2   -1    0    0  501    0  0.00000000000E+00  0.00000000000E+00 -0.11605555158E+04  0.11605555158E+04  0.25500000920E-02 0. -1.
    10030    2    1    2    0    0  0.00000000000E+00  0.00000000000E+00 -0.21135386528E+03  0.21097571662E+04  0.20991438360E+04 0.  0.
        5    1    3    3  502    0 -0.60605148499E+03 -0.84371778977E+03  0.44816606953E+02  0.10398022550E+04  0.46999998093E+01 0.  1.
       -5    1    3    3    0  502  0.60605148499E+03  0.84371778977E+03 -0.25617047224E+03  0.10699549112E+04  0.46999998093E+01 0. -1.
</event>
<event>
 5   0  0.6238363E-06  0.2098974E+04  0.7818609E-02  0.8561695E-01
       -1   -1    0    0    0  501  0.00000000000E+00  0.00000000000E+00  0.57845477861E+03  0.57845477863E+03  0.50400001928E-02 0. -1.
        1   -1    0    0  501    0  0.00000000000E+00  0.00000000000E+00 -0.19040781784E+04  0.19040781784E+04  0.50400001928E-02 0.  1.
    10030    2    1    2    0    0  0.00000000000E+00  0.00000000000E+00 -0.13256233998E+04  0.24825329570E+04  0.20989741506E+04 0.  0.
        4    1    3    3  502    0  0.59817842240E+02  0.10248897437E+04 -0.40519134716E+03  0.11037023157E+04  0.12699999809E+01 0.  1.
       -4    1    3    3    0  502 -0.59817842240E+02 -0.10248897437E+04 -0.92043205263E+03  0.13788306413E+04  0.12699999809E+01 0. -1.
</event>
<event>
 5   0  0.6589193E-06  0.2098774E+04  0.7818609E-02  0.8561784E-01
        1   -1    0    0  501    0  0.00000000000E+00  0.00000000000E+00  0.12372749706E+04  0.12372749707E+04  0.50400001928E-02 0.  1.
       -1   -1    0    0    0  501  0.00000000000E+00  0.00000000000E+00 -0.89003092254E+03  0.89003092256E+03  0.50400001928E-02 0. -1.
    10030    2    1    2    0    0  0.00000000000E+00  0.00000000000E+00  0.34724404810E+03  0.21273058932E+04  0.20987739122E+04 0.  0.
        3    1    3    3  502    0 -0.29625950932E+03 -0.73011727346E+03 -0.52888900729E+03  0.94898078068E+03  0.10100000352E+00 0. -1.
       -3    1    3    3    0  502  0.29625950932E+03  0.73011727346E+03  0.87613305539E+03  0.11783251125E+04  0.10100000352E+00 0.  1.
</event>
<event>
 5   0  0.6283269E-06  0.2099113E+04  0.7818609E-02  0.8561634E-01
        1   -1    0    0  501    0  0.00000000000E+00  0.00000000000E+00  0.79938463063E+03  0.79938463064E+03  0.50400001928E-02 0.  1.
       -1   -1    0    0    0  501  0.00000000000E+00  0.00000000000E+00 -0.13780207094E+04  0.13780207094E+04  0.50400001928E-02 0. -1.
    10030    2    1    2    0    0  0.00000000000E+00  0.00000000000E+00 -0.57863607875E+03  0.21774053400E+04  0.20991127419E+04 0.  0.
        1    1    3    3  502    0 -0.93008202753E+03  0.39254346819E+03  0.84887805244E+01  0.10095617920E+04  0.50400001928E-02 0.  1.
       -1    1    3    3    0  502  0.93008202753E+03 -0.39254346819E+03 -0.58712485928E+03  0.11678435481E+04  0.50400001928E-02 0. -1.
</event>
<event>
 5   0  0.1441136E-05  0.2099018E+04  0.7818609E-02  0.8561676E-01
        2   -1    0    0  501    0  0.00000000000E+00  0.00000000000E+00  0.11831867338E+04  0.11831867338E+04  0.25500000920E-02 0. -1.
       -2   -1    0    0    0  501  0.00000000000E+00  0.00000000000E+00 -0.93093420726E+03  0.93093420726E+03  0.25500000920E-02 0.  1.
    10030    2    1    2    0    0  0.00000000000E+00  0.00000000000E+00  0.25225252654E+03  0.21141209411E+04  0.20990178695E+04 0.  0.
        4    1    3    3  502    0 -0.92411459587E+03 -0.46107330902E+03  0.31426163418E+03  0.10795083928E+04  0.12699999809E+01 0.  1.
       -4    1    3    3    0  502  0.92411459587E+03  0.46107330902E+03 -0.62009107643E+02  0.10346125482E+04  0.12699999809E+01 0. -1.
</event>
<event>
 5   0  0.1441136E-05  0.2102317E+04  0.7818609E-02  0.8560223E-01
       -2   -1    0    0    0  501  0.00000000000E+00  0.00000000000E+00  0.11702286809E+04  0.11702286809E+04  0.25500000920E-02 0.  1.
        2   -1    0    0  501    0  0.00000000000E+00  0.00000000000E+00 -0.94420379189E+03  0.94420379189E+03  0.25500000920E-02 0. -1.
    10030    2    1    2    0    0  0.00000000000E+00  0.00000000000E+00  0.22602488901E+03  0.21144324728E+04  0.21023171577E+04 0.  0.
        4    1    3    3  502    0 -0.61657689100E+03  0.84600053560E+03  0.20868569065E+03  0.10674433470E+04  0.12699999809E+01 0.  1.
       -4    1    3    3    0  502  0.61657689100E+03 -0.84600053560E+03  0.17339198361E+02  0.10469891258E+04  0.12699999809E+01 0. -1.
</event>
<event>
 5   0  0.6917078E-06  0.2095642E+04  0.7818609E-02  0.8563166E-01
       -1   -1    0    0    0  501  0.00000000000E+00  0.00000000000E+00  0.40560234699E+03  0.40560234702E+03  0.50400001928E-02 0. -1.
        1   -1    0    0  501    0  0.00000000000E+00  0.00000000000E+00 -0.27069084500E+04  0.27069084500E+04  0.50400001928E-02 0.  1.
    10030    2    1    2    0    0  0.00000000000E+00  0.00000000000E+00 -0.23013061030E+04  0.31125107971E+04  0.20956415919E+04 0.  0.
        5    1    3    3  502    0  0.94008019752E+03 -0.28007509104E+03 -0.16978017577E+04  0.19608023186E+04  0.46999998093E+01 0.  1.
       -5    1    3    3    0  502 -0.94008019752E+03  0.28007509104E+03 -0.60350434536E+03  0.11517084784E+04  0.46999998093E+01 0. -1.
</event>
<event>
 5   0  0.1398469E-05  0.2090766E+04  0.7818609E-02  0.8565322E-01
        2   -1    0    0  501    0  0.00000000000E+00  0.00000000000E+00  0.14519471696E+04  0.14519471696E+04  0.25500000920E-02 0.  1.
       -2   -1    0    0    0  501  0.00000000000E+00  0.00000000000E+00 -0.75266182783E+03  0.75266182784E+03  0.25500000920E-02 0. -1.
    10030    2    1    2    0    0  0.00000000000E+00  0.00000000000E+00  0.69928534179E+03  0.22046089975E+04  0.20907656116E+04 0.  0.
        2    1    3    3  502    0 -0.34935579712E+02  0.91737110129E+03  0.87690483918E+03  0.12695480807E+04  0.25500000920E-02 0.  1.
       -2    1    3    3    0  502  0.34935579712E+02 -0.91737110129E+03 -0.17761949738E+03  0.93506091677E+03  0.25500000920E-02 0. -1.
</event>
<event>
 5   0  0.6599245E-06  0.2086705E+04  0.7818609E-02  0.8567123E-01
        1   -1    0    0  501    0  0.00000000000E+00  0.00000000000E+00  0.68570038086E+03  0.68570038088E+03  0.50400001928E-02 0. -1.
       -1   -1    0    0    0  501  0.00000000000E+00  0.00000000000E+00 -0.15875510942E+04  0.15875510942E+04  0.50400001928E-02 0.  1.
    10030    2    1    2    0    0  0.00000000000E+00  0.00000000000E+00 -0.90185071337E+03  0.22732514751E+04  0.20867049528E+04 0.  0.
        2    1    3    3  502    0 -0.44395671826E+03  0.60494007911E+03 -0.12406705247E+04  0.14499356599E+04  0.25500000920E-02 0.  1.
       -2    1    3    3    0  502  0.44395671826E+03 -0.60494007911E+03  0.33881981135E+03  0.82331581521E+03  0.25500000920E-02 0. -1.
</event>
<event>
 5   0  0.6589193E-06  0.2098214E+04  0.7818609E-02  0.8562031E-01
        1   -1    0    0  501    0  0.00000000000E+00  0.00000000000E+00  0.20329150689E+04  0.20329150689E+04  0.50400001928E-02 0.  1.
       -1   -1    0    0    0  501  0.00000000000E+00  0.00000000000E+00 -0.54140260248E+03  0.54140260251E+03  0.50400001928E-02 0. -1.
    10030    2    1    2    0    0  0.00000000000E+00  0.00000000000E+00  0.14915124664E+04  0.25743176714E+04  0.20982140110E+04 0.  0.
        3    1    3    3  502    0 -0.96649350162E+03  0.76651710020E+02  0.25401158412E+03  0.10022510007E+04  0.10100000352E+00 0.  1.
       -3    1    3    3    0  502  0.96649350162E+03 -0.76651710020E+02  0.12375008823E+04  0.15720666707E+04  0.10100000352E+00 0. -1.
</event>
<event>
 5   0  0.1390735E-05  0.2100743E+04  0.7818609E-02  0.8560916E-01
        2   -1    0    0  501    0  0.00000000000E+00  0.00000000000E+00  0.25887945241E+04  0.25887945241E+04  0.25500000920E-02 0. -1.
       -2   -1    0    0    0  501  0.00000000000E+00  0.00000000000E+00 -0.42617531750E+03  0.42617531751E+03  0.25500000920E-02 0.  1.
    10030    2    1    2    0    0  0.00000000000E+00  0.00000000000E+00  0.21626192066E+04  0.30149698416E+04  0.21007430383E+04 0.  0.
        5    1    3    3  502    0  0.74113829368E+03  0.73839728297E+03  0.94712320527E+03  0.14112338480E+04  0.46999998093E+01 0. -1.
       -5    1    3    3    0  502 -0.74113829368E+03 -0.73839728297E+03  0.12154960013E+04  0.16037359936E+04  0.46999998093E+01 0.  1.
</event>
<event>
 5   0  0.1395356E-05  0.2095066E+04  0.7818609E-02  0.8563420E-01
        2   -1    0    0  501    0  0.00000000000E+00  0.00000000000E+00  0.98474488725E+03  0.98474488725E+03  0.25500000920E-02 0.  1.
       -2   -1    0    0    0  501  0.00000000000E+00  0.00000000000E+00 -0.11143243323E+04  0.11143243323E+04  0.25500000920E-02 0. -1.
    10030    2    1    2    0    0  0.00000000000E+00  0.00000000000E+00 -0.12957944502E+03  0.20990692195E+04  0.20950658118E+04 0.  0.
        1    1    3    3  502    0  0.30016325973E+03 -0.33623740965E+03 -0.10122031355E+04  0.11080202010E+04  0.50400001928E-02 0. -1.
       -1    1    3    3    0  502 -0.30016325973E+03  0.33623740965E+03  0.88262369050E+03  0.99104901857E+03  0.50400001928E-02 0.  1.
</event>
<event>
 5   0  0.6238363E-06  0.2099006E+04  0.7818609E-02  0.8561681E-01
       -1   -1    0    0    0  501  0.00000000000E+00  0.00000000000E+00  0.68989500402E+03  0.68989500404E+03  0.50400001928E-02 0. -1.
        1   -1    0    0  501    0  0.00000000000E+00  0.00000000000E+00 -0.15965571551E+04  0.15965571551E+04  0.50400001928E-02 0.  1.
    10030    2    1    2    0    0  0.00000000000E+00  0.00000000000E+00 -0.90666215105E+03  0.22864521591E+04  0.20990062458E+04 0.  0.
        4    1    3    3  502    0  0.64537853620E+03 -0.82752949858E+03 -0.46606548119E+03  0.11482757385E+04  0.12699999809E+01 0.  1.
       -4    1    3    3    0  502 -0.64537853620E+03  0.82752949858E+03 -0.44059666985E+03  0.11381764206E+04  0.12699999809E+01 0. -1.
</event>
<event>
 5   0  0.6238363E-06  0.2101436E+04  0.7818609E-02  0.8560611E-01
        1   -1    0    0  501    0  0.00000000000E+00  0.00000000000E+00  0.17629783761E+04  0.17629783761E+04  0.50400001928E-02 0.  1.
       -1   -1    0    0    0  501  0.00000000000E+00  0.00000000000E+00 -0.62621779175E+03  0.62621779177E+03  0.50400001928E-02 0. -1.
    10030    2    1    2    0    0  0.00000000000E+00  0.00000000000E+00  0.11367605844E+04  0.23891961679E+04  0.21014361048E+04 0.  0.
        4    1    3    3  502    0 -0.13574690886E+03 -0.29938765119E+03 -0.56624811277E+03  0.65475088932E+03  0.12699999809E+01 0. -1.
       -4    1    3    3    0  502  0.13574690886E+03  0.29938765119E+03  0.17030086971E+04  0.17344452786E+04  0.12699999809E+01 0.  1.
</event>
<event>
 5   0  0.6589193E-06  0.2087849E+04  0.7818609E-02  0.8566615E-01
        1   -1    0    0  501    0  0.00000000000E+00  0.00000000000E+00  0.91179031669E+03  0.91179031670E+03  0.50400001928E-02 0.  1.
       -1   -1    0    0    0  501  0.00000000000E+00  0.00000000000E+00 -0.11952069409E+04  0.11952069409E+04  0.50400001928E-02 0. -1.
    10030    2    1    2    0    0  0.00000000000E+00  0.00000000000E+00 -0.28341662420E+03  0.21069972576E+04  0.20878487638E+04 0.  0.
        3    1    3    3  502    0 -0.66342635152E+03  0.71059184047E+03 -0.52559533121E+03  0.11051360776E+04  0.10100000352E+00 0. -1.
       -3    1    3    3    0  502  0.66342635152E+03 -0.71059184047E+03  0.24217870701E+03  0.10018611800E+04  0.10100000352E+00 0.  1.
</event>
<event>
 5   0  0.1441136E-05  0.2098625E+04  0.7818609E-02  0.8561849E-01
        2   -1    0    0  501    0  0.00000000000E+00  0.00000000000E+00  0.20425131393E+04  0.20425131393E+04  0.25500000920E-02 0. -1.
       -2   -1    0    0    0  501  0.00000000000E+00  0.00000000000E+00 -0.53906955920E+03  0.53906955920E+03  0.25500000920E-02 0.  1.
    10030    2    1    2    0    0  0.00000000000E+00  0.00000000000E+00  0.15034435801E+04  0.25815826985E+04  0.20986249380E+04 0.  0.
        4    1    3    3  502    0 -0.59464455459E+03  0.68160314916E+03  0.14059732383E+04  0.16718096061E+04  0.12699999809E+01 0. -1.
       -4    1    3    3    0  502  0.59464455459E+03 -0.68160314916E+03  0.97470341780E+02  0.90977309241E+03  0.12699999809E+01 0.  1.
</event>
<event>
 5   0  0.6917078E-06  0.2099868E+04  0.7818609E-02  0.8561301E-01
        1   -1    0    0  501    0  0.00000000000E+00  0.00000000000E+00  0.10870929210E+04  0.10870929210E+04  0.50400001928E-02 0.  1.
       -1   -1    0    0    0  501  0.00000000000E+00  0.00000000000E+00 -0.10140454809E+04  0.10140454809E+04  0.50400001928E-02 0. -1.
    10030    2    1    2    0    0  0.00000000000E+00  0.00000000000E+00  0.73047440167E+02  0.21011384019E+04  0.20998682472E+04 0.  0.
        5    1    3    3  502    0 -0.56221908486E+03 -0.63102700683E+03 -0.58679303771E+03  0.10288991893E+04  0.46999998093E+01 0. -1.
       -5    1    3    3    0  502  0.56221908486E+03  0.63102700683E+03  0.65984047788E+03  0.10722392126E+04  0.46999998093E+01 0.  1.
</event>
<event>
 5   0  0.1344501E-05  0.2092770E+04  0.7818609E-02  0.8564435E-01
       -2   -1    0    0    0  501  0.00000000000E+00  0.00000000000E+00  0.12468019818E+04  0.12468019818E+04  0.25500000920E-02 0.  1.
        2   -1    0    0  501    0  0.00000000000E+00  0.00000000000E+00 -0.87818407555E+03  0.87818407556E+03  0.25500000920E-02 0. -1.
    10030    2    1    2    0    0  0.00000000000E+00  0.00000000000E+00  0.36861790620E+03  0.21249860573E+04  0.20927700741E+04 0.  0.
        3    1    3    3  502    0 -0.10121148094E+04  0.24888484232E+03  0.90136524705E+02  0.10461570893E+04  0.10100000352E+00 0. -1.
       -3    1    3    3    0  502  0.10121148094E+04 -0.24888484232E+03  0.27848138149E+03  0.10788289680E+04  0.10100000352E+00 0.  1.
</event>
<event>
 5   0  0.1344501E-05  0.2092537E+04  0.7818609E-02  0.8564538E-01
        2   -1    0    0  501    0  0.00000000000E+00  0.00000000000E+00  0.86576561404E+03  0.86576561405E+03  0.25500000920E-02 0. -1.
       -2   -1    0    0    0  501  0.00000000000E+00  0.00000000000E+00 -0.12644041721E+04  0.12644041721E+04  0.25500000920E-02 0.  1.
    10030    2    1    2    0    0  0.00000000000E+00  0.00000000000E+00 -0.39863855804E+03  0.21301697861E+04  0.20925368856E+04 0.  0.
        3    1    3    3  502    0  0.23960341990E+03 -0.91848915689E+03  0.24864647941E+03  0.98125287876E+03  0.10100000352E+00 0. -1.
       -3    1    3    3    0  502 -0.23960341990E+03  0.91848915689E+03 -0.64728503745E+03  0.11489169074E+04  0.10100000352E+00 0.  1.
</event>
<event>
 5   0  0.5009125E-06  0.2105334E+04  0.7818609E-02  0.8558897E-01
       -3   -1    0    0    0  501  0.00000000000E+00  0.00000000000E+00  0.60343264458E+03  0.60343265303E+03  0.10100000352E+00 0. -1.
        3   -1    0    0  501    0  0.00000000000E+00  0.00000000000E+00 -0.18363401623E+04  0.18363401650E+04  0.10100000352E+00 0.  1.
    10030    2    1    2    0    0  0.00000000000E+00  0.00000000000E+00 -0.12329075177E+04  0.24397728181E+04  0.21053338112E+04 0.  0.
        2    1    3    3  502    0 -0.83789547320E+03 -0.39207493028E+03 -0.34349398387E+02  0.92572752802E+03  0.25500000920E-02 0.  1.
       -2    1    3    3    0  502  0.83789547320E+03  0.39207493028E+03 -0.11985581193E+04  0.15140452900E+04  0.25500000920E-02 0. -1.
</event>
<event>
 5   0  0.6917078E-06  0.2099724E+04  0.7818609E-02  0.8561365E-01
        1   -1    0    0  501    0  0.00000000000E+00  0.00000000000E+00  0.69783313234E+03  0.69783313236E+03  0.50400001928E-02 0.  1.
       -1   -1    0    0    0  501  0.00000000000E+00  0.00000000000E+00 -0.15794746701E+04  0.15794746701E+04  0.50400001928E-02 0. -1.
    10030    2    1    2    0    0  0.00000000000E+00  0.00000000000E+00 -0.88164153778E+03  0.22773078025E+04  0.20997235595E+04 0.  0.
        5    1    3    3  502    0 -0.57063005779E+03 -0.49503746801E+03 -0.12315250133E+04  0.14447687379E+04  0.46999998093E+01 0. -1.
       -5    1    3    3    0  502  0.57063005779E+03  0.49503746801E+03  0.34988347555E+03  0.83253906458E+03  0.46999998093E+01 0.  1.
</event>
<event>
 5   0  0.1344501E-05  0.2091716E+04  0.7818609E-02  0.8564901E-01
        2   -1    0    0  501    0  0.00000000000E+00  0.00000000000E+00  0.13761586707E+04  0.13761586707E+04  0.25500000920E-02 0.  1.
       -2   -1    0    0    0  501  0.00000000000E+00  0.00000000000E+00 -0.79483510569E+03  0.79483510570E+03  0.25500000920E-02 0. -1.
    10030    2    1    2    0    0  0.00000000000E+00  0.00000000000E+00  0.58132356505E+03  0.21709937764E+04  0.20917162547E+04 0.  0.
        3    1    3    3  502    0 -0.41405826018E+03  0.80974005567E+03 -0.24533732644E+03  0.94197325574E+03  0.10100000352E+00 0. -1.
       -3    1    3    3    0  502  0.41405826018E+03 -0.80974005567E+03  0.82666089149E+03  0.12290205207E+04  0.10100000352E+00 0.  1.
</event>
<event>
 5   0  0.5009125E-06  0.2099675E+04  0.7818609E-02  0.8561386E-01
       -3   -1    0    0    0  501  0.00000000000E+00  0.00000000000E+00  0.61972188124E+03  0.61972188947E+03  0.10100000352E+00 0. -1.
        3   -1    0    0  501    0  0.00000000000E+00  0.00000000000E+00 -0.17784738105E+04  0.17784738134E+04  0.10100000352E+00 0.  1.
    10030    2    1    2    0    0  0.00000000000E+00  0.00000000000E+00 -0.11587519293E+04  0.23981957028E+04  0.20996753548E+04 0.  0.
        1    1    3    3  502    0 -0.21839132743E+03  0.16312855652E+03  0.57859606410E+03  0.63959291996E+03  0.50400001928E-02 0. -1.
       -1    1    3    3    0  502  0.21839132743E+03 -0.16312855652E+03 -0.17373479934E+04  0.17586027829E+04  0.50400001928E-02 0.  1.
</event>
<event>
 5   0  0.1398469E-05  0.2115323E+04  0.7818609E-02  0.8554523E-01
        2   -1    0    0  501    0  0.00000000000E+00  0.00000000000E+00  0.23142334444E+04  0.23142334444E+04  0.25500000920E-02 0.  1.
       -2   -1    0    0    0  501  0.00000000000E+00  0.00000000000E+00 -0.48337733915E+03  0.48337733915E+03  0.25500000920E-02 0. -1.
    10030    2    1    2    0    0  0.00000000000E+00  0.00000000000E+00  0.18308561053E+04  0.27976107836E+04  0.21153231474E+04 0.  0.
        2    1    3    3  502    0 -0.79342305998E+03  0.16005756923E+03  0.18158371145E+04  0.19880651408E+04  0.25500000920E-02 0.  1.
       -2    1    3    3    0  502  0.79342305998E+03 -0.16005756923E+03  0.15018990705E+02  0.80954564273E+03  0.25500000920E-02 0. -1.
</event>
<event>
 5   0  0.1395356E-05  0.2098957E+04  0.7818609E-02  0.8561703E-01
        2   -1    0    0  501    0  0.00000000000E+00  0.00000000000E+00  0.10381922279E+04  0.10381922280E+04  0.25500000920E-02 0. -1.
       -2   -1    0    0    0  501  0.00000000000E+00  0.00000000000E+00 -0.10608877981E+04  0.10608877981E+04  0.25500000920E-02 0.  1.
    10030    2    1    2    0    0  0.00000000000E+00  0.00000000000E+00 -0.22695570164E+02  0.20990800261E+04  0.20989573285E+04 0.  0.
        1    1    3    3  502    0 -0.45290771259E+03 -0.49858084942E+03  0.79349563666E+03  0.10408379244E+04  0.50400001928E-02 0. -1.
       -1    1    3    3    0  502  0.45290771259E+03  0.49858084942E+03 -0.81619120682E+03  0.10582421016E+04  0.50400001928E-02 0.  1.
</event>
<event>
 5   0  0.6283269E-06  0.2099829E+04  0.7818609E-02  0.8561319E-01
        1   -1    0    0  501    0  0.00000000000E+00  0.00000000000E+00  0.74614431858E+03  0.74614431859E+03  0.50400001928E-02 0. -1.
       -1   -1    0    0    0  501  0.00000000000E+00  0.00000000000E+00 -0.14773553998E+04  0.14773553998E+04  0.50400001928E-02 0.  1.
    10030    2    1    2    0    0  0.00000000000E+00  0.00000000000E+00 -0.73121108126E+03  0.22234997184E+04  0.20998288865E+04 0.  0.
        1    1    3    3  502    0 -0.58472776290E+03  0.57981025326E+02 -0.12869372604E+04  0.14147352643E+04  0.50400001928E-02 0.  1.
       -1    1    3    3    0  502  0.58472776290E+03 -0.57981025326E+02  0.55572617912E+03  0.80876445409E+03  0.50400001928E-02 0. -1.
</event>
<event>
 5   0  0.1441136E-05  0.2096390E+04  0.7818609E-02  0.8562835E-01
       -2   -1    0    0    0  501  0.00000000000E+00  0.00000000000E+00  0.95415023373E+03  0.95415023373E+03  0.25500000920E-02 0.  1.
        2   -1    0    0  501    0  0.00000000000E+00  0.00000000000E+00 -0.11515089763E+04  0.11515089763E+04  0.25500000920E-02 0. -1.
    10030    2    1    2    0    0  0.00000000000E+00  0.00000000000E+00 -0.19735874259E+03  0.21056592101E+04  0.20963898100E+04 0.  0.
        4    1    3    3  502    0 -0.57372623227E+02  0.50019818639E+03 -0.10221034822E+04  0.11393800879E+04  0.12699999809E+01 0. -1.
       -4    1    3    3    0  502  0.57372623227E+02 -0.50019818639E+03  0.82474473957E+03  0.96627912215E+03  0.12699999809E+01 0.  1.
</event>
<event>
 5   0  0.1441136E-05  0.2096531E+04  0.7818609E-02  0.8562773E-01
       -2   -1    0    0    0  501  0.00000000000E+00  0.00000000000E+00  0.95931145824E+03  0.95931145825E+03  0.25500000920E-02 0. -1.
        2   -1    0    0  501    0  0.00000000000E+00  0.00000000000E+00 -0.11454677674E+04  0.11454677674E+04  0.25500000920E-02 0.  1.
    10030    2    1    2    0    0  0.00000000000E+00  0.00000000000E+00 -0.18615630917E+03  0.21047792257E+04  0.20965308052E+04 0.  0.
        4    1    3    3  502    0  0.98466867075E+03  0.25944580349E+03 -0.34300381821E+03  0.10744941825E+04  0.12699999809E+01 0.  1.
       -4    1    3    3    0  502 -0.98466867075E+03 -0.25944580349E+03  0.15684750904E+03  0.10302850431E+04  0.12699999809E+01 0. -1.
</event>
<event>
 5   0  0.1344501E-05  0.2101653E+04  0.7818609E-02  0.8560516E-01
        2   -1    0    0  501    0  0.00000000000E+00  0.00000000000E+00  0.18195868296E+04  0.18195868296E+04  0.25500000920E-02 0.  1.
       -2   -1    0    0    0  501  0.00000000000E+00  0.00000000000E+00 -0.60686099346E+03  0.60686099346E+03  0.25500000920E-02 0. -1.
    10030    2    1    2    0    0  0.00000000000E+00  0.00000000000E+00  0.12127258361E+04  0.24264478230E+04  0.21016529410E+04 0.  0.
        3    1    3    3  502    0 -0.77692891086E+03 -0.41612271218E+03  0.12670393759E+04  0.15434265238E+04  0.10100000352E+00 0.  1.
       -3    1    3    3    0  502  0.77692891086E+03  0.41612271218E+03 -0.54313539752E+02  0.88302129925E+03  0.10100000352E+00 0. -1.
</event>
<event>
 5   0  0.6238363E-06  0.2100129E+04  0.7818609E-02  0.8561186E-01
        1   -1    0    0  501    0  0.00000000000E+00  0.00000000000E+00  0.14822029983E+04  0.14822029983E+04  0.50400001928E-02 0. -1.
       -1   -1    0    0    0  501  0.00000000000E+00  0.00000000000E+00 -0.74391676508E+03  0.74391676509E+03  0.50400001928E-02 0.  1.
    10030    2    1    2    0    0  0.00000000000E+00  0.00000000000E+00  0.73828623320E+03  0.22261197634E+04  0.21001291957E+04 0.  0.
        4    1    3    3  502    0  0.71918232959E+03  0.38176939302E+03  0.10719927937E+04  0.13461579608E+04  0.12699999809E+01 0. -1.
       -4    1    3    3    0  502 -0.71918232959E+03 -0.38176939302E+03 -0.33370656051E+03  0.87996180262E+03  0.12699999809E+01 0.  1.
</event>
<event>
 5   0  0.6599245E-06  0.2100986E+04  0.7818609E-02  0.8560809E-01
       -1   -1    0    0    0  501  0.00000000000E+00  0.00000000000E+00  0.96299079027E+03  0.96299079029E+03  0.50400001928E-02 0. -1.
        1   -1    0    0  501    0  0.00000000000E+00  0.00000000000E+00 -0.11459460638E+04  0.11459460638E+04  0.50400001928E-02 0.  1.
    10030    2    1    2    0    0  0.00000000000E+00  0.00000000000E+00 -0.18295527348E+03  0.21089368541E+04  0.21009859643E+04 0.  0.
        2    1    3    3  502    0 -0.86000609639E+03  0.57958614722E+03 -0.25945763612E+03  0.10690410903E+04  0.25500000920E-02 0.  1.
       -2    1    3    3    0  502  0.86000609639E+03 -0.57958614722E+03  0.76502362640E+02  0.10398957637E+04  0.25500000920E-02 0. -1.
</event>
<event>
 5   0  0.1344501E-05  0.2097958E+04  0.7818609E-02  0.8562143E-01
       -2   -1    0    0    0  501  0.00000000000E+00  0.00000000000E+00  0.63866275156E+03  0.63866275157E+03  0.25500000920E-02 0. -1.
        2   -1    0    0  501    0  0.00000000000E+00  0.00000000000E+00 -0.17229078795E+04  0.17229078795E+04  0.25500000920E-02 0.  1.
    10030    2    1    2    0    0  0.00000000000E+00  0.00000000000E+00 -0.10842451280E+04  0.23615706311E+04  0.20979581378E+04 0.  0.
        3    1    3    3  502    0  0.83430269462E+03  0.27587505730E+02  0.17294114329E+03  0.85248501803E+03  0.10100000352E+00 0. -1.
       -3    1    3    3    0  502 -0.83430269462E+03 -0.27587505730E+02 -0.12571862712E+04  0.15090856131E+04  0.10100000352E+00 0.  1.
</event>
<event>
 5   0  0.1441136E-05  0.2101016E+04  0.7818609E-02  0.8560796E-01
        2   -1    0    0  501    0  0.00000000000E+00  0.00000000000E+00  0.27497418573E+04  0.27497418573E+04  0.25500000920E-02 0.  1.
       -2   -1    0    0    0  501  0.00000000000E+00  0.00000000000E+00 -0.40133478932E+03  0.40133478933E+03  0.25500000920E-02 0. -1.
    10030    2    1    2    0    0  0.00000000000E+00  0.00000000000E+00  0.23484070680E+04  0.31510766466E+04  0.21010160104E+04 0.  0.
        4    1    3    3  502    0  0.86386783072E+03  0.38649137716E+03  0.49032325458E+03  0.10658619613E+04  0.12699999809E+01 0. -1.
       -4    1    3    3    0  502 -0.86386783072E+03 -0.38649137716E+03  0.18580838134E+04  0.20852146854E+04  0.12699999809E+01 0.  1.
</event>
<event>
 5   0  0.1441136E-05  0.2101485E+04  0.7818609E-02  0.8560590E-01
        2   -1    0    0  501    0  0.00000000000E+00  0.00000000000E+00  0.16520225367E+04  0.16520225367E+04  0.25500000920E-02 0. -1.
       -2   -1    0    0    0  501  0.00000000000E+00  0.00000000000E+00 -0.66830765543E+03  0.66830765543E+03  0.25500000920E-02 0.  1.
    10030    2    1    2    0    0  0.00000000000E+00  0.00000000000E+00  0.98371488130E+03  0.23203301922E+04  0.21014845307E+04 0.  0.
        4    1    3    3  502    0 -0.40036284965E+03 -0.40877426307E+03  0.14649230112E+04  0.15727008143E+04  0.12699999809E+01 0. -1.
       -4    1    3    3    0  502  0.40036284965E+03  0.40877426307E+03 -0.48120812989E+03  0.74762937791E+03  0.12699999809E+01 0.  1.
</event>
<event>
 5   0  0.6589193E-06  0.2089529E+04  0.7818609E-02  0.8565870E-01
        1   -1    0    0  501    0  0.00000000000E+00  0.00000000000E+00  0.17746496411E+04  0.17746496411E+04  0.50400001928E-02 0.  1.
       -1   -1    0    0    0  501  0.00000000000E+00  0.00000000000E+00 -0.61506926969E+03  0.61506926971E+03  0.50400001928E-02 0. -1.
    10030    2    1    2    0    0  0.00000000000E+00  0.00000000000E+00  0.11595803714E+04  0.23897189108E+04  0.20895286155E+04 0.  0.
        3    1    3    3  502    0  0.61941941132E+03  0.60238434778E+02 -0.37995007718E+03  0.72915783441E+03  0.10100000352E+00 0. -1.
       -3    1    3    3    0  502 -0.61941941132E+03 -0.60238434778E+02  0.15395304486E+04  0.16605610764E+04  0.10100000352E+00 0.  1.
</event>
<event>
 5   0  0.6283269E-06  0.2104773E+04  0.7818609E-02  0.8559144E-01
        1   -1    0    0  501    0  0.00000000000E+00  0.00000000000E+00  0.17365748388E+04  0.17365748388E+04  0.50400001928E-02 0.  1.
       -1   -1    0    0    0  501  0.00000000000E+00  0.00000000000E+00 -0.63775948178E+03  0.63775948180E+03  0.50400001928E-02 0. -1.
    10030    2    1    2    0    0  0.00000000000E+00  0.00000000000E+00  0.10988153570E+04  0.23743343206E+04  0.21047727376E+04 0.  0.
        1    1    3    3  502    0  0.68305314895E+03  0.58326683460E+03 -0.69239846037E+02  0.90086400802E+03  0.50400001928E-02 0. -1.
       -1    1    3    3    0  502 -0.68305314895E+03 -0.58326683460E+03  0.11680552030E+04  0.14734703126E+04  0.50400001928E-02 0.  1.
</event>
<event>
 5   0  0.6599245E-06  0.2101989E+04  0.7818609E-02  0.8560368E-01
        1   -1    0    0  501    0  0.00000000000E+00  0.00000000000E+00  0.78394378540E+03  0.78394378541E+03  0.50400001928E-02 0.  1.
       -1   -1    0    0    0  501  0.00000000000E+00  0.00000000000E+00 -0.14090165585E+04  0.14090165585E+04  0.50400001928E-02 0. -1.
    10030    2    1    2    0    0  0.00000000000E+00  0.00000000000E+00 -0.62507277314E+03  0.21929603440E+04  0.21019893193E+04 0.  0.
        2    1    3    3  502    0  0.59198341772E+02 -0.93191082426E+03  0.19065227148E+03  0.95305326015E+03  0.25500000920E-02 0.  1.
       -2    1    3    3    0  502 -0.59198341772E+02  0.93191082426E+03 -0.81572504462E+03  0.12399070838E+04  0.25500000920E-02 0. -1.
</event>
<event>
 5   0  0.1395356E-05  0.2098975E+04  0.7818609E-02  0.8561695E-01
       -2   -1    0    0    0  501  0.00000000000E+00  0.00000000000E+00  0.81218174763E+03  0.81218174763E+03  0.25500000920E-02 0. -1.
        2   -1    0    0  501    0  0.00000000000E+00  0.00000000000E+00 -0.13561301692E+04  0.13561301692E+04  0.25500000920E-02 0.  1.
    10030    2    1    2    0    0  0.00000000000E+00  0.00000000000E+00 -0.54394842155E+03  0.21683119168E+04  0.20989751507E+04 0.  0.
        1    1    3    3  502    0 -0.43995259864E+03  0.38675363458E+02  0.71150966536E+03  0.83743661056E+03  0.50400001928E-02 0. -1.
       -1    1    3    3    0  502  0.43995259864E+03 -0.38675363458E+02 -0.12554580869E+04  0.13308753063E+04  0.50400001928E-02 0.  1.
</event>
<event>
 5   0  0.1441136E-05  0.2101767E+04  0.7818609E-02  0.8560465E-01
       -2   -1    0    0    0  501  0.00000000000E+00  0.00000000000E+00  0.11062177390E+04  0.11062177390E+04  0.25500000920E-02 0. -1.
        2   -1    0    0  501    0  0.00000000000E+00  0.00000000000E+00 -0.99831731671E+03  0.99831731671E+03  0.25500000920E-02 0.  1.
    10030    2    1    2    0    0  0.00000000000E+00  0.00000000000E+00  0.10790042227E+03  0.21045350557E+04  0.21017671849E+04 0.  0.
        4    1    3    3  502    0  0.37069926271E+03  0.40509020081E+03 -0.84324243689E+03  0.10062680728E+04  0.12699999809E+01 0.  1.
       -4    1    3    3    0  502 -0.37069926271E+03 -0.40509020081E+03  0.95114285915E+03  0.10982669828E+04  0.12699999809E+01 0. -1.
</event>
<event>
 5   0  0.6917078E-06  0.2101802E+04  0.7818609E-02  0.8560450E-01
        1   -1    0    0  501    0  0.00000000000E+00  0.00000000000E+00  0.23775433750E+04  0.23775433750E+04  0.50400001928E-02 0. -1.
       -1   -1    0    0    0  501  0.00000000000E+00  0.00000000000E+00 -0.46450991742E+03  0.46450991745E+03  0.50400001928E-02 0.  1.
    10030    2    1    2    0    0  0.00000000000E+00  0.00000000000E+00  0.19130334576E+04  0.28420532924E+04  0.21018015861E+04 0.  0.
        5    1    3    3  502    0  0.37803325617E+03  0.82791402646E+03  0.16669290251E+04  0.18992170078E+04  0.46999998093E+01 0.  1.
       -5    1    3    3    0  502 -0.37803325617E+03 -0.82791402646E+03  0.24610443249E+03  0.94283628466E+03  0.46999998093E+01 0. -1.
</event>
<event>
 5   0  0.1395356E-05  0.2097881E+04  0.7818609E-02  0.8562177E-01
        2   -1    0    0  501    0  0.00000000000E+00  0.00000000000E+00  0.11318298623E+04  0.11318298623E+04  0.25500000920E-02 0. -1.
       -2   -1    0    0    0  501  0.00000000000E+00  0.00000000000E+00 -0.97212152565E+03  0.97212152565E+03  0.25500000920E-02 0.  1.
    10030    2    1    2    0    0  0.00000000000E+00  0.00000000000E+00  0.15970833663E+03  0.21039513879E+04  0.20978810000E+04 0.  0.
        1    1    3    3  502    0 -0.85964473825E+03  0.25997837824E+03  0.62336173780E+03  0.10932326785E+04  0.50400001928E-02 0. -1.
       -1    1    3    3    0  502  0.85964473825E+03 -0.25997837824E+03 -0.46365340118E+03  0.10107187094E+04  0.50400001928E-02 0.  1.
</event>
<event>
 5   0  0.6589193E-06  0.2095598E+04  0.7818609E-02  0.8563185E-01
       -1   -1    0    0    0  501  0.00000000000E+00  0.00000000000E+00  0.16296259006E+04  0.16296259006E+04  0.50400001928E-02 0.  1.
        1   -1    0    0  501    0  0.00000000000E+00  0.00000000000E+00 -0.67370248142E+03  0.67370248143E+03  0.50400001928E-02 0. -1.
    10030    2    1    2    0    0  0.00000000000E+00  0.00000000000E+00  0.95592341922E+03  0.23033283821E+04  0.20955982564E+04 0.  0.
        3    1    3    3  502    0 -0.87178782766E+03 -0.56967624814E+03  0.60489996199E+03  0.12043458882E+04  0.10100000352E+00 0.  1.
       -3    1    3    3    0  502  0.87178782766E+03  0.56967624814E+03  0.35102345723E+03  0.10989824939E+04  0.10100000352E+00 0. -1.
</event>
<event>
 5   0  0.6917078E-06  0.2089385E+04  0.7818609E-02  0.8565934E-01
       -1   -1    0    0    0  501  0.00000000000E+00  0.00000000000E+00  0.80081891330E+03  0.80081891332E+03  0.50400001928E-02 0.  1.
        1   -1    0    0  501    0  0.00000000000E+00  0.00000000000E+00 -0.13628329106E+04  0.13628329106E+04  0.50400001928E-02 0. -1.
    10030    2    1    2    0    0  0.00000000000E+00  0.00000000000E+00 -0.56201399727E+03  0.21636518239E+04  0.20893849530E+04 0.  0.
        5    1    3    3  502    0 -0.68319255684E+03 -0.22814564223E+03 -0.10645783900E+04  0.12853605495E+04  0.46999998093E+01 0. -1.
       -5    1    3    3    0  502  0.68319255684E+03  0.22814564223E+03  0.50256439274E+03  0.87829127437E+03  0.46999998093E+01 0.  1.
</event>
<event>
 5   0  0.6917078E-06  0.2096699E+04  0.7818609E-02  0.8562699E-01
        1   -1    0    0  501    0  0.00000000000E+00  0.00000000000E+00  0.13930940496E+04  0.13930940496E+04  0.50400001928E-02 0. -1.
       -1   -1    0    0    0  501  0.00000000000E+00  0.00000000000E+00 -0.78891774068E+03  0.78891774070E+03  0.50400001928E-02 0.  1.
    10030    2    1    2    0    0  0.00000000000E+00  0.00000000000E+00  0.60417630893E+03  0.21820117903E+04  0.20966989390E+04 0.  0.
        5    1    3    3  502    0  0.25370138402E+03 -0.22753561985E+03  0.13338293029E+04  0.13766842593E+04  0.46999998093E+01 0. -1.
       -5    1    3    3    0  502 -0.25370138402E+03  0.22753561985E+03 -0.72965299399E+03  0.80532753100E+03  0.46999998093E+01 0.  1.
</event>
<event>
 5   0  0.1390735E-05  0.2106322E+04  0.7818609E-02  0.8558464E-01
       -2   -1    0    0    0  501  0.00000000000E+00  0.00000000000E+00  0.15817224962E+04  0.15817224962E+04  0.25500000920E-02 0.  1.
        2   -1    0    0  501    0  0.00000000000E+00  0.00000000000E+00 -0.70122771742E+03  0.70122771743E+03  0.25500000920E-02 0. -1.
    10030    2    1    2    0    0  0.00000000000E+00  0.00000000000E+00  0.88049477882E+03  0.22829502137E+04  0.21063215857E+04 0.  0.
        5    1    3    3  502    0  0.62148159907E+03 -0.17722488276E+03  0.13415295970E+04  0.14890842107E+04  0.46999998093E+01 0.  1.
       -5    1    3    3    0  502 -0.62148159907E+03  0.17722488276E+03 -0.46103481817E+03  0.79386600294E+03  0.46999998093E+01 0. -1.
</event>
<event>
 5   0  0.1390735E-05  0.2102323E+04  0.7818609E-02  0.8560221E-01
        2   -1    0    0  501    0  0.00000000000E+00  0.00000000000E+00  0.11022100619E+04  0.11022100619E+04  0.25500000920E-02 0. -1.
       -2   -1    0    0    0  501  0.00000000000E+00  0.00000000000E+00 -0.10024774350E+04  0.10024774350E+04  0.25500000920E-02 0.  1.
    10030    2    1    2    0    0  0.00000000000E+00  0.00000000000E+00  0.99732626813E+02  0.21046874969E+04  0.21023232061E+04 0.  0.
        5    1    3    3  502    0  0.37738475785E+03  0.39168538123E+03  0.95036770524E+03  0.10950148668E+04  0.46999998093E+01 0. -1.
       -5    1    3    3    0  502 -0.37738475785E+03 -0.39168538123E+03 -0.85063507843E+03  0.10096726301E+04  0.46999998093E+01 0.  1.
</event>
<event>
 5   0  0.1441136E-05  0.2100876E+04  0.7818609E-02  0.8560858E-01
        2   -1    0    0  501    0  0.00000000000E+00  0.00000000000E+00  0.22476914507E+04  0.22476914507E+04  0.25500000920E-02 0.  1.
       -2   -1    0    0    0  501  0.00000000000E+00  0.00000000000E+00 -0.49091247604E+03  0.49091247604E+03  0.25500000920E-02 0. -1.
    10030    2    1    2    0    0  0.00000000000E+00  0.00000000000E+00  0.17567789746E+04  0.27386039267E+04  0.21008757940E+04 0.  0.
        4    1    3    3  502    0 -0.45976033652E+03  0.71342660550E+03  0.16851838599E+04  0.18868501114E+04  0.12699999809E+01 0.  1.
       -4    1    3    3    0  502  0.45976033652E+03 -0.71342660550E+03  0.71595114729E+02  0.85175381527E+03  0.12699999809E+01 0. -1.
</event>
<event>
 5   0  0.6283269E-06  0.2107202E+04  0.7818609E-02  0.8558077E-01
        1   -1    0    0  501    0  0.00000000000E+00  0.00000000000E+00  0.12055305624E+04  0.12055305625E+04  0.50400001928E-02 0.  1.
       -1   -1    0    0    0  501  0.00000000000E+00  0.00000000000E+00 -0.92081907297E+03  0.92081907298E+03  0.50400001928E-02 0. -1.
    10030    2    1    2    0    0  0.00000000000E+00  0.00000000000E+00  0.28471148947E+03  0.21263496354E+04  0.21072024440E+04 0.  0.
        1    1    3    3  502    0 -0.17444557630E+02  0.27298535172E+03 -0.88436203191E+03  0.92570055545E+03  0.50400001928E-02 0. -1.
       -1    1    3    3    0  502  0.17444557630E+02 -0.27298535172E+03  0.11690735214E+04  0.12006490800E+04  0.50400001928E-02 0.  1.
</event>
<event>
 5   0  0.1390735E-05  0.2103657E+04  0.7818609E-02  0.8559634E-01
       -2   -1    0    0    0  501  0.00000000000E+00  0.00000000000E+00  0.59986600780E+03  0.59986600781E+03  0.25500000920E-02 0.  1.
        2   -1    0    0  501    0  0.00000000000E+00  0.00000000000E+00 -0.18443170827E+04  0.18443170827E+04  0.25500000920E-02 0. -1.
    10030    2    1    2    0    0  0.00000000000E+00  0.00000000000E+00 -0.12444510749E+04  0.24441830905E+04  0.21036569354E+04 0.  0.
        5    1    3    3  502    0  0.91818842405E+03  0.20978104168E+03 -0.78197033145E+02  0.94510048857E+03  0.46999998093E+01 0.  1.
       -5    1    3    3    0  502 -0.91818842405E+03 -0.20978104168E+03 -0.11662540417E+04  0.14990826019E+04  0.46999998093E+01 0. -1.
</event>
<event>
 5   0  0.6917078E-06  0.2114399E+04  0.7818609E-02  0.8554927E-01
       -1   -1    0    0    0  501  0.00000000000E+00  0.00000000000E+00  0.14327250374E+04  0.14327250374E+04  0.50400001928E-02 0. -1.
        1   -1    0    0  501    0  0.00000000000E+00  0.00000000000E+00 -0.78010142516E+03  0.78010142517E+03  0.50400001928E-02 0.  1.
    10030    2    1    2    0    0  0.00000000000E+00  0.00000000000E+00  0.65262361224E+03  0.22128264626E+04  0.21143990575E+04 0.  0.
        5    1    3    3  502    0  0.39876025695E+03  0.43801042803E+03  0.12427379119E+04  0.13766925892E+04  0.46999998093E+01 0. -1.
       -5    1    3    3    0  502 -0.39876025695E+03 -0.43801042803E+03 -0.59011429963E+03  0.83613387337E+03  0.46999998093E+01 0.  1.
</event>
<event>
 5   0  0.1344501E-05  0.2105149E+04  0.7818609E-02  0.8558979E-01
       -2   -1    0    0    0  501  0.00000000000E+00  0.00000000000E+00  0.79417584948E+03  0.79417584948E+03  0.25500000920E-02 0. -1.
        2   -1    0    0  501    0  0.00000000000E+00  0.00000000000E+00 -0.13950473165E+04  0.13950473165E+04  0.25500000920E-02 0.  1.
    10030    2    1    2    0    0  0.00000000000E+00  0.00000000000E+00 -0.60087146705E+03  0.21892231660E+04  0.21051488191E+04 0.  0.
        3    1    3    3  502    0 -0.64851973623E+03  0.58093232168E+03  0.31467007296E+03  0.92578478907E+03  0.10100000352E+00 0. -1.
       -3    1    3    3    0  502  0.64851973623E+03 -0.58093232168E+03 -0.91554154001E+03  0.12634383769E+04  0.10100000352E+00 0.  1.
</event>
<event>
 5   0  0.1390735E-05  0.2096868E+04  0.7818609E-02  0.8562624E-01
       -2   -1    0    0    0  501  0.00000000000E+00  0.00000000000E+00  0.12125568205E+04  0.12125568205E+04  0.25500000920E-02 0.  1.
        2   -1    0    0  501    0  0.00000000000E+00  0.00000000000E+00 -0.90652527276E+03  0.90652527276E+03  0.25500000920E-02 0. -1.
    10030    2    1    2    0    0  0.00000000000E+00  0.00000000000E+00  0.30603154775E+03  0.21190820933E+04  0.20968675709E+04 0.  0.
        5    1    3    3  502    0 -0.53476816287E+03  0.20910436679E+03  0.10395146321E+04  0.11875665812E+04  0.46999998093E+01 0.  1.
       -5    1    3    3    0  502  0.53476816287E+03 -0.20910436679E+03 -0.73348308439E+03  0.93151551212E+03  0.46999998093E+01 0. -1.
</event>
<event>
 5   0  0.6238363E-06  0.2140903E+04  0.7818609E-02  0.8543436E-01
        1   -1    0    0  501    0  0.00000000000E+00  0.00000000000E+00  0.19407150180E+04  0.19407150180E+04  0.50400001928E-02 0.  1.
       -1   -1    0    0    0  501  0.00000000000E+00  0.00000000000E+00 -0.59043510382E+03  0.59043510384E+03  0.50400001928E-02 0. -1.
    10030    2    1    2    0    0  0.00000000000E+00  0.00000000000E+00  0.13502799142E+04  0.25311501218E+04  0.21409028686E+04 0.  0.
        4    1    3    3  502    0 -0.96125284909E+03 -0.42421200957E+03  0.91715214312E+03  0.13946800836E+04  0.12699999809E+01 0. -1.
       -4    1    3    3    0  502  0.96125284909E+03  0.42421200957E+03  0.43312777105E+03  0.11364700383E+04  0.12699999809E+01 0.  1.
</event>
<event>
 5   0  0.1344501E-05  0.2098340E+04  0.7818609E-02  0.8561975E-01
       -2   -1    0    0    0  501  0.00000000000E+00  0.00000000000E+00  0.10681693956E+04  0.10681693956E+04  0.25500000920E-02 0.  1.
        2   -1    0    0  501    0  0.00000000000E+00  0.00000000000E+00 -0.10305089291E+04  0.10305089291E+04  0.25500000920E-02 0. -1.
    10030    2    1    2    0    0  0.00000000000E+00  0.00000000000E+00  0.37660466467E+02  0.20986783247E+04  0.20983403918E+04 0.  0.
        3    1    3    3  502    0 -0.91648124379E+03 -0.11989732704E+03 -0.47768183675E+03  0.10404293280E+04  0.10100000352E+00 0. -1.
       -3    1    3    3    0  502  0.91648124379E+03  0.11989732704E+03  0.51534230321E+03  0.10582489967E+04  0.10100000352E+00 0.  1.
</event>
<event>
 5   0  0.1398469E-05  0.2097259E+04  0.7818609E-02  0.8562452E-01
        2   -1    0    0  501    0  0.00000000000E+00  0.00000000000E+00  0.10155958753E+04  0.10155958753E+04  0.25500000920E-02 0. -1.
       -2   -1    0    0    0  501  0.00000000000E+00  0.00000000000E+00 -0.10827374250E+04  0.10827374250E+04  0.25500000920E-02 0.  1.
    10030    2    1    2    0    0  0.00000000000E+00  0.00000000000E+00 -0.67141549642E+02  0.20983333003E+04  0.20972588423E+04 0.  0.
        2    1    3    3  502    0 -0.42753650284E+03 -0.77457058243E+03 -0.59677711280E+03  0.10671878798E+04  0.25500000920E-02 0.  1.
       -2    1    3    3    0  502  0.42753650284E+03  0.77457058243E+03  0.52963556316E+03  0.10311454205E+04  0.25500000920E-02 0. -1.
</event>
<event>
 5   0  0.1441136E-05  0.2100877E+04  0.7818609E-02  0.8560857E-01
        2   -1    0    0  501    0  0.00000000000E+00  0.00000000000E+00  0.12640609935E+04  0.12640609935E+04  0.25500000920E-02 0. -1.
       -2   -1    0    0    0  501  0.00000000000E+00  0.00000000000E+00 -0.87291752397E+03  0.87291752398E+03  0.25500000920E-02 0.  1.
    10030    2    1    2    0    0  0.00000000000E+00  0.00000000000E+00  0.39114346952E+03  0.21369785175E+04  0.21008769527E+04 0.  0.
        4    1    3    3  502    0  0.71419692308E+03 -0.76945487399E+03  0.15916092683E+03  0.10618247791E+04  0.12699999809E+01 0. -1.
       -4    1    3    3    0  502 -0.71419692308E+03  0.76945487399E+03  0.23198254269E+03  0.10751537383E+04  0.12699999809E+01 0.  1.
</event>
<event>
 5   0  0.1344501E-05  0.2100610E+04  0.7818609E-02  0.8560975E-01
        2   -1    0    0  501    0  0.00000000000E+00  0.00000000000E+00  0.15544106536E+04  0.15544106536E+04  0.25500000920E-02 0.  1.
       -2   -1    0    0    0  501  0.00000000000E+00  0.00000000000E+00 -0.70968421809E+03  0.70968421810E+03  0.25500000920E-02 0. -1.
    10030    2    1    2    0    0  0.00000000000E+00  0.00000000000E+00  0.84472643555E+03  0.22640948717E+04  0.21006101107E+04 0.  0.
        3    1    3    3  502    0  0.39263629993E+03  0.24703726561E+03  0.14380117174E+04  0.15109825890E+04  0.10100000352E+00 0.  1.
       -3    1    3    3    0  502 -0.39263629993E+03 -0.24703726561E+03 -0.59328528184E+03  0.75311228277E+03  0.10100000352E+00 0. -1.
</event>
<event>
 5   0  0.1395356E-05  0.2094096E+04  0.7818609E-02  0.8563849E-01
       -2   -1    0    0    0  501  0.00000000000E+00  0.00000000000E+00  0.87801234205E+03  0.87801234205E+03  0.25500000920E-02 0. -1.
        2   -1    0    0  501    0  0.00000000000E+00  0.00000000000E+00 -0.12486264221E+04  0.12486264221E+04  0.25500000920E-02 0.  1.
    10030    2    1    2    0    0  0.00000000000E+00  0.00000000000E+00 -0.37061408003E+03  0.21266387641E+04  0.20940958996E+04 0.  0.
        1    1    3    3  502    0  0.57180752570E+03  0.25242405093E+02  0.70507823325E+03  0.90814995485E+03  0.50400001928E-02 0. -1.
       -1    1    3    3    0  502 -0.57180752570E+03 -0.25242405093E+02 -0.10756923133E+04  0.12184888093E+04  0.50400001928E-02 0.  1.
</event>
<event>
 5   0  0.1395356E-05  0.2095631E+04  0.7818609E-02  0.8563170E-01
       -2   -1    0    0    0  501  0.00000000000E+00  0.00000000000E+00  0.10404570455E+04  0.10404570455E+04  0.25500000920E-02 0. -1.
        2   -1    0    0  501    0  0.00000000000E+00  0.00000000000E+00 -0.10552263488E+04  0.10552263488E+04  0.25500000920E-02 0.  1.
    10030    2    1    2    0    0  0.00000000000E+00  0.00000000000E+00 -0.14769303287E+02  0.20956833943E+04  0.20956313504E+04 0.  0.
        1    1    3    3  502    0 -0.92928521930E+03 -0.25918176900E+03 -0.41626089737E+03  0.10507232475E+04  0.50400001928E-02 0.  1.
       -1    1    3    3    0  502  0.92928521930E+03  0.25918176900E+03  0.40149159408E+03  0.10449601468E+04  0.50400001928E-02 0. -1.
</event>
<event>
 5   0  0.6283269E-06  0.2101470E+04  0.7818609E-02  0.8560596E-01
       -1   -1    0    0    0  501  0.00000000000E+00  0.00000000000E+00  0.47979205063E+03  0.47979205066E+03  0.50400001928E-02 0.  1.
        1   -1    0    0  501    0  0.00000000000E+00  0.00000000000E+00 -0.23010891170E+04  0.23010891170E+04  0.50400001928E-02 0. -1.
    10030    2    1    2    0    0  0.00000000000E+00  0.00000000000E+00 -0.18212970664E+04  0.27808811677E+04  0.21014702150E+04 0.  0.
        1    1    3    3  502    0 -0.19472404164E+03  0.54933229622E+03 -0.20675820613E+04  0.21481571182E+04  0.50400001928E-02 0. -1.
       -1    1    3    3    0  502  0.19472404164E+03 -0.54933229622E+03  0.24628499493E+03  0.63272404950E+03  0.50400001928E-02 0.  1.
</event>
<event>
 5   0  0.6599245E-06  0.2101601E+04  0.7818609E-02  0.8560539E-01
       -1   -1    0    0    0  501  0.00000000000E+00  0.00000000000E+00  0.10449215346E+04  0.10449215346E+04  0.50400001928E-02 0.  1.
        1   -1    0    0  501    0  0.00000000000E+00  0.00000000000E+00 -0.10567121086E+04  0.10567121086E+04  0.50400001928E-02 0. -1.
    10030    2    1    2    0    0  0.00000000000E+00  0.00000000000E+00 -0.11790573969E+02  0.21016336432E+04  0.21016005693E+04 0.  0.
        2    1    3    3  502    0 -0.93984267940E+03  0.15727969518E+03  0.43698872401E+03  0.10483321561E+04  0.25500000920E-02 0.  1.
       -2    1    3    3    0  502  0.93984267940E+03 -0.15727969518E+03 -0.44877929798E+03  0.10533014872E+04  0.25500000920E-02 0. -1.
</event>
<event>
 5   0  0.1395356E-05  0.2100254E+04  0.7818609E-02  0.8561132E-01
        2   -1    0    0  501    0  0.00000000000E+00  0.00000000000E+00  0.12144125708E+04  0.12144125708E+04  0.25500000920E-02 0. -1.
       -2   -1    0    0    0  501  0.00000000000E+00  0.00000000000E+00 -0.90806592083E+03  0.90806592083E+03  0.25500000920E-02 0.  1.
    10030    2    1    2    0    0  0.00000000000E+00  0.00000000000E+00  0.30634664994E+03  0.21224784916E+04  0.21002539555E+04 0.  0.
        1    1    3    3  502    0  0.14692390984E+03  0.47773040169E+03 -0.78015450263E+03  0.92652793805E+03  0.50400001928E-02 0.  1.
       -1    1    3    3    0  502 -0.14692390984E+03 -0.47773040169E+03  0.10865011526E+04  0.11959505536E+04  0.50400001928E-02 0. -1.
</event>
<event>
 5   0  0.6589193E-06  0.2107588E+04  0.7818609E-02  0.8557908E-01
       -1   -1    0    0    0  501  0.00000000000E+00  0.00000000000E+00  0.77309052857E+03  0.77309052858E+03  0.50400001928E-02 0.  1.
        1   -1    0    0  501    0  0.00000000000E+00  0.00000000000E+00 -0.14364188670E+04  0.14364188670E+04  0.50400001928E-02 0. -1.
    10030    2    1    2    0    0  0.00000000000E+00  0.00000000000E+00 -0.66332833844E+03  0.22095093956E+04  0.21075880254E+04 0.  0.
        3    1    3    3  502    0  0.10275143292E+04  0.14618120551E+03 -0.52304980731E+03  0.11622115783E+04  0.10100000352E+00 0.  1.
       -3    1    3    3    0  502 -0.10275143292E+04 -0.14618120551E+03 -0.14027853113E+03  0.10472978173E+04  0.10100000352E+00 0. -1.
</event>
<event>
 5   0  0.1390735E-05  0.2102142E+04  0.7818609E-02  0.8560300E-01
       -2   -1    0    0    0  501  0.00000000000E+00  0.00000000000E+00  0.72314142562E+03  0.72314142563E+03  0.25500000920E-02 0.  1.
        2   -1    0    0  501    0  0.00000000000E+00  0.00000000000E+00 -0.15277101640E+04  0.15277101640E+04  0.25500000920E-02 0. -1.
    10030    2    1    2    0    0  0.00000000000E+00  0.00000000000E+00 -0.80456873833E+03  0.22508515896E+04  0.21021422463E+04 0.  0.
        5    1    3    3  502    0 -0.10480431806E+04  0.17409677053E+02 -0.48543635104E+03  0.11551485386E+04  0.46999998093E+01 0.  1.
       -5    1    3    3    0  502  0.10480431806E+04 -0.17409677053E+02 -0.31913238730E+03  0.10957030510E+04  0.46999998093E+01 0. -1.
</event>
<event>
 5   0  0.6589193E-06  0.2097993E+04  0.7818609E-02  0.8562128E-01
        1   -1    0    0  501    0  0.00000000000E+00  0.00000000000E+00  0.18192005129E+04  0.18192005129E+04  0.50400001928E-02 0. -1.
       -1   -1    0    0    0  501  0.00000000000E+00  0.00000000000E+00 -0.60487747605E+03  0.60487747607E+03  0.50400001928E-02 0.  1.
    10030    2    1    2    0    0  0.00000000000E+00  0.00000000000E+00  0.12143230368E+04  0.24240779890E+04  0.20979927690E+04 0.  0.
        3    1    3    3  502    0 -0.39804057038E+03  0.34400582312E+03 -0.44142743735E+03  0.68675650318E+03  0.10100000352E+00 0.  1.
       -3    1    3    3    0  502  0.39804057038E+03 -0.34400582312E+03  0.16557504742E+04  0.17373214858E+04  0.10100000352E+00 0. -1.
</event>
<event>
 5   0  0.1398469E-05  0.2098351E+04  0.7818609E-02  0.8561970E-01
       -2   -1    0    0    0  501  0.00000000000E+00  0.00000000000E+00  0.51772761854E+03  0.51772761855E+03  0.25500000920E-02 0. -1.
        2   -1    0    0  501    0  0.00000000000E+00  0.00000000000E+00 -0.21261545058E+04  0.21261545058E+04  0.25500000920E-02 0.  1.
    10030    2    1    2    0    0  0.00000000000E+00  0.00000000000E+00 -0.16084268873E+04  0.26438821244E+04  0.20983506942E+04 0.  0.
        2    1    3    3  502    0  0.96303627018E+03 -0.34100419484E+03 -0.11051516575E+04  0.15050192373E+04  0.25500000920E-02 0.  1.
       -2    1    3    3    0  502 -0.96303627018E+03  0.34100419484E+03 -0.50327522974E+03  0.11388628870E+04  0.25500000920E-02 0. -1.
</event>
<event>
 5   0  0.6238363E-06  0.2099543E+04  0.7818609E-02  0.8561445E-01
       -1   -1    0    0    0  501  0.00000000000E+00  0.00000000000E+00  0.56122700000E+03  0.56122700003E+03  0.50400001928E-02 0.  1.
        1   -1    0    0  501    0  0.00000000000E+00  0.00000000000E+00 -0.19635907470E+04  0.19635907470E+04  0.50400001928E-02 0. -1.
    10030    2    1    2    0    0  0.00000000000E+00  0.00000000000E+00 -0.14023637470E+04  0.25248177470E+04  0.20995429447E+04 0.  0.
        4    1    3    3  502    0  0.36387192907E+03 -0.55355032435E+02 -0.18834549168E+04  0.19190807687E+04  0.12699999809E+01 0. -1.
       -4    1    3    3    0  502 -0.36387192907E+03  0.55355032435E+02  0.48109116978E+03  0.60573697833E+03  0.12699999809E+01 0.  1.
</event>
<event>
 5   0  0.6917078E-06  0.2091993E+04  0.7818609E-02  0.8564779E-01
       -1   -1    0    0    0  501  0.00000000000E+00  0.00000000000E+00  0.48824629046E+03  0.48824629048E+03  0.50400001928E-02 0.  1.
        1   -1    0    0  501    0  0.00000000000E+00  0.00000000000E+00 -0.22408941982E+04  0.22408941982E+04  0.50400001928E-02 0. -1.
    10030    2    1    2    0    0  0.00000000000E+00  0.00000000000E+00 -0.17526479077E+04  0.27291404886E+04  0.20919926191E+04 0.  0.
        5    1    3    3  502    0 -0.56405582807E+03  0.10137885647E+02 -0.20253965613E+04  0.21025020985E+04  0.46999998093E+01 0. -1.
       -5    1    3    3    0  502  0.56405582807E+03 -0.10137885647E+02  0.27274865360E+03  0.62663839009E+03  0.46999998093E+01 0.  1.
</event>
<event>
 5   0  0.6283269E-06  0.2098930E+04  0.7818609E-02  0.8561715E-01
       -1   -1    0    0    0  501  0.00000000000E+00  0.00000000000E+00  0.99701115279E+03  0.99701115281E+03  0.50400001928E-02 0. -1.
        1   -1    0    0  501    0  0.00000000000E+00  0.00000000000E+00 -0.11046786377E+04  0.11046786377E+04  0.50400001928E-02 0.  1.
    10030    2    1    2    0    0  0.00000000000E+00  0.00000000000E+00 -0.10766748493E+03  0.21016897905E+04  0.20989301295E+04 0.  0.
        1    1    3    3  502    0  0.88071196481E+02  0.58436178674E+03 -0.92223503900E+03  0.10953322330E+04  0.50400001928E-02 0.  1.
       -1    1    3    3    0  502 -0.88071196481E+02 -0.58436178674E+03  0.81456755408E+03  0.10063575575E+04  0.50400001928E-02 0. -1.
</event>
<event>
 5   0  0.6599245E-06  0.2093688E+04  0.7818609E-02  0.8564029E-01
       -1   -1    0    0    0  501  0.00000000000E+00  0.00000000000E+00  0.94334603853E+03  0.94334603854E+03  0.50400001928E-02 0. -1.
        1   -1    0    0  501    0  0.00000000000E+00  0.00000000000E+00 -0.11616975143E+04  0.11616975143E+04  0.50400001928E-02 0.  1.
    10030    2    1    2    0    0  0.00000000000E+00  0.00000000000E+00 -0.21835147574E+03  0.21050435528E+04  0.20936883704E+04 0.  0.
        2    1    3    3  502    0 -0.44432757999E+03  0.13818826479E+03  0.83365197063E+03  0.95472435970E+03  0.25500000920E-02 0. -1.
       -2    1    3    3    0  502  0.44432757999E+03 -0.13818826479E+03 -0.10520034464E+04  0.11503191931E+04  0.25500000920E-02 0.  1.
</event>
<event>
 5   0  0.1344501E-05  0.2105627E+04  0.7818609E-02  0.8558769E-01
        2   -1    0    0  501    0  0.00000000000E+00  0.00000000000E+00  0.11767270894E+04  0.11767270894E+04  0.25500000920E-02 0. -1.
       -2   -1    0    0    0  501  0.00000000000E+00  0.00000000000E+00 -0.94194835204E+03  0.94194835205E+03  0.25500000920E-02 0.  1.
    10030    2    1    2    0    0  0.00000000000E+00  0.00000000000E+00  0.23477873733E+03  0.21186754414E+04  0.21056268830E+04 0.  0.
        3    1    3    3  502    0 -0.52524267763E+03 -0.91111910839E+03  0.16666459698E+03  0.10647981021E+04  0.10100000352E+00 0. -1.
       -3    1    3    3    0  502  0.52524267763E+03  0.91111910839E+03  0.68114140345E+02  0.10538773394E+04  0.10100000352E+00 0.  1.
</event>
<event>
 5   0  0.1395356E-05  0.2099776E+04  0.7818609E-02  0.8561342E-01
       -2   -1    0    0    0  501  0.00000000000E+00  0.00000000000E+00  0.12047266555E+04  0.12047266555E+04  0.25500000920E-02 0. -1.
        2   -1    0    0  501    0  0.00000000000E+00  0.00000000000E+00 -0.91494994429E+03  0.91494994429E+03  0.25500000920E-02 0.  1.
    10030    2    1    2    0    0  0.00000000000E+00  0.00000000000E+00  0.28977671121E+03  0.21196765998E+04  0.20997757845E+04 0.  0.
        1    1    3    3  502    0  0.18082502280E+03 -0.91083668245E+03  0.63937107472E+03  0.11274380347E+04  0.50400001928E-02 0. -1.
       -1    1    3    3    0  502 -0.18082502280E+03  0.91083668245E+03 -0.34959436351E+03  0.99223856506E+03  0.50400001928E-02 0.  1.
</event>
<event>
 5   0  0.6599245E-06  0.2102250E+04  0.7818609E-02  0.8560253E-01
       -1   -1    0    0    0  501  0.00000000000E+00  0.00000000000E+00  0.74940423251E+03  0.74940423253E+03  0.50400001928E-02 0.  1.
        1   -1    0    0  501    0  0.00000000000E+00  0.00000000000E+00 -0.14743227465E+04  0.14743227465E+04  0.50400001928E-02 0. -1.
    10030    2    1    2    0    0  0.00000000000E+00  0.00000000000E+00 -0.72491851394E+03  0.22237269790E+04  0.21022499436E+04 0.  0.
        2    1    3    3  502    0 -0.74879291371E+03 -0.64575241707E+03 -0.73968461734E+03  0.12348361612E+04  0.25500000920E-02 0. -1.
       -2    1    3    3    0  502  0.74879291371E+03  0.64575241707E+03  0.14766103398E+02  0.98889081783E+03  0.25500000920E-02 0.  1.
</event>
<event>
 5   0  0.6238363E-06  0.2098044E+04  0.7818609E-02  0.8562105E-01
        1   -1    0    0  501    0  0.00000000000E+00  0.00000000000E+00  0.12687464679E+04  0.12687464679E+04  0.50400001928E-02 0. -1.
       -1   -1    0    0    0  501  0.00000000000E+00  0.00000000000E+00 -0.86735016555E+03  0.86735016557E+03  0.50400001928E-02 0.  1.
    10030    2    1    2    0    0  0.00000000000E+00  0.00000000000E+00  0.40139630232E+03  0.21360966335E+04  0.20980442884E+04 0.  0.
        4    1    3    3  502    0 -0.33441082508E+03 -0.93685184439E+03  0.53979108999E+03  0.11317676493E+04  0.12699999809E+01 0. -1.
       -4    1    3    3    0  502  0.33441082508E+03  0.93685184439E+03 -0.13839478767E+03  0.10043289842E+04  0.12699999809E+01 0.  1.
</event>
<event>
 5   0  0.6589193E-06  0.2099723E+04  0.7818609E-02  0.8561366E-01
        1   -1    0    0  501    0  0.00000000000E+00  0.00000000000E+00  0.74481990698E+03  0.74481990700E+03  0.50400001928E-02 0. -1.
       -1   -1    0    0    0  501  0.00000000000E+00  0.00000000000E+00 -0.14798327300E+04  0.14798327300E+04  0.50400001928E-02 0.  1.
    10030    2    1    2    0    0  0.00000000000E+00  0.00000000000E+00 -0.73501282301E+03  0.22246526370E+04  0.20997227211E+04 0.  0.
        3    1    3    3  502    0  0.63082131821E+03  0.24278149864E+03 -0.12186274939E+04  0.13935319769E+04  0.10100000352E+00 0.  1.
       -3    1    3    3    0  502 -0.63082131821E+03 -0.24278149864E+03  0.48361467086E+03  0.83112066011E+03  0.10100000352E+00 0. -1.
</event>
<event>
 5   0  0.6238363E-06  0.2098315E+04  0.7818609E-02  0.8561986E-01
        1   -1    0    0  501    0  0.00000000000E+00  0.00000000000E+00  0.20087682749E+04  0.20087682749E+04  0.50400001928E-02 0. -1.
       -1   -1    0    0    0  501  0.00000000000E+00  0.00000000000E+00 -0.54796333143E+03  0.54796333145E+03  0.50400001928E-02 0.  1.
    10030    2    1    2    0    0  0.00000000000E+00  0.00000000000E+00  0.14608049435E+04  0.25567316064E+04  0.20983149011E+04 0.  0.
        4    1    3    3  502    0  0.15133285694E+03 -0.10155578095E+04  0.46773705788E+03  0.11282902403E+04  0.12699999809E+01 0.  1.
       -4    1    3    3    0  502 -0.15133285694E+03  0.10155578095E+04  0.99306788563E+03  0.14284413661E+04  0.12699999809E+01 0. -1.
</event>
<event>
 5   0  0.1398469E-05  0.2099518E+04  0.7818609E-02  0.8561456E-01
       -2   -1    0    0    0  501  0.00000000000E+00  0.00000000000E+00  0.85414741578E+03  0.85414741578E+03  0.25500000920E-02 0. -1.
        2   -1    0    0  501    0  0.00000000000E+00  0.00000000000E+00 -0.12901680118E+04  0.12901680118E+04  0.25500000920E-02 0.  1.
    10030    2    1    2    0    0  0.00000000000E+00  0.00000000000E+00 -0.43602059605E+03  0.21443154276E+04  0.20995177287E+04 0.  0.
        2    1    3    3  502    0 -0.15902081771E+03 -0.61308357066E+03  0.63701091096E+03  0.89829949669E+03  0.25500000920E-02 0. -1.
       -2    1    3    3    0  502  0.15902081771E+03  0.61308357066E+03 -0.10730315070E+04  0.12460159309E+04  0.25500000920E-02 0.  1.
</event>
<event>
 5   0  0.1395356E-05  0.2101483E+04  0.7818609E-02  0.8560590E-01
        2   -1    0    0  501    0  0.00000000000E+00  0.00000000000E+00  0.11114062958E+04  0.11114062958E+04  0.25500000920E-02 0. -1.
       -2   -1    0    0    0  501  0.00000000000E+00  0.00000000000E+00 -0.99338843190E+03  0.99338843191E+03  0.25500000920E-02 0.  1.
    10030    2    1    2    0    0  0.00000000000E+00  0.00000000000E+00  0.11801786390E+03  0.21047947277E+04  0.21014834355E+04 0.  0.
        1    1    3    3  502    0 -0.23895311157E+03  0.96609885222E+03  0.39660468829E+03  0.10713266825E+04  0.50400001928E-02 0. -1.
       -1    1    3    3    0  502  0.23895311157E+03 -0.96609885222E+03 -0.27858682439E+03  0.10334680452E+04  0.50400001928E-02 0.  1.
</event>
<event>
 5   0  0.6283269E-06  0.2119441E+04  0.7818609E-02  0.8552727E-01
       -1   -1    0    0    0  501  0.00000000000E+00  0.00000000000E+00  0.65934854561E+03  0.65934854562E+03  0.50400001928E-02 0.  1.
        1   -1    0    0  501    0  0.00000000000E+00  0.00000000000E+00 -0.17032078314E+04  0.17032078314E+04  0.50400001928E-02 0. -1.
    10030    2    1    2    0    0  0.00000000000E+00  0.00000000000E+00 -0.10438592858E+04  0.23625563770E+04  0.21194410645E+04 0.  0.
        1    1    3    3  502    0  0.19879927362E+03  0.15886730693E+03 -0.16686419913E+04  0.16879354453E+04  0.50400001928E-02 0. -1.
       -1    1    3    3    0  502 -0.19879927362E+03 -0.15886730693E+03  0.62478270550E+03  0.67462093172E+03  0.50400001928E-02 0.  1.
</event>
<event>
 5   0  0.1398469E-05  0.2101997E+04  0.7818609E-02  0.8560364E-01
        2   -1    0    0  501    0  0.00000000000E+00  0.00000000000E+00  0.10189258155E+04  0.10189258155E+04  0.25500000920E-02 0.  1.
       -2   -1    0    0    0  501  0.00000000000E+00  0.00000000000E+00 -0.10840807693E+04  0.10840807693E+04  0.25500000920E-02 0. -1.
    10030    2    1    2    0    0  0.00000000000E+00  0.00000000000E+00 -0.65154953744E+02  0.21030065848E+04  0.21019970332E+04 0.  0.
        2    1    3    3  502    0 -0.54875336485E+03 -0.17593949143E+03  0.84677179862E+03  0.10242594588E+04  0.25500000920E-02 0.  1.
       -2    1    3    3    0  502  0.54875336485E+03  0.17593949143E+03 -0.91192675236E+03  0.10787471260E+04  0.25500000920E-02 0. -1.
</event>
<event>
 5   0  0.6283269E-06  0.2071862E+04  0.7818609E-02  0.8573741E-01
        1   -1    0    0  501    0  0.00000000000E+00  0.00000000000E+00  0.74311427641E+03  0.74311427643E+03  0.50400001928E-02 0.  1.
       -1   -1    0    0    0  501  0.00000000000E+00  0.00000000000E+00 -0.14441294493E+04  0.14441294494E+04  0.50400001928E-02 0. -1.
    10030    2    1    2    0    0  0.00000000000E+00  0.00000000000E+00 -0.70101517294E+03  0.21872437258E+04  0.20718621680E+04 0.  0.
        1    1    3    3  502    0 -0.77472753924E+02 -0.85695430486E+03 -0.95950473020E+03  0.12888064383E+04  0.50400001928E-02 0. -1.
       -1    1    3    3    0  502  0.77472753924E+02  0.85695430486E+03  0.25848955726E+03  0.89843728744E+03  0.50400001928E-02 0.  1.
</event>
<event>
 5   0  0.1395356E-05  0.2075849E+04  0.7818609E-02  0.8571957E-01
       -2   -1    0    0    0  501  0.00000000000E+00  0.00000000000E+00  0.94659407665E+03  0.94659407665E+03  0.25500000920E-02 0.  1.
        2   -1    0    0  501    0  0.00000000000E+00  0.00000000000E+00 -0.11380666202E+04  0.11380666202E+04  0.25500000920E-02 0. -1.
    10030    2    1    2    0    0  0.00000000000E+00  0.00000000000E+00 -0.19147254353E+03  0.20846606968E+04  0.20758488591E+04 0.  0.
        1    1    3    3  502    0 -0.69876438601E+03 -0.39335986417E+03 -0.75753556530E+03  0.11031154892E+04  0.50400001928E-02 0. -1.
       -1    1    3    3    0  502  0.69876438601E+03  0.39335986417E+03  0.56606302177E+03  0.98154520759E+03  0.50400001928E-02 0.  1.
</event>
<event>
 5   0  0.6589193E-06  0.2101176E+04  0.7818609E-02  0.8560726E-01
       -1   -1    0    0    0  501  0.00000000000E+00  0.00000000000E+00  0.58713033434E+03  0.58713033436E+03  0.50400001928E-02 0.  1.
        1   -1    0    0  501    0  0.00000000000E+00  0.00000000000E+00 -0.18798802616E+04  0.18798802616E+04  0.50400001928E-02 0. -1.
    10030    2    1    2    0    0  0.00000000000E+00  0.00000000000E+00 -0.12927499273E+04  0.24670105960E+04  0.21011756010E+04 0.  0.
        3    1    3    3  502    0 -0.24013260556E+03  0.81236455304E+03  0.83213877867E+02  0.85118998758E+03  0.10100000352E+00 0.  1.
       -3    1    3    3    0  502  0.24013260556E+03 -0.81236455304E+03 -0.13759638051E+04  0.16158206084E+04  0.10100000352E+00 0. -1.
</event>
<event>
 5   0  0.1390735E-05  0.2096539E+04  0.7818609E-02  0.8562769E-01
        2   -1    0    0  501    0  0.00000000000E+00  0.00000000000E+00  0.16125887804E+04  0.16125887804E+04  0.25500000920E-02 0. -1.
       -2   -1    0    0    0  501  0.00000000000E+00  0.00000000000E+00 -0.68143180708E+03  0.68143180709E+03  0.25500000920E-02 0.  1.
    10030    2    1    2    0    0  0.00000000000E+00  0.00000000000E+00  0.93115697329E+03  0.22940205875E+04  0.20965393263E+04 0.  0.
        5    1    3    3  502    0  0.19064113351E+03 -0.51122216726E+03  0.14449615409E+04  0.15445478596E+04  0.46999998093E+01 0. -1.
       -5    1    3    3    0  502 -0.19064113351E+03  0.51122216726E+03 -0.51380456759E+03  0.74947272783E+03  0.46999998093E+01 0.  1.
</event>
<event>
 5   0  0.1395356E-05  0.2099020E+04  0.7818609E-02  0.8561675E-01
       -2   -1    0    0    0  501  0.00000000000E+00  0.00000000000E+00  0.18348875209E+04  0.18348875209E+04  0.25500000920E-02 0.  1.
        2   -1    0    0  501    0  0.00000000000E+00  0.00000000000E+00 -0.60029366972E+03  0.60029366973E+03  0.25500000920E-02 0. -1.
    10030    2    1    2    0    0  0.00000000000E+00  0.00000000000E+00  0.12345938511E+04  0.24351811906E+04  0.20990201175E+04 0.  0.
        1    1    3    3  502    0  0.70312444083E+03  0.68342325347E+03  0.10514169107E+04  0.14376817599E+04  0.50400001928E-02 0.  1.
       -1    1    3    3    0  502 -0.70312444083E+03 -0.68342325347E+03  0.18317694044E+03  0.99749943068E+03  0.50400001928E-02 0. -1.
</event>
<event>
 5   0  0.6599245E-06  0.2101162E+04  0.7818609E-02  0.8560732E-01
        1   -1    0    0  501    0  0.00000000000E+00  0.00000000000E+00  0.17361954739E+04  0.17361954739E+04  0.50400001928E-02 0.  1.
       -1   -1    0    0    0  501  0.00000000000E+00  0.00000000000E+00 -0.63571178381E+03  0.63571178383E+03  0.50400001928E-02 0. -1.
    10030    2    1    2    0    0  0.00000000000E+00  0.00000000000E+00  0.11004836901E+04  0.23719072577E+04  0.21011615090E+04 0.  0.
        2    1    3    3  502    0 -0.43790972053E+03 -0.30386671249E+03 -0.47174321337E+03  0.71178758184E+03  0.25500000920E-02 0. -1.
       -2    1    3    3    0  502  0.43790972053E+03  0.30386671249E+03  0.15722269034E+04  0.16601196759E+04  0.25500000920E-02 0.  1.
</event>
<event>
 5   0  0.1398469E-05  0.2136207E+04  0.7818609E-02  0.8545459E-01
        2   -1    0    0  501    0  0.00000000000E+00  0.00000000000E+00  0.19420202185E+04  0.19420202185E+04  0.25500000920E-02 0. -1.
       -2   -1    0    0    0  501  0.00000000000E+00  0.00000000000E+00 -0.58745278158E+03  0.58745278159E+03  0.25500000920E-02 0.  1.
    10030    2    1    2    0    0  0.00000000000E+00  0.00000000000E+00  0.13545674370E+04  0.25294730001E+04  0.21362070867E+04 0.  0.
        2    1    3    3  502    0  0.50191381747E+03 -0.21258833482E+03  0.17649344236E+04  0.18471883499E+04  0.25500000920E-02 0. -1.
       -2    1    3    3    0  502 -0.50191381747E+03  0.21258833482E+03 -0.41036698664E+03  0.68228465027E+03  0.25500000920E-02 0.  1.
</event>
<event>
 5   0  0.1395356E-05  0.2101608E+04  0.7818609E-02  0.8560535E-01
        2   -1    0    0  501    0  0.00000000000E+00  0.00000000000E+00  0.25272115546E+04  0.25272115546E+04  0.25500000920E-02 0. -1.
       -2   -1    0    0    0  501  0.00000000000E+00  0.00000000000E+00 -0.43691981199E+03  0.43691981200E+03  0.25500000920E-02 0.  1.
    10030    2    1    2    0    0  0.00000000000E+00  0.00000000000E+00  0.20902917426E+04  0.29641313666E+04  0.21016077629E+04 0.  0.
        1    1    3    3  502    0 -0.38993116823E+03 -0.40788800193E+03  0.22953860918E+04  0.23637293095E+04  0.50400001928E-02 0. -1.
       -1    1    3    3    0  502  0.38993116823E+03  0.40788800193E+03 -0.20509434920E+03  0.60040205710E+03  0.50400001928E-02 0.  1.
</event>
<event>
 5   0  0.6599245E-06  0.2090006E+04  0.7818609E-02  0.8565659E-01
       -1   -1    0    0    0  501  0.00000000000E+00  0.00000000000E+00  0.11891508928E+04  0.11891508928E+04  0.50400001928E-02 0. -1.
        1   -1    0    0  501    0  0.00000000000E+00  0.00000000000E+00 -0.91832874697E+03  0.91832874699E+03  0.50400001928E-02 0.  1.
    10030    2    1    2    0    0  0.00000000000E+00  0.00000000000E+00  0.27082214581E+03  0.21074796398E+04  0.20900061716E+04 0.  0.
        2    1    3    3  502    0  0.71650784864E+03 -0.76067652675E+03  0.13982647619E+03  0.10543072223E+04  0.25500000920E-02 0.  1.
       -2    1    3    3    0  502 -0.71650784864E+03  0.76067652675E+03  0.13099566962E+03  0.10531724175E+04  0.25500000920E-02 0. -1.
</event>
<event>
 5   0  0.6238363E-06  0.2084476E+04  0.7818609E-02  0.8568113E-01
       -1   -1    0    0    0  501  0.00000000000E+00  0.00000000000E+00  0.74199357796E+03  0.74199357797E+03  0.50400001928E-02 0.  1.
        1   -1    0    0  501    0  0.00000000000E+00  0.00000000000E+00 -0.14639745772E+04  0.14639745772E+04  0.50400001928E-02 0. -1.
    10030    2    1    2    0    0  0.00000000000E+00  0.00000000000E+00 -0.72198099924E+03  0.22059681552E+04  0.20844756987E+04 0.  0.
        4    1    3    3  502    0  0.98073241409E+03 -0.28726206621E+03 -0.57762253261E+03  0.11738845624E+04  0.12699999809E+01 0. -1.
       -4    1    3    3    0  502 -0.98073241409E+03  0.28726206621E+03 -0.14435846663E+03  0.10320835928E+04  0.12699999809E+01 0.  1.
</event>
<event>
 5   0  0.1390735E-05  0.2081119E+04  0.7818609E-02  0.8569606E-01
       -2   -1    0    0    0  501  0.00000000000E+00  0.00000000000E+00  0.63623038215E+03  0.63623038215E+03  0.25500000920E-02 0. -1.
        2   -1    0    0  501    0  0.00000000000E+00  0.00000000000E+00 -0.17018429769E+04  0.17018429769E+04  0.25500000920E-02 0.  1.
    10030    2    1    2    0    0  0.00000000000E+00  0.00000000000E+00 -0.10656125948E+04  0.23380733591E+04  0.20811191293E+04 0.  0.
        5    1    3    3  502    0  0.26409672808E+03  0.98932893409E+03 -0.74064293542E+03  0.12637613973E+04  0.46999998093E+01 0.  1.
       -5    1    3    3    0  502 -0.26409672808E+03 -0.98932893409E+03 -0.32496965933E+03  0.10743119617E+04  0.46999998093E+01 0. -1.
</event>
<event>
 5   0  0.6589193E-06  0.2099213E+04  0.7818609E-02  0.8561590E-01
       -1   -1    0    0    0  501  0.00000000000E+00  0.00000000000E+00  0.10866855864E+04  0.10866855865E+04  0.50400001928E-02 0. -1.
        1   -1    0    0  501    0  0.00000000000E+00  0.00000000000E+00 -0.10137926276E+04  0.10137926276E+04  0.50400001928E-02 0.  1.
    10030    2    1    2    0    0  0.00000000000E+00  0.00000000000E+00  0.72892958818E+02  0.21004782141E+04  0.20992130298E+04 0.  0.
        3    1    3    3  502    0 -0.56472504246E+03  0.88150205271E+03  0.11208028516E+03  0.10528638293E+04  0.10100000352E+00 0. -1.
       -3    1    3    3    0  502  0.56472504246E+03 -0.88150205271E+03 -0.39187326340E+02  0.10476143848E+04  0.10100000352E+00 0.  1.
</event>
<event>
 5   0  0.6283269E-06  0.2098898E+04  0.7818609E-02  0.8561729E-01
       -1   -1    0    0    0  501  0.00000000000E+00  0.00000000000E+00  0.18218738431E+04  0.18218738431E+04  0.50400001928E-02 0. -1.
        1   -1    0    0  501    0  0.00000000000E+00  0.00000000000E+00 -0.60451140974E+03  0.60451140976E+03  0.50400001928E-02 0.  1.
    10030    2    1    2    0    0  0.00000000000E+00  0.00000000000E+00  0.12173624333E+04  0.24263852528E+04  0.20988983065E+04 0.  0.
        1    1    3    3  502    0  0.14388784186E+03  0.55503961760E+02 -0.59133997353E+03  0.61111976333E+03  0.50400001928E-02 0.  1.
       -1    1    3    3    0  502 -0.14388784186E+03 -0.55503961760E+02  0.18087024069E+04  0.18152654895E+04  0.50400001928E-02 0. -1.
</event>
<event>
 5   0  0.1344501E-05  0.2096845E+04  0.7818609E-02  0.8562634E-01
       -2   -1    0    0    0  501  0.00000000000E+00  0.00000000000E+00  0.47283499030E+03  0.47283499030E+03  0.25500000920E-02 0. -1.
        2   -1    0    0  501    0  0.00000000000E+00  0.00000000000E+00 -0.23246801851E+04  0.23246801851E+04  0.25500000920E-02 0.  1.
    10030    2    1    2    0    0  0.00000000000E+00  0.00000000000E+00 -0.18518451948E+04  0.27975151754E+04  0.20968453761E+04 0.  0.
        3    1    3    3  502    0  0.82407145281E+03  0.21744108658E+03 -0.11130617142E+03  0.85951350162E+03  0.10100000352E+00 0. -1.
       -3    1    3    3    0  502 -0.82407145281E+03 -0.21744108658E+03 -0.17405390234E+04  0.19380016738E+04  0.10100000352E+00 0.  1.
</event>
<event>
 5   0  0.1390735E-05  0.2105571E+04  0.7818609E-02  0.8558793E-01
        2   -1    0    0  501    0  0.00000000000E+00  0.00000000000E+00  0.11046774170E+04  0.11046774170E+04  0.25500000920E-02 0. -1.
       -2   -1    0    0    0  501  0.00000000000E+00  0.00000000000E+00 -0.10033315214E+04  0.10033315214E+04  0.25500000920E-02 0.  1.
    10030    2    1    2    0    0  0.00000000000E+00  0.00000000000E+00  0.10134589556E+03  0.21080089385E+04  0.21055713462E+04 0.  0.
        5    1    3    3  502    0 -0.86848311483E+03  0.56503011103E+03  0.23747308063E+03  0.10629851839E+04  0.46999998093E+01 0.  1.
       -5    1    3    3    0  502  0.86848311483E+03 -0.56503011103E+03 -0.13612718508E+03  0.10450237546E+04  0.46999998093E+01 0. -1.
</event>
<event>
 5   0  0.6917078E-06  0.2095925E+04  0.7818609E-02  0.8563041E-01
       -1   -1    0    0    0  501  0.00000000000E+00  0.00000000000E+00  0.91767585287E+03  0.91767585288E+03  0.50400001928E-02 0.  1.
        1   -1    0    0  501    0  0.00000000000E+00  0.00000000000E+00 -0.11967464668E+04  0.11967464668E+04  0.50400001928E-02 0. -1.
    10030    2    1    2    0    0  0.00000000000E+00  0.00000000000E+00 -0.27907061389E+03  0.21144223197E+04  0.20959249362E+04 0.  0.
        5    1    3    3  502    0 -0.49877962614E+02  0.48231778590E+03 -0.10767579898E+04  0.11809098680E+04  0.46999998093E+01 0. -1.
       -5    1    3    3    0  502  0.49877962614E+02 -0.48231778590E+03  0.79768737589E+03  0.93351245166E+03  0.46999998093E+01 0.  1.
</event>
<event>
 5   0  0.6599245E-06  0.2100550E+04  0.7818609E-02  0.8561001E-01
       -1   -1    0    0    0  501  0.00000000000E+00  0.00000000000E+00  0.47212165346E+03  0.47212165349E+03  0.50400001928E-02 0.  1.
        1   -1    0    0  501    0  0.00000000000E+00  0.00000000000E+00 -0.23364259835E+04  0.23364259835E+04  0.50400001928E-02 0. -1.
    10030    2    1    2    0    0  0.00000000000E+00  0.00000000000E+00 -0.18643043301E+04  0.28085476370E+04  0.21005497362E+04 0.  0.
        2    1    3    3  502    0 -0.85250461779E+03  0.60962659222E+03 -0.84079516175E+03  0.13436313517E+04  0.25500000920E-02 0. -1.
       -2    1    3    3    0  502  0.85250461779E+03 -0.60962659222E+03 -0.10235091683E+04  0.14649162853E+04  0.25500000920E-02 0.  1.
</event>
<event>
 5   0  0.1441136E-05  0.2100536E+04  0.7818609E-02  0.8561007E-01
       -2   -1    0    0    0  501  0.00000000000E+00  0.00000000000E+00  0.11019184857E+04  0.11019184857E+04  0.25500000920E-02 0.  1.
        2   -1    0    0  501    0  0.00000000000E+00  0.00000000000E+00 -0.10010389454E+04  0.10010389454E+04  0.25500000920E-02 0. -1.
    10030    2    1    2    0    0  0.00000000000E+00  0.00000000000E+00  0.10087954030E+03  0.21029574311E+04  0.21005364257E+04 0.  0.
        4    1    3    3  502    0  0.30873040121E+03 -0.81035072220E+03  0.64364184502E+03  0.10799348088E+04  0.12699999809E+01 0.  1.
       -4    1    3    3    0  502 -0.30873040121E+03  0.81035072220E+03 -0.54276230473E+03  0.10230226224E+04  0.12699999809E+01 0. -1.
</event>
<event>
 5   0  0.1390735E-05  0.2102997E+04  0.7818609E-02  0.8559924E-01
       -2   -1    0    0    0  501  0.00000000000E+00  0.00000000000E+00  0.61545313145E+03  0.61545313145E+03  0.25500000920E-02 0.  1.
        2   -1    0    0  501    0  0.00000000000E+00  0.00000000000E+00 -0.17964795145E+04  0.17964795145E+04  0.25500000920E-02 0. -1.
    10030    2    1    2    0    0  0.00000000000E+00  0.00000000000E+00 -0.11810263831E+04  0.24119326460E+04  0.21029968548E+04 0.  0.
        5    1    3    3  502    0  0.16011313378E+03  0.10306495558E+04 -0.74332319707E+03  0.12807912351E+04  0.46999998093E+01 0.  1.
       -5    1    3    3    0  502 -0.16011313378E+03 -0.10306495558E+04 -0.43770318603E+03  0.11311414109E+04  0.46999998093E+01 0. -1.
</event>
<event>
 5   0  0.6283269E-06  0.2098374E+04  0.7818609E-02  0.8561960E-01
        1   -1    0    0  501    0  0.00000000000E+00  0.00000000000E+00  0.13386811965E+04  0.13386811966E+04  0.50400001928E-02 0. -1.
       -1   -1    0    0    0  501  0.00000000000E+00  0.00000000000E+00 -0.82229664966E+03  0.82229664968E+03  0.50400001928E-02 0.  1.
    10030    2    1    2    0    0  0.00000000000E+00  0.00000000000E+00  0.51638454689E+03  0.21609778462E+04  0.20983737159E+04 0.  0.
        1    1    3    3  502    0 -0.33201978782E+03 -0.97409285529E+03  0.46848800949E+03  0.11307409276E+04  0.50400001928E-02 0.  1.
       -1    1    3    3    0  502  0.33201978782E+03  0.97409285529E+03  0.47896537394E+02  0.10302369187E+04  0.50400001928E-02 0. -1.
</event>
<event>
 5   0  0.1398469E-05  0.2089030E+04  0.7818609E-02  0.8566091E-01
       -2   -1    0    0    0  501  0.00000000000E+00  0.00000000000E+00  0.61848599609E+03  0.61848599610E+03  0.25500000920E-02 0. -1.
        2   -1    0    0  501    0  0.00000000000E+00  0.00000000000E+00 -0.17640032971E+04  0.17640032971E+04  0.25500000920E-02 0.  1.
    10030    2    1    2    0    0  0.00000000000E+00  0.00000000000E+00 -0.11455173010E+04  0.23824892932E+04  0.20890297617E+04 0.  0.
        2    1    3    3  502    0  0.31842629202E+03 -0.29384337870E+03  0.51115735374E+03  0.67009034834E+03  0.25500000920E-02 0. -1.
       -2    1    3    3    0  502 -0.31842629202E+03  0.29384337870E+03 -0.16566746547E+04  0.17123989448E+04  0.25500000920E-02 0.  1.
</event>
<event>
 5   0  0.6599245E-06  0.2102764E+04  0.7818609E-02  0.8560027E-01
        1   -1    0    0  501    0  0.00000000000E+00  0.00000000000E+00  0.20508866873E+04  0.20508866873E+04  0.50400001928E-02 0. -1.
       -1   -1    0    0    0  501  0.00000000000E+00  0.00000000000E+00 -0.53898845431E+03  0.53898845434E+03  0.50400001928E-02 0.  1.
    10030    2    1    2    0    0  0.00000000000E+00  0.00000000000E+00  0.15118982330E+04  0.25898751417E+04  0.21027641290E+04 0.  0.
        2    1    3    3  502    0  0.57860496900E+03 -0.85646279543E+03  0.51874157976E+03  0.11564623023E+04  0.25500000920E-02 0. -1.
       -2    1    3    3    0  502 -0.57860496900E+03  0.85646279543E+03  0.99315665323E+03  0.14334128393E+04  0.25500000920E-02 0.  1.
</event>
<event>
 5   0  0.1395356E-05  0.2091310E+04  0.7818609E-02  0.8565081E-01
       -2   -1    0    0    0  501  0.00000000000E+00  0.00000000000E+00  0.45783988538E+03  0.45783988539E+03  0.25500000920E-02 0. -1.
        2   -1    0    0  501    0  0.00000000000E+00  0.00000000000E+00 -0.23881594931E+04  0.23881594931E+04  0.25500000920E-02 0.  1.
    10030    2    1    2    0    0  0.00000000000E+00  0.00000000000E+00 -0.19303196077E+04  0.28459993785E+04  0.20913102769E+04 0.  0.
        1    1    3    3  502    0  0.43211704918E+03 -0.76504415329E+03 -0.19368152347E+03  0.89973898061E+03  0.50400001928E-02 0. -1.
       -1    1    3    3    0  502 -0.43211704918E+03  0.76504415329E+03 -0.17366380843E+04  0.19462603979E+04  0.50400001928E-02 0.  1.
</event>
<event>
 5   0  0.6283269E-06  0.2100446E+04  0.7818609E-02  0.8561047E-01
        1   -1    0    0  501    0  0.00000000000E+00  0.00000000000E+00  0.15462352199E+04  0.15462352199E+04  0.50400001928E-02 0.  1.
       -1   -1    0    0    0  501  0.00000000000E+00  0.00000000000E+00 -0.71332538940E+03  0.71332538942E+03  0.50400001928E-02 0. -1.
    10030    2    1    2    0    0  0.00000000000E+00  0.00000000000E+00  0.83290983050E+03  0.22595606093E+04  0.21004464672E+04 0.  0.
        1    1    3    3  502    0  0.45341459560E+03  0.10021400788E+03  0.14298007820E+04  0.15033156418E+04  0.50400001928E-02 0.  1.
       -1    1    3    3    0  502 -0.45341459560E+03 -0.10021400788E+03 -0.59689095146E+03  0.75624496749E+03  0.50400001928E-02 0. -1.
</event>
<event>
 5   0  0.6589193E-06  0.2099148E+04  0.7818609E-02  0.8561619E-01
        1   -1    0    0  501    0  0.00000000000E+00  0.00000000000E+00  0.95440921568E+03  0.95440921569E+03  0.50400001928E-02 0.  1.
       -1   -1    0    0    0  501  0.00000000000E+00  0.00000000000E+00 -0.11542276512E+04  0.11542276512E+04  0.50400001928E-02 0. -1.
    10030    2    1    2    0    0  0.00000000000E+00  0.00000000000E+00 -0.19981843554E+03  0.21086368669E+04  0.20991479294E+04 0.  0.
        3    1    3    3  502    0 -0.11925292557E+03 -0.74124445510E+03 -0.83666920370E+03  0.11241352094E+04  0.10100000352E+00 0. -1.
       -3    1    3    3    0  502  0.11925292557E+03  0.74124445510E+03  0.63685076816E+03  0.98450165748E+03  0.10100000352E+00 0.  1.
</event>
<event>
 5   0  0.1441136E-05  0.2102701E+04  0.7818609E-02  0.8560055E-01
        2   -1    0    0  501    0  0.00000000000E+00  0.00000000000E+00  0.12948178552E+04  0.12948178552E+04  0.25500000920E-02 0. -1.
       -2   -1    0    0    0  501  0.00000000000E+00  0.00000000000E+00 -0.85366264348E+03  0.85366264348E+03  0.25500000920E-02 0.  1.
    10030    2    1    2    0    0  0.00000000000E+00  0.00000000000E+00  0.44115521169E+03  0.21484804987E+04  0.21027007710E+04 0.  0.
        4    1    3    3  502    0  0.35841133629E+03  0.65033414406E+03 -0.53989997752E+03  0.91808865778E+03  0.12699999809E+01 0.  1.
       -4    1    3    3    0  502 -0.35841133629E+03 -0.65033414406E+03  0.98105518921E+03  0.12303918409E+04  0.12699999809E+01 0. -1.
</event>
<event>
 5   0  0.1395356E-05  0.2126148E+04  0.7818609E-02  0.8549812E-01
       -2   -1    0    0    0  501  0.00000000000E+00  0.00000000000E+00  0.97667602503E+03  0.97667602503E+03  0.25500000920E-02 0.  1.
        2   -1    0    0  501    0  0.00000000000E+00  0.00000000000E+00 -0.11571150920E+04  0.11571150920E+04  0.25500000920E-02 0. -1.
    10030    2    1    2    0    0  0.00000000000E+00  0.00000000000E+00 -0.18043906698E+03  0.21337911170E+04  0.21261482249E+04 0.  0.
        1    1    3    3  502    0 -0.26671234942E+03  0.81071866607E+03  0.54587771407E+03  0.10131054790E+04  0.50400001928E-02 0.  1.
       -1    1    3    3    0  502  0.26671234942E+03 -0.81071866607E+03 -0.72631678104E+03  0.11206856380E+04  0.50400001928E-02 0. -1.
</event>
<event>
 5   0  0.1390735E-05  0.2098381E+04  0.7818609E-02  0.8561957E-01
       -2   -1    0    0    0  501  0.00000000000E+00  0.00000000000E+00  0.84587745822E+03  0.84587745822E+03  0.25500000920E-02 0. -1.
        2   -1    0    0  501    0  0.00000000000E+00  0.00000000000E+00 -0.13013718351E+04  0.13013718351E+04  0.25500000920E-02 0.  1.
    10030    2    1    2    0    0  0.00000000000E+00  0.00000000000E+00 -0.45549437689E+03  0.21472492933E+04  0.20983813763E+04 0.  0.
        5    1    3    3  502    0 -0.41057647948E+03  0.44969488624E+03 -0.11020334763E+04  0.12590863391E+04  0.46999998093E+01 0.  1.
       -5    1    3    3    0  502  0.41057647948E+03 -0.44969488624E+03  0.64653909946E+03  0.88816295427E+03  0.46999998093E+01 0. -1.
</event>
<event>
 5   0  0.6238363E-06  0.2099111E+04  0.7818609E-02  0.8561635E-01
       -1   -1    0    0    0  501  0.00000000000E+00  0.00000000000E+00  0.54065235592E+03  0.54065235594E+03  0.50400001928E-02 0.  1.
        1   -1    0    0  501    0  0.00000000000E+00  0.00000000000E+00 -0.20374771241E+04  0.20374771241E+04  0.50400001928E-02 0. -1.
    10030    2    1    2    0    0  0.00000000000E+00  0.00000000000E+00 -0.14968247682E+04  0.25781294801E+04  0.20991110569E+04 0.  0.
        4    1    3    3  502    0  0.46583568563E+02 -0.23451123396E+03  0.50675795177E+03  0.56033095783E+03  0.12699999809E+01 0.  1.
       -4    1    3    3    0  502 -0.46583568563E+02  0.23451123396E+03 -0.20035827200E+04  0.20177985223E+04  0.12699999809E+01 0. -1.
</event>
<event>
 5   0  0.6917078E-06  0.2103265E+04  0.7818609E-02  0.8559807E-01
       -1   -1    0    0    0  501  0.00000000000E+00  0.00000000000E+00  0.14652068320E+04  0.14652068320E+04  0.50400001928E-02 0. -1.
        1   -1    0    0  501    0  0.00000000000E+00  0.00000000000E+00 -0.75479477276E+03  0.75479477278E+03  0.50400001928E-02 0.  1.
    10030    2    1    2    0    0  0.00000000000E+00  0.00000000000E+00  0.71041205924E+03  0.22200016048E+04  0.21032645652E+04 0.  0.
        5    1    3    3  502    0 -0.30069831231E+03 -0.22181197576E+02  0.14185939888E+04  0.14502904798E+04  0.46999998093E+01 0. -1.
       -5    1    3    3    0  502  0.30069831231E+03  0.22181197576E+02 -0.70818192960E+03  0.76971112501E+03  0.46999998093E+01 0.  1.
</event>
<event>
 5   0  0.1398469E-05  0.2105996E+04  0.7818609E-02  0.8558607E-01
        2   -1    0    0  501    0  0.00000000000E+00  0.00000000000E+00  0.14401266976E+04  0.14401266976E+04  0.25500000920E-02 0.  1.
       -2   -1    0    0    0  501  0.00000000000E+00  0.00000000000E+00 -0.76993537928E+03  0.76993537929E+03  0.25500000920E-02 0. -1.
    10030    2    1    2    0    0  0.00000000000E+00  0.00000000000E+00  0.67019131830E+03  0.22100620769E+04  0.21059957219E+04 0.  0.
        2    1    3    3  502    0  0.40612210850E+03  0.92569051038E+03  0.25622668462E+02  0.10111847552E+04  0.25500000920E-02 0. -1.
       -2    1    3    3    0  502 -0.40612210850E+03 -0.92569051038E+03  0.64456864984E+03  0.11988773217E+04  0.25500000920E-02 0.  1.
</event>
<event>
 5   0  0.6238363E-06  0.2105613E+04  0.7818609E-02  0.8558775E-01
        1   -1    0    0  501    0  0.00000000000E+00  0.00000000000E+00  0.99090490062E+03  0.99090490064E+03  0.50400001928E-02 0. -1.
       -1   -1    0    0    0  501  0.00000000000E+00  0.00000000000E+00 -0.11185749172E+04  0.11185749172E+04  0.50400001928E-02 0.  1.
    10030    2    1    2    0    0  0.00000000000E+00  0.00000000000E+00 -0.12767001660E+03  0.21094798179E+04  0.21056128488E+04 0.  0.
        4    1    3    3  502    0 -0.13571557130E+03 -0.90925419814E+03 -0.57784435101E+03  0.10858488016E+04  0.12699999809E+01 0. -1.
       -4    1    3    3    0  502  0.13571557130E+03  0.90925419814E+03  0.45017433441E+03  0.10236310162E+04  0.12699999809E+01 0.  1.
</event>
<event>
 5   0  0.1390735E-05  0.2089746E+04  0.7818609E-02  0.8565774E-01
        2   -1    0    0  501    0  0.00000000000E+00  0.00000000000E+00  0.57367832890E+03  0.57367832890E+03  0.25500000920E-02 0. -1.
       -2   -1    0    0    0  501  0.00000000000E+00  0.00000000000E+00 -0.19030862604E+04  0.19030862604E+04  0.25500000920E-02 0.  1.
    10030    2    1    2    0    0  0.00000000000E+00  0.00000000000E+00 -0.13294079315E+04  0.24767645893E+04  0.20897457698E+04 0.  0.
        5    1    3    3  502    0 -0.59240440237E+03  0.43184610071E+03  0.21769497434E+03  0.76475304673E+03  0.46999998093E+01 0. -1.
       -5    1    3    3    0  502  0.59240440237E+03 -0.43184610071E+03 -0.15471029059E+04  0.17120115426E+04  0.46999998093E+01 0.  1.
</event>
<event>
 5   0  0.6917078E-06  0.2096089E+04  0.7818609E-02  0.8562968E-01
       -1   -1    0    0    0  501  0.00000000000E+00  0.00000000000E+00  0.75556251004E+03  0.75556251006E+03  0.50400001928E-02 0. -1.
        1   -1    0    0  501    0  0.00000000000E+00  0.00000000000E+00 -0.14537479416E+04  0.14537479416E+04  0.50400001928E-02 0.  1.
    10030    2    1    2    0    0  0.00000000000E+00  0.00000000000E+00 -0.69818543160E+03  0.22093104517E+04  0.20960891620E+04 0.  0.
        5    1    3    3  502    0  0.63834762305E+03 -0.83017767892E+03 -0.39245731834E+03  0.11183592907E+04  0.46999998093E+01 0.  1.
       -5    1    3    3    0  502 -0.63834762305E+03  0.83017767892E+03 -0.30572811325E+03  0.10909511610E+04  0.46999998093E+01 0. -1.
</event>
<event>
 5   0  0.6283269E-06  0.2103032E+04  0.7818609E-02  0.8559909E-01
        1   -1    0    0  501    0  0.00000000000E+00  0.00000000000E+00  0.14307216334E+04  0.14307216334E+04  0.50400001928E-02 0.  1.
       -1   -1    0    0    0  501  0.00000000000E+00  0.00000000000E+00 -0.77281718505E+03  0.77281718507E+03  0.50400001928E-02 0. -1.
    10030    2    1    2    0    0  0.00000000000E+00  0.00000000000E+00  0.65790444833E+03  0.22035388185E+04  0.21030323491E+04 0.  0.
        1    1    3    3  502    0  0.17730670677E+03 -0.71363518456E+03  0.11165214917E+04  0.13369117721E+04  0.50400001928E-02 0.  1.
       -1    1    3    3    0  502 -0.17730670677E+03  0.71363518456E+03 -0.45861704341E+03  0.86662704633E+03  0.50400001928E-02 0. -1.
</event>
<event>
 5   0  0.1398469E-05  0.2101340E+04  0.7818609E-02  0.8560653E-01
        2   -1    0    0  501    0  0.00000000000E+00  0.00000000000E+00  0.18979725618E+04  0.18979725618E+04  0.25500000920E-02 0.  1.
       -2   -1    0    0    0  501  0.00000000000E+00  0.00000000000E+00 -0.58162435956E+03  0.58162435956E+03  0.25500000920E-02 0. -1.
    10030    2    1    2    0    0  0.00000000000E+00  0.00000000000E+00  0.13163482023E+04  0.24795969214E+04  0.21013396448E+04 0.  0.
        2    1    3    3  502    0  0.21079463061E+02 -0.24220662636E+03  0.18643236044E+04  0.18801092776E+04  0.25500000920E-02 0.  1.
       -2    1    3    3    0  502 -0.21079463061E+02  0.24220662636E+03 -0.54797540220E+03  0.59948764377E+03  0.25500000920E-02 0. -1.
</event>
<event>
 5   0  0.6917078E-06  0.2101965E+04  0.7818609E-02  0.8560378E-01
       -1   -1    0    0    0  501  0.00000000000E+00  0.00000000000E+00  0.99343431706E+03  0.99343431708E+03  0.50400001928E-02 0. -1.
        1   -1    0    0  501    0  0.00000000000E+00  0.00000000000E+00 -0.11118640100E+04  0.11118640100E+04  0.50400001928E-02 0.  1.
    10030    2    1    2    0    0  0.00000000000E+00  0.00000000000E+00 -0.11842969289E+03  0.21052983270E+04  0.21019646652E+04 0.  0.
        5    1    3    3  502    0 -0.25822960080E+03  0.10169730934E+04 -0.11951809170E+03  0.10560414119E+04  0.46999998093E+01 0.  1.
       -5    1    3    3    0  502  0.25822960080E+03 -0.10169730934E+04  0.10883988101E+01  0.10492569152E+04  0.46999998093E+01 0. -1.
</event>
<event>
 5   0  0.1395356E-05  0.2101679E+04  0.7818609E-02  0.8560504E-01
        2   -1    0    0  501    0  0.00000000000E+00  0.00000000000E+00  0.14561925011E+04  0.14561925011E+04  0.25500000920E-02 0. -1.
       -2   -1    0    0    0  501  0.00000000000E+00  0.00000000000E+00 -0.75832261794E+03  0.75832261794E+03  0.25500000920E-02 0.  1.
    10030    2    1    2    0    0  0.00000000000E+00  0.00000000000E+00  0.69786988312E+03  0.22145151190E+04  0.21016790522E+04 0.  0.
        1    1    3    3  502    0  0.15547152637E+03 -0.10389176744E+04  0.32022546097E+03  0.10982102147E+04  0.50400001928E-02 0. -1.
       -1    1    3    3    0  502 -0.15547152637E+03  0.10389176744E+04  0.37764442214E+03  0.11163049043E+04  0.50400001928E-02 0.  1.
</event>
<event>
 5   0  0.6283269E-06  0.2102835E+04  0.7818609E-02  0.8559996E-01
        1   -1    0    0  501    0  0.00000000000E+00  0.00000000000E+00  0.80271301978E+03  0.80271301980E+03  0.50400001928E-02 0.  1.
       -1   -1    0    0    0  501  0.00000000000E+00  0.00000000000E+00 -0.13771780021E+04  0.13771780021E+04  0.50400001928E-02 0. -1.
    10030    2    1    2    0    0  0.00000000000E+00  0.00000000000E+00 -0.57446498230E+03  0.21798910219E+04  0.21028349558E+04 0.  0.
        1    1    3    3  502    0  0.63329420827E+03  0.75202622742E+03  0.99080770121E+02  0.98814067824E+03  0.50400001928E-02 0.  1.
       -1    1    3    3    0  502 -0.63329420827E+03 -0.75202622742E+03 -0.67354575242E+03  0.11917503436E+04  0.50400001928E-02 0. -1.
</event>
<event>
 5   0  0.6599245E-06  0.2098729E+04  0.7818609E-02  0.8561804E-01
        1   -1    0    0  501    0  0.00000000000E+00  0.00000000000E+00  0.85035333537E+03  0.85035333539E+03  0.50400001928E-02 0. -1.
       -1   -1    0    0    0  501  0.00000000000E+00  0.00000000000E+00 -0.12949506546E+04  0.12949506546E+04  0.50400001928E-02 0.  1.
    10030    2    1    2    0    0  0.00000000000E+00  0.00000000000E+00 -0.44459731919E+03  0.21453039900E+04  0.20987287660E+04 0.  0.
        2    1    3    3  502    0 -0.18789989245E+01 -0.84288074607E+03  0.41664428903E+03  0.94023611201E+03  0.25500000920E-02 0. -1.
       -2    1    3    3    0  502  0.18789989245E+01  0.84288074607E+03 -0.86124160822E+03  0.12050678780E+04  0.25500000920E-02 0.  1.
</event>
<event>
 5   0  0.1441136E-05  0.2097717E+04  0.7818609E-02  0.8562250E-01
        2   -1    0    0  501    0  0.00000000000E+00  0.00000000000E+00  0.17311602993E+04  0.17311602993E+04  0.25500000920E-02 0. -1.
       -2   -1    0    0    0  501  0.00000000000E+00  0.00000000000E+00 -0.63547198379E+03  0.63547198380E+03  0.25500000920E-02 0.  1.
    10030    2    1    2    0    0  0.00000000000E+00  0.00000000000E+00  0.10956883155E+04  0.23666322831E+04  0.20977167298E+04 0.  0.
        4    1    3    3  502    0  0.75779089431E+03 -0.31230016473E+03 -0.19051906778E+03  0.84147344609E+03  0.12699999809E+01 0.  1.
       -4    1    3    3    0  502 -0.75779089431E+03  0.31230016473E+03  0.12862073833E+04  0.15251588370E+04  0.12699999809E+01 0. -1.
</event>
<event>
 5   0  0.1398469E-05  0.2098861E+04  0.7818609E-02  0.8561745E-01
       -2   -1    0    0    0  501  0.00000000000E+00  0.00000000000E+00  0.59917662334E+03  0.59917662335E+03  0.25500000920E-02 0.  1.
        2   -1    0    0  501    0  0.00000000000E+00  0.00000000000E+00 -0.18380292995E+04  0.18380292995E+04  0.25500000920E-02 0. -1.
    10030    2    1    2    0    0  0.00000000000E+00  0.00000000000E+00 -0.12388526761E+04  0.24372059228E+04  0.20988608237E+04 0.  0.
        2    1    3    3  502    0  0.53884087260E+03 -0.23380606755E+03  0.39041372838E+03  0.70529259355E+03  0.25500000920E-02 0.  1.
       -2    1    3    3    0  502 -0.53884087260E+03  0.23380606755E+03 -0.16292664045E+04  0.17319133293E+04  0.25500000920E-02 0. -1.
</event>
<event>
 5   0  0.1441136E-05  0.2100500E+04  0.7818609E-02  0.8561023E-01
       -2   -1    0    0    0  501  0.00000000000E+00  0.00000000000E+00  0.51044796756E+03  0.51044796756E+03  0.25500000920E-02 0.  1.
        2   -1    0    0  501    0  0.00000000000E+00  0.00000000000E+00 -0.21608961705E+04  0.21608961705E+04  0.25500000920E-02 0. -1.
    10030    2    1    2    0    0  0.00000000000E+00  0.00000000000E+00 -0.16504482029E+04  0.26713441381E+04  0.21004999960E+04 0.  0.
        4    1    3    3  502    0 -0.79265517209E+03  0.26959048851E+03 -0.16316100863E+04  0.18338850400E+04  0.12699999809E+01 0. -1.
       -4    1    3    3    0  502  0.79265517209E+03 -0.26959048851E+03 -0.18838116600E+02  0.83745909803E+03  0.12699999809E+01 0.  1.
</event>
<event>
 5   0  0.6599245E-06  0.2109019E+04  0.7818609E-02  0.8557281E-01
       -1   -1    0    0    0  501  0.00000000000E+00  0.00000000000E+00  0.82215956211E+03  0.82215956212E+03  0.50400001928E-02 0.  1.
        1   -1    0    0  501    0  0.00000000000E+00  0.00000000000E+00 -0.13525236849E+04  0.13525236849E+04  0.50400001928E-02 0. -1.
    10030    2    1    2    0    0  0.00000000000E+00  0.00000000000E+00 -0.53036412283E+03  0.21746832471E+04  0.21090189952E+04 0.  0.
        2    1    3    3  502    0  0.31269534439E+03 -0.35488562842E+03 -0.12370059016E+04  0.13243510819E+04  0.25500000920E-02 0. -1.
       -2    1    3    3    0  502 -0.31269534439E+03  0.35488562842E+03  0.70664177873E+03  0.85033216516E+03  0.25500000920E-02 0.  1.
</event>
<event>
 5   0  0.1395356E-05  0.2097450E+04  0.7818609E-02  0.8562367E-01
        2   -1    0    0  501    0  0.00000000000E+00  0.00000000000E+00  0.13616108780E+04  0.13616108780E+04  0.25500000920E-02 0.  1.
       -2   -1    0    0    0  501  0.00000000000E+00  0.00000000000E+00 -0.80773758121E+03  0.80773758121E+03  0.25500000920E-02 0. -1.
    10030    2    1    2    0    0  0.00000000000E+00  0.00000000000E+00  0.55387329679E+03  0.21693484592E+04  0.20974501445E+04 0.  0.
        1    1    3    3  502    0  0.34493906290E+03  0.19917813229E+03  0.12803308071E+04  0.13408586283E+04  0.50400001928E-02 0.  1.
       -1    1    3    3    0  502 -0.34493906290E+03 -0.19917813229E+03 -0.72645751033E+03  0.82848983087E+03  0.50400001928E-02 0. -1.
</event>
<event>
 5   0  0.6238363E-06  0.2100283E+04  0.7818609E-02  0.8561119E-01
        1   -1    0    0  501    0  0.00000000000E+00  0.00000000000E+00  0.98366418139E+03  0.98366418140E+03  0.50400001928E-02 0. -1.
       -1   -1    0    0    0  501  0.00000000000E+00  0.00000000000E+00 -0.11211109476E+04  0.11211109476E+04  0.50400001928E-02 0.  1.
    10030    2    1    2    0    0  0.00000000000E+00  0.00000000000E+00 -0.13744676621E+03  0.21047751290E+04  0.21002825358E+04 0.  0.
        4    1    3    3  502    0 -0.80699892900E+03 -0.51609270929E+02 -0.74014478596E+03  0.10962329612E+04  0.12699999809E+01 0.  1.
       -4    1    3    3    0  502  0.80699892900E+03  0.51609270929E+02  0.60269801975E+03  0.10085421678E+04  0.12699999809E+01 0. -1.
</event>
<event>
 5   0  0.6599245E-06  0.2101827E+04  0.7818609E-02  0.8560439E-01
        1   -1    0    0  501    0  0.00000000000E+00  0.00000000000E+00  0.91164341890E+03  0.91164341891E+03  0.50400001928E-02 0. -1.
       -1   -1    0    0    0  501  0.00000000000E+00  0.00000000000E+00 -0.12114594700E+04  0.12114594700E+04  0.50400001928E-02 0.  1.
    10030    2    1    2    0    0  0.00000000000E+00  0.00000000000E+00 -0.29981605108E+03  0.21231028889E+04  0.21018268750E+04 0.  0.
        2    1    3    3  502    0  0.29137679821E+03 -0.78588958197E+03 -0.79027811602E+03  0.11519819331E+04  0.25500000920E-02 0.  1.
       -2    1    3    3    0  502 -0.29137679821E+03  0.78588958197E+03  0.49046206494E+03  0.97112095577E+03  0.25500000920E-02 0. -1.
</event>
<event>
 5   0  0.6283269E-06  0.2096486E+04  0.7818609E-02  0.8562793E-01
       -1   -1    0    0    0  501  0.00000000000E+00  0.00000000000E+00  0.94286926067E+03  0.94286926068E+03  0.50400001928E-02 0.  1.
        1   -1    0    0  501    0  0.00000000000E+00  0.00000000000E+00 -0.11653928565E+04  0.11653928565E+04  0.50400001928E-02 0. -1.
    10030    2    1    2    0    0  0.00000000000E+00  0.00000000000E+00 -0.22252359580E+03  0.21082621172E+04  0.20964857271E+04 0.  0.
        1    1    3    3  502    0 -0.13307114372E+03 -0.10055298112E+04  0.15482795475E+03  0.10260457232E+04  0.50400001928E-02 0.  1.
       -1    1    3    3    0  502  0.13307114372E+03  0.10055298112E+04 -0.37735155055E+03  0.10822163939E+04  0.50400001928E-02 0. -1.
</event>
<event>
 5   0  0.1395356E-05  0.2088308E+04  0.7818609E-02  0.8566411E-01
        2   -1    0    0  501    0  0.00000000000E+00  0.00000000000E+00  0.16911122289E+04  0.16911122289E+04  0.25500000920E-02 0.  1.
       -2   -1    0    0    0  501  0.00000000000E+00  0.00000000000E+00 -0.64469837331E+03  0.64469837332E+03  0.25500000920E-02 0. -1.
    10030    2    1    2    0    0  0.00000000000E+00  0.00000000000E+00  0.10464138556E+04  0.23358106022E+04  0.20883077389E+04 0.  0.
        1    1    3    3  502    0 -0.40990013074E+02  0.28015491034E+03 -0.60094041456E+03  0.66430139006E+03  0.50400001928E-02 0. -1.
       -1    1    3    3    0  502  0.40990013074E+02 -0.28015491034E+03  0.16473542701E+04  0.16715092121E+04  0.50400001928E-02 0.  1.
</event>
<event>
 5   0  0.6283269E-06  0.2105594E+04  0.7818609E-02  0.8558783E-01
        1   -1    0    0  501    0  0.00000000000E+00  0.00000000000E+00  0.17749185727E+04  0.17749185727E+04  0.50400001928E-02 0.  1.
       -1   -1    0    0    0  501  0.00000000000E+00  0.00000000000E+00 -0.62446892578E+03  0.62446892580E+03  0.50400001928E-02 0. -1.
    10030    2    1    2    0    0  0.00000000000E+00  0.00000000000E+00  0.11504496469E+04  0.23993874985E+04  0.21055939727E+04 0.  0.
        1    1    3    3  502    0 -0.80881097966E+03 -0.63163887160E+02  0.13398287485E+04  0.15663032761E+04  0.50400001928E-02 0.  1.
       -1    1    3    3    0  502  0.80881097966E+03  0.63163887160E+02 -0.18937910158E+03  0.83308422239E+03  0.50400001928E-02 0. -1.
</event>
<event>
 5   0  0.6917078E-06  0.2101005E+04  0.7818609E-02  0.8560801E-01
       -1   -1    0    0    0  501  0.00000000000E+00  0.00000000000E+00  0.11822012315E+04  0.11822012315E+04  0.50400001928E-02 0. -1.
        1   -1    0    0  501    0  0.00000000000E+00  0.00000000000E+00 -0.93347523222E+03  0.93347523224E+03  0.50400001928E-02 0.  1.
    10030    2    1    2    0    0  0.00000000000E+00  0.00000000000E+00  0.24872599931E+03  0.21156764638E+04  0.21010050635E+04 0.  0.
        5    1    3    3  502    0  0.57250158450E+03 -0.87969477910E+03  0.80325355943E+02  0.10526610192E+04  0.46999998093E+01 0. -1.
       -5    1    3    3    0  502 -0.57250158450E+03  0.87969477910E+03  0.16840064337E+03  0.10630154445E+04  0.46999998093E+01 0.  1.
</event>
<event>
 5   0  0.6589193E-06  0.2102555E+04  0.7818609E-02  0.8560119E-01
        1   -1    0    0  501    0  0.00000000000E+00  0.00000000000E+00  0.16800561347E+04  0.16800561347E+04  0.50400001928E-02 0. -1.
       -1   -1    0    0    0  501  0.00000000000E+00  0.00000000000E+00 -0.65782585445E+03  0.65782585447E+03  0.50400001928E-02 0.  1.
    10030    2    1    2    0    0  0.00000000000E+00  0.00000000000E+00  0.10222302803E+04  0.23378819892E+04  0.21025549813E+04 0.  0.
        3    1    3    3  502    0 -0.33692342523E+03  0.93889865210E+03  0.14210319627E+03  0.10075918827E+04  0.10100000352E+00 0.  1.
       -3    1    3    3    0  502  0.33692342523E+03 -0.93889865210E+03  0.88012708400E+03  0.13302901066E+04  0.10100000352E+00 0. -1.
</event>
<event>
 5   0  0.1398469E-05  0.2105071E+04  0.7818609E-02  0.8559013E-01
       -2   -1    0    0    0  501  0.00000000000E+00  0.00000000000E+00  0.57560996301E+03  0.57560996301E+03  0.25500000920E-02 0. -1.
        2   -1    0    0  501    0  0.00000000000E+00  0.00000000000E+00 -0.19246208397E+04  0.19246208397E+04  0.25500000920E-02 0.  1.
    10030    2    1    2    0    0  0.00000000000E+00  0.00000000000E+00 -0.13490108767E+04  0.25002308028E+04  0.21050709540E+04 0.  0.
        2    1    3    3  502    0 -0.70971016660E+03 -0.63067263863E+03 -0.13491735270E+03  0.95897820087E+03  0.25500000920E-02 0. -1.
       -2    1    3    3    0  502  0.70971016660E+03  0.63067263863E+03 -0.12140935240E+04  0.15412526019E+04  0.25500000920E-02 0.  1.
</event>
<event>
 5   0  0.1398469E-05  0.2099642E+04  0.7818609E-02  0.8561401E-01
        2   -1    0    0  501    0  0.00000000000E+00  0.00000000000E+00  0.79413250752E+03  0.79413250752E+03  0.25500000920E-02 0.  1.
       -2   -1    0    0    0  501  0.00000000000E+00  0.00000000000E+00 -0.13878339627E+04  0.13878339627E+04  0.25500000920E-02 0. -1.
    10030    2    1    2    0    0  0.00000000000E+00  0.00000000000E+00 -0.59370145516E+03  0.21819664702E+04  0.20996419360E+04 0.  0.
        2    1    3    3  502    0  0.47447572764E+03 -0.80381922775E+03  0.20247965762E+03  0.95511809677E+03  0.25500000920E-02 0.  1.
       -2    1    3    3    0  502 -0.47447572764E+03  0.80381922775E+03 -0.79618111278E+03  0.12268483734E+04  0.25500000920E-02 0. -1.
</event>
<event>
 5   0  0.1441136E-05  0.2100290E+04  0.7818609E-02  0.8561116E-01
       -2   -1    0    0    0  501  0.00000000000E+00  0.00000000000E+00  0.52721873680E+03  0.52721873680E+03  0.25500000920E-02 0. -1.
        2   -1    0    0  501    0  0.00000000000E+00  0.00000000000E+00 -0.20917397411E+04  0.20917397411E+04  0.25500000920E-02 0.  1.
    10030    2    1    2    0    0  0.00000000000E+00  0.00000000000E+00 -0.15645210043E+04  0.26189584779E+04  0.21002898695E+04 0.  0.
        4    1    3    3  502    0 -0.27847806235E+03  0.74723082616E+03 -0.16343020433E+04  0.18184742837E+04  0.12699999809E+01 0.  1.
       -4    1    3    3    0  502  0.27847806235E+03 -0.74723082616E+03  0.69781039072E+02  0.80048419415E+03  0.12699999809E+01 0. -1.
</event>
<event>
 5   0  0.5009125E-06  0.2098018E+04  0.7818609E-02  0.8562117E-01
        3   -1    0    0  501    0  0.00000000000E+00  0.00000000000E+00  0.14718891247E+04  0.14718891281E+04  0.10100000352E+00 0.  1.
       -3   -1    0    0    0  501  0.00000000000E+00  0.00000000000E+00 -0.74762399314E+03  0.74762399996E+03  0.10100000352E+00 0. -1.
    10030    2    1    2    0    0  0.00000000000E+00  0.00000000000E+00  0.72426513152E+03  0.22195131281E+04  0.20980177657E+04 0.  0.
        2    1    3    3  502    0  0.59690220059E+02  0.75429953021E+03  0.11307669975E+04  0.13605751381E+04  0.25500000920E-02 0. -1.
       -2    1    3    3    0  502 -0.59690220059E+02 -0.75429953021E+03 -0.40650186599E+03  0.85893799003E+03  0.25500000920E-02 0.  1.
</event>
<event>
 5   0  0.6589193E-06  0.2089934E+04  0.7818609E-02  0.8565691E-01
        1   -1    0    0  501    0  0.00000000000E+00  0.00000000000E+00  0.11755955300E+04  0.11755955300E+04  0.50400001928E-02 0. -1.
       -1   -1    0    0    0  501  0.00000000000E+00  0.00000000000E+00 -0.92885320519E+03  0.92885320521E+03  0.50400001928E-02 0.  1.
    10030    2    1    2    0    0  0.00000000000E+00  0.00000000000E+00  0.24674232481E+03  0.21044487352E+04  0.20899336603E+04 0.  0.
        3    1    3    3  502    0  0.71546937752E+03 -0.26871932126E+03  0.84095594466E+03  0.11363597207E+04  0.10100000352E+00 0. -1.
       -3    1    3    3    0  502 -0.71546937752E+03  0.26871932126E+03 -0.59421361986E+03  0.96808901451E+03  0.10100000352E+00 0.  1.
</event>
<event>
 5   0  0.6238363E-06  0.2097541E+04  0.7818609E-02  0.8562327E-01
       -1   -1    0    0    0  501  0.00000000000E+00  0.00000000000E+00  0.12762596877E+04  0.12762596877E+04  0.50400001928E-02 0.  1.
        1   -1    0    0  501    0  0.00000000000E+00  0.00000000000E+00 -0.86183055423E+03  0.86183055425E+03  0.50400001928E-02 0. -1.
    10030    2    1    2    0    0  0.00000000000E+00  0.00000000000E+00  0.41442913347E+03  0.21380902420E+04  0.20975410308E+04 0.  0.
        4    1    3    3  502    0  0.65982047926E+03 -0.25380218257E+03  0.99687726755E+03  0.12221065879E+04  0.12699999809E+01 0.  1.
       -4    1    3    3    0  502 -0.65982047926E+03  0.25380218257E+03 -0.58244813407E+03  0.91598365406E+03  0.12699999809E+01 0. -1.
</event>
<event>
 5   0  0.1390735E-05  0.2102525E+04  0.7818609E-02  0.8560132E-01
       -2   -1    0    0    0  501  0.00000000000E+00  0.00000000000E+00  0.10653768158E+04  0.10653768158E+04  0.25500000920E-02 0. -1.
        2   -1    0    0  501    0  0.00000000000E+00  0.00000000000E+00 -0.10373347861E+04  0.10373347861E+04  0.25500000920E-02 0.  1.
    10030    2    1    2    0    0  0.00000000000E+00  0.00000000000E+00  0.28042029705E+02  0.21027116019E+04  0.21025246076E+04 0.  0.
        5    1    3    3  502    0  0.44703496038E+03 -0.43467902818E+03 -0.83242547143E+03  0.10400674828E+04  0.46999998093E+01 0.  1.
       -5    1    3    3    0  502 -0.44703496038E+03  0.43467902818E+03  0.86046750113E+03  0.10626441191E+04  0.46999998093E+01 0. -1.
</event>
<event>
 5   0  0.6589193E-06  0.2098067E+04  0.7818609E-02  0.8562096E-01
       -1   -1    0    0    0  501  0.00000000000E+00  0.00000000000E+00  0.66304706525E+03  0.66304706527E+03  0.50400001928E-02 0. -1.
        1   -1    0    0  501    0  0.00000000000E+00  0.00000000000E+00 -0.16597175494E+04  0.16597175494E+04  0.50400001928E-02 0.  1.
    10030    2    1    2    0    0  0.00000000000E+00  0.00000000000E+00 -0.99667048414E+03  0.23227646147E+04  0.20980665865E+04 0.  0.
        3    1    3    3  502    0  0.36438276401E+03 -0.17555306654E+03 -0.15699218077E+04  0.16211872718E+04  0.10100000352E+00 0.  1.
       -3    1    3    3    0  502 -0.36438276401E+03  0.17555306654E+03  0.57325132353E+03  0.70157734286E+03  0.10100000352E+00 0. -1.
</event>
<event>
 5   0  0.6599245E-06  0.2111631E+04  0.7818609E-02  0.8556137E-01
        1   -1    0    0  501    0  0.00000000000E+00  0.00000000000E+00  0.11724382785E+04  0.11724382785E+04  0.50400001928E-02 0.  1.
       -1   -1    0    0    0  501  0.00000000000E+00  0.00000000000E+00 -0.95079302749E+03  0.95079302750E+03  0.50400001928E-02 0. -1.
    10030    2    1    2    0    0  0.00000000000E+00  0.00000000000E+00  0.22164525104E+03  0.21232313060E+04  0.21116307825E+04 0.  0.
        2    1    3    3  502    0 -0.83851252536E+03 -0.62349597542E+03  0.26296698283E+03  0.10774980838E+04  0.25500000920E-02 0.  1.
       -2    1    3    3    0  502  0.83851252536E+03  0.62349597542E+03 -0.41321731793E+02  0.10457332222E+04  0.25500000920E-02 0. -1.
</event>
<event>
 5   0  0.1344501E-05  0.2097577E+04  0.7818609E-02  0.8562311E-01
        2   -1    0    0  501    0  0.00000000000E+00  0.00000000000E+00  0.14236934480E+04  0.14236934480E+04  0.25500000920E-02 0. -1.
       -2   -1    0    0    0  501  0.00000000000E+00  0.00000000000E+00 -0.77260856216E+03  0.77260856216E+03  0.25500000920E-02 0.  1.
    10030    2    1    2    0    0  0.00000000000E+00  0.00000000000E+00  0.65108488584E+03  0.21963020102E+04  0.20975774101E+04 0.  0.
        3    1    3    3  502    0 -0.64218633975E+03  0.52759505932E+03 -0.34425079372E+03  0.89959349751E+03  0.10100000352E+00 0.  1.
       -3    1    3    3    0  502  0.64218633975E+03 -0.52759505932E+03  0.99533567956E+03  0.12967085127E+04  0.10100000352E+00 0. -1.
</event>
<event>
 5   0  0.6589193E-06  0.2103119E+04  0.7818609E-02  0.8559871E-01
       -1   -1    0    0    0  501  0.00000000000E+00  0.00000000000E+00  0.61893998121E+03  0.61893998123E+03  0.50400001928E-02 0. -1.
        1   -1    0    0  501    0  0.00000000000E+00  0.00000000000E+00 -0.17865661108E+04  0.17865661108E+04  0.50400001928E-02 0.  1.
    10030    2    1    2    0    0  0.00000000000E+00  0.00000000000E+00 -0.11676261296E+04  0.24055060920E+04  0.21031188222E+04 0.  0.
        3    1    3    3  502    0 -0.26327898137E+03  0.62613296393E+03  0.33436471162E+03  0.75707204488E+03  0.10100000352E+00 0. -1.
       -3    1    3    3    0  502  0.26327898137E+03 -0.62613296393E+03 -0.15019908412E+04  0.16484340471E+04  0.10100000352E+00 0.  1.
</event>
<event>
 5   0  0.6589193E-06  0.2099215E+04  0.7818609E-02  0.8561589E-01
        1   -1    0    0  501    0  0.00000000000E+00  0.00000000000E+00  0.86020648138E+03  0.86020648139E+03  0.50400001928E-02 0. -1.
       -1   -1    0    0    0  501  0.00000000000E+00  0.00000000000E+00 -0.12807111211E+04  0.12807111211E+04  0.50400001928E-02 0.  1.
    10030    2    1    2    0    0  0.00000000000E+00  0.00000000000E+00 -0.42050463969E+03  0.21409176025E+04  0.20992150982E+04 0.  0.
        3    1    3    3  502    0  0.60099115412E+03 -0.55351761564E+03  0.46170214627E+03  0.93847802330E+03  0.10100000352E+00 0. -1.
       -3    1    3    3    0  502 -0.60099115412E+03  0.55351761564E+03 -0.88220678596E+03  0.12024395792E+04  0.10100000352E+00 0.  1.
</event>
<event>
 5   0  0.6589193E-06  0.2098607E+04  0.7818609E-02  0.8561857E-01
       -1   -1    0    0    0  501  0.00000000000E+00  0.00000000000E+00  0.14487888271E+04  0.14487888271E+04  0.50400001928E-02 0.  1.
        1   -1    0    0  501    0  0.00000000000E+00  0.00000000000E+00 -0.75997089782E+03  0.75997089784E+03  0.50400001928E-02 0. -1.
    10030    2    1    2    0    0  0.00000000000E+00  0.00000000000E+00  0.68881792928E+03  0.22087597250E+04  0.20986065336E+04 0.  0.
        3    1    3    3  502    0  0.66278985501E+03  0.35793978694E+03 -0.42443102869E+03  0.86461146840E+03  0.10100000352E+00 0. -1.
       -3    1    3    3    0  502 -0.66278985501E+03 -0.35793978694E+03  0.11132489580E+04  0.13441482566E+04  0.10100000352E+00 0.  1.
</event>
<event>
 5   0  0.1390735E-05  0.2097777E+04  0.7818609E-02  0.8562223E-01
       -2   -1    0    0    0  501  0.00000000000E+00  0.00000000000E+00  0.57245838090E+03  0.57245838090E+03  0.25500000920E-02 0.  1.
        2   -1    0    0  501    0  0.00000000000E+00  0.00000000000E+00 -0.19218284331E+04  0.19218284331E+04  0.25500000920E-02 0. -1.
    10030    2    1    2    0    0  0.00000000000E+00  0.00000000000E+00 -0.13493700522E+04  0.24942868140E+04  0.20977767214E+04 0.  0.
        5    1    3    3  502    0 -0.13097127122E+03  0.18409022008E+02  0.56249140513E+03  0.57785035850E+03  0.46999998093E+01 0.  1.
       -5    1    3    3    0  502  0.13097127122E+03 -0.18409022008E+02 -0.19118614574E+04  0.19164364555E+04  0.46999998093E+01 0. -1.
</event>
<event>
 5   0  0.6238363E-06  0.2091392E+04  0.7818609E-02  0.8565045E-01
        1   -1    0    0  501    0  0.00000000000E+00  0.00000000000E+00  0.96433623379E+03  0.96433623380E+03  0.50400001928E-02 0. -1.
       -1   -1    0    0    0  501  0.00000000000E+00  0.00000000000E+00 -0.11339201875E+04  0.11339201875E+04  0.50400001928E-02 0.  1.
    10030    2    1    2    0    0  0.00000000000E+00  0.00000000000E+00 -0.16958395371E+03  0.20982564213E+04  0.20913921900E+04 0.  0.
        4    1    3    3  502    0 -0.98665001025E+03  0.34296614542E+03 -0.13368271427E+03  0.10530796269E+04  0.12699999809E+01 0. -1.
       -4    1    3    3    0  502  0.98665001025E+03 -0.34296614542E+03 -0.35901239434E+02  0.10451767944E+04  0.12699999809E+01 0.  1.
</event>
<event>
 5   0  0.6238363E-06  0.2098364E+04  0.7818609E-02  0.8561965E-01
        1   -1    0    0  501    0  0.00000000000E+00  0.00000000000E+00  0.83707943904E+03  0.83707943905E+03  0.50400001928E-02 0. -1.
       -1   -1    0    0    0  501  0.00000000000E+00  0.00000000000E+00 -0.13150275182E+04  0.13150275182E+04  0.50400001928E-02 0.  1.
    10030    2    1    2    0    0  0.00000000000E+00  0.00000000000E+00 -0.47794807914E+03  0.21521069572E+04  0.20983636456E+04 0.  0.
        4    1    3    3  502    0 -0.10001046469E+04  0.23222988013E+03 -0.17477786230E+02  0.10268627502E+04  0.12699999809E+01 0. -1.
       -4    1    3    3    0  502  0.10001046469E+04 -0.23222988013E+03 -0.46047029291E+03  0.11252442070E+04  0.12699999809E+01 0.  1.
</event>
<event>
 5   0  0.1344501E-05  0.2101570E+04  0.7818609E-02  0.8560552E-01
       -2   -1    0    0    0  501  0.00000000000E+00  0.00000000000E+00  0.13689075239E+04  0.13689075239E+04  0.25500000920E-02 0. -1.
        2   -1    0    0  501    0  0.00000000000E+00  0.00000000000E+00 -0.80659174488E+03  0.80659174488E+03  0.25500000920E-02 0.  1.
    10030    2    1    2    0    0  0.00000000000E+00  0.00000000000E+00  0.56231577903E+03  0.21754992688E+04  0.21015703731E+04 0.  0.
        3    1    3    3  502    0  0.58079773749E+03  0.79617340587E+03  0.65858125580E+03  0.11853047645E+04  0.10100000352E+00 0. -1.
       -3    1    3    3    0  502 -0.58079773749E+03 -0.79617340587E+03 -0.96265476766E+02  0.99019450428E+03  0.10100000352E+00 0.  1.
</event>
<event>
 5   0  0.1441136E-05  0.2099182E+04  0.7818609E-02  0.8561604E-01
        2   -1    0    0  501    0  0.00000000000E+00  0.00000000000E+00  0.13667996763E+04  0.13667996763E+04  0.25500000920E-02 0.  1.
       -2   -1    0    0    0  501  0.00000000000E+00  0.00000000000E+00 -0.80600087807E+03  0.80600087808E+03  0.25500000920E-02 0. -1.
    10030    2    1    2    0    0  0.00000000000E+00  0.00000000000E+00  0.56079879824E+03  0.21728005544E+04  0.20991824497E+04 0.  0.
        4    1    3    3  502    0 -0.39072503999E+03  0.30710759421E+03 -0.67649962253E+03  0.83942509105E+03  0.12699999809E+01 0. -1.
       -4    1    3    3    0  502  0.39072503999E+03 -0.30710759421E+03  0.12372984208E+04  0.13333754633E+04  0.12699999809E+01 0.  1.
</event>
<event>
 5   0  0.1441136E-05  0.2085252E+04  0.7818609E-02  0.8567768E-01
       -2   -1    0    0    0  501  0.00000000000E+00  0.00000000000E+00  0.71228180165E+03  0.71228180165E+03  0.25500000920E-02 0.  1.
        2   -1    0    0  501    0  0.00000000000E+00  0.00000000000E+00 -0.15261779953E+04  0.15261779953E+04  0.25500000920E-02 0. -1.
    10030    2    1    2    0    0  0.00000000000E+00  0.00000000000E+00 -0.81389619368E+03  0.22384597970E+04  0.20852518430E+04 0.  0.
        4    1    3    3  502    0  0.72350368099E+03 -0.93841596831E+02 -0.12065251709E+04  0.14099533406E+04  0.12699999809E+01 0. -1.
       -4    1    3    3    0  502 -0.72350368099E+03  0.93841596831E+02  0.39262897719E+03  0.82850645642E+03  0.12699999809E+01 0.  1.
</event>
<event>
 5   0  0.6917078E-06  0.2104468E+04  0.7818609E-02  0.8559278E-01
       -1   -1    0    0    0  501  0.00000000000E+00  0.00000000000E+00  0.68015170877E+03  0.68015170879E+03  0.50400001928E-02 0.  1.
        1   -1    0    0  501    0  0.00000000000E+00  0.00000000000E+00 -0.16278664090E+04  0.16278664090E+04  0.50400001928E-02 0. -1.
    10030    2    1    2    0    0  0.00000000000E+00  0.00000000000E+00 -0.94771470025E+03  0.23080181178E+04  0.21044677425E+04 0.  0.
        5    1    3    3  502    0  0.80848524459E+03 -0.27995907704E+03 -0.11455932808E+04  0.14298361901E+04  0.46999998093E+01 0. -1.
       -5    1    3    3    0  502 -0.80848524459E+03  0.27995907704E+03  0.19787858053E+03  0.87818192772E+03  0.46999998093E+01 0.  1.
</event>
<event>
 5   0  0.6589193E-06  0.2098906E+04  0.7818609E-02  0.8561725E-01
       -1   -1    0    0    0  501  0.00000000000E+00  0.00000000000E+00  0.92789832197E+03  0.92789832199E+03  0.50400001928E-02 0.  1.
        1   -1    0    0  501    0  0.00000000000E+00  0.00000000000E+00 -0.11869318574E+04  0.11869318575E+04  0.50400001928E-02 0. -1.
    10030    2    1    2    0    0  0.00000000000E+00  0.00000000000E+00 -0.25903353548E+03  0.21148301794E+04  0.20989064570E+04 0.  0.
        3    1    3    3  502    0  0.75508998971E+03  0.14076134248E+03  0.59101509376E+03  0.96916123496E+03  0.10100000352E+00 0.  1.
       -3    1    3    3    0  502 -0.75508998971E+03 -0.14076134248E+03 -0.85004862924E+03  0.11456689445E+04  0.10100000352E+00 0. -1.
</event>
<event>
 5   0  0.1441136E-05  0.2103304E+04  0.7818609E-02  0.8559789E-01
        2   -1    0    0  501    0  0.00000000000E+00  0.00000000000E+00  0.85956005869E+03  0.85956005870E+03  0.25500000920E-02 0. -1.
       -2   -1    0    0    0  501  0.00000000000E+00  0.00000000000E+00 -0.12866723251E+04  0.12866723251E+04  0.25500000920E-02 0.  1.
    10030    2    1    2    0    0  0.00000000000E+00  0.00000000000E+00 -0.42711226636E+03  0.21462323838E+04  0.21033041998E+04 0.  0.
        4    1    3    3  502    0 -0.92726648765E+01  0.75193778331E+03  0.53661803197E+03  0.92382733096E+03  0.12699999809E+01 0. -1.
       -4    1    3    3    0  502  0.92726648765E+01 -0.75193778331E+03 -0.96373029833E+03  0.12224050528E+04  0.12699999809E+01 0.  1.
</event>
<event>
 5   0  0.1390735E-05  0.2099623E+04  0.7818609E-02  0.8561409E-01
        2   -1    0    0  501    0  0.00000000000E+00  0.00000000000E+00  0.11307624684E+04  0.11307624684E+04  0.25500000920E-02 0.  1.
       -2   -1    0    0    0  501  0.00000000000E+00  0.00000000000E+00 -0.97465607440E+03  0.97465607440E+03  0.25500000920E-02 0. -1.
    10030    2    1    2    0    0  0.00000000000E+00  0.00000000000E+00  0.15610639400E+03  0.21054185428E+04  0.20996233077E+04 0.  0.
        5    1    3    3  502    0 -0.92412520518E+03  0.48842958458E+03  0.17584963548E+03  0.10599603947E+04  0.46999998093E+01 0.  1.
       -5    1    3    3    0  502  0.92412520518E+03 -0.48842958458E+03 -0.19743241483E+02  0.10454581481E+04  0.46999998093E+01 0. -1.
</event>
<event>
 5   0  0.6917078E-06  0.2099532E+04  0.7818609E-02  0.8561450E-01
       -1   -1    0    0    0  501  0.00000000000E+00  0.00000000000E+00  0.38935609589E+03  0.38935609592E+03  0.50400001928E-02 0. -1.
        1   -1    0    0  501    0  0.00000000000E+00  0.00000000000E+00 -0.28303358508E+04  0.28303358508E+04  0.50400001928E-02 0.  1.
    10030    2    1    2    0    0  0.00000000000E+00  0.00000000000E+00 -0.24409797549E+04  0.32196919467E+04  0.20995318688E+04 0.  0.
        5    1    3    3  502    0  0.42145890941E+03  0.22814719065E+02 -0.26944639098E+04  0.27273257918E+04  0.46999998093E+01 0.  1.
       -5    1    3    3    0  502 -0.42145890941E+03 -0.22814719065E+02  0.25348415485E+03  0.49236615490E+03  0.46999998093E+01 0. -1.
</event>
<event>
 5   0  0.6589193E-06  0.2095739E+04  0.7818609E-02  0.8563123E-01
        1   -1    0    0  501    0  0.00000000000E+00  0.00000000000E+00  0.11281842625E+04  0.11281842625E+04  0.50400001928E-02 0. -1.
       -1   -1    0    0    0  501  0.00000000000E+00  0.00000000000E+00 -0.97327230721E+03  0.97327230723E+03  0.50400001928E-02 0.  1.
    10030    2    1    2    0    0  0.00000000000E+00  0.00000000000E+00  0.15491195526E+03  0.21014565697E+04  0.20957390106E+04 0.  0.
        3    1    3    3  502    0  0.30128002865E+03 -0.13719774507E+03 -0.91945838525E+03  0.97723927947E+03  0.10100000352E+00 0.  1.
       -3    1    3    3    0  502 -0.30128002865E+03  0.13719774507E+03  0.10743703405E+04  0.11242172902E+04  0.10100000352E+00 0. -1.
</event>
<event>
 5   0  0.1398469E-05  0.2131183E+04  0.7818609E-02  0.8547630E-01
        2   -1    0    0  501    0  0.00000000000E+00  0.00000000000E+00  0.72844307933E+03  0.72844307933E+03  0.25500000920E-02 0.  1.
       -2   -1    0    0    0  501  0.00000000000E+00  0.00000000000E+00 -0.15587842620E+04  0.15587842620E+04  0.25500000920E-02 0. -1.
    10030    2    1    2    0    0  0.00000000000E+00  0.00000000000E+00 -0.83034118271E+03  0.22872273414E+04  0.21311833406E+04 0.  0.
        2    1    3    3  502    0 -0.40027226379E+02 -0.82984582529E+03 -0.11312897357E+04  0.14035892344E+04  0.25500000920E-02 0. -1.
       -2    1    3    3    0  502  0.40027226379E+02  0.82984582529E+03  0.30094855303E+03  0.88363810702E+03  0.25500000920E-02 0.  1.
</event>
<event>
 5   0  0.1390735E-05  0.2099367E+04  0.7818609E-02  0.8561522E-01
        2   -1    0    0  501    0  0.00000000000E+00  0.00000000000E+00  0.89012894165E+03  0.89012894166E+03  0.25500000920E-02 0.  1.
       -2   -1    0    0    0  501  0.00000000000E+00  0.00000000000E+00 -0.12378378138E+04  0.12378378138E+04  0.25500000920E-02 0. -1.
    10030    2    1    2    0    0  0.00000000000E+00  0.00000000000E+00 -0.34770887210E+03  0.21279667554E+04  0.20993668218E+04 0.  0.
        5    1    3    3  502    0 -0.49639416095E+03 -0.92483719320E+03 -0.18304303736E+03  0.10654847913E+04  0.46999998093E+01 0.  1.
       -5    1    3    3    0  502  0.49639416095E+03  0.92483719320E+03 -0.16466583474E+03  0.10624819641E+04  0.46999998093E+01 0. -1.
</event>
<event>
 5   0  0.1395356E-05  0.2100662E+04  0.7818609E-02  0.8560952E-01
       -2   -1    0    0    0  501  0.00000000000E+00  0.00000000000E+00  0.91593168140E+03  0.91593168140E+03  0.25500000920E-02 0.  1.
        2   -1    0    0  501    0  0.00000000000E+00  0.00000000000E+00 -0.12044511261E+04  0.12044511261E+04  0.25500000920E-02 0. -1.
    10030    2    1    2    0    0  0.00000000000E+00  0.00000000000E+00 -0.28851944473E+03  0.21203828075E+04  0.21006617482E+04 0.  0.
        1    1    3    3  502    0  0.69254101043E+02 -0.10188938832E+04 -0.39203121590E+03  0.10939055489E+04  0.50400001928E-02 0.  1.
       -1    1    3    3    0  502 -0.69254101043E+02  0.10188938832E+04  0.10351177117E+03  0.10264772586E+04  0.50400001928E-02 0. -1.
</event>
<event>
 5   0  0.1441136E-05  0.2109433E+04  0.7818609E-02  0.8557099E-01
        2   -1    0    0  501    0  0.00000000000E+00  0.00000000000E+00  0.16250749000E+04  0.16250749000E+04  0.25500000920E-02 0.  1.
       -2   -1    0    0    0  501  0.00000000000E+00  0.00000000000E+00 -0.68453900003E+03  0.68453900004E+03  0.25500000920E-02 0. -1.
    10030    2    1    2    0    0  0.00000000000E+00  0.00000000000E+00  0.94053589995E+03  0.23096139000E+04  0.21094332386E+04 0.  0.
        4    1    3    3  502    0  0.82896278308E+01  0.51882031954E+03 -0.53512153388E+03  0.74538574632E+03  0.12699999809E+01 0. -1.
       -4    1    3    3    0  502 -0.82896278308E+01 -0.51882031954E+03  0.14756574338E+04  0.15642281537E+04  0.12699999809E+01 0.  1.
</event>
<event>
 5   0  0.1390735E-05  0.2099656E+04  0.7818609E-02  0.8561395E-01
        2   -1    0    0  501    0  0.00000000000E+00  0.00000000000E+00  0.14813240356E+04  0.14813240356E+04  0.25500000920E-02 0. -1.
       -2   -1    0    0    0  501  0.00000000000E+00  0.00000000000E+00 -0.74402247716E+03  0.74402247716E+03  0.25500000920E-02 0.  1.
    10030    2    1    2    0    0  0.00000000000E+00  0.00000000000E+00  0.73730155846E+03  0.22253465128E+04  0.20996555703E+04 0.  0.
        5    1    3    3  502    0 -0.41055953411E+03 -0.96482803886E+03  0.31394694798E+03  0.10945487891E+04  0.46999998093E+01 0.  1.
       -5    1    3    3    0  502  0.41055953411E+03  0.96482803886E+03  0.42335461048E+03  0.11307977237E+04  0.46999998093E+01 0. -1.
</event>
<event>
 5   0  0.1344501E-05  0.2099477E+04  0.7818609E-02  0.8561474E-01
       -2   -1    0    0    0  501  0.00000000000E+00  0.00000000000E+00  0.68702986886E+03  0.68702986887E+03  0.25500000920E-02 0. -1.
        2   -1    0    0  501    0  0.00000000000E+00  0.00000000000E+00 -0.16039340848E+04  0.16039340848E+04  0.25500000920E-02 0.  1.
    10030    2    1    2    0    0  0.00000000000E+00  0.00000000000E+00 -0.91690421590E+03  0.22909639536E+04  0.20994767195E+04 0.  0.
        3    1    3    3  502    0  0.12830582444E+03 -0.86839232861E+03 -0.10866150336E+04  0.13968893523E+04  0.10100000352E+00 0. -1.
       -3    1    3    3    0  502 -0.12830582444E+03  0.86839232861E+03  0.16971081772E+03  0.89407460137E+03  0.10100000352E+00 0.  1.
</event>
<event>
 5   0  0.6599245E-06  0.2099620E+04  0.7818609E-02  0.8561411E-01
        1   -1    0    0  501    0  0.00000000000E+00  0.00000000000E+00  0.15497290244E+04  0.15497290244E+04  0.50400001928E-02 0.  1.
       -1   -1    0    0    0  501  0.00000000000E+00  0.00000000000E+00 -0.71115704253E+03  0.71115704254E+03  0.50400001928E-02 0. -1.
    10030    2    1    2    0    0  0.00000000000E+00  0.00000000000E+00  0.83857198189E+03  0.22608860670E+04  0.20996196891E+04 0.  0.
        2    1    3    3  502    0 -0.52141437265E+02  0.10363956682E+04  0.59044756844E+03  0.11939275696E+04  0.25500000920E-02 0. -1.
       -2    1    3    3    0  502  0.52141437265E+02 -0.10363956682E+04  0.24812441346E+03  0.10669584973E+04  0.25500000920E-02 0.  1.
</event>
<event>
 5   0  0.1390735E-05  0.2111338E+04  0.7818609E-02  0.8556265E-01
       -2   -1    0    0    0  501  0.00000000000E+00  0.00000000000E+00  0.83787509792E+03  0.83787509792E+03  0.25500000920E-02 0.  1.
        2   -1    0    0  501    0  0.00000000000E+00  0.00000000000E+00 -0.13300758491E+04  0.13300758491E+04  0.25500000920E-02 0. -1.
    10030    2    1    2    0    0  0.00000000000E+00  0.00000000000E+00 -0.49220075118E+03  0.21679509470E+04  0.21113383739E+04 0.  0.
        5    1    3    3  502    0  0.75336254765E+03  0.55280584220E+03 -0.75045916745E+03  0.11984825737E+04  0.46999998093E+01 0. -1.
       -5    1    3    3    0  502 -0.75336254765E+03 -0.55280584220E+03  0.25825841626E+03  0.96946837336E+03  0.46999998093E+01 0.  1.
</event>
<event>
 5   0  0.6917078E-06  0.2098789E+04  0.7818609E-02  0.8561777E-01
       -1   -1    0    0    0  501  0.00000000000E+00  0.00000000000E+00  0.12484530458E+04  0.12484530458E+04  0.50400001928E-02 0.  1.
        1   -1    0    0  501    0  0.00000000000E+00  0.00000000000E+00 -0.88207454542E+03  0.88207454543E+03  0.50400001928E-02 0. -1.
    10030    2    1    2    0    0  0.00000000000E+00  0.00000000000E+00  0.36637850040E+03  0.21305275913E+04  0.20987888440E+04 0.  0.
        5    1    3    3  502    0  0.29366999057E+03 -0.51702420750E+03 -0.69455444915E+03  0.91432164326E+03  0.46999998093E+01 0. -1.
       -5    1    3    3    0  502 -0.29366999057E+03  0.51702420750E+03  0.10609329495E+04  0.12162059480E+04  0.46999998093E+01 0.  1.
</event>
<event>
 5   0  0.6917078E-06  0.2101810E+04  0.7818609E-02  0.8560446E-01
        1   -1    0    0  501    0  0.00000000000E+00  0.00000000000E+00  0.10065046936E+04  0.10065046936E+04  0.50400001928E-02 0. -1.
       -1   -1    0    0    0  501  0.00000000000E+00  0.00000000000E+00 -0.10972644296E+04  0.10972644296E+04  0.50400001928E-02 0.  1.
    10030    2    1    2    0    0  0.00000000000E+00  0.00000000000E+00 -0.90759736025E+02  0.21037691232E+04  0.21018104562E+04 0.  0.
        5    1    3    3  502    0  0.56377767587E+03 -0.88488791347E+03  0.13902188124E+02  0.10493270453E+04  0.46999998093E+01 0. -1.
       -5    1    3    3    0  502 -0.56377767587E+03  0.88488791347E+03 -0.10466192415E+03  0.10544420779E+04  0.46999998093E+01 0.  1.
</event>
<event>
 5   0  0.6917078E-06  0.2095966E+04  0.7818609E-02  0.8563022E-01
       -1   -1    0    0    0  501  0.00000000000E+00  0.00000000000E+00  0.15654340655E+04  0.15654340655E+04  0.50400001928E-02 0. -1.
        1   -1    0    0  501    0  0.00000000000E+00  0.00000000000E+00 -0.70157441865E+03  0.70157441867E+03  0.50400001928E-02 0.  1.
    10030    2    1    2    0    0  0.00000000000E+00  0.00000000000E+00  0.86385964682E+03  0.22670084841E+04  0.20959661204E+04 0.  0.
        5    1    3    3  502    0  0.25907311923E+03  0.84529615571E+03  0.10405210227E+04  0.13654122310E+04  0.46999998093E+01 0. -1.
       -5    1    3    3    0  502 -0.25907311923E+03 -0.84529615571E+03 -0.17666137586E+03  0.90159625314E+03  0.46999998093E+01 0.  1.
</event>
<event>
 5   0  0.6238363E-06  0.2098709E+04  0.7818609E-02  0.8561812E-01
       -1   -1    0    0    0  501  0.00000000000E+00  0.00000000000E+00  0.12145160236E+04  0.12145160236E+04  0.50400001928E-02 0. -1.
        1   -1    0    0  501    0  0.00000000000E+00  0.00000000000E+00 -0.90665358738E+03  0.90665358739E+03  0.50400001928E-02 0.  1.
    10030    2    1    2    0    0  0.00000000000E+00  0.00000000000E+00  0.30786243625E+03  0.21211696110E+04  0.20987094223E+04 0.  0.
        4    1    3    3  502    0 -0.59910809192E+03  0.75810059854E+03  0.56757469267E+03  0.11206202158E+04  0.12699999809E+01 0. -1.
       -4    1    3    3    0  502  0.59910809192E+03 -0.75810059854E+03 -0.25971225642E+03  0.10005493953E+04  0.12699999809E+01 0.  1.
</event>
<event>
 5   0  0.1344501E-05  0.2101767E+04  0.7818609E-02  0.8560465E-01
       -2   -1    0    0    0  501  0.00000000000E+00  0.00000000000E+00  0.71018091158E+03  0.71018091158E+03  0.25500000920E-02 0.  1.
        2   -1    0    0  501    0  0.00000000000E+00  0.00000000000E+00 -0.15550348752E+04  0.15550348752E+04  0.25500000920E-02 0. -1.
    10030    2    1    2    0    0  0.00000000000E+00  0.00000000000E+00 -0.84485396359E+03  0.22652157868E+04  0.21017669568E+04 0.  0.
        3    1    3    3  502    0  0.48599250971E+03  0.52821651347E+03  0.40482855415E+03  0.82406769931E+03  0.10100000352E+00 0.  1.
       -3    1    3    3    0  502 -0.48599250971E+03 -0.52821651347E+03 -0.12496825177E+04  0.14411480874E+04  0.10100000352E+00 0. -1.
</event>
<event>
 5   0  0.1390735E-05  0.2102732E+04  0.7818609E-02  0.8560041E-01
        2   -1    0    0  501    0  0.00000000000E+00  0.00000000000E+00  0.14336572453E+04  0.14336572453E+04  0.25500000920E-02 0.  1.
       -2   -1    0    0    0  501  0.00000000000E+00  0.00000000000E+00 -0.77101423533E+03  0.77101423533E+03  0.25500000920E-02 0. -1.
    10030    2    1    2    0    0  0.00000000000E+00  0.00000000000E+00  0.66264300992E+03  0.22046714806E+04  0.21027316944E+04 0.  0.
        5    1    3    3  502    0 -0.17304523688E+03  0.10007413581E+04  0.46258145858E+02  0.10166561985E+04  0.46999998093E+01 0.  1.
       -5    1    3    3    0  502  0.17304523688E+03 -0.10007413581E+04  0.61638486406E+03  0.11880152821E+04  0.46999998093E+01 0. -1.
</event>
<event>
 5   0  0.6238363E-06  0.2098540E+04  0.7818609E-02  0.8561887E-01
        1   -1    0    0  501    0  0.00000000000E+00  0.00000000000E+00  0.17115845076E+04  0.17115845076E+04  0.50400001928E-02 0. -1.
       -1   -1    0    0    0  501  0.00000000000E+00  0.00000000000E+00 -0.64324477486E+03  0.64324477488E+03  0.50400001928E-02 0.  1.
    10030    2    1    2    0    0  0.00000000000E+00  0.00000000000E+00  0.10683397327E+04  0.23548292825E+04  0.20985402463E+04 0.  0.
        4    1    3    3  502    0 -0.34028156185E+03 -0.27867733982E+03  0.16031476776E+04  0.16623888505E+04  0.12699999809E+01 0. -1.
       -4    1    3    3    0  502  0.34028156185E+03  0.27867733982E+03 -0.53480794489E+03  0.69244043200E+03  0.12699999809E+01 0.  1.
</event>
<event>
 5   0  0.1398469E-05  0.2106525E+04  0.7818609E-02  0.8558375E-01
        2   -1    0    0  501    0  0.00000000000E+00  0.00000000000E+00  0.12555227668E+04  0.12555227668E+04  0.25500000920E-02 0.  1.
       -2   -1    0    0    0  501  0.00000000000E+00  0.00000000000E+00 -0.88358533316E+03  0.88358533317E+03  0.25500000920E-02 0. -1.
    10030    2    1    2    0    0  0.00000000000E+00  0.00000000000E+00  0.37193743361E+03  0.21391080999E+04  0.21065246281E+04 0.  0.
        2    1    3    3  502    0 -0.50374657029E+03 -0.36538181574E+02  0.11245301740E+04  0.12327464289E+04  0.25500000920E-02 0.  1.
       -2    1    3    3    0  502  0.50374657029E+03  0.36538181574E+02 -0.75259274039E+03  0.90636167101E+03  0.25500000920E-02 0. -1.
</event>
<event>
 5   0  0.1398469E-05  0.2099425E+04  0.7818609E-02  0.8561497E-01
        2   -1    0    0  501    0  0.00000000000E+00  0.00000000000E+00  0.10589092966E+04  0.10589092966E+04  0.25500000920E-02 0. -1.
       -2   -1    0    0    0  501  0.00000000000E+00  0.00000000000E+00 -0.10405960355E+04  0.10405960355E+04  0.25500000920E-02 0.  1.
    10030    2    1    2    0    0  0.00000000000E+00  0.00000000000E+00  0.18313261105E+02  0.20995053321E+04  0.20994254605E+04 0.  0.
        2    1    3    3  502    0  0.93240024010E+03 -0.40050715118E+03 -0.25940643055E+03  0.10474100831E+04  0.25500000920E-02 0.  1.
       -2    1    3    3    0  502 -0.93240024010E+03  0.40050715118E+03  0.27771969166E+03  0.10520952490E+04  0.25500000920E-02 0. -1.
</event>
<event>
 5   0  0.6238363E-06  0.2093499E+04  0.7818609E-02  0.8564113E-01
        1   -1    0    0  501    0  0.00000000000E+00  0.00000000000E+00  0.28313084537E+04  0.28313084537E+04  0.50400001928E-02 0.  1.
       -1   -1    0    0    0  501  0.00000000000E+00  0.00000000000E+00 -0.38698864765E+03  0.38698864769E+03  0.50400001928E-02 0. -1.
    10030    2    1    2    0    0  0.00000000000E+00  0.00000000000E+00  0.24443198061E+04  0.32182971014E+04  0.20934987267E+04 0.  0.
        4    1    3    3  502    0 -0.52851009828E+02 -0.72611083185E+03  0.23783473991E+04  0.24872812734E+04  0.12699999809E+01 0.  1.
       -4    1    3    3    0  502  0.52851009828E+02  0.72611083185E+03  0.65972406938E+02  0.73101582797E+03  0.12699999809E+01 0. -1.
</event>
<event>
 5   0  0.1390735E-05  0.2103212E+04  0.7818609E-02  0.8559830E-01
       -2   -1    0    0    0  501  0.00000000000E+00  0.00000000000E+00  0.79303386792E+03  0.79303386792E+03  0.25500000920E-02 0.  1.
        2   -1    0    0  501    0  0.00000000000E+00  0.00000000000E+00 -0.13944863898E+04  0.13944863898E+04  0.25500000920E-02 0. -1.
    10030    2    1    2    0    0  0.00000000000E+00  0.00000000000E+00 -0.60145252186E+03  0.21875202577E+04  0.21032117682E+04 0.  0.
        5    1    3    3  502    0  0.97172311626E+03 -0.21524899121E+03 -0.65385776345E+03  0.11908526390E+04  0.46999998093E+01 0. -1.
       -5    1    3    3    0  502 -0.97172311626E+03  0.21524899121E+03  0.52405241595E+02  0.99666761874E+03  0.46999998093E+01 0.  1.
</event>
<event>
 5   0  0.6589193E-06  0.2099958E+04  0.7818609E-02  0.8561262E-01
       -1   -1    0    0    0  501  0.00000000000E+00  0.00000000000E+00  0.54221866126E+03  0.54221866129E+03  0.50400001928E-02 0. -1.
        1   -1    0    0  501    0  0.00000000000E+00  0.00000000000E+00 -0.20332312666E+04  0.20332312666E+04  0.50400001928E-02 0.  1.
    10030    2    1    2    0    0  0.00000000000E+00  0.00000000000E+00 -0.14910126053E+04  0.25754499279E+04  0.20999580333E+04 0.  0.
        3    1    3    3  502    0 -0.90738051059E+03 -0.24393375807E+03 -0.17076636716E+03  0.95498912647E+03  0.10100000352E+00 0. -1.
       -3    1    3    3    0  502  0.90738051059E+03  0.24393375807E+03 -0.13202462382E+04  0.16204608014E+04  0.10100000352E+00 0.  1.
</event>
<event>
 5   0  0.1441136E-05  0.2098531E+04  0.7818609E-02  0.8561891E-01
       -2   -1    0    0    0  501  0.00000000000E+00  0.00000000000E+00  0.71054812143E+03  0.71054812143E+03  0.25500000920E-02 0. -1.
        2   -1    0    0  501    0  0.00000000000E+00  0.00000000000E+00 -0.15494495815E+04  0.15494495815E+04  0.25500000920E-02 0.  1.
    10030    2    1    2    0    0  0.00000000000E+00  0.00000000000E+00 -0.83890146006E+03  0.22599977029E+04  0.20985313811E+04 0.  0.
        4    1    3    3  502    0  0.38293008238E+03 -0.74022027496E+02 -0.14684846191E+04  0.15193957345E+04  0.12699999809E+01 0.  1.
       -4    1    3    3    0  502 -0.38293008238E+03  0.74022027496E+02  0.62958315906E+03  0.74060196841E+03  0.12699999809E+01 0. -1.
</event>
<event>
 5   0  0.5009125E-06  0.2100488E+04  0.7818609E-02  0.8561028E-01
       -3   -1    0    0    0  501  0.00000000000E+00  0.00000000000E+00  0.15604944471E+04  0.15604944504E+04  0.10100000352E+00 0.  1.
        3   -1    0    0  501    0  0.00000000000E+00  0.00000000000E+00 -0.70683555154E+03  0.70683555876E+03  0.10100000352E+00 0. -1.
    10030    2    1    2    0    0  0.00000000000E+00  0.00000000000E+00  0.85365889560E+03  0.22673300092E+04  0.21004884814E+04 0.  0.
        3    1    3    3  502    0 -0.40566722893E+03  0.92493387880E+03  0.11595294401E+03  0.10166187467E+04  0.10100000352E+00 0. -1.
       -3    1    3    3    0  502  0.40566722893E+03 -0.92493387880E+03  0.73770595160E+03  0.12507112624E+04  0.10100000352E+00 0.  1.
</event>
<event>
 5   0  0.1390735E-05  0.2135815E+04  0.7818609E-02  0.8545628E-01
       -2   -1    0    0    0  501  0.00000000000E+00  0.00000000000E+00  0.89542947651E+03  0.89542947651E+03  0.25500000920E-02 0.  1.
        2   -1    0    0  501    0  0.00000000000E+00  0.00000000000E+00 -0.12736088018E+04  0.12736088018E+04  0.25500000920E-02 0. -1.
    10030    2    1    2    0    0  0.00000000000E+00  0.00000000000E+00 -0.37817932527E+03  0.21690382783E+04  0.21358154065E+04 0.  0.
        5    1    3    3  502    0  0.12592697299E+03  0.44142194110E+03  0.79011501207E+03  0.91379141761E+03  0.46999998093E+01 0.  1.
       -5    1    3    3    0  502 -0.12592697299E+03 -0.44142194110E+03 -0.11682943373E+04  0.12552468607E+04  0.46999998093E+01 0. -1.
</event>
<event>
 5   0  0.6283269E-06  0.2094991E+04  0.7818609E-02  0.8563453E-01
       -1   -1    0    0    0  501  0.00000000000E+00  0.00000000000E+00  0.33580010623E+03  0.33580010627E+03  0.50400001928E-02 0. -1.
        1   -1    0    0  501    0  0.00000000000E+00  0.00000000000E+00 -0.32675592073E+04  0.32675592073E+04  0.50400001928E-02 0.  1.
    10030    2    1    2    0    0  0.00000000000E+00  0.00000000000E+00 -0.29317591011E+04  0.36033593136E+04  0.20949909107E+04 0.  0.
        1    1    3    3  502    0  0.60306856643E+03  0.16749281936E+03 -0.21190762515E+02  0.62625441220E+03  0.50400001928E-02 0. -1.
       -1    1    3    3    0  502 -0.60306856643E+03 -0.16749281936E+03 -0.29105683386E+04  0.29771049014E+04  0.50400001928E-02 0.  1.
</event>
<event>
 5   0  0.6283269E-06  0.2102268E+04  0.7818609E-02  0.8560245E-01
       -1   -1    0    0    0  501  0.00000000000E+00  0.00000000000E+00  0.88459773131E+03  0.88459773133E+03  0.50400001928E-02 0. -1.
        1   -1    0    0  501    0  0.00000000000E+00  0.00000000000E+00 -0.12490228476E+04  0.12490228476E+04  0.50400001928E-02 0.  1.
    10030    2    1    2    0    0  0.00000000000E+00  0.00000000000E+00 -0.36442511628E+03  0.21336205789E+04  0.21022680870E+04 0.  0.
        1    1    3    3  502    0 -0.19978600079E+03  0.90613495448E+03  0.31900249997E+03  0.98120211825E+03  0.50400001928E-02 0.  1.
       -1    1    3    3    0  502  0.19978600079E+03 -0.90613495448E+03 -0.68342761625E+03  0.11524184607E+04  0.50400001928E-02 0. -1.
</event>
<event>
 5   0  0.6589193E-06  0.2102622E+04  0.7818609E-02  0.8560089E-01
       -1   -1    0    0    0  501  0.00000000000E+00  0.00000000000E+00  0.83763287653E+03  0.83763287654E+03  0.50400001928E-02 0.  1.
        1   -1    0    0  501    0  0.00000000000E+00  0.00000000000E+00 -0.13194974685E+04  0.13194974685E+04  0.50400001928E-02 0. -1.
    10030    2    1    2    0    0  0.00000000000E+00  0.00000000000E+00 -0.48186459198E+03  0.21571303451E+04  0.21026216589E+04 0.  0.
        3    1    3    3  502    0 -0.79153015878E+03 -0.36651826375E+03  0.36113644831E+03  0.94407371239E+03  0.10100000352E+00 0.  1.
       -3    1    3    3    0  502  0.79153015878E+03  0.36651826375E+03 -0.84300104029E+03  0.12130566327E+04  0.10100000352E+00 0. -1.
</event>
<event>
 5   0  0.1441136E-05  0.2093595E+04  0.7818609E-02  0.8564070E-01
        2   -1    0    0  501    0  0.00000000000E+00  0.00000000000E+00  0.22655543876E+04  0.22655543877E+04  0.25500000920E-02 0.  1.
       -2   -1    0    0    0  501  0.00000000000E+00  0.00000000000E+00 -0.48367176307E+03  0.48367176308E+03  0.25500000920E-02 0. -1.
    10030    2    1    2    0    0  0.00000000000E+00  0.00000000000E+00  0.17818826246E+04  0.27492261507E+04  0.20935946934E+04 0.  0.
        4    1    3    3  502    0 -0.29398559170E+03 -0.18509351322E+03 -0.40576471795E+03  0.53416641227E+03  0.12699999809E+01 0. -1.
       -4    1    3    3    0  502  0.29398559170E+03  0.18509351322E+03  0.21876473425E+04  0.22150597385E+04  0.12699999809E+01 0.  1.
</event>
<event>
 5   0  0.1395356E-05  0.2099384E+04  0.7818609E-02  0.8561515E-01
       -2   -1    0    0    0  501  0.00000000000E+00  0.00000000000E+00  0.15936140700E+04  0.15936140700E+04  0.25500000920E-02 0. -1.
        2   -1    0    0  501    0  0.00000000000E+00  0.00000000000E+00 -0.69141764226E+03  0.69141764226E+03  0.25500000920E-02 0.  1.
    10030    2    1    2    0    0  0.00000000000E+00  0.00000000000E+00  0.90219642778E+03  0.22850317123E+04  0.20993836076E+04 0.  0.
        1    1    3    3  502    0  0.74380561846E+03  0.52035157934E+03 -0.12261924237E+03  0.91599565654E+03  0.50400001928E-02 0.  1.
       -1    1    3    3    0  502 -0.74380561846E+03 -0.52035157934E+03  0.10248156702E+04  0.13690360558E+04  0.50400001928E-02 0. -1.
</event>
<event>
 5   0  0.1390735E-05  0.2081418E+04  0.7818609E-02  0.8569473E-01
        2   -1    0    0  501    0  0.00000000000E+00  0.00000000000E+00  0.11649236116E+04  0.11649236116E+04  0.25500000920E-02 0. -1.
       -2   -1    0    0    0  501  0.00000000000E+00  0.00000000000E+00 -0.92973948400E+03  0.92973948400E+03  0.25500000920E-02 0.  1.
    10030    2    1    2    0    0  0.00000000000E+00  0.00000000000E+00  0.23518412760E+03  0.20946630956E+04  0.20814182449E+04 0.  0.
        5    1    3    3  502    0 -0.47123476437E+03 -0.70375120413E+03 -0.49100857241E+03  0.97899921789E+03  0.46999998093E+01 0.  1.
       -5    1    3    3    0  502  0.47123476437E+03  0.70375120413E+03  0.72619270000E+03  0.11156638777E+04  0.46999998093E+01 0. -1.
</event>
<event>
 5   0  0.6599245E-06  0.2096037E+04  0.7818609E-02  0.8562991E-01
       -1   -1    0    0    0  501  0.00000000000E+00  0.00000000000E+00  0.48373794132E+03  0.48373794135E+03  0.50400001928E-02 0.  1.
        1   -1    0    0  501    0  0.00000000000E+00  0.00000000000E+00 -0.22705332768E+04  0.22705332768E+04  0.50400001928E-02 0. -1.
    10030    2    1    2    0    0  0.00000000000E+00  0.00000000000E+00 -0.17867953355E+04  0.27542712182E+04  0.20960373022E+04 0.  0.
        2    1    3    3  502    0 -0.18340213002E+03 -0.29008245425E+03  0.40780379911E+03  0.53299916523E+03  0.25500000920E-02 0.  1.
       -2    1    3    3    0  502  0.18340213002E+03  0.29008245425E+03 -0.21945991346E+04  0.22212720530E+04  0.25500000920E-02 0. -1.
</event>
<event>
 5   0  0.6917078E-06  0.2101700E+04  0.7818609E-02  0.8560495E-01
       -1   -1    0    0    0  501  0.00000000000E+00  0.00000000000E+00  0.96623003252E+03  0.96623003254E+03  0.50400001928E-02 0.  1.
        1   -1    0    0  501    0  0.00000000000E+00  0.00000000000E+00 -0.11428805717E+04  0.11428805718E+04  0.50400001928E-02 0. -1.
    10030    2    1    2    0    0  0.00000000000E+00  0.00000000000E+00 -0.17665053922E+03  0.21091106043E+04  0.21016998187E+04 0.  0.
        5    1    3    3  502    0  0.44190267502E+03 -0.76034619398E+03  0.48890650868E+03  0.10062087125E+04  0.46999998093E+01 0.  1.
       -5    1    3    3    0  502 -0.44190267502E+03  0.76034619398E+03 -0.66555704790E+03  0.11029018918E+04  0.46999998093E+01 0. -1.
</event>
<event>
 5   0  0.1441136E-05  0.2102317E+04  0.7818609E-02  0.8560223E-01
       -2   -1    0    0    0  501  0.00000000000E+00  0.00000000000E+00  0.51215811252E+03  0.51215811253E+03  0.25500000920E-02 0.  1.
        2   -1    0    0  501    0  0.00000000000E+00  0.00000000000E+00 -0.21574083016E+04  0.21574083016E+04  0.25500000920E-02 0. -1.
    10030    2    1    2    0    0  0.00000000000E+00  0.00000000000E+00 -0.16452501891E+04  0.26695664142E+04  0.21023169730E+04 0.  0.
        4    1    3    3  502    0  0.92296365975E+03  0.17750225236E+03 -0.22491343999E+03  0.96641431861E+03  0.12699999809E+01 0.  1.
       -4    1    3    3    0  502 -0.92296365975E+03 -0.17750225236E+03 -0.14203367491E+04  0.17031520956E+04  0.12699999809E+01 0. -1.
</event>
<event>
 5   0  0.6589193E-06  0.2068313E+04  0.7818609E-02  0.8575332E-01
        1   -1    0    0  501    0  0.00000000000E+00  0.00000000000E+00  0.97051124751E+03  0.97051124752E+03  0.50400001928E-02 0.  1.
       -1   -1    0    0    0  501  0.00000000000E+00  0.00000000000E+00 -0.11019753899E+04  0.11019753899E+04  0.50400001928E-02 0. -1.
    10030    2    1    2    0    0  0.00000000000E+00  0.00000000000E+00 -0.13146414239E+03  0.20724866374E+04  0.20683128491E+04 0.  0.
        3    1    3    3  502    0  0.72573409642E+03  0.11456019681E+02 -0.80387204750E+03  0.10830657866E+04  0.10100000352E+00 0. -1.
       -3    1    3    3    0  502 -0.72573409642E+03 -0.11456019681E+02  0.67240790510E+03  0.98942085087E+03  0.10100000352E+00 0.  1.
</event>
<event>
 5   0  0.1441136E-05  0.2101752E+04  0.7818609E-02  0.8560472E-01
        2   -1    0    0  501    0  0.00000000000E+00  0.00000000000E+00  0.16838993411E+04  0.16838993411E+04  0.25500000920E-02 0. -1.
       -2   -1    0    0    0  501  0.00000000000E+00  0.00000000000E+00 -0.65582330995E+03  0.65582330996E+03  0.25500000920E-02 0.  1.
    10030    2    1    2    0    0  0.00000000000E+00  0.00000000000E+00  0.10280760311E+04  0.23397226510E+04  0.21017520686E+04 0.  0.
        4    1    3    3  502    0  0.18458883076E+03  0.92920357920E+03  0.10203369144E+04  0.13923294724E+04  0.12699999809E+01 0. -1.
       -4    1    3    3    0  502 -0.18458883076E+03 -0.92920357920E+03  0.77391167339E+01  0.94739317861E+03  0.12699999809E+01 0.  1.
</event>
<event>
 5   0  0.6283269E-06  0.2097220E+04  0.7818609E-02  0.8562469E-01
       -1   -1    0    0    0  501  0.00000000000E+00  0.00000000000E+00  0.94969585636E+03  0.94969585637E+03  0.50400001928E-02 0.  1.
        1   -1    0    0  501    0  0.00000000000E+00  0.00000000000E+00 -0.11578262732E+04  0.11578262732E+04  0.50400001928E-02 0. -1.
    10030    2    1    2    0    0  0.00000000000E+00  0.00000000000E+00 -0.20813041685E+03  0.21075221296E+04  0.20972198874E+04 0.  0.
        1    1    3    3  502    0  0.76597364599E+03 -0.54163038883E+03  0.36674850951E+03  0.10072653939E+04  0.50400001928E-02 0.  1.
       -1    1    3    3    0  502 -0.76597364599E+03  0.54163038883E+03 -0.57487892636E+03  0.11002567357E+04  0.50400001928E-02 0. -1.
</event>
<event>
 5   0  0.6283269E-06  0.2100431E+04  0.7818609E-02  0.8561053E-01
        1   -1    0    0  501    0  0.00000000000E+00  0.00000000000E+00  0.19851867680E+04  0.19851867680E+04  0.50400001928E-02 0.  1.
       -1   -1    0    0    0  501  0.00000000000E+00  0.00000000000E+00 -0.55559153082E+03  0.55559153085E+03  0.50400001928E-02 0. -1.
    10030    2    1    2    0    0  0.00000000000E+00  0.00000000000E+00  0.14295952372E+04  0.25407782989E+04  0.21004313418E+04 0.  0.
        1    1    3    3  502    0  0.30757473493E+03  0.16242448285E+03 -0.48389319148E+03  0.59593334441E+03  0.50400001928E-02 0. -1.
       -1    1    3    3    0  502 -0.30757473493E+03 -0.16242448285E+03  0.19134884287E+04  0.19448449545E+04  0.50400001928E-02 0.  1.
</event>
<event>
 5   0  0.1441136E-05  0.2097709E+04  0.7818609E-02  0.8562253E-01
        2   -1    0    0  501    0  0.00000000000E+00  0.00000000000E+00  0.19622567326E+04  0.19622567326E+04  0.25500000920E-02 0. -1.
       -2   -1    0    0    0  501  0.00000000000E+00  0.00000000000E+00 -0.56062774682E+03  0.56062774682E+03  0.25500000920E-02 0.  1.
    10030    2    1    2    0    0  0.00000000000E+00  0.00000000000E+00  0.14016289857E+04  0.25228844794E+04  0.20977088174E+04 0.  0.
        4    1    3    3  502    0  0.58284583902E+03  0.46155551230E+03  0.15905997313E+04  0.17557767173E+04  0.12699999809E+01 0. -1.
       -4    1    3    3    0  502 -0.58284583902E+03 -0.46155551230E+03 -0.18897074557E+03  0.76710776204E+03  0.12699999809E+01 0.  1.
</event>
<event>
 5   0  0.1395356E-05  0.2088460E+04  0.7818609E-02  0.8566344E-01
       -2   -1    0    0    0  501  0.00000000000E+00  0.00000000000E+00  0.80613227624E+03  0.80613227624E+03  0.25500000920E-02 0. -1.
        2   -1    0    0  501    0  0.00000000000E+00  0.00000000000E+00 -0.13526522118E+04  0.13526522118E+04  0.25500000920E-02 0.  1.
    10030    2    1    2    0    0  0.00000000000E+00  0.00000000000E+00 -0.54651993556E+03  0.21587844880E+04  0.20884603003E+04 0.  0.
        1    1    3    3  502    0  0.18057298981E+03  0.39458889767E+03 -0.12550366604E+04  0.13279397659E+04  0.50400001928E-02 0.  1.
       -1    1    3    3    0  502 -0.18057298981E+03 -0.39458889767E+03  0.70851672489E+03  0.83084472213E+03  0.50400001928E-02 0. -1.
</event>
<event>
 5   0  0.1398469E-05  0.2095920E+04  0.7818609E-02  0.8563043E-01
       -2   -1    0    0    0  501  0.00000000000E+00  0.00000000000E+00  0.80445169078E+03  0.80445169079E+03  0.25500000920E-02 0. -1.
        2   -1    0    0  501    0  0.00000000000E+00  0.00000000000E+00 -0.13651781630E+04  0.13651781630E+04  0.25500000920E-02 0.  1.
    10030    2    1    2    0    0  0.00000000000E+00  0.00000000000E+00 -0.56072647217E+03  0.21696298537E+04  0.20959197326E+04 0.  0.
        2    1    3    3  502    0 -0.77812599262E+02 -0.46329434805E+03  0.68934338636E+03  0.83420067002E+03  0.25500000920E-02 0. -1.
       -2    1    3    3    0  502  0.77812599262E+02  0.46329434805E+03 -0.12500698585E+04  0.13354291837E+04  0.25500000920E-02 0.  1.
</event>
<event>
 5   0  0.1441136E-05  0.2101327E+04  0.7818609E-02  0.8560659E-01
       -2   -1    0    0    0  501  0.00000000000E+00  0.00000000000E+00  0.11341390763E+04  0.11341390763E+04  0.25500000920E-02 0.  1.
        2   -1    0    0  501    0  0.00000000000E+00  0.00000000000E+00 -0.97333191489E+03  0.97333191490E+03  0.25500000920E-02 0. -1.
    10030    2    1    2    0    0  0.00000000000E+00  0.00000000000E+00  0.16080716138E+03  0.21074709912E+04  0.21013269702E+04 0.  0.
        4    1    3    3  502    0 -0.75118739823E+03  0.39941245281E+03  0.69871191057E+03  0.11009145115E+04  0.12699999809E+01 0.  1.
       -4    1    3    3    0  502  0.75118739823E+03 -0.39941245281E+03 -0.53790474919E+03  0.10065564797E+04  0.12699999809E+01 0. -1.
</event>
<event>
 5   0  0.6283269E-06  0.2102041E+04  0.7818609E-02  0.8560345E-01
        1   -1    0    0  501    0  0.00000000000E+00  0.00000000000E+00  0.12262713622E+04  0.12262713622E+04  0.50400001928E-02 0. -1.
       -1   -1    0    0    0  501  0.00000000000E+00  0.00000000000E+00 -0.90081495274E+03  0.90081495275E+03  0.50400001928E-02 0.  1.
    10030    2    1    2    0    0  0.00000000000E+00  0.00000000000E+00  0.32545640946E+03  0.21270863150E+04  0.21020405127E+04 0.  0.
        1    1    3    3  502    0  0.32634693422E+03 -0.50815645625E+03 -0.70770591849E+03  0.93036174287E+03  0.50400001928E-02 0.  1.
       -1    1    3    3    0  502 -0.32634693422E+03  0.50815645625E+03  0.10331623280E+04  0.11967245721E+04  0.50400001928E-02 0. -1.
</event>
<event>
 5   0  0.6589193E-06  0.2105499E+04  0.7818609E-02  0.8558825E-01
        1   -1    0    0  501    0  0.00000000000E+00  0.00000000000E+00  0.19715723431E+04  0.19715723431E+04  0.50400001928E-02 0. -1.
       -1   -1    0    0    0  501  0.00000000000E+00  0.00000000000E+00 -0.56213058584E+03  0.56213058586E+03  0.50400001928E-02 0.  1.
    10030    2    1    2    0    0  0.00000000000E+00  0.00000000000E+00  0.14094417572E+04  0.25337029289E+04  0.21054986262E+04 0.  0.
        3    1    3    3  502    0  0.36812327424E+03  0.91907331697E+03  0.11353718702E+04  0.15064128919E+04  0.10100000352E+00 0. -1.
       -3    1    3    3    0  502 -0.36812327424E+03 -0.91907331697E+03  0.27406988700E+03  0.10272900370E+04  0.10100000352E+00 0.  1.
</event>
<event>
 5   0  0.1398469E-05  0.2114938E+04  0.7818609E-02  0.8554691E-01
       -2   -1    0    0    0  501  0.00000000000E+00  0.00000000000E+00  0.41120572225E+03  0.41120572225E+03  0.25500000920E-02 0.  1.
        2   -1    0    0  501    0  0.00000000000E+00  0.00000000000E+00 -0.27194199925E+04  0.27194199925E+04  0.25500000920E-02 0. -1.
    10030    2    1    2    0    0  0.00000000000E+00  0.00000000000E+00 -0.23082142703E+04  0.31306257148E+04  0.21149383557E+04 0.  0.
        2    1    3    3  502    0  0.65779598468E+03 -0.65236051805E+03 -0.19088449386E+04  0.21217819875E+04  0.25500000920E-02 0. -1.
       -2    1    3    3    0  502 -0.65779598468E+03  0.65236051805E+03 -0.39936933173E+03  0.10088437273E+04  0.25500000920E-02 0.  1.
</event>
<event>
 5   0  0.6599245E-06  0.2099886E+04  0.7818609E-02  0.8561294E-01
        1   -1    0    0  501    0  0.00000000000E+00  0.00000000000E+00  0.12953633078E+04  0.12953633078E+04  0.50400001928E-02 0.  1.
       -1   -1    0    0    0  501  0.00000000000E+00  0.00000000000E+00 -0.85102030274E+03  0.85102030276E+03  0.50400001928E-02 0. -1.
    10030    2    1    2    0    0  0.00000000000E+00  0.00000000000E+00  0.44434300507E+03  0.21463836106E+04  0.20998861630E+04 0.  0.
        2    1    3    3  502    0 -0.74495682689E+03  0.69891267305E+03 -0.25981700055E+02  0.10218192831E+04  0.25500000920E-02 0. -1.
       -2    1    3    3    0  502  0.74495682689E+03 -0.69891267305E+03  0.47032470512E+03  0.11245643275E+04  0.25500000920E-02 0.  1.
</event>
<event>
 5   0  0.6238363E-06  0.2101044E+04  0.7818609E-02  0.8560783E-01
        1   -1    0    0  501    0  0.00000000000E+00  0.00000000000E+00  0.15775370150E+04  0.15775370150E+04  0.50400001928E-02 0. -1.
       -1   -1    0    0    0  501  0.00000000000E+00  0.00000000000E+00 -0.69956958241E+03  0.69956958242E+03  0.50400001928E-02 0.  1.
    10030    2    1    2    0    0  0.00000000000E+00  0.00000000000E+00  0.87796743262E+03  0.22771065975E+04  0.21010444173E+04 0.  0.
        4    1    3    3  502    0  0.78244578539E+03 -0.39266174924E+03  0.10683245110E+04  0.13812036526E+04  0.12699999809E+01 0. -1.
       -4    1    3    3    0  502 -0.78244578539E+03  0.39266174924E+03 -0.19035707834E+03  0.89590294484E+03  0.12699999809E+01 0.  1.
</event>
<event>
 5   0  0.6238363E-06  0.2099358E+04  0.7818609E-02  0.8561526E-01
        1   -1    0    0  501    0  0.00000000000E+00  0.00000000000E+00  0.11092617268E+04  0.11092617268E+04  0.50400001928E-02 0. -1.
       -1   -1    0    0    0  501  0.00000000000E+00  0.00000000000E+00 -0.99329667351E+03  0.99329667352E+03  0.50400001928E-02 0.  1.
    10030    2    1    2    0    0  0.00000000000E+00  0.00000000000E+00  0.11596505327E+03  0.21025584003E+04  0.20993579812E+04 0.  0.
        4    1    3    3  502    0 -0.99353912508E+03  0.24008970003E+03 -0.18125673224E+03  0.10380841358E+04  0.12699999809E+01 0.  1.
       -4    1    3    3    0  502  0.99353912508E+03 -0.24008970003E+03  0.29722178550E+03  0.10644742645E+04  0.12699999809E+01 0. -1.
</event>
<event>
 5   0  0.1398469E-05  0.2106222E+04  0.7818609E-02  0.8558508E-01
       -2   -1    0    0    0  501  0.00000000000E+00  0.00000000000E+00  0.87021170785E+03  0.87021170786E+03  0.25500000920E-02 0. -1.
        2   -1    0    0  501    0  0.00000000000E+00  0.00000000000E+00 -0.12744515791E+04  0.12744515791E+04  0.25500000920E-02 0.  1.
    10030    2    1    2    0    0  0.00000000000E+00  0.00000000000E+00 -0.40423987120E+03  0.21446632869E+04  0.21062219116E+04 0.  0.
        2    1    3    3  502    0  0.21379672463E+03  0.94494394211E+03  0.21822747889E+03  0.99310187078E+03  0.25500000920E-02 0. -1.
       -2    1    3    3    0  502 -0.21379672463E+03 -0.94494394211E+03 -0.62246735009E+03  0.11515614161E+04  0.25500000920E-02 0.  1.
</event>
<event>
 5   0  0.6283269E-06  0.2101083E+04  0.7818609E-02  0.8560767E-01
        1   -1    0    0  501    0  0.00000000000E+00  0.00000000000E+00  0.17986563133E+04  0.17986563133E+04  0.50400001928E-02 0.  1.
       -1   -1    0    0    0  501  0.00000000000E+00  0.00000000000E+00 -0.61358971747E+03  0.61358971749E+03  0.50400001928E-02 0. -1.
    10030    2    1    2    0    0  0.00000000000E+00  0.00000000000E+00  0.11850665958E+04  0.24122460308E+04  0.21010825963E+04 0.  0.
        1    1    3    3  502    0  0.61943517722E+03  0.33462323416E+03  0.14877280748E+04  0.16459062768E+04  0.50400001928E-02 0.  1.
       -1    1    3    3    0  502 -0.61943517722E+03 -0.33462323416E+03 -0.30266147896E+03  0.76633975396E+03  0.50400001928E-02 0. -1.
</event>
<event>
 5   0  0.1398469E-05  0.2098798E+04  0.7818609E-02  0.8561773E-01
        2   -1    0    0  501    0  0.00000000000E+00  0.00000000000E+00  0.14585026220E+04  0.14585026220E+04  0.25500000920E-02 0. -1.
       -2   -1    0    0    0  501  0.00000000000E+00  0.00000000000E+00 -0.75504692508E+03  0.75504692508E+03  0.25500000920E-02 0.  1.
    10030    2    1    2    0    0  0.00000000000E+00  0.00000000000E+00  0.70345569691E+03  0.22135495471E+04  0.20987976748E+04 0.  0.
        2    1    3    3  502    0  0.29619072802E+03  0.10055588744E+04  0.40296728776E+03  0.11230584278E+04  0.25500000920E-02 0. -1.
       -2    1    3    3    0  502 -0.29619072802E+03 -0.10055588744E+04  0.30048840915E+03  0.10904911193E+04  0.25500000920E-02 0.  1.
</event>
<event>
 5   0  0.1398469E-05  0.2100694E+04  0.7818609E-02  0.8560938E-01
       -2   -1    0    0    0  501  0.00000000000E+00  0.00000000000E+00  0.46071892175E+03  0.46071892176E+03  0.25500000920E-02 0.  1.
        2   -1    0    0  501    0  0.00000000000E+00  0.00000000000E+00 -0.23945805187E+04  0.23945805187E+04  0.25500000920E-02 0. -1.
    10030    2    1    2    0    0  0.00000000000E+00  0.00000000000E+00 -0.19338615970E+04  0.28552994405E+04  0.21006937470E+04 0.  0.
        2    1    3    3  502    0 -0.13956832852E+03  0.84615720693E+03 -0.17912120550E+04  0.19859259713E+04  0.25500000920E-02 0. -1.
       -2    1    3    3    0  502  0.13956832852E+03 -0.84615720693E+03 -0.14264954191E+03  0.86937346922E+03  0.25500000920E-02 0.  1.
</event>
<event>
 5   0  0.1398469E-05  0.2099145E+04  0.7818609E-02  0.8561620E-01
       -2   -1    0    0    0  501  0.00000000000E+00  0.00000000000E+00  0.46825493714E+03  0.46825493714E+03  0.25500000920E-02 0. -1.
        2   -1    0    0  501    0  0.00000000000E+00  0.00000000000E+00 -0.23525706440E+04  0.23525706440E+04  0.25500000920E-02 0.  1.
    10030    2    1    2    0    0  0.00000000000E+00  0.00000000000E+00 -0.18843157069E+04  0.28208255812E+04  0.20991453680E+04 0.  0.
        2    1    3    3  502    0  0.50265260093E+02 -0.77696231261E+03  0.36746978131E+01  0.77859523181E+03  0.25500000920E-02 0.  1.
       -2    1    3    3    0  502 -0.50265260093E+02  0.77696231261E+03 -0.18879904047E+04  0.20422303493E+04  0.25500000920E-02 0. -1.
</event>
<event>
 5   0  0.1395356E-05  0.2098639E+04  0.7818609E-02  0.8561843E-01
        2   -1    0    0  501    0  0.00000000000E+00  0.00000000000E+00  0.13732791537E+04  0.13732791537E+04  0.25500000920E-02 0.  1.
       -2   -1    0    0    0  501  0.00000000000E+00  0.00000000000E+00 -0.80178275062E+03  0.80178275062E+03  0.25500000920E-02 0. -1.
    10030    2    1    2    0    0  0.00000000000E+00  0.00000000000E+00  0.57149640312E+03  0.21750619044E+04  0.20986391183E+04 0.  0.
        1    1    3    3  502    0 -0.24796102824E+00  0.27147030492E+03 -0.76475753583E+03  0.81151110687E+03  0.50400001928E-02 0. -1.
       -1    1    3    3    0  502  0.24796102824E+00 -0.27147030492E+03  0.13362539390E+04  0.13635507975E+04  0.50400001928E-02 0.  1.
</event>
<event>
 5   0  0.6599245E-06  0.2102470E+04  0.7818609E-02  0.8560156E-01
       -1   -1    0    0    0  501  0.00000000000E+00  0.00000000000E+00  0.13467348364E+04  0.13467348364E+04  0.50400001928E-02 0.  1.
        1   -1    0    0  501    0  0.00000000000E+00  0.00000000000E+00 -0.82057363506E+03  0.82057363508E+03  0.50400001928E-02 0. -1.
    10030    2    1    2    0    0  0.00000000000E+00  0.00000000000E+00  0.52616120131E+03  0.21673084715E+04  0.21024700713E+04 0.  0.
        2    1    3    3  502    0 -0.95284938474E+02 -0.10057516151E+04 -0.36536606726E+02  0.10109156515E+04  0.25500000920E-02 0. -1.
       -2    1    3    3    0  502  0.95284938474E+02  0.10057516151E+04  0.56269780804E+03  0.11563928199E+04  0.25500000920E-02 0.  1.
</event>
<event>
 5   0  0.1441136E-05  0.2100514E+04  0.7818609E-02  0.8561017E-01
       -2   -1    0    0    0  501  0.00000000000E+00  0.00000000000E+00  0.16115513709E+04  0.16115513709E+04  0.25500000920E-02 0. -1.
        2   -1    0    0  501    0  0.00000000000E+00  0.00000000000E+00 -0.68445827510E+03  0.68445827511E+03  0.25500000920E-02 0.  1.
    10030    2    1    2    0    0  0.00000000000E+00  0.00000000000E+00  0.92709309583E+03  0.22960096460E+04  0.21005139101E+04 0.  0.
        4    1    3    3  502    0  0.47222328566E+03 -0.91920857959E+03  0.25876332692E+03  0.10653165335E+04  0.12699999809E+01 0.  1.
       -4    1    3    3    0  502 -0.47222328566E+03  0.91920857959E+03  0.66832976891E+03  0.12306931125E+04  0.12699999809E+01 0. -1.
</event>
<event>
 5   0  0.1390735E-05  0.2097889E+04  0.7818609E-02  0.8562174E-01
        2   -1    0    0  501    0  0.00000000000E+00  0.00000000000E+00  0.17190045807E+04  0.17190045807E+04  0.25500000920E-02 0.  1.
       -2   -1    0    0    0  501  0.00000000000E+00  0.00000000000E+00 -0.64007076443E+03  0.64007076444E+03  0.25500000920E-02 0. -1.
    10030    2    1    2    0    0  0.00000000000E+00  0.00000000000E+00  0.10789338163E+04  0.23590753451E+04  0.20978890114E+04 0.  0.
        5    1    3    3  502    0  0.10455384105E+04 -0.38077364154E+02  0.45485227273E+03  0.11408387850E+04  0.46999998093E+01 0. -1.
       -5    1    3    3    0  502 -0.10455384105E+04  0.38077364154E+02  0.62408154354E+03  0.12182365601E+04  0.46999998093E+01 0.  1.
</event>
<event>
 5   0  0.6589193E-06  0.2105434E+04  0.7818609E-02  0.8558853E-01
       -1   -1    0    0    0  501  0.00000000000E+00  0.00000000000E+00  0.11512273115E+04  0.11512273115E+04  0.50400001928E-02 0. -1.
        1   -1    0    0  501    0  0.00000000000E+00  0.00000000000E+00 -0.96263659278E+03  0.96263659279E+03  0.50400001928E-02 0.  1.
    10030    2    1    2    0    0  0.00000000000E+00  0.00000000000E+00  0.18859071873E+03  0.21138639043E+04  0.21054344318E+04 0.  0.
        3    1    3    3  502    0  0.34193935693E+03 -0.62761591383E+03  0.87029944864E+03  0.11261640199E+04  0.10100000352E+00 0. -1.
       -3    1    3    3    0  502 -0.34193935693E+03  0.62761591383E+03 -0.68170872991E+03  0.98769988445E+03  0.10100000352E+00 0.  1.
</event>
<event>
 5   0  0.1390735E-05  0.2095469E+04  0.7818609E-02  0.8563242E-01
       -2   -1    0    0    0  501  0.00000000000E+00  0.00000000000E+00  0.88300536444E+03  0.88300536444E+03  0.25500000920E-02 0.  1.
        2   -1    0    0  501    0  0.00000000000E+00  0.00000000000E+00 -0.12431945814E+04  0.12431945814E+04  0.25500000920E-02 0. -1.
    10030    2    1    2    0    0  0.00000000000E+00  0.00000000000E+00 -0.36018921695E+03  0.21261999458E+04  0.20954689064E+04 0.  0.
        5    1    3    3  502    0  0.61285333851E+02  0.10364537209E+04 -0.32262960005E+03  0.10872461343E+04  0.46999998093E+01 0. -1.
       -5    1    3    3    0  502 -0.61285333851E+02 -0.10364537209E+04 -0.37559616895E+02  0.10389538115E+04  0.46999998093E+01 0.  1.
</event>
<event>
 5   0  0.6917078E-06  0.2099655E+04  0.7818609E-02  0.8561395E-01
       -1   -1    0    0    0  501  0.00000000000E+00  0.00000000000E+00  0.76691415697E+03  0.76691415698E+03  0.50400001928E-02 0. -1.
        1   -1    0    0  501    0  0.00000000000E+00  0.00000000000E+00 -0.14371068431E+04  0.14371068431E+04  0.50400001928E-02 0.  1.
    10030    2    1    2    0    0  0.00000000000E+00  0.00000000000E+00 -0.67019268610E+03  0.22040210001E+04  0.20996548126E+04 0.  0.
        5    1    3    3  502    0  0.66838219440E+02 -0.29002596697E+03  0.72168902431E+03  0.78066609181E+03  0.46999998093E+01 0. -1.
       -5    1    3    3    0  502 -0.66838219440E+02  0.29002596697E+03 -0.13918817104E+04  0.14233549083E+04  0.46999998093E+01 0.  1.
</event>
<event>
 5   0  0.1390735E-05  0.2102145E+04  0.7818609E-02  0.8560299E-01
       -2   -1    0    0    0  501  0.00000000000E+00  0.00000000000E+00  0.12004425773E+04  0.12004425773E+04  0.25500000920E-02 0. -1.
        2   -1    0    0  501    0  0.00000000000E+00  0.00000000000E+00 -0.92028810872E+03  0.92028810872E+03  0.25500000920E-02 0.  1.
    10030    2    1    2    0    0  0.00000000000E+00  0.00000000000E+00  0.28015446858E+03  0.21207306860E+04  0.21021446469E+04 0.  0.
        5    1    3    3  502    0  0.82100363358E+03  0.62646044444E+03 -0.57179740347E+02  0.10343071437E+04  0.46999998093E+01 0. -1.
       -5    1    3    3    0  502 -0.82100363358E+03 -0.62646044444E+03  0.33733420892E+03  0.10864235423E+04  0.46999998093E+01 0.  1.
</event>
<event>
 5   0  0.1398469E-05  0.2096269E+04  0.7818609E-02  0.8562889E-01
       -2   -1    0    0    0  501  0.00000000000E+00  0.00000000000E+00  0.97538506955E+03  0.97538506955E+03  0.25500000920E-02 0.  1.
        2   -1    0    0  501    0  0.00000000000E+00  0.00000000000E+00 -0.11263096259E+04  0.11263096259E+04  0.25500000920E-02 0. -1.
    10030    2    1    2    0    0  0.00000000000E+00  0.00000000000E+00 -0.15092455639E+03  0.21016946955E+04  0.20962686782E+04 0.  0.
        2    1    3    3  502    0 -0.23849859469E+03  0.99122212748E+03  0.16844238084E+03  0.10333323383E+04  0.25500000920E-02 0. -1.
       -2    1    3    3    0  502  0.23849859469E+03 -0.99122212748E+03 -0.31936693722E+03  0.10683623572E+04  0.25500000920E-02 0.  1.
</event>
<event>
 5   0  0.6283269E-06  0.2099518E+04  0.7818609E-02  0.8561456E-01
       -1   -1    0    0    0  501  0.00000000000E+00  0.00000000000E+00  0.10127879474E+04  0.10127879474E+04  0.50400001928E-02 0. -1.
        1   -1    0    0  501    0  0.00000000000E+00  0.00000000000E+00 -0.10880797731E+04  0.10880797731E+04  0.50400001928E-02 0.  1.
    10030    2    1    2    0    0  0.00000000000E+00  0.00000000000E+00 -0.75291825650E+02  0.21008677205E+04  0.20995181162E+04 0.  0.
        1    1    3    3  502    0  0.45284362198E+03  0.69755213074E+03 -0.67864161086E+03  0.10734061473E+04  0.50400001928E-02 0.  1.
       -1    1    3    3    0  502 -0.45284362198E+03 -0.69755213074E+03  0.60334978521E+03  0.10274615732E+04  0.50400001928E-02 0. -1.
</event>
<event>
 5   0  0.6283269E-06  0.2103031E+04  0.7818609E-02  0.8559909E-01
       -1   -1    0    0    0  501  0.00000000000E+00  0.00000000000E+00  0.10388785325E+04  0.10388785325E+04  0.50400001928E-02 0.  1.
        1   -1    0    0  501    0  0.00000000000E+00  0.00000000000E+00 -0.10643064732E+04  0.10643064732E+04  0.50400001928E-02 0. -1.
    10030    2    1    2    0    0  0.00000000000E+00  0.00000000000E+00 -0.25427940761E+02  0.21031850057E+04  0.21030312856E+04 0.  0.
        1    1    3    3  502    0 -0.79622966532E+02 -0.94891385154E+03 -0.45873741343E+03  0.10569850183E+04  0.50400001928E-02 0. -1.
       -1    1    3    3    0  502  0.79622966532E+02  0.94891385154E+03  0.43330947267E+03  0.10461999874E+04  0.50400001928E-02 0.  1.
</event>
<event>
 5   0  0.1441136E-05  0.2103587E+04  0.7818609E-02  0.8559665E-01
       -2   -1    0    0    0  501  0.00000000000E+00  0.00000000000E+00  0.66632268756E+03  0.66632268757E+03  0.25500000920E-02 0. -1.
        2   -1    0    0  501    0  0.00000000000E+00  0.00000000000E+00 -0.16602615555E+04  0.16602615555E+04  0.25500000920E-02 0.  1.
    10030    2    1    2    0    0  0.00000000000E+00  0.00000000000E+00 -0.99393886789E+03  0.23265842430E+04  0.21035873566E+04 0.  0.
        4    1    3    3  502    0  0.10195590718E+03  0.10276142162E+04 -0.27609341289E+03  0.10689317892E+04  0.12699999809E+01 0. -1.
       -4    1    3    3    0  502 -0.10195590718E+03 -0.10276142162E+04 -0.71784545500E+03  0.12576524538E+04  0.12699999809E+01 0.  1.
</event>
<event>
 5   0  0.1441136E-05  0.2104033E+04  0.7818609E-02  0.8559469E-01
        2   -1    0    0  501    0  0.00000000000E+00  0.00000000000E+00  0.11346132069E+04  0.11346132069E+04  0.25500000920E-02 0. -1.
       -2   -1    0    0    0  501  0.00000000000E+00  0.00000000000E+00 -0.97543268976E+03  0.97543268976E+03  0.25500000920E-02 0.  1.
    10030    2    1    2    0    0  0.00000000000E+00  0.00000000000E+00  0.15918051711E+03  0.21100458966E+04  0.21040330912E+04 0.  0.
        4    1    3    3  502    0 -0.24397140831E+02  0.10499561846E+04  0.18309255519E+02  0.10503999485E+04  0.12699999809E+01 0.  1.
       -4    1    3    3    0  502  0.24397140831E+02 -0.10499561846E+04  0.14087126159E+03  0.10596459481E+04  0.12699999809E+01 0. -1.
</event>
<event>
 5   0  0.1395356E-05  0.2100890E+04  0.7818609E-02  0.8560851E-01
        2   -1    0    0  501    0  0.00000000000E+00  0.00000000000E+00  0.14714444932E+04  0.14714444932E+04  0.25500000920E-02 0.  1.
       -2   -1    0    0    0  501  0.00000000000E+00  0.00000000000E+00 -0.74989911321E+03  0.74989911322E+03  0.25500000920E-02 0. -1.
    10030    2    1    2    0    0  0.00000000000E+00  0.00000000000E+00  0.72154537995E+03  0.22213436064E+04  0.21008902119E+04 0.  0.
        1    1    3    3  502    0 -0.24685871684E+03 -0.10122446050E+04  0.50206262056E+03  0.11565661423E+04  0.50400001928E-02 0. -1.
       -1    1    3    3    0  502  0.24685871684E+03  0.10122446050E+04  0.21948275939E+03  0.10647774641E+04  0.50400001928E-02 0.  1.
</event>
<event>
 5   0  0.1390735E-05  0.2096678E+04  0.7818609E-02  0.8562708E-01
        2   -1    0    0  501    0  0.00000000000E+00  0.00000000000E+00  0.11873120334E+04  0.11873120334E+04  0.25500000920E-02 0.  1.
       -2   -1    0    0    0  501  0.00000000000E+00  0.00000000000E+00 -0.92563262038E+03  0.92563262038E+03  0.25500000920E-02 0. -1.
    10030    2    1    2    0    0  0.00000000000E+00  0.00000000000E+00  0.26167941303E+03  0.21129446538E+04  0.20966780856E+04 0.  0.
        5    1    3    3  502    0  0.10349425950E+04  0.14368826655E+03  0.21658901453E+03  0.10670920223E+04  0.46999998093E+01 0.  1.
       -5    1    3    3    0  502 -0.10349425950E+04 -0.14368826655E+03  0.45090398497E+02  0.10458526315E+04  0.46999998093E+01 0. -1.
</event>
<event>
 5   0  0.6589193E-06  0.2099194E+04  0.7818609E-02  0.8561598E-01
       -1   -1    0    0    0  501  0.00000000000E+00  0.00000000000E+00  0.10081560052E+04  0.10081560052E+04  0.50400001928E-02 0.  1.
        1   -1    0    0  501    0  0.00000000000E+00  0.00000000000E+00 -0.10927417370E+04  0.10927417370E+04  0.50400001928E-02 0. -1.
    10030    2    1    2    0    0  0.00000000000E+00  0.00000000000E+00 -0.84585731768E+02  0.21008977422E+04  0.20991942686E+04 0.  0.
        3    1    3    3  502    0 -0.42167367744E+03  0.11868155683E+03  0.91229461161E+03  0.10120155487E+04  0.10100000352E+00 0.  1.
       -3    1    3    3    0  502  0.42167367744E+03 -0.11868155683E+03 -0.99688034338E+03  0.10888821935E+04  0.10100000352E+00 0. -1.
</event>
<event>
 5   0  0.6283269E-06  0.2106145E+04  0.7818609E-02  0.8558541E-01
        1   -1    0    0  501    0  0.00000000000E+00  0.00000000000E+00  0.12692565004E+04  0.12692565004E+04  0.50400001928E-02 0. -1.
       -1   -1    0    0    0  501  0.00000000000E+00  0.00000000000E+00 -0.87370961042E+03  0.87370961043E+03  0.50400001928E-02 0.  1.
    10030    2    1    2    0    0  0.00000000000E+00  0.00000000000E+00  0.39554688995E+03  0.21429661108E+04  0.21061449167E+04 0.  0.
        1    1    3    3  502    0 -0.88800408322E+03  0.23494680783E+03  0.72176258456E+03  0.11682005319E+04  0.50400001928E-02 0. -1.
       -1    1    3    3    0  502  0.88800408322E+03 -0.23494680783E+03 -0.32621569461E+03  0.97476557887E+03  0.50400001928E-02 0.  1.
</event>
<event>
 5   0  0.1398469E-05  0.2098751E+04  0.7818609E-02  0.8561794E-01
       -2   -1    0    0    0  501  0.00000000000E+00  0.00000000000E+00  0.76178151585E+03  0.76178151586E+03  0.25500000920E-02 0. -1.
        2   -1    0    0  501    0  0.00000000000E+00  0.00000000000E+00 -0.14455437985E+04  0.14455437986E+04  0.25500000920E-02 0.  1.
    10030    2    1    2    0    0  0.00000000000E+00  0.00000000000E+00 -0.68376228270E+03  0.22073253144E+04  0.20987506246E+04 0.  0.
        2    1    3    3  502    0  0.38369669055E+03  0.26376071791E+03  0.64719291801E+03  0.79727758013E+03  0.25500000920E-02 0. -1.
       -2    1    3    3    0  502 -0.38369669055E+03 -0.26376071791E+03 -0.13309552007E+04  0.14100477343E+04  0.25500000920E-02 0.  1.
</event>
<event>
 5   0  0.6917078E-06  0.2101612E+04  0.7818609E-02  0.8560534E-01
       -1   -1    0    0    0  501  0.00000000000E+00  0.00000000000E+00  0.61732156380E+03  0.61732156382E+03  0.50400001928E-02 0. -1.
        1   -1    0    0  501    0  0.00000000000E+00  0.00000000000E+00 -0.17886836177E+04  0.17886836177E+04  0.50400001928E-02 0.  1.
    10030    2    1    2    0    0  0.00000000000E+00  0.00000000000E+00 -0.11713620539E+04  0.24060051815E+04  0.21016117320E+04 0.  0.
        5    1    3    3  502    0  0.66159971834E+03  0.25215155417E+01  0.34892369016E+03  0.74799089360E+03  0.46999998093E+01 0. -1.
       -5    1    3    3    0  502 -0.66159971834E+03 -0.25215155417E+01 -0.15202857440E+04  0.16580142879E+04  0.46999998093E+01 0.  1.
</event>
<event>
 5   0  0.6283269E-06  0.2098989E+04  0.7818609E-02  0.8561689E-01
        1   -1    0    0  501    0  0.00000000000E+00  0.00000000000E+00  0.96724545096E+03  0.96724545097E+03  0.50400001928E-02 0. -1.
       -1   -1    0    0    0  501  0.00000000000E+00  0.00000000000E+00 -0.11387370132E+04  0.11387370132E+04  0.50400001928E-02 0.  1.
    10030    2    1    2    0    0  0.00000000000E+00  0.00000000000E+00 -0.17149156227E+03  0.21059824642E+04  0.20989885144E+04 0.  0.
        1    1    3    3  502    0 -0.94375553051E+03  0.30692207048E+03  0.25680438658E+03  0.10250971426E+04  0.50400001928E-02 0. -1.
       -1    1    3    3    0  502  0.94375553051E+03 -0.30692207048E+03 -0.42829594885E+03  0.10808853216E+04  0.50400001928E-02 0.  1.
</event>
<event>
 5   0  0.6599245E-06  0.2092299E+04  0.7818609E-02  0.8564643E-01
        1   -1    0    0  501    0  0.00000000000E+00  0.00000000000E+00  0.25686109575E+04  0.25686109575E+04  0.50400001928E-02 0.  1.
       -1   -1    0    0    0  501  0.00000000000E+00  0.00000000000E+00 -0.42607816391E+03  0.42607816394E+03  0.50400001928E-02 0. -1.
    10030    2    1    2    0    0  0.00000000000E+00  0.00000000000E+00  0.21425327936E+04  0.29946891214E+04  0.20922992526E+04 0.  0.
        2    1    3    3  502    0  0.49166420013E+03  0.11879221677E+03  0.23819599700E+04  0.24350726016E+04  0.25500000920E-02 0.  1.
       -2    1    3    3    0  502 -0.49166420013E+03 -0.11879221677E+03 -0.23942717641E+03  0.55961651983E+03  0.25500000920E-02 0. -1.
</event>
<event>
 5   0  0.1398469E-05  0.2101998E+04  0.7818609E-02  0.8560364E-01
       -2   -1    0    0    0  501  0.00000000000E+00  0.00000000000E+00  0.73610548362E+03  0.73610548362E+03  0.25500000920E-02 0.  1.
        2   -1    0    0  501    0  0.00000000000E+00  0.00000000000E+00 -0.15005984894E+04  0.15005984894E+04  0.25500000920E-02 0. -1.
    10030    2    1    2    0    0  0.00000000000E+00  0.00000000000E+00 -0.76449300583E+03  0.22367039731E+04  0.21019978847E+04 0.  0.
        2    1    3    3  502    0 -0.30794477801E+03  0.77659562498E+03 -0.10608189918E+04  0.13502842976E+04  0.25500000920E-02 0. -1.
       -2    1    3    3    0  502  0.30794477801E+03 -0.77659562498E+03  0.29632598597E+03  0.88641967544E+03  0.25500000920E-02 0.  1.
</event>
<event>
 5   0  0.1344501E-05  0.2099246E+04  0.7818609E-02  0.8561576E-01
       -2   -1    0    0    0  501  0.00000000000E+00  0.00000000000E+00  0.10275292427E+04  0.10275292427E+04  0.25500000920E-02 0. -1.
        2   -1    0    0  501    0  0.00000000000E+00  0.00000000000E+00 -0.10721914699E+04  0.10721914699E+04  0.25500000920E-02 0.  1.
    10030    2    1    2    0    0  0.00000000000E+00  0.00000000000E+00 -0.44662227175E+02  0.20997207126E+04  0.20992456636E+04 0.  0.
        3    1    3    3  502    0 -0.73437434541E+03 -0.13309847077E+03  0.71586516431E+03  0.10341585110E+04  0.10100000352E+00 0. -1.
       -3    1    3    3    0  502  0.73437434541E+03  0.13309847077E+03 -0.76052739149E+03  0.10655622016E+04  0.10100000352E+00 0.  1.
</event>
<event>
 5   0  0.6917078E-06  0.2099868E+04  0.7818609E-02  0.8561302E-01
        1   -1    0    0  501    0  0.00000000000E+00  0.00000000000E+00  0.14634525192E+04  0.14634525192E+04  0.50400001928E-02 0. -1.
       -1   -1    0    0    0  501  0.00000000000E+00  0.00000000000E+00 -0.75326072464E+03  0.75326072465E+03  0.50400001928E-02 0.  1.
    10030    2    1    2    0    0  0.00000000000E+00  0.00000000000E+00  0.71019179456E+03  0.22167132439E+04  0.20998679055E+04 0.  0.
        5    1    3    3  502    0 -0.91456029033E+02 -0.55747059489E+03  0.12893269705E+04  0.14076660812E+04  0.46999998093E+01 0. -1.
       -5    1    3    3    0  502  0.91456029033E+02  0.55747059489E+03 -0.57913517591E+03  0.80904716265E+03  0.46999998093E+01 0.  1.
</event>
<event>
 5   0  0.6283269E-06  0.2101230E+04  0.7818609E-02  0.8560702E-01
       -1   -1    0    0    0  501  0.00000000000E+00  0.00000000000E+00  0.31240820194E+04  0.31240820194E+04  0.50400001928E-02 0.  1.
        1   -1    0    0  501    0  0.00000000000E+00  0.00000000000E+00 -0.35331727723E+03  0.35331727727E+03  0.50400001928E-02 0. -1.
    10030    2    1    2    0    0  0.00000000000E+00  0.00000000000E+00  0.27707647422E+04  0.34773992967E+04  0.21012302616E+04 0.  0.
        1    1    3    3  502    0 -0.56601952338E+03 -0.74304291456E+03  0.58946142788E+03  0.11045160246E+04  0.50400001928E-02 0. -1.
       -1    1    3    3    0  502  0.56601952338E+03  0.74304291456E+03  0.21813033143E+04  0.23728832721E+04  0.50400001928E-02 0.  1.
</event>
<event>
 5   0  0.6589193E-06  0.2101930E+04  0.7818609E-02  0.8560394E-01
        1   -1    0    0  501    0  0.00000000000E+00  0.00000000000E+00  0.17497378081E+04  0.17497378081E+04  0.50400001928E-02 0. -1.
       -1   -1    0    0    0  501  0.00000000000E+00  0.00000000000E+00 -0.63125290014E+03  0.63125290016E+03  0.50400001928E-02 0.  1.
    10030    2    1    2    0    0  0.00000000000E+00  0.00000000000E+00  0.11184849080E+04  0.23809907083E+04  0.21019296524E+04 0.  0.
        3    1    3    3  502    0 -0.69759185084E+03  0.72285977728E+03  0.90905649357E+03  0.13548226329E+04  0.10100000352E+00 0. -1.
       -3    1    3    3    0  502  0.69759185084E+03 -0.72285977728E+03  0.20942841444E+03  0.10261680754E+04  0.10100000352E+00 0.  1.
</event>
<event>
 5   0  0.1390735E-05  0.2104764E+04  0.7818609E-02  0.8559148E-01
       -2   -1    0    0    0  501  0.00000000000E+00  0.00000000000E+00  0.40773470036E+03  0.40773470037E+03  0.25500000920E-02 0. -1.
        2   -1    0    0  501    0  0.00000000000E+00  0.00000000000E+00 -0.27162461057E+04  0.27162461057E+04  0.25500000920E-02 0.  1.
    10030    2    1    2    0    0  0.00000000000E+00  0.00000000000E+00 -0.23085114054E+04  0.31239808061E+04  0.21047639222E+04 0.  0.
        5    1    3    3  502    0  0.30942119922E+03 -0.12312256837E+03 -0.26359620845E+04  0.26569190515E+04  0.46999998093E+01 0.  1.
       -5    1    3    3    0  502 -0.30942119922E+03  0.12312256837E+03  0.32745067911E+03  0.46706175461E+03  0.46999998093E+01 0. -1.
</event>
<event>
 5   0  0.5009125E-06  0.2100338E+04  0.7818609E-02  0.8561095E-01
       -3   -1    0    0    0  501  0.00000000000E+00  0.00000000000E+00  0.78268417449E+03  0.78268418100E+03  0.10100000352E+00 0. -1.
        3   -1    0    0  501    0  0.00000000000E+00  0.00000000000E+00 -0.14090674115E+04  0.14090674151E+04  0.10100000352E+00 0.  1.
    10030    2    1    2    0    0  0.00000000000E+00  0.00000000000E+00 -0.62638323701E+03  0.21917515961E+04  0.21003378537E+04 0.  0.
        2    1    3    3  502    0 -0.25416593803E+03 -0.88021877673E+03  0.22244125943E+03  0.94279665509E+03  0.25500000920E-02 0. -1.
       -2    1    3    3    0  502  0.25416593803E+03  0.88021877673E+03 -0.84882449644E+03  0.12489549410E+04  0.25500000920E-02 0.  1.
</event>
<event>
 5   0  0.1398469E-05  0.2088170E+04  0.7818609E-02  0.8566473E-01
        2   -1    0    0  501    0  0.00000000000E+00  0.00000000000E+00  0.61577973306E+03  0.61577973306E+03  0.25500000920E-02 0.  1.
       -2   -1    0    0    0  501  0.00000000000E+00  0.00000000000E+00 -0.17702970855E+04  0.17702970855E+04  0.25500000920E-02 0. -1.
    10030    2    1    2    0    0  0.00000000000E+00  0.00000000000E+00 -0.11545173525E+04  0.23860768186E+04  0.20881695973E+04 0.  0.
        2    1    3    3  502    0 -0.41519692844E+03 -0.52483135391E+02 -0.16702635630E+04  0.17218952752E+04  0.25500000920E-02 0. -1.
       -2    1    3    3    0  502  0.41519692844E+03  0.52483135391E+02  0.51574621053E+03  0.66418154338E+03  0.25500000920E-02 0.  1.
</event>
<event>
 5   0  0.1398469E-05  0.2099098E+04  0.7818609E-02  0.8561641E-01
        2   -1    0    0  501    0  0.00000000000E+00  0.00000000000E+00  0.43383005076E+03  0.43383005076E+03  0.25500000920E-02 0.  1.
       -2   -1    0    0    0  501  0.00000000000E+00  0.00000000000E+00 -0.25391361047E+04  0.25391361047E+04  0.25500000920E-02 0. -1.
    10030    2    1    2    0    0  0.00000000000E+00  0.00000000000E+00 -0.21053060539E+04  0.29729661554E+04  0.20990984209E+04 0.  0.
        2    1    3    3  502    0  0.58712975635E+03  0.61237645048E+03 -0.19278194330E+04  0.21062321890E+04  0.25500000920E-02 0. -1.
       -2    1    3    3    0  502 -0.58712975635E+03 -0.61237645048E+03 -0.17748662092E+03  0.86673396640E+03  0.25500000920E-02 0.  1.
</event>
<event>
 5   0  0.1390735E-05  0.2119547E+04  0.7818609E-02  0.8552681E-01
       -2   -1    0    0    0  501  0.00000000000E+00  0.00000000000E+00  0.67214560125E+03  0.67214560126E+03  0.25500000920E-02 0. -1.
        2   -1    0    0  501    0  0.00000000000E+00  0.00000000000E+00 -0.16709473477E+04  0.16709473477E+04  0.25500000920E-02 0.  1.
    10030    2    1    2    0    0  0.00000000000E+00  0.00000000000E+00 -0.99880174642E+03  0.23430929489E+04  0.21195470362E+04 0.  0.
        5    1    3    3  502    0 -0.66746448292E+01 -0.10500153078E+04 -0.34104031956E+03  0.11040413430E+04  0.46999998093E+01 0. -1.
       -5    1    3    3    0  502  0.66746448292E+01  0.10500153078E+04 -0.65776142686E+03  0.12390516059E+04  0.46999998093E+01 0.  1.
</event>
<event>
 5   0  0.1395356E-05  0.2160601E+04  0.7818609E-02  0.8535008E-01
        2   -1    0    0  501    0  0.00000000000E+00  0.00000000000E+00  0.14219970757E+04  0.14219970757E+04  0.25500000920E-02 0. -1.
       -2   -1    0    0    0  501  0.00000000000E+00  0.00000000000E+00 -0.82071105424E+03  0.82071105424E+03  0.25500000920E-02 0.  1.
    10030    2    1    2    0    0  0.00000000000E+00  0.00000000000E+00  0.60128602143E+03  0.22427081299E+04  0.21606005823E+04 0.  0.
        1    1    3    3  502    0  0.34142154884E+03  0.80786296053E+03  0.95535624136E+03  0.12968873447E+04  0.50400001928E-02 0. -1.
       -1    1    3    3    0  502 -0.34142154884E+03 -0.80786296053E+03 -0.35407021992E+03  0.94582078518E+03  0.50400001928E-02 0.  1.
</event>
<event>
 5   0  0.1398469E-05  0.2098391E+04  0.7818609E-02  0.8561952E-01
       -2   -1    0    0    0  501  0.00000000000E+00  0.00000000000E+00  0.15271526685E+04  0.15271526685E+04  0.25500000920E-02 0.  1.
        2   -1    0    0  501    0  0.00000000000E+00  0.00000000000E+00 -0.72082592707E+03  0.72082592707E+03  0.25500000920E-02 0. -1.
    10030    2    1    2    0    0  0.00000000000E+00  0.00000000000E+00  0.80632674141E+03  0.22479785956E+04  0.20983910389E+04 0.  0.
        2    1    3    3  502    0 -0.10243604190E+04 -0.46762270923E+02  0.64105238947E+03  0.12093176357E+04  0.25500000920E-02 0.  1.
       -2    1    3    3    0  502  0.10243604190E+04  0.46762270923E+02  0.16527435194E+03  0.10386609598E+04  0.25500000920E-02 0. -1.
</event>
<event>
 5   0  0.1395356E-05  0.2100542E+04  0.7818609E-02  0.8561005E-01
       -2   -1    0    0    0  501  0.00000000000E+00  0.00000000000E+00  0.53519020211E+03  0.53519020212E+03  0.25500000920E-02 0.  1.
        2   -1    0    0  501    0  0.00000000000E+00  0.00000000000E+00 -0.20610779748E+04  0.20610779748E+04  0.25500000920E-02 0. -1.
    10030    2    1    2    0    0  0.00000000000E+00  0.00000000000E+00 -0.15258877727E+04  0.25962681770E+04  0.21005415853E+04 0.  0.
        1    1    3    3  502    0 -0.53055488748E+03 -0.71858014172E+03 -0.80091591819E+02  0.89680576036E+03  0.50400001928E-02 0.  1.
       -1    1    3    3    0  502  0.53055488748E+03  0.71858014172E+03 -0.14457961809E+04  0.16994624166E+04  0.50400001928E-02 0. -1.
</event>
<event>
 5   0  0.6238363E-06  0.2115711E+04  0.7818609E-02  0.8554354E-01
        1   -1    0    0  501    0  0.00000000000E+00  0.00000000000E+00  0.21177246564E+04  0.21177246564E+04  0.50400001928E-02 0.  1.
       -1   -1    0    0    0  501  0.00000000000E+00  0.00000000000E+00 -0.52842460980E+03  0.52842460982E+03  0.50400001928E-02 0. -1.
    10030    2    1    2    0    0  0.00000000000E+00  0.00000000000E+00  0.15893000466E+04  0.26461492663E+04  0.21157105901E+04 0.  0.
        4    1    3    3  502    0  0.75447884286E+03  0.58305662260E+03  0.13676120967E+04  0.16672005906E+04  0.12699999809E+01 0.  1.
       -4    1    3    3    0  502 -0.75447884286E+03 -0.58305662260E+03  0.22168794995E+03  0.97894867564E+03  0.12699999809E+01 0. -1.
</event>
<event>
 5   0  0.6238363E-06  0.2096302E+04  0.7818609E-02  0.8562874E-01
       -1   -1    0    0    0  501  0.00000000000E+00  0.00000000000E+00  0.13681415891E+04  0.13681415892E+04  0.50400001928E-02 0.  1.
        1   -1    0    0  501    0  0.00000000000E+00  0.00000000000E+00 -0.80300243516E+03  0.80300243518E+03  0.50400001928E-02 0. -1.
    10030    2    1    2    0    0  0.00000000000E+00  0.00000000000E+00  0.56513915398E+03  0.21711440243E+04  0.20963024856E+04 0.  0.
        4    1    3    3  502    0  0.94797643231E+03 -0.39118616215E+03  0.50694541451E+03  0.11439760469E+04  0.12699999809E+01 0.  1.
       -4    1    3    3    0  502 -0.94797643231E+03  0.39118616215E+03  0.58193739468E+02  0.10271679774E+04  0.12699999809E+01 0. -1.
</event>
<event>
 5   0  0.6238363E-06  0.2100371E+04  0.7818609E-02  0.8561080E-01
        1   -1    0    0  501    0  0.00000000000E+00  0.00000000000E+00  0.11275400970E+04  0.11275400970E+04  0.50400001928E-02 0.  1.
       -1   -1    0    0    0  501  0.00000000000E+00  0.00000000000E+00 -0.97813802209E+03  0.97813802211E+03  0.50400001928E-02 0. -1.
    10030    2    1    2    0    0  0.00000000000E+00  0.00000000000E+00  0.14940207486E+03  0.21056781191E+04  0.21003712437E+04 0.  0.
        4    1    3    3  502    0  0.74286479564E+03  0.21168231655E+03 -0.63859558654E+03  0.10022292371E+04  0.12699999809E+01 0. -1.
       -4    1    3    3    0  502 -0.74286479564E+03 -0.21168231655E+03  0.78799766141E+03  0.11034488819E+04  0.12699999809E+01 0.  1.
</event>
<event>
 5   0  0.1441136E-05  0.2102052E+04  0.7818609E-02  0.8560340E-01
       -2   -1    0    0    0  501  0.00000000000E+00  0.00000000000E+00  0.10159697266E+04  0.10159697266E+04  0.25500000920E-02 0.  1.
        2   -1    0    0  501    0  0.00000000000E+00  0.00000000000E+00 -0.10872919879E+04  0.10872919879E+04  0.25500000920E-02 0. -1.
    10030    2    1    2    0    0  0.00000000000E+00  0.00000000000E+00 -0.71322261335E+02  0.21032617146E+04  0.21020520866E+04 0.  0.
        4    1    3    3  502    0 -0.27233404264E+03 -0.98915338529E+03 -0.26396754337E+03  0.10593727990E+04  0.12699999809E+01 0. -1.
       -4    1    3    3    0  502  0.27233404264E+03  0.98915338529E+03  0.19264528204E+03  0.10438889156E+04  0.12699999809E+01 0.  1.
</event>
<event>
 5   0  0.6917078E-06  0.2096705E+04  0.7818609E-02  0.8562696E-01
       -1   -1    0    0    0  501  0.00000000000E+00  0.00000000000E+00  0.10016578384E+04  0.10016578384E+04  0.50400001928E-02 0.  1.
        1   -1    0    0  501    0  0.00000000000E+00  0.00000000000E+00 -0.10972244201E+04  0.10972244201E+04  0.50400001928E-02 0. -1.
    10030    2    1    2    0    0  0.00000000000E+00  0.00000000000E+00 -0.95566581720E+02  0.20988822585E+04  0.20967054547E+04 0.  0.
        5    1    3    3  502    0  0.80560570938E+03 -0.31393953071E+03  0.54567514958E+03  0.10224197019E+04  0.46999998093E+01 0.  1.
       -5    1    3    3    0  502 -0.80560570938E+03  0.31393953071E+03 -0.64124173130E+03  0.10764625567E+04  0.46999998093E+01 0. -1.
</event>
<event>
 5   0  0.6599245E-06  0.2108637E+04  0.7818609E-02  0.8557448E-01
        1   -1    0    0  501    0  0.00000000000E+00  0.00000000000E+00  0.17458497074E+04  0.17458497075E+04  0.50400001928E-02 0. -1.
       -1   -1    0    0    0  501  0.00000000000E+00  0.00000000000E+00 -0.63670293582E+03  0.63670293584E+03  0.50400001928E-02 0.  1.
    10030    2    1    2    0    0  0.00000000000E+00  0.00000000000E+00  0.11091467716E+04  0.23825526433E+04  0.21086371279E+04 0.  0.
        2    1    3    3  502    0 -0.78469196427E+03  0.68253299401E+03  0.75026135692E+03  0.12823746997E+04  0.25500000920E-02 0. -1.
       -2    1    3    3    0  502  0.78469196427E+03 -0.68253299401E+03  0.35888541470E+03  0.11001779436E+04  0.25500000920E-02 0.  1.
</event>
<event>
 5   0  0.6238363E-06  0.2073981E+04  0.7818609E-02  0.8572792E-01
        1   -1    0    0  501    0  0.00000000000E+00  0.00000000000E+00  0.55233586597E+03  0.55233586599E+03  0.50400001928E-02 0. -1.
       -1   -1    0    0    0  501  0.00000000000E+00  0.00000000000E+00 -0.19469128425E+04  0.19469128425E+04  0.50400001928E-02 0.  1.
    10030    2    1    2    0    0  0.00000000000E+00  0.00000000000E+00 -0.13945769765E+04  0.24992487085E+04  0.20739814762E+04 0.  0.
        4    1    3    3  502    0 -0.28838221135E+03 -0.93189330435E+03 -0.27336004547E+03  0.10130729282E+04  0.12699999809E+01 0. -1.
       -4    1    3    3    0  502  0.28838221135E+03  0.93189330435E+03 -0.11212169311E+04  0.14861757803E+04  0.12699999809E+01 0.  1.
</event>
<event>
 5   0  0.6238363E-06  0.2098984E+04  0.7818609E-02  0.8561691E-01
        1   -1    0    0  501    0  0.00000000000E+00  0.00000000000E+00  0.17394811196E+04  0.17394811196E+04  0.50400001928E-02 0. -1.
       -1   -1    0    0    0  501  0.00000000000E+00  0.00000000000E+00 -0.63319682899E+03  0.63319682901E+03  0.50400001928E-02 0.  1.
    10030    2    1    2    0    0  0.00000000000E+00  0.00000000000E+00  0.11062842906E+04  0.23726779486E+04  0.20989844487E+04 0.  0.
        4    1    3    3  502    0 -0.22069944962E+03  0.45833304602E+03  0.15908006388E+04  0.16701573918E+04  0.12699999809E+01 0. -1.
       -4    1    3    3    0  502  0.22069944962E+03 -0.45833304602E+03 -0.48451634820E+03  0.70252055679E+03  0.12699999809E+01 0.  1.
</event>
<event>
 5   0  0.1344501E-05  0.2104817E+04  0.7818609E-02  0.8559125E-01
        2   -1    0    0  501    0  0.00000000000E+00  0.00000000000E+00  0.41584295541E+03  0.41584295542E+03  0.25500000920E-02 0. -1.
       -2   -1    0    0    0  501  0.00000000000E+00  0.00000000000E+00 -0.26634170351E+04  0.26634170351E+04  0.25500000920E-02 0.  1.
    10030    2    1    2    0    0  0.00000000000E+00  0.00000000000E+00 -0.22475740797E+04  0.30792599905E+04  0.21048165824E+04 0.  0.
        3    1    3    3  502    0  0.67507068424E+03 -0.27967793434E+03 -0.22318014037E+04  0.23483776722E+04  0.10100000352E+00 0.  1.
       -3    1    3    3    0  502 -0.67507068424E+03  0.27967793434E+03 -0.15772675987E+02  0.73088231829E+03  0.10100000352E+00 0. -1.
</event>
<event>
 5   0  0.6599245E-06  0.2101387E+04  0.7818609E-02  0.8560632E-01
        1   -1    0    0  501    0  0.00000000000E+00  0.00000000000E+00  0.10063789191E+04  0.10063789191E+04  0.50400001928E-02 0.  1.
       -1   -1    0    0    0  501  0.00000000000E+00  0.00000000000E+00 -0.10969597982E+04  0.10969597982E+04  0.50400001928E-02 0. -1.
    10030    2    1    2    0    0  0.00000000000E+00  0.00000000000E+00 -0.90580879166E+02  0.21033387173E+04  0.21013873665E+04 0.  0.
        2    1    3    3  502    0 -0.28034456506E+03  0.57412505694E+03  0.78959715659E+03  0.10157146872E+04  0.25500000920E-02 0.  1.
       -2    1    3    3    0  502  0.28034456506E+03 -0.57412505694E+03 -0.88017803576E+03  0.10876240301E+04  0.25500000920E-02 0. -1.
</event>
<event>
 5   0  0.1344501E-05  0.2099654E+04  0.7818609E-02  0.8561396E-01
        2   -1    0    0  501    0  0.00000000000E+00  0.00000000000E+00  0.15475047938E+04  0.15475047938E+04  0.25500000920E-02 0.  1.
       -2   -1    0    0    0  501  0.00000000000E+00  0.00000000000E+00 -0.71220221640E+03  0.71220221640E+03  0.25500000920E-02 0. -1.
    10030    2    1    2    0    0  0.00000000000E+00  0.00000000000E+00  0.83530257737E+03  0.22597070102E+04  0.20996536324E+04 0.  0.
        3    1    3    3  502    0 -0.10494023600E+04 -0.42489428355E+01  0.38585302475E+03  0.11180992504E+04  0.10100000352E+00 0.  1.
       -3    1    3    3    0  502  0.10494023600E+04  0.42489428355E+01  0.44944955262E+03  0.11416077598E+04  0.10100000352E+00 0. -1.
</event>
<event>
 5   0  0.6917078E-06  0.2104516E+04  0.7818609E-02  0.8559256E-01
        1   -1    0    0  501    0  0.00000000000E+00  0.00000000000E+00  0.99116068771E+03  0.99116068773E+03  0.50400001928E-02 0. -1.
       -1   -1    0    0    0  501  0.00000000000E+00  0.00000000000E+00 -0.11171220031E+04  0.11171220032E+04  0.50400001928E-02 0.  1.
    10030    2    1    2    0    0  0.00000000000E+00  0.00000000000E+00 -0.12596131543E+03  0.21082826909E+04  0.21045164888E+04 0.  0.
        5    1    3    3  502    0  0.89842208887E+03 -0.32682706364E+03  0.37740488387E+03  0.10278301006E+04  0.46999998093E+01 0. -1.
       -5    1    3    3    0  502 -0.89842208887E+03  0.32682706364E+03 -0.50336619930E+03  0.10804525903E+04  0.46999998093E+01 0.  1.
</event>
<event>
 5   0  0.1344501E-05  0.2100100E+04  0.7818609E-02  0.8561199E-01
       -2   -1    0    0    0  501  0.00000000000E+00  0.00000000000E+00  0.95382366813E+03  0.95382366813E+03  0.25500000920E-02 0. -1.
        2   -1    0    0  501    0  0.00000000000E+00  0.00000000000E+00 -0.11559842194E+04  0.11559842194E+04  0.25500000920E-02 0.  1.
    10030    2    1    2    0    0  0.00000000000E+00  0.00000000000E+00 -0.20216055128E+03  0.21098078875E+04  0.21001001009E+04 0.  0.
        3    1    3    3  502    0 -0.80822697490E+03  0.56493870996E+03 -0.46360637272E+03  0.10896409812E+04  0.10100000352E+00 0.  1.
       -3    1    3    3    0  502  0.80822697490E+03 -0.56493870996E+03  0.26144582144E+03  0.10201669063E+04  0.10100000352E+00 0. -1.
</event>
<event>
 5   0  0.6283269E-06  0.2104971E+04  0.7818609E-02  0.8559057E-01
        1   -1    0    0  501    0  0.00000000000E+00  0.00000000000E+00  0.19673552489E+04  0.19673552489E+04  0.50400001928E-02 0.  1.
       -1   -1    0    0    0  501  0.00000000000E+00  0.00000000000E+00 -0.56305316767E+03  0.56305316770E+03  0.50400001928E-02 0. -1.
    10030    2    1    2    0    0  0.00000000000E+00  0.00000000000E+00  0.14043020812E+04  0.25304084166E+04  0.21049708833E+04 0.  0.
        1    1    3    3  502    0 -0.26285946354E+01 -0.42413840176E+03 -0.45576651533E+03  0.62259409721E+03  0.50400001928E-02 0. -1.
       -1    1    3    3    0  502  0.26285946354E+01  0.42413840176E+03  0.18600685966E+04  0.19078143194E+04  0.50400001928E-02 0.  1.
</event>
<event>
 5   0  0.6917078E-06  0.2103117E+04  0.7818609E-02  0.8559872E-01
        1   -1    0    0  501    0  0.00000000000E+00  0.00000000000E+00  0.17980344840E+04  0.17980344840E+04  0.50400001928E-02 0. -1.
       -1   -1    0    0    0  501  0.00000000000E+00  0.00000000000E+00 -0.61499109060E+03  0.61499109062E+03  0.50400001928E-02 0.  1.
    10030    2    1    2    0    0  0.00000000000E+00  0.00000000000E+00  0.11830433934E+04  0.24130255746E+04  0.21031169138E+04 0.  0.
        5    1    3    3  502    0 -0.98993637422E+02 -0.77006687537E+03  0.14052156201E+04  0.16054456583E+04  0.46999998093E+01 0. -1.
       -5    1    3    3    0  502  0.98993637422E+02  0.77006687537E+03 -0.22217222678E+03  0.80757991625E+03  0.46999998093E+01 0.  1.
</event>
<event>
 5   0  0.1390735E-05  0.2098461E+04  0.7818609E-02  0.8561922E-01
       -2   -1    0    0    0  501  0.00000000000E+00  0.00000000000E+00  0.39525000928E+03  0.39525000929E+03  0.25500000920E-02 0. -1.
        2   -1    0    0  501    0  0.00000000000E+00  0.00000000000E+00 -0.27852857830E+04  0.27852857830E+04  0.25500000920E-02 0.  1.
    10030    2    1    2    0    0  0.00000000000E+00  0.00000000000E+00 -0.23900357737E+04  0.31805357923E+04  0.20984606087E+04 0.  0.
        5    1    3    3  502    0 -0.18613065913E+03 -0.93407083382E+03 -0.18621272020E+04  0.20915718375E+04  0.46999998093E+01 0.  1.
       -5    1    3    3    0  502  0.18613065913E+03  0.93407083382E+03 -0.52790857176E+03  0.10889639549E+04  0.46999998093E+01 0. -1.
</event>
<event>
 5   0  0.6283269E-06  0.2112364E+04  0.7818609E-02  0.8555816E-01
       -1   -1    0    0    0  501  0.00000000000E+00  0.00000000000E+00  0.10332344452E+04  0.10332344452E+04  0.50400001928E-02 0. -1.
        1   -1    0    0  501    0  0.00000000000E+00  0.00000000000E+00 -0.10796391501E+04  0.10796391501E+04  0.50400001928E-02 0.  1.
    10030    2    1    2    0    0  0.00000000000E+00  0.00000000000E+00 -0.46404704874E+02  0.21128735953E+04  0.21123639442E+04 0.  0.
        1    1    3    3  502    0  0.57770945590E+03  0.75904212992E+00 -0.90759414848E+03  0.10758605532E+04  0.50400001928E-02 0.  1.
       -1    1    3    3    0  502 -0.57770945590E+03 -0.75904212992E+00  0.86118944361E+03  0.10370130421E+04  0.50400001928E-02 0. -1.
</event>
<event>
 5   0  0.6599245E-06  0.2092890E+04  0.7818609E-02  0.8564382E-01
        1   -1    0    0  501    0  0.00000000000E+00  0.00000000000E+00  0.12603378587E+04  0.12603378587E+04  0.50400001928E-02 0.  1.
       -1   -1    0    0    0  501  0.00000000000E+00  0.00000000000E+00 -0.86885217741E+03  0.86885217742E+03  0.50400001928E-02 0. -1.
    10030    2    1    2    0    0  0.00000000000E+00  0.00000000000E+00  0.39148568132E+03  0.21291900362E+04  0.20928901480E+04 0.  0.
        2    1    3    3  502    0 -0.38614354782E+03  0.71913740718E+03  0.86191454924E+03  0.11870813536E+04  0.25500000920E-02 0. -1.
       -2    1    3    3    0  502  0.38614354782E+03 -0.71913740718E+03 -0.47042886792E+03  0.94210868253E+03  0.25500000920E-02 0.  1.
</event>
<event>
 5   0  0.1398469E-05  0.2090530E+04  0.7818609E-02  0.8565426E-01
       -2   -1    0    0    0  501  0.00000000000E+00  0.00000000000E+00  0.16598624612E+04  0.16598624612E+04  0.25500000920E-02 0. -1.
        2   -1    0    0  501    0  0.00000000000E+00  0.00000000000E+00 -0.65823471249E+03  0.65823471250E+03  0.25500000920E-02 0.  1.
    10030    2    1    2    0    0  0.00000000000E+00  0.00000000000E+00  0.10016277487E+04  0.23180971737E+04  0.20905301623E+04 0.  0.
        2    1    3    3  502    0 -0.72614879970E+03  0.44779823843E+03 -0.16888725976E+03  0.86967709419E+03  0.25500000920E-02 0.  1.
       -2    1    3    3    0  502  0.72614879970E+03 -0.44779823843E+03  0.11705150084E+04  0.14484200795E+04  0.25500000920E-02 0. -1.
</event>
<event>
 5   0  0.1398469E-05  0.2100759E+04  0.7818609E-02  0.8560909E-01
        2   -1    0    0  501    0  0.00000000000E+00  0.00000000000E+00  0.29236864026E+04  0.29236864026E+04  0.25500000920E-02 0.  1.
       -2   -1    0    0    0  501  0.00000000000E+00  0.00000000000E+00 -0.37736506831E+03  0.37736506832E+03  0.25500000920E-02 0. -1.
    10030    2    1    2    0    0  0.00000000000E+00  0.00000000000E+00  0.25463213343E+04  0.33010514709E+04  0.21007590238E+04 0.  0.
        2    1    3    3  502    0 -0.62235357026E+03 -0.51188426553E+03  0.23318753716E+04  0.24671830528E+04  0.25500000920E-02 0.  1.
       -2    1    3    3    0  502  0.62235357026E+03  0.51188426553E+03  0.21444596271E+03  0.83386841806E+03  0.25500000920E-02 0. -1.
</event>
<event>
 5   0  0.1441136E-05  0.2104739E+04  0.7818609E-02  0.8559159E-01
        2   -1    0    0  501    0  0.00000000000E+00  0.00000000000E+00  0.13917761513E+04  0.13917761513E+04  0.25500000920E-02 0.  1.
       -2   -1    0    0    0  501  0.00000000000E+00  0.00000000000E+00 -0.79573271260E+03  0.79573271261E+03  0.25500000920E-02 0. -1.
    10030    2    1    2    0    0  0.00000000000E+00  0.00000000000E+00  0.59604343872E+03  0.21875088639E+04  0.21047392354E+04 0.  0.
        4    1    3    3  502    0  0.36167847838E+02  0.89508057819E+03  0.87201058696E+03  0.12501525632E+04  0.12699999809E+01 0.  1.
       -4    1    3    3    0  502 -0.36167847838E+02 -0.89508057819E+03 -0.27596714824E+03  0.93735630071E+03  0.12699999809E+01 0. -1.
</event>
<event>
 5   0  0.1395356E-05  0.2100641E+04  0.7818609E-02  0.8560961E-01
       -2   -1    0    0    0  501  0.00000000000E+00  0.00000000000E+00  0.11130863284E+04  0.11130863284E+04  0.25500000920E-02 0. -1.
        2   -1    0    0  501    0  0.00000000000E+00  0.00000000000E+00 -0.99109397424E+03  0.99109397424E+03  0.25500000920E-02 0.  1.
    10030    2    1    2    0    0  0.00000000000E+00  0.00000000000E+00  0.12199235412E+03  0.21041803026E+04  0.21006410001E+04 0.  0.
        1    1    3    3  502    0 -0.27025688837E+03 -0.10005729467E+04 -0.10954974110E+03  0.10422025490E+04  0.50400001928E-02 0.  1.
       -1    1    3    3    0  502  0.27025688837E+03  0.10005729467E+04  0.23154209522E+03  0.10619777536E+04  0.50400001928E-02 0. -1.
</event>
<event>
 5   0  0.1390735E-05  0.2108777E+04  0.7818609E-02  0.8557387E-01
       -2   -1    0    0    0  501  0.00000000000E+00  0.00000000000E+00  0.71212326477E+03  0.71212326477E+03  0.25500000920E-02 0.  1.
        2   -1    0    0  501    0  0.00000000000E+00  0.00000000000E+00 -0.15611559460E+04  0.15611559460E+04  0.25500000920E-02 0. -1.
    10030    2    1    2    0    0  0.00000000000E+00  0.00000000000E+00 -0.84903268126E+03  0.22732792108E+04  0.21087773416E+04 0.  0.
        5    1    3    3  502    0  0.13759162284E+03 -0.31764318968E+03  0.64910875800E+03  0.73565815454E+03  0.46999998093E+01 0.  1.
       -5    1    3    3    0  502 -0.13759162284E+03  0.31764318968E+03 -0.14981414393E+04  0.15376210563E+04  0.46999998093E+01 0. -1.
</event>
<event>
 5   0  0.1398469E-05  0.2094570E+04  0.7818609E-02  0.8563639E-01
       -2   -1    0    0    0  501  0.00000000000E+00  0.00000000000E+00  0.62458708558E+03  0.62458708559E+03  0.25500000920E-02 0. -1.
        2   -1    0    0  501    0  0.00000000000E+00  0.00000000000E+00 -0.17560494928E+04  0.17560494928E+04  0.25500000920E-02 0.  1.
    10030    2    1    2    0    0  0.00000000000E+00  0.00000000000E+00 -0.11314624072E+04  0.23806365784E+04  0.20945699653E+04 0.  0.
        2    1    3    3  502    0  0.33893608266E+03 -0.25928962330E+02 -0.16916040919E+04  0.17254200599E+04  0.25500000920E-02 0.  1.
       -2    1    3    3    0  502 -0.33893608266E+03  0.25928962330E+02  0.56014168469E+03  0.65521651852E+03  0.25500000920E-02 0. -1.
</event>
<event>
 5   0  0.1344501E-05  0.2098279E+04  0.7818609E-02  0.8562002E-01
        2   -1    0    0  501    0  0.00000000000E+00  0.00000000000E+00  0.87984918479E+03  0.87984918479E+03  0.25500000920E-02 0. -1.
       -2   -1    0    0    0  501  0.00000000000E+00  0.00000000000E+00 -0.12510028251E+04  0.12510028251E+04  0.25500000920E-02 0.  1.
    10030    2    1    2    0    0  0.00000000000E+00  0.00000000000E+00 -0.37115364029E+03  0.21308520099E+04  0.20982791195E+04 0.  0.
        3    1    3    3  502    0 -0.42772790376E+03  0.45397794316E+03  0.67111030745E+03  0.91620750242E+03  0.10100000352E+00 0. -1.
       -3    1    3    3    0  502  0.42772790376E+03 -0.45397794316E+03 -0.10422639477E+04  0.12146445075E+04  0.10100000352E+00 0.  1.
</event>
<event>
 5   0  0.5009125E-06  0.2127315E+04  0.7818609E-02  0.8549306E-01
       -3   -1    0    0    0  501  0.00000000000E+00  0.00000000000E+00  0.10174131278E+04  0.10174131328E+04  0.10100000352E+00 0. -1.
        3   -1    0    0  501    0  0.00000000000E+00  0.00000000000E+00 -0.11120036449E+04  0.11120036495E+04  0.10100000352E+00 0.  1.
    10030    2    1    2    0    0  0.00000000000E+00  0.00000000000E+00 -0.94590517107E+02  0.21294167823E+04  0.21273148491E+04 0.  0.
        4    1    3    3  502    0  0.68981495603E+03  0.79413543202E+02  0.75923923544E+03  0.10288814382E+04  0.12699999809E+01 0. -1.
       -4    1    3    3    0  502 -0.68981495603E+03 -0.79413543202E+02 -0.85382975255E+03  0.11005353441E+04  0.12699999809E+01 0.  1.
</event>
<event>
 5   0  0.5009125E-06  0.2095345E+04  0.7818609E-02  0.8563297E-01
       -3   -1    0    0    0  501  0.00000000000E+00  0.00000000000E+00  0.24516427749E+04  0.24516427770E+04  0.10100000352E+00 0. -1.
        3   -1    0    0  501    0  0.00000000000E+00  0.00000000000E+00 -0.44770682740E+03  0.44770683879E+03  0.10100000352E+00 0.  1.
    10030    2    1    2    0    0  0.00000000000E+00  0.00000000000E+00  0.20039359475E+04  0.28993496158E+04  0.20953445809E+04 0.  0.
        4    1    3    3  502    0  0.91755520425E+03 -0.48715025414E+03  0.81430966947E+03  0.13199715049E+04  0.12699999809E+01 0.  1.
       -4    1    3    3    0  502 -0.91755520425E+03  0.48715025414E+03  0.11896262781E+04  0.15793781109E+04  0.12699999809E+01 0. -1.
</event>
<event>
 5   0  0.6589193E-06  0.2100717E+04  0.7818609E-02  0.8560928E-01
        1   -1    0    0  501    0  0.00000000000E+00  0.00000000000E+00  0.11704839691E+04  0.11704839691E+04  0.50400001928E-02 0. -1.
       -1   -1    0    0    0  501  0.00000000000E+00  0.00000000000E+00 -0.94256126973E+03  0.94256126974E+03  0.50400001928E-02 0.  1.
    10030    2    1    2    0    0  0.00000000000E+00  0.00000000000E+00  0.22792269933E+03  0.21130452388E+04  0.21007168834E+04 0.  0.
        3    1    3    3  502    0  0.67908990745E+03 -0.53358270247E+02  0.91817999347E+03  0.11432693112E+04  0.10100000352E+00 0. -1.
       -3    1    3    3    0  502 -0.67908990745E+03  0.53358270247E+02 -0.69025729414E+03  0.96977592758E+03  0.10100000352E+00 0.  1.
</event>
<event>
 5   0  0.1390735E-05  0.2101033E+04  0.7818609E-02  0.8560789E-01
       -2   -1    0    0    0  501  0.00000000000E+00  0.00000000000E+00  0.11359808594E+04  0.11359808594E+04  0.25500000920E-02 0.  1.
        2   -1    0    0  501    0  0.00000000000E+00  0.00000000000E+00 -0.97148161598E+03  0.97148161598E+03  0.25500000920E-02 0. -1.
    10030    2    1    2    0    0  0.00000000000E+00  0.00000000000E+00  0.16449924344E+03  0.21074624754E+04  0.21010326233E+04 0.  0.
        5    1    3    3  502    0  0.41180137435E+03 -0.92298063592E+03 -0.20513863697E+03  0.10312989754E+04  0.46999998093E+01 0.  1.
       -5    1    3    3    0  502 -0.41180137435E+03  0.92298063592E+03  0.36963788041E+03  0.10761635000E+04  0.46999998093E+01 0. -1.
</event>
<event>
 5   0  0.6238363E-06  0.2100588E+04  0.7818609E-02  0.8560985E-01
        1   -1    0    0  501    0  0.00000000000E+00  0.00000000000E+00  0.88467580629E+03  0.88467580630E+03  0.50400001928E-02 0. -1.
       -1   -1    0    0    0  501  0.00000000000E+00  0.00000000000E+00 -0.12469167312E+04  0.12469167312E+04  0.50400001928E-02 0.  1.
    10030    2    1    2    0    0  0.00000000000E+00  0.00000000000E+00 -0.36224092494E+03  0.21315925375E+04  0.21005875984E+04 0.  0.
        4    1    3    3  502    0 -0.26749146914E+03  0.86683546160E+03 -0.71823449118E+03  0.11570729453E+04  0.12699999809E+01 0.  1.
       -4    1    3    3    0  502  0.26749146914E+03 -0.86683546160E+03  0.35599356624E+03  0.97451959223E+03  0.12699999809E+01 0. -1.
</event>
<event>
 5   0  0.1395356E-05  0.2097380E+04  0.7818609E-02  0.8562398E-01
        2   -1    0    0  501    0  0.00000000000E+00  0.00000000000E+00  0.69686112181E+03  0.69686112181E+03  0.25500000920E-02 0. -1.
       -2   -1    0    0    0  501  0.00000000000E+00  0.00000000000E+00 -0.15781493541E+04  0.15781493541E+04  0.25500000920E-02 0.  1.
    10030    2    1    2    0    0  0.00000000000E+00  0.00000000000E+00 -0.88128823226E+03  0.22750104759E+04  0.20973802033E+04 0.  0.
        1    1    3    3  502    0 -0.56304349579E+02  0.96557906945E+03 -0.88022906010E+03  0.13077906245E+04  0.50400001928E-02 0.  1.
       -1    1    3    3    0  502  0.56304349579E+02 -0.96557906945E+03 -0.10591721570E+01  0.96721985143E+03  0.50400001928E-02 0. -1.
</event>
<event>
 5   0  0.1398469E-05  0.2099277E+04  0.7818609E-02  0.8561562E-01
        2   -1    0    0  501    0  0.00000000000E+00  0.00000000000E+00  0.95749283427E+03  0.95749283428E+03  0.25500000920E-02 0.  1.
       -2   -1    0    0    0  501  0.00000000000E+00  0.00000000000E+00 -0.11506516098E+04  0.11506516098E+04  0.25500000920E-02 0. -1.
    10030    2    1    2    0    0  0.00000000000E+00  0.00000000000E+00 -0.19315877556E+03  0.21081444441E+04  0.20992767051E+04 0.  0.
        2    1    3    3  502    0 -0.10218375638E+04  0.23947274819E+03 -0.11218424288E+03  0.10555020172E+04  0.25500000920E-02 0. -1.
       -2    1    3    3    0  502  0.10218375638E+04 -0.23947274819E+03 -0.80974532680E+02  0.10526424269E+04  0.25500000920E-02 0.  1.
</event>
<event>
 5   0  0.6917078E-06  0.2112354E+04  0.7818609E-02  0.8555821E-01
        1   -1    0    0  501    0  0.00000000000E+00  0.00000000000E+00  0.99165264924E+03  0.99165264925E+03  0.50400001928E-02 0.  1.
       -1   -1    0    0    0  501  0.00000000000E+00  0.00000000000E+00 -0.11249001128E+04  0.11249001128E+04  0.50400001928E-02 0. -1.
    10030    2    1    2    0    0  0.00000000000E+00  0.00000000000E+00 -0.13324746357E+03  0.21165527621E+04  0.21123543046E+04 0.  0.
        5    1    3    3  502    0 -0.99548950866E+03  0.35224338604E+03 -0.86994465844E+02  0.10595588195E+04  0.46999998093E+01 0. -1.
       -5    1    3    3    0  502  0.99548950866E+03 -0.35224338604E+03 -0.46252997723E+02  0.10569939426E+04  0.46999998093E+01 0.  1.
</event>
<event>
 5   0  0.1441136E-05  0.2099276E+04  0.7818609E-02  0.8561562E-01
       -2   -1    0    0    0  501  0.00000000000E+00  0.00000000000E+00  0.11419932647E+04  0.11419932647E+04  0.25500000920E-02 0. -1.
        2   -1    0    0  501    0  0.00000000000E+00  0.00000000000E+00 -0.96475148904E+03  0.96475148904E+03  0.25500000920E-02 0.  1.
    10030    2    1    2    0    0  0.00000000000E+00  0.00000000000E+00  0.17724177568E+03  0.21067447538E+04  0.20992757824E+04 0.  0.
        4    1    3    3  502    0 -0.48980155532E+03  0.39668896656E+03 -0.75369268189E+03  0.98250800069E+03  0.12699999809E+01 0.  1.
       -4    1    3    3    0  502  0.48980155532E+03 -0.39668896656E+03  0.93093445757E+03  0.11242367531E+04  0.12699999809E+01 0. -1.
</event>
<event>
 5   0  0.1390735E-05  0.2101333E+04  0.7818609E-02  0.8560657E-01
        2   -1    0    0  501    0  0.00000000000E+00  0.00000000000E+00  0.12550570210E+04  0.12550570210E+04  0.25500000920E-02 0.  1.
       -2   -1    0    0    0  501  0.00000000000E+00  0.00000000000E+00 -0.87956137513E+03  0.87956137513E+03  0.25500000920E-02 0. -1.
    10030    2    1    2    0    0  0.00000000000E+00  0.00000000000E+00  0.37549564591E+03  0.21346183962E+04  0.21013326051E+04 0.  0.
        5    1    3    3  502    0 -0.71640428130E+03 -0.38519086159E+03  0.86331638685E+03  0.11861468577E+04  0.46999998093E+01 0.  1.
       -5    1    3    3    0  502  0.71640428130E+03  0.38519086159E+03 -0.48782074093E+03  0.94847153853E+03  0.46999998093E+01 0. -1.
</event>
<event>
 5   0  0.6238363E-06  0.2101075E+04  0.7818609E-02  0.8560770E-01
       -1   -1    0    0    0  501  0.00000000000E+00  0.00000000000E+00  0.56319597238E+03  0.56319597241E+03  0.50400001928E-02 0. -1.
        1   -1    0    0  501    0  0.00000000000E+00  0.00000000000E+00 -0.19595820725E+04  0.19595820725E+04  0.50400001928E-02 0.  1.
    10030    2    1    2    0    0  0.00000000000E+00  0.00000000000E+00 -0.13963861001E+04  0.25227780449E+04  0.21010747067E+04 0.  0.
        4    1    3    3  502    0  0.35413932193E+03 -0.96579433380E+03 -0.95418273828E+03  0.14030822020E+04  0.12699999809E+01 0. -1.
       -4    1    3    3    0  502 -0.35413932193E+03  0.96579433380E+03 -0.44220336181E+03  0.11196958429E+04  0.12699999809E+01 0.  1.
</event>
<event>
 5   0  0.1344501E-05  0.2103946E+04  0.7818609E-02  0.8559507E-01
       -2   -1    0    0    0  501  0.00000000000E+00  0.00000000000E+00  0.91453594358E+03  0.91453594358E+03  0.25500000920E-02 0. -1.
        2   -1    0    0  501    0  0.00000000000E+00  0.00000000000E+00 -0.12100642517E+04  0.12100642517E+04  0.25500000920E-02 0.  1.
    10030    2    1    2    0    0  0.00000000000E+00  0.00000000000E+00 -0.29552830808E+03  0.21246001952E+04  0.21039460565E+04 0.  0.
        3    1    3    3  502    0 -0.10131913971E+04 -0.23854537313E+03  0.60019416774E+01  0.10409114927E+04  0.10100000352E+00 0. -1.
       -3    1    3    3    0  502  0.10131913971E+04  0.23854537313E+03 -0.30153024975E+03  0.10836887025E+04  0.10100000352E+00 0.  1.
</event>
<event>
 5   0  0.6917078E-06  0.2123277E+04  0.7818609E-02  0.8551058E-01
       -1   -1    0    0    0  501  0.00000000000E+00  0.00000000000E+00  0.80867792600E+03  0.80867792602E+03  0.50400001928E-02 0. -1.
        1   -1    0    0  501    0  0.00000000000E+00  0.00000000000E+00 -0.13937275771E+04  0.13937275771E+04  0.50400001928E-02 0.  1.
    10030    2    1    2    0    0  0.00000000000E+00  0.00000000000E+00 -0.58504965108E+03  0.22024055031E+04  0.21232773973E+04 0.  0.
        5    1    3    3  502    0  0.34946531535E+02  0.90483657142E+03 -0.86734684138E+03  0.12538991643E+04  0.46999998093E+01 0.  1.
       -5    1    3    3    0  502 -0.34946531535E+02 -0.90483657142E+03  0.28229719031E+03  0.94850633878E+03  0.46999998093E+01 0. -1.
</event>
<event>
 5   0  0.6589193E-06  0.2101231E+04  0.7818609E-02  0.8560701E-01
       -1   -1    0    0    0  501  0.00000000000E+00  0.00000000000E+00  0.11577994493E+04  0.11577994494E+04  0.50400001928E-02 0. -1.
        1   -1    0    0  501    0  0.00000000000E+00  0.00000000000E+00 -0.95335432204E+03  0.95335432205E+03  0.50400001928E-02 0.  1.
    10030    2    1    2    0    0  0.00000000000E+00  0.00000000000E+00  0.20444512731E+03  0.21111537714E+04  0.21012311716E+04 0.  0.
        3    1    3    3  502    0 -0.10174684879E+04 -0.26104265993E+03  0.12250961287E+03  0.10575414931E+04  0.10100000352E+00 0.  1.
       -3    1    3    3    0  502  0.10174684879E+04  0.26104265993E+03  0.81935514443E+02  0.10536122783E+04  0.10100000352E+00 0. -1.
</event>
<event>
 5   0  0.6589193E-06  0.2103477E+04  0.7818609E-02  0.8559713E-01
        1   -1    0    0  501    0  0.00000000000E+00  0.00000000000E+00  0.10383764156E+04  0.10383764156E+04  0.50400001928E-02 0. -1.
       -1   -1    0    0    0  501  0.00000000000E+00  0.00000000000E+00 -0.10652728431E+04  0.10652728431E+04  0.50400001928E-02 0.  1.
    10030    2    1    2    0    0  0.00000000000E+00  0.00000000000E+00 -0.26896427527E+02  0.21036492587E+04  0.21034773081E+04 0.  0.
        3    1    3    3  502    0  0.43124788989E+03 -0.65153318944E+03  0.69065759528E+03  0.10428222109E+04  0.10100000352E+00 0. -1.
       -3    1    3    3    0  502 -0.43124788989E+03  0.65153318944E+03 -0.71755402280E+03  0.10608270478E+04  0.10100000352E+00 0.  1.
</event>
<event>
 5   0  0.6238363E-06  0.2092138E+04  0.7818609E-02  0.8564714E-01
        1   -1    0    0  501    0  0.00000000000E+00  0.00000000000E+00  0.17713565187E+04  0.17713565187E+04  0.50400001928E-02 0.  1.
       -1   -1    0    0    0  501  0.00000000000E+00  0.00000000000E+00 -0.61775300447E+03  0.61775300449E+03  0.50400001928E-02 0. -1.
    10030    2    1    2    0    0  0.00000000000E+00  0.00000000000E+00  0.11536035143E+04  0.23891095232E+04  0.20921384385E+04 0.  0.
        4    1    3    3  502    0  0.19521712188E+03 -0.41845382164E+02  0.17493967020E+04  0.17607530192E+04  0.12699999809E+01 0.  1.
       -4    1    3    3    0  502 -0.19521712188E+03  0.41845382164E+02 -0.59579318776E+03  0.62835650403E+03  0.12699999809E+01 0. -1.
</event>
<event>
 5   0  0.1344501E-05  0.2098531E+04  0.7818609E-02  0.8561891E-01
        2   -1    0    0  501    0  0.00000000000E+00  0.00000000000E+00  0.26736967631E+04  0.26736967631E+04  0.25500000920E-02 0. -1.
       -2   -1    0    0    0  501  0.00000000000E+00  0.00000000000E+00 -0.41177385630E+03  0.41177385631E+03  0.25500000920E-02 0.  1.
    10030    2    1    2    0    0  0.00000000000E+00  0.00000000000E+00  0.22619229068E+04  0.30854706194E+04  0.20985313214E+04 0.  0.
        3    1    3    3  502    0 -0.60548137414E+03  0.84208249566E+03  0.13645855671E+04  0.17140024516E+04  0.10100000352E+00 0. -1.
       -3    1    3    3    0  502  0.60548137414E+03 -0.84208249566E+03  0.89733733968E+03  0.13714681678E+04  0.10100000352E+00 0.  1.
</event>
<event>
 5   0  0.6917078E-06  0.2101340E+04  0.7818609E-02  0.8560653E-01
        1   -1    0    0  501    0  0.00000000000E+00  0.00000000000E+00  0.21505147367E+04  0.21505147367E+04  0.50400001928E-02 0. -1.
       -1   -1    0    0    0  501  0.00000000000E+00  0.00000000000E+00 -0.51332230004E+03  0.51332230007E+03  0.50400001928E-02 0.  1.
    10030    2    1    2    0    0  0.00000000000E+00  0.00000000000E+00  0.16371924366E+04  0.26638370368E+04  0.21013397355E+04 0.  0.
        5    1    3    3  502    0  0.14762299352E+03 -0.10169582100E+04  0.10960094307E+04  0.15024164906E+04  0.46999998093E+01 0. -1.
       -5    1    3    3    0  502 -0.14762299352E+03  0.10169582100E+04  0.54118300592E+03  0.11614205461E+04  0.46999998093E+01 0.  1.
</event>
<event>
 5   0  0.1344501E-05  0.2101381E+04  0.7818609E-02  0.8560635E-01
        2   -1    0    0  501    0  0.00000000000E+00  0.00000000000E+00  0.16504844972E+04  0.16504844972E+04  0.25500000920E-02 0. -1.
       -2   -1    0    0    0  501  0.00000000000E+00  0.00000000000E+00 -0.66886420980E+03  0.66886420981E+03  0.25500000920E-02 0.  1.
    10030    2    1    2    0    0  0.00000000000E+00  0.00000000000E+00  0.98162028741E+03  0.23193487070E+04  0.21013805072E+04 0.  0.
        3    1    3    3  502    0  0.32935099989E+03 -0.93468501644E+03  0.87607515508E+03  0.13227304520E+04  0.10100000352E+00 0. -1.
       -3    1    3    3    0  502 -0.32935099989E+03  0.93468501644E+03  0.10554513232E+03  0.99661825502E+03  0.10100000352E+00 0.  1.
</event>
<event>
 5   0  0.1390735E-05  0.2104210E+04  0.7818609E-02  0.8559391E-01
        2   -1    0    0  501    0  0.00000000000E+00  0.00000000000E+00  0.75234305052E+03  0.75234305052E+03  0.25500000920E-02 0. -1.
       -2   -1    0    0    0  501  0.00000000000E+00  0.00000000000E+00 -0.14713036772E+04  0.14713036772E+04  0.25500000920E-02 0.  1.
    10030    2    1    2    0    0  0.00000000000E+00  0.00000000000E+00 -0.71896062666E+03  0.22236467277E+04  0.21042101575E+04 0.  0.
        5    1    3    3  502    0  0.54765845302E+03  0.58433267266E+03 -0.10805045125E+04  0.13449485287E+04  0.46999998093E+01 0.  1.
       -5    1    3    3    0  502 -0.54765845302E+03 -0.58433267266E+03  0.36154388581E+03  0.87869819896E+03  0.46999998093E+01 0. -1.
</event>
<event>
 5   0  0.6599245E-06  0.2099790E+04  0.7818609E-02  0.8561336E-01
        1   -1    0    0  501    0  0.00000000000E+00  0.00000000000E+00  0.11004934005E+04  0.11004934005E+04  0.50400001928E-02 0.  1.
       -1   -1    0    0    0  501  0.00000000000E+00  0.00000000000E+00 -0.10016229130E+04  0.10016229130E+04  0.50400001928E-02 0. -1.
    10030    2    1    2    0    0  0.00000000000E+00  0.00000000000E+00  0.98870487511E+02  0.21021163134E+04  0.20997898995E+04 0.  0.
        2    1    3    3  502    0 -0.42380831547E+03  0.83902881154E+03 -0.41873292984E+03  0.10290384353E+04  0.25500000920E-02 0. -1.
       -2    1    3    3    0  502  0.42380831547E+03 -0.83902881154E+03  0.51760341735E+03  0.10730778781E+04  0.25500000920E-02 0.  1.
</event>
<event>
 5   0  0.6238363E-06  0.2097022E+04  0.7818609E-02  0.8562557E-01
       -1   -1    0    0    0  501  0.00000000000E+00  0.00000000000E+00  0.84441286007E+03  0.84441286009E+03  0.50400001928E-02 0.  1.
        1   -1    0    0  501    0  0.00000000000E+00  0.00000000000E+00 -0.13019399523E+04  0.13019399523E+04  0.50400001928E-02 0. -1.
    10030    2    1    2    0    0  0.00000000000E+00  0.00000000000E+00 -0.45752709219E+03  0.21463528124E+04  0.20970215438E+04 0.  0.
        4    1    3    3  502    0 -0.21965140080E+03  0.64133458411E+03 -0.10474656696E+04  0.12476949661E+04  0.12699999809E+01 0. -1.
       -4    1    3    3    0  502  0.21965140080E+03 -0.64133458411E+03  0.58993857737E+03  0.89865784625E+03  0.12699999809E+01 0.  1.
</event>
<event>
 5   0  0.1398469E-05  0.2099657E+04  0.7818609E-02  0.8561395E-01
        2   -1    0    0  501    0  0.00000000000E+00  0.00000000000E+00  0.16368913514E+04  0.16368913514E+04  0.25500000920E-02 0.  1.
       -2   -1    0    0    0  501  0.00000000000E+00  0.00000000000E+00 -0.67331272476E+03  0.67331272476E+03  0.25500000920E-02 0. -1.
    10030    2    1    2    0    0  0.00000000000E+00  0.00000000000E+00  0.96357862666E+03  0.23102040762E+04  0.20996569015E+04 0.  0.
        2    1    3    3  502    0 -0.57584766331E+03  0.24327235820E+03 -0.44620659697E+03  0.76803795401E+03  0.25500000920E-02 0. -1.
       -2    1    3    3    0  502  0.57584766331E+03 -0.24327235820E+03  0.14097852236E+04  0.15421661222E+04  0.25500000920E-02 0.  1.
</event>
<event>
 5   0  0.1344501E-05  0.2103713E+04  0.7818609E-02  0.8559610E-01
        2   -1    0    0  501    0  0.00000000000E+00  0.00000000000E+00  0.15932271573E+04  0.15932271573E+04  0.25500000920E-02 0.  1.
       -2   -1    0    0    0  501  0.00000000000E+00  0.00000000000E+00 -0.69444067350E+03  0.69444067351E+03  0.25500000920E-02 0. -1.
    10030    2    1    2    0    0  0.00000000000E+00  0.00000000000E+00  0.89878648381E+03  0.22876678308E+04  0.21037126612E+04 0.  0.
        3    1    3    3  502    0 -0.97877473940E+03  0.38190141589E+03  0.50433923617E+03  0.11654212789E+04  0.10100000352E+00 0.  1.
       -3    1    3    3    0  502  0.97877473940E+03 -0.38190141589E+03  0.39444724764E+03  0.11222465519E+04  0.10100000352E+00 0. -1.
</event>
<event>
 5   0  0.6283269E-06  0.2099541E+04  0.7818609E-02  0.8561445E-01
       -1   -1    0    0    0  501  0.00000000000E+00  0.00000000000E+00  0.15271749317E+04  0.15271749317E+04  0.50400001928E-02 0.  1.
        1   -1    0    0  501    0  0.00000000000E+00  0.00000000000E+00 -0.72160592380E+03  0.72160592382E+03  0.50400001928E-02 0. -1.
    10030    2    1    2    0    0  0.00000000000E+00  0.00000000000E+00  0.80556900788E+03  0.22487808555E+04  0.20995413570E+04 0.  0.
        1    1    3    3  502    0  0.93892122996E+03  0.23421076089E+03  0.83863816652E+03  0.12805240064E+04  0.50400001928E-02 0.  1.
       -1    1    3    3    0  502 -0.93892122996E+03 -0.23421076089E+03 -0.33069158635E+02  0.96825684911E+03  0.50400001928E-02 0. -1.
</event>
<event>
 5   0  0.1390735E-05  0.2087893E+04  0.7818609E-02  0.8566595E-01
       -2   -1    0    0    0  501  0.00000000000E+00  0.00000000000E+00  0.63095392497E+03  0.63095392498E+03  0.25500000920E-02 0. -1.
        2   -1    0    0  501    0  0.00000000000E+00  0.00000000000E+00 -0.17272642536E+04  0.17272642536E+04  0.25500000920E-02 0.  1.
    10030    2    1    2    0    0  0.00000000000E+00  0.00000000000E+00 -0.10963103286E+04  0.23582181786E+04  0.20878928711E+04 0.  0.
        5    1    3    3  502    0  0.76045828397E+03  0.54144350499E+03 -0.10759274744E+04  0.14244647735E+04  0.46999998093E+01 0.  1.
       -5    1    3    3    0  502 -0.76045828397E+03 -0.54144350499E+03 -0.20382854208E+02  0.93375340508E+03  0.46999998093E+01 0. -1.
</event>
<event>
 5   0  0.6238363E-06  0.2100309E+04  0.7818609E-02  0.8561107E-01
       -1   -1    0    0    0  501  0.00000000000E+00  0.00000000000E+00  0.13306970515E+04  0.13306970515E+04  0.50400001928E-02 0. -1.
        1   -1    0    0  501    0  0.00000000000E+00  0.00000000000E+00 -0.82875677441E+03  0.82875677442E+03  0.50400001928E-02 0.  1.
    10030    2    1    2    0    0  0.00000000000E+00  0.00000000000E+00  0.50194027706E+03  0.21594538259E+04  0.21003087355E+04 0.  0.
        4    1    3    3  502    0  0.10251241106E+04 -0.16796543664E+03  0.40935604893E+03  0.11165419014E+04  0.12699999809E+01 0. -1.
       -4    1    3    3    0  502 -0.10251241106E+04  0.16796543664E+03  0.92584228127E+02  0.10429119245E+04  0.12699999809E+01 0.  1.
</event>
<event>
 5   0  0.6917078E-06  0.2090787E+04  0.7818609E-02  0.8565312E-01
       -1   -1    0    0    0  501  0.00000000000E+00  0.00000000000E+00  0.72502112106E+03  0.72502112107E+03  0.50400001928E-02 0.  1.
        1   -1    0    0  501    0  0.00000000000E+00  0.00000000000E+00 -0.15073327259E+04  0.15073327259E+04  0.50400001928E-02 0. -1.
    10030    2    1    2    0    0  0.00000000000E+00  0.00000000000E+00 -0.78231160487E+03  0.22323538470E+04  0.20907874715E+04 0.  0.
        5    1    3    3  502    0 -0.60776162208E+03 -0.55933355839E+03  0.29301010752E+03  0.87641612943E+03  0.46999998093E+01 0.  1.
       -5    1    3    3    0  502  0.60776162208E+03  0.55933355839E+03 -0.10753217124E+04  0.13559377176E+04  0.46999998093E+01 0. -1.
</event>
<event>
 5   0  0.1398469E-05  0.2102972E+04  0.7818609E-02  0.8559935E-01
       -2   -1    0    0    0  501  0.00000000000E+00  0.00000000000E+00  0.14397422924E+04  0.14397422924E+04  0.25500000920E-02 0.  1.
        2   -1    0    0  501    0  0.00000000000E+00  0.00000000000E+00 -0.76793098565E+03  0.76793098565E+03  0.25500000920E-02 0. -1.
    10030    2    1    2    0    0  0.00000000000E+00  0.00000000000E+00  0.67181130671E+03  0.22076732780E+04  0.21029719139E+04 0.  0.
        2    1    3    3  502    0  0.25878797331E+02 -0.45270567523E+03 -0.66001590864E+03  0.80077034174E+03  0.25500000920E-02 0. -1.
       -2    1    3    3    0  502 -0.25878797331E+02  0.45270567523E+03  0.13318272154E+04  0.14069029363E+04  0.25500000920E-02 0.  1.
</event>
<event>
 5   0  0.6283269E-06  0.2100207E+04  0.7818609E-02  0.8561152E-01
       -1   -1    0    0    0  501  0.00000000000E+00  0.00000000000E+00  0.12754061371E+04  0.12754061371E+04  0.50400001928E-02 0. -1.
        1   -1    0    0  501    0  0.00000000000E+00  0.00000000000E+00 -0.86460064153E+03  0.86460064155E+03  0.50400001928E-02 0.  1.
    10030    2    1    2    0    0  0.00000000000E+00  0.00000000000E+00  0.41080549560E+03  0.21400067787E+04  0.21002066226E+04 0.  0.
        1    1    3    3  502    0  0.60683960065E+03 -0.85182758079E+03  0.10953235100E+03  0.10515996692E+04  0.50400001928E-02 0.  1.
       -1    1    3    3    0  502 -0.60683960065E+03  0.85182758079E+03  0.30127314460E+03  0.10884071095E+04  0.50400001928E-02 0. -1.
</event>
<event>
 5   0  0.6599245E-06  0.2092722E+04  0.7818609E-02  0.8564456E-01
        1   -1    0    0  501    0  0.00000000000E+00  0.00000000000E+00  0.10840050283E+04  0.10840050283E+04  0.50400001928E-02 0.  1.
       -1   -1    0    0    0  501  0.00000000000E+00  0.00000000000E+00 -0.10100240933E+04  0.10100240933E+04  0.50400001928E-02 0. -1.
    10030    2    1    2    0    0  0.00000000000E+00  0.00000000000E+00  0.73980935045E+02  0.20940291217E+04  0.20927218601E+04 0.  0.
        2    1    3    3  502    0 -0.63861000105E+03  0.79635545840E+03 -0.19308020676E+03  0.10388862863E+04  0.25500000920E-02 0. -1.
       -2    1    3    3    0  502  0.63861000105E+03 -0.79635545840E+03  0.26706114180E+03  0.10551428354E+04  0.25500000920E-02 0.  1.
</event>
<event>
 5   0  0.1390735E-05  0.2099766E+04  0.7818609E-02  0.8561346E-01
        2   -1    0    0  501    0  0.00000000000E+00  0.00000000000E+00  0.66437883145E+03  0.66437883145E+03  0.25500000920E-02 0. -1.
       -2   -1    0    0    0  501  0.00000000000E+00  0.00000000000E+00 -0.16590753351E+04  0.16590753351E+04  0.25500000920E-02 0.  1.
    10030    2    1    2    0    0  0.00000000000E+00  0.00000000000E+00 -0.99469650369E+03  0.23234541666E+04  0.20997662084E+04 0.  0.
        5    1    3    3  502    0  0.76824354441E+03  0.65647543733E+03 -0.81241659485E+03  0.12966113361E+04  0.46999998093E+01 0.  1.
       -5    1    3    3    0  502 -0.76824354441E+03 -0.65647543733E+03 -0.18227990884E+03  0.10268428305E+04  0.46999998093E+01 0. -1.
</event>
<event>
 5   0  0.1441136E-05  0.2107221E+04  0.7818609E-02  0.8558069E-01
       -2   -1    0    0    0  501  0.00000000000E+00  0.00000000000E+00  0.86952041411E+03  0.86952041411E+03  0.25500000920E-02 0.  1.
        2   -1    0    0  501    0  0.00000000000E+00  0.00000000000E+00 -0.12766755329E+04  0.12766755329E+04  0.25500000920E-02 0. -1.
    10030    2    1    2    0    0  0.00000000000E+00  0.00000000000E+00 -0.40715511882E+03  0.21461959470E+04  0.21072213344E+04 0.  0.
        4    1    3    3  502    0 -0.32641726074E+03 -0.22696639013E+03  0.79019032099E+03  0.88457013664E+03  0.12699999809E+01 0.  1.
       -4    1    3    3    0  502  0.32641726074E+03  0.22696639013E+03 -0.11973454398E+04  0.12616258104E+04  0.12699999809E+01 0. -1.
</event>
<event>
 5   0  0.6599245E-06  0.2113907E+04  0.7818609E-02  0.8555142E-01
        1   -1    0    0  501    0  0.00000000000E+00  0.00000000000E+00  0.11630673869E+04  0.11630673869E+04  0.50400001928E-02 0.  1.
       -1   -1    0    0    0  501  0.00000000000E+00  0.00000000000E+00 -0.96052068805E+03  0.96052068806E+03  0.50400001928E-02 0. -1.
    10030    2    1    2    0    0  0.00000000000E+00  0.00000000000E+00  0.20254669887E+03  0.21235880750E+04  0.21139066079E+04 0.  0.
        2    1    3    3  502    0 -0.70701824502E+03 -0.78011621152E+03  0.19494300150E+03  0.10707281990E+04  0.25500000920E-02 0. -1.
       -2    1    3    3    0  502  0.70701824502E+03  0.78011621152E+03  0.76036973705E+01  0.10528598760E+04  0.25500000920E-02 0.  1.
</event>
<event>
 5   0  0.6589193E-06  0.2100082E+04  0.7818609E-02  0.8561207E-01
       -1   -1    0    0    0  501  0.00000000000E+00  0.00000000000E+00  0.11001051452E+04  0.11001051452E+04  0.50400001928E-02 0.  1.
        1   -1    0    0  501    0  0.00000000000E+00  0.00000000000E+00 -0.10022552750E+04  0.10022552750E+04  0.50400001928E-02 0. -1.
    10030    2    1    2    0    0  0.00000000000E+00  0.00000000000E+00  0.97849870221E+02  0.21023604203E+04  0.21000820793E+04 0.  0.
        3    1    3    3  502    0 -0.32194941208E+03  0.22006078785E+03 -0.92707275800E+03  0.10057544845E+04  0.10100000352E+00 0. -1.
       -3    1    3    3    0  502  0.32194941208E+03 -0.22006078785E+03  0.10249226282E+04  0.10966059358E+04  0.10100000352E+00 0.  1.
</event>
<event>
 5   0  0.6599245E-06  0.2110003E+04  0.7818609E-02  0.8556850E-01
        1   -1    0    0  501    0  0.00000000000E+00  0.00000000000E+00  0.10050016164E+04  0.10050016164E+04  0.50400001928E-02 0. -1.
       -1   -1    0    0    0  501  0.00000000000E+00  0.00000000000E+00 -0.11074884499E+04  0.11074884499E+04  0.50400001928E-02 0.  1.
    10030    2    1    2    0    0  0.00000000000E+00  0.00000000000E+00 -0.10248683347E+03  0.21124900663E+04  0.21100025424E+04 0.  0.
        2    1    3    3  502    0  0.42250480501E+03 -0.93779669788E+03  0.18367063604E+03  0.10448482470E+04  0.25500000920E-02 0.  1.
       -2    1    3    3    0  502 -0.42250480501E+03  0.93779669788E+03 -0.28615746950E+03  0.10676418192E+04  0.25500000920E-02 0. -1.
</event>
<event>
 5   0  0.1344501E-05  0.2106125E+04  0.7818609E-02  0.8558550E-01
       -2   -1    0    0    0  501  0.00000000000E+00  0.00000000000E+00  0.11942699249E+04  0.11942699249E+04  0.25500000920E-02 0. -1.
        2   -1    0    0  501    0  0.00000000000E+00  0.00000000000E+00 -0.92855068996E+03  0.92855068996E+03  0.25500000920E-02 0.  1.
    10030    2    1    2    0    0  0.00000000000E+00  0.00000000000E+00  0.26571923496E+03  0.21228206149E+04  0.21061245574E+04 0.  0.
        3    1    3    3  502    0  0.40602692975E+03  0.72994445287E+03 -0.51352239889E+03  0.98050091092E+03  0.10100000352E+00 0.  1.
       -3    1    3    3    0  502 -0.40602692975E+03 -0.72994445287E+03  0.77924163384E+03  0.11423197040E+04  0.10100000352E+00 0. -1.
</event>
<event>
 5   0  0.6917078E-06  0.2125162E+04  0.7818609E-02  0.8550240E-01
       -1   -1    0    0    0  501  0.00000000000E+00  0.00000000000E+00  0.10512856424E+04  0.10512856424E+04  0.50400001928E-02 0. -1.
        1   -1    0    0  501    0  0.00000000000E+00  0.00000000000E+00 -0.10739973362E+04  0.10739973362E+04  0.50400001928E-02 0.  1.
    10030    2    1    2    0    0  0.00000000000E+00  0.00000000000E+00 -0.22711693843E+02  0.21252829786E+04  0.21251616217E+04 0.  0.
        5    1    3    3  502    0  0.71834442556E+03 -0.62275644627E+03 -0.48594757307E+03  0.10677131819E+04  0.46999998093E+01 0.  1.
       -5    1    3    3    0  502 -0.71834442556E+03  0.62275644627E+03  0.46323587923E+03  0.10575697967E+04  0.46999998093E+01 0. -1.
</event>
<event>
 5   0  0.6238363E-06  0.2101374E+04  0.7818609E-02  0.8560638E-01
       -1   -1    0    0    0  501  0.00000000000E+00  0.00000000000E+00  0.49589731347E+03  0.49589731350E+03  0.50400001928E-02 0. -1.
        1   -1    0    0  501    0  0.00000000000E+00  0.00000000000E+00 -0.22261525300E+04  0.22261525300E+04  0.50400001928E-02 0.  1.
    10030    2    1    2    0    0  0.00000000000E+00  0.00000000000E+00 -0.17302552165E+04  0.27220498435E+04  0.21013738925E+04 0.  0.
        4    1    3    3  502    0 -0.62500302640E+03 -0.70083453447E+03 -0.14756613376E+04  0.17491071505E+04  0.12699999809E+01 0.  1.
       -4    1    3    3    0  502  0.62500302640E+03  0.70083453447E+03 -0.25459387886E+03  0.97294269295E+03  0.12699999809E+01 0. -1.
</event>
<event>
 5   0  0.6283269E-06  0.2104692E+04  0.7818609E-02  0.8559179E-01
       -1   -1    0    0    0  501  0.00000000000E+00  0.00000000000E+00  0.37537847737E+03  0.37537847741E+03  0.50400001928E-02 0.  1.
        1   -1    0    0  501    0  0.00000000000E+00  0.00000000000E+00 -0.29501744974E+04  0.29501744974E+04  0.50400001928E-02 0. -1.
    10030    2    1    2    0    0  0.00000000000E+00  0.00000000000E+00 -0.25747960200E+04  0.33255529748E+04  0.21046919118E+04 0.  0.
        1    1    3    3  502    0 -0.10240166953E+04 -0.22948655785E+03 -0.11634082123E+04  0.15667778850E+04  0.50400001928E-02 0.  1.
       -1    1    3    3    0  502  0.10240166953E+04  0.22948655785E+03 -0.14113878077E+04  0.17587750897E+04  0.50400001928E-02 0. -1.
</event>
<event>
 5   0  0.1395356E-05  0.2102862E+04  0.7818609E-02  0.8559984E-01
       -2   -1    0    0    0  501  0.00000000000E+00  0.00000000000E+00  0.20114643674E+04  0.20114643674E+04  0.25500000920E-02 0.  1.
        2   -1    0    0  501    0  0.00000000000E+00  0.00000000000E+00 -0.54960301003E+03  0.54960301004E+03  0.25500000920E-02 0. -1.
    10030    2    1    2    0    0  0.00000000000E+00  0.00000000000E+00  0.14618613574E+04  0.25610673774E+04  0.21028617367E+04 0.  0.
        1    1    3    3  502    0  0.91521834339E+03  0.44740236771E+02  0.10293944291E+03  0.92207528640E+03  0.50400001928E-02 0. -1.
       -1    1    3    3    0  502 -0.91521834339E+03 -0.44740236771E+02  0.13589219144E+04  0.16389920910E+04  0.50400001928E-02 0.  1.
</event>
<event>
 5   0  0.6283269E-06  0.2135060E+04  0.7818609E-02  0.8545955E-01
        1   -1    0    0  501    0  0.00000000000E+00  0.00000000000E+00  0.16243680883E+04  0.16243680883E+04  0.50400001928E-02 0. -1.
       -1   -1    0    0    0  501  0.00000000000E+00  0.00000000000E+00 -0.70157759758E+03  0.70157759760E+03  0.50400001928E-02 0.  1.
    10030    2    1    2    0    0  0.00000000000E+00  0.00000000000E+00  0.92279049068E+03  0.23259456859E+04  0.21350599626E+04 0.  0.
        1    1    3    3  502    0 -0.81477314091E+03  0.18930152763E+03  0.11839674361E+04  0.14496445182E+04  0.50400001928E-02 0. -1.
       -1    1    3    3    0  502  0.81477314091E+03 -0.18930152763E+03 -0.26117694543E+03  0.87630116761E+03  0.50400001928E-02 0.  1.
</event>
<event>
 5   0  0.1344501E-05  0.2102484E+04  0.7818609E-02  0.8560150E-01
        2   -1    0    0  501    0  0.00000000000E+00  0.00000000000E+00  0.65392386457E+03  0.65392386457E+03  0.25500000920E-02 0.  1.
       -2   -1    0    0    0  501  0.00000000000E+00  0.00000000000E+00 -0.16899677845E+04  0.16899677845E+04  0.25500000920E-02 0. -1.
    10030    2    1    2    0    0  0.00000000000E+00  0.00000000000E+00 -0.10360439200E+04  0.23438916491E+04  0.21024844967E+04 0.  0.
        3    1    3    3  502    0 -0.63778113185E+03  0.51361021221E+02  0.41183914263E+03  0.76092983662E+03  0.10100000352E+00 0.  1.
       -3    1    3    3    0  502  0.63778113185E+03 -0.51361021221E+02 -0.14478830626E+04  0.15829618125E+04  0.10100000352E+00 0. -1.
</event>
<event>
 5   0  0.1344501E-05  0.2101165E+04  0.7818609E-02  0.8560730E-01
       -2   -1    0    0    0  501  0.00000000000E+00  0.00000000000E+00  0.10116368690E+04  0.10116368690E+04  0.25500000920E-02 0.  1.
        2   -1    0    0  501    0  0.00000000000E+00  0.00000000000E+00 -0.10910271949E+04  0.10910271949E+04  0.25500000920E-02 0. -1.
    10030    2    1    2    0    0  0.00000000000E+00  0.00000000000E+00 -0.79390325961E+02  0.21026640639E+04  0.21011647584E+04 0.  0.
        3    1    3    3  502    0 -0.74012428415E+03  0.71117547382E+03  0.18444862359E+03  0.10428690309E+04  0.10100000352E+00 0.  1.
       -3    1    3    3    0  502  0.74012428415E+03 -0.71117547382E+03 -0.26383894956E+03  0.10597950330E+04  0.10100000352E+00 0. -1.
</event>
<event>
 5   0  0.1441136E-05  0.2104982E+04  0.7818609E-02  0.8559052E-01
        2   -1    0    0  501    0  0.00000000000E+00  0.00000000000E+00  0.16020836172E+04  0.16020836172E+04  0.25500000920E-02 0.  1.
       -2   -1    0    0    0  501  0.00000000000E+00  0.00000000000E+00 -0.69143560981E+03  0.69143560982E+03  0.25500000920E-02 0. -1.
    10030    2    1    2    0    0  0.00000000000E+00  0.00000000000E+00  0.91064800739E+03  0.22935192270E+04  0.21049823399E+04 0.  0.
        4    1    3    3  502    0 -0.46557899093E+03  0.68321862267E+03  0.11649530120E+04  0.14285197291E+04  0.12699999809E+01 0.  1.
       -4    1    3    3    0  502  0.46557899093E+03 -0.68321862267E+03 -0.25430500466E+03  0.86499949795E+03  0.12699999809E+01 0. -1.
</event>
<event>
 5   0  0.6589193E-06  0.2102331E+04  0.7818609E-02  0.8560217E-01
        1   -1    0    0  501    0  0.00000000000E+00  0.00000000000E+00  0.11839329834E+04  0.11839329835E+04  0.50400001928E-02 0.  1.
       -1   -1    0    0    0  501  0.00000000000E+00  0.00000000000E+00 -0.93328693615E+03  0.93328693616E+03  0.50400001928E-02 0. -1.
    10030    2    1    2    0    0  0.00000000000E+00  0.00000000000E+00  0.25064604729E+03  0.21172199196E+04  0.21023312648E+04 0.  0.
        3    1    3    3  502    0 -0.49894357606E+03 -0.91465268216E+03 -0.15001320767E+02  0.10419977308E+04  0.10100000352E+00 0.  1.
       -3    1    3    3    0  502  0.49894357606E+03  0.91465268216E+03  0.26564736806E+03  0.10752221889E+04  0.10100000352E+00 0. -1.
</event>
<event>
 5   0  0.1441136E-05  0.2097371E+04  0.7818609E-02  0.8562402E-01
       -2   -1    0    0    0  501  0.00000000000E+00  0.00000000000E+00  0.55638993155E+03  0.55638993155E+03  0.25500000920E-02 0. -1.
        2   -1    0    0  501    0  0.00000000000E+00  0.00000000000E+00 -0.19765656757E+04  0.19765656757E+04  0.25500000920E-02 0.  1.
    10030    2    1    2    0    0  0.00000000000E+00  0.00000000000E+00 -0.14201757442E+04  0.25329556073E+04  0.20973709648E+04 0.  0.
        4    1    3    3  502    0  0.63706694108E+02  0.10446639378E+04 -0.78981626188E+03  0.13111798604E+04  0.12699999809E+01 0.  1.
       -4    1    3    3    0  502 -0.63706694108E+02 -0.10446639378E+04 -0.63035948231E+03  0.12217757469E+04  0.12699999809E+01 0. -1.
</event>
<event>
 5   0  0.6917078E-06  0.2101748E+04  0.7818609E-02  0.8560474E-01
        1   -1    0    0  501    0  0.00000000000E+00  0.00000000000E+00  0.23802656794E+04  0.23802656794E+04  0.50400001928E-02 0. -1.
       -1   -1    0    0    0  501  0.00000000000E+00  0.00000000000E+00 -0.46395514840E+03  0.46395514843E+03  0.50400001928E-02 0.  1.
    10030    2    1    2    0    0  0.00000000000E+00  0.00000000000E+00  0.19163105310E+04  0.28442208278E+04  0.21017483356E+04 0.  0.
        5    1    3    3  502    0 -0.69102023089E+02  0.75133945969E+03 -0.31698407692E+02  0.75519067283E+03  0.46999998093E+01 0.  1.
       -5    1    3    3    0  502  0.69102023089E+02 -0.75133945969E+03  0.19480089387E+04  0.20890301550E+04  0.46999998093E+01 0. -1.
</event>
<event>
 5   0  0.1395356E-05  0.2100757E+04  0.7818609E-02  0.8560910E-01
       -2   -1    0    0    0  501  0.00000000000E+00  0.00000000000E+00  0.10901876151E+04  0.10901876151E+04  0.25500000920E-02 0.  1.
        2   -1    0    0  501    0  0.00000000000E+00  0.00000000000E+00 -0.10120228824E+04  0.10120228824E+04  0.25500000920E-02 0. -1.
    10030    2    1    2    0    0  0.00000000000E+00  0.00000000000E+00  0.78164732622E+02  0.21022104975E+04  0.21007568280E+04 0.  0.
        1    1    3    3  502    0  0.37084252023E+03 -0.84457254927E+03  0.54189184328E+03  0.10698007925E+04  0.50400001928E-02 0.  1.
       -1    1    3    3    0  502 -0.37084252023E+03  0.84457254927E+03 -0.46372711066E+03  0.10324097050E+04  0.50400001928E-02 0. -1.
</event>
<event>
 5   0  0.6599245E-06  0.2108768E+04  0.7818609E-02  0.8557391E-01
       -1   -1    0    0    0  501  0.00000000000E+00  0.00000000000E+00  0.57337946594E+03  0.57337946596E+03  0.50400001928E-02 0. -1.
        1   -1    0    0  501    0  0.00000000000E+00  0.00000000000E+00 -0.19389009220E+04  0.19389009220E+04  0.50400001928E-02 0.  1.
    10030    2    1    2    0    0  0.00000000000E+00  0.00000000000E+00 -0.13655214560E+04  0.25122803879E+04  0.21087683374E+04 0.  0.
        2    1    3    3  502    0 -0.56417929700E+03  0.80126365648E+03 -0.21919825901E+03  0.10041760817E+04  0.25500000920E-02 0. -1.
       -2    1    3    3    0  502  0.56417929700E+03 -0.80126365648E+03 -0.11463231970E+04  0.15081043062E+04  0.25500000920E-02 0.  1.
</event>
<event>
 5   0  0.1390735E-05  0.2096373E+04  0.7818609E-02  0.8562843E-01
        2   -1    0    0  501    0  0.00000000000E+00  0.00000000000E+00  0.10915787865E+04  0.10915787865E+04  0.25500000920E-02 0. -1.
       -2   -1    0    0    0  501  0.00000000000E+00  0.00000000000E+00 -0.10065192239E+04  0.10065192239E+04  0.25500000920E-02 0.  1.
    10030    2    1    2    0    0  0.00000000000E+00  0.00000000000E+00  0.85059562621E+02  0.20980980105E+04  0.20963730900E+04 0.  0.
        5    1    3    3  502    0  0.72366045034E+03  0.74977108124E+03  0.15590061740E+03  0.10536452032E+04  0.46999998093E+01 0. -1.
       -5    1    3    3    0  502 -0.72366045034E+03 -0.74977108124E+03 -0.70841054782E+02  0.10444528073E+04  0.46999998093E+01 0.  1.
</event>
<event>
 5   0  0.6589193E-06  0.2101296E+04  0.7818609E-02  0.8560673E-01
        1   -1    0    0  501    0  0.00000000000E+00  0.00000000000E+00  0.77284097620E+03  0.77284097622E+03  0.50400001928E-02 0. -1.
       -1   -1    0    0    0  501  0.00000000000E+00  0.00000000000E+00 -0.14283161731E+04  0.14283161731E+04  0.50400001928E-02 0.  1.
    10030    2    1    2    0    0  0.00000000000E+00  0.00000000000E+00 -0.65547519691E+03  0.22011571493E+04  0.21012960435E+04 0.  0.
        3    1    3    3  502    0 -0.25634237592E+03 -0.73444249574E+03 -0.10675177518E+04  0.13208752226E+04  0.10100000352E+00 0.  1.
       -3    1    3    3    0  502  0.25634237592E+03  0.73444249574E+03  0.41204255486E+03  0.88028192669E+03  0.10100000352E+00 0. -1.
</event>
<event>
 5   0  0.6283269E-06  0.2116558E+04  0.7818609E-02  0.8553984E-01
       -1   -1    0    0    0  501  0.00000000000E+00  0.00000000000E+00  0.10098110420E+04  0.10098110420E+04  0.50400001928E-02 0. -1.
        1   -1    0    0  501    0  0.00000000000E+00  0.00000000000E+00 -0.11090736438E+04  0.11090736438E+04  0.50400001928E-02 0.  1.
    10030    2    1    2    0    0  0.00000000000E+00  0.00000000000E+00 -0.99262601770E+02  0.21188846858E+04  0.21165583497E+04 0.  0.
        1    1    3    3  502    0  0.58354634896E+03 -0.81834874781E+03 -0.38125631451E+03  0.10749778564E+04  0.50400001928E-02 0. -1.
       -1    1    3    3    0  502 -0.58354634896E+03  0.81834874781E+03  0.28199371274E+03  0.10439068294E+04  0.50400001928E-02 0.  1.
</event>
<event>
 5   0  0.5009125E-06  0.2103282E+04  0.7818609E-02  0.8559799E-01
        3   -1    0    0  501    0  0.00000000000E+00  0.00000000000E+00  0.15694010056E+04  0.15694010088E+04  0.10100000352E+00 0. -1.
       -3   -1    0    0    0  501  0.00000000000E+00  0.00000000000E+00 -0.70469506539E+03  0.70469507263E+03  0.10100000352E+00 0.  1.
    10030    2    1    2    0    0  0.00000000000E+00  0.00000000000E+00  0.86470594017E+03  0.22740960814E+04  0.21032823454E+04 0.  0.
        2    1    3    3  502    0  0.98206056549E+03  0.34348583248E+03  0.59818327857E+03  0.12001036231E+04  0.25500000920E-02 0.  1.
       -2    1    3    3    0  502 -0.98206056549E+03 -0.34348583248E+03  0.26652266160E+03  0.10739924583E+04  0.25500000920E-02 0. -1.
</event>
<event>
 5   0  0.6283269E-06  0.2100167E+04  0.7818609E-02  0.8561170E-01
        1   -1    0    0  501    0  0.00000000000E+00  0.00000000000E+00  0.96408352611E+03  0.96408352613E+03  0.50400001928E-02 0.  1.
       -1   -1    0    0    0  501  0.00000000000E+00  0.00000000000E+00 -0.11437554515E+04  0.11437554515E+04  0.50400001928E-02 0. -1.
    10030    2    1    2    0    0  0.00000000000E+00  0.00000000000E+00 -0.17967192541E+03  0.21078389777E+04  0.21001674112E+04 0.  0.
        1    1    3    3  502    0  0.22201734869E+03  0.78641218291E+03  0.57207286494E+03  0.99749846485E+03  0.50400001928E-02 0.  1.
       -1    1    3    3    0  502 -0.22201734869E+03 -0.78641218291E+03 -0.75174479035E+03  0.11103405128E+04  0.50400001928E-02 0. -1.
</event>
<event>
 5   0  0.6599245E-06  0.2100425E+04  0.7818609E-02  0.8561056E-01
       -1   -1    0    0    0  501  0.00000000000E+00  0.00000000000E+00  0.58478992553E+03  0.58478992555E+03  0.50400001928E-02 0. -1.
        1   -1    0    0  501    0  0.00000000000E+00  0.00000000000E+00 -0.18860555104E+04  0.18860555104E+04  0.50400001928E-02 0.  1.
    10030    2    1    2    0    0  0.00000000000E+00  0.00000000000E+00 -0.13012655848E+04  0.24708454359E+04  0.21004249679E+04 0.  0.
        2    1    3    3  502    0  0.36031303429E+03  0.90682846766E+03 -0.19384502446E+03  0.99485639464E+03  0.25500000920E-02 0.  1.
       -2    1    3    3    0  502 -0.36031303429E+03 -0.90682846766E+03 -0.11074205604E+04  0.14759890413E+04  0.25500000920E-02 0. -1.
</event>
<event>
 5   0  0.6917078E-06  0.2086883E+04  0.7818609E-02  0.8567044E-01
        1   -1    0    0  501    0  0.00000000000E+00  0.00000000000E+00  0.85353556845E+03  0.85353556847E+03  0.50400001928E-02 0. -1.
       -1   -1    0    0    0  501  0.00000000000E+00  0.00000000000E+00 -0.12756000609E+04  0.12756000609E+04  0.50400001928E-02 0.  1.
    10030    2    1    2    0    0  0.00000000000E+00  0.00000000000E+00 -0.42206449246E+03  0.21291356294E+04  0.20868828651E+04 0.  0.
        5    1    3    3  502    0 -0.25824631958E+03  0.52599083355E+02 -0.12410724098E+04  0.12687555484E+04  0.46999998093E+01 0.  1.
       -5    1    3    3    0  502  0.25824631958E+03 -0.52599083355E+02  0.81900791734E+03  0.86038008102E+03  0.46999998093E+01 0. -1.
</event>
<event>
 5   0  0.1390735E-05  0.2100978E+04  0.7818609E-02  0.8560812E-01
        2   -1    0    0  501    0  0.00000000000E+00  0.00000000000E+00  0.19814306584E+04  0.19814306584E+04  0.25500000920E-02 0.  1.
       -2   -1    0    0    0  501  0.00000000000E+00  0.00000000000E+00 -0.55693478127E+03  0.55693478128E+03  0.25500000920E-02 0. -1.
    10030    2    1    2    0    0  0.00000000000E+00  0.00000000000E+00  0.14244958771E+04  0.25383654397E+04  0.21009784867E+04 0.  0.
        5    1    3    3  502    0  0.53698511268E+03 -0.36249817952E+03 -0.28678648806E+03  0.70853829899E+03  0.46999998093E+01 0. -1.
       -5    1    3    3    0  502 -0.53698511268E+03  0.36249817952E+03  0.17112823652E+04  0.18298271407E+04  0.46999998093E+01 0.  1.
</event>
<event>
 5   0  0.6917078E-06  0.2101075E+04  0.7818609E-02  0.8560770E-01
        1   -1    0    0  501    0  0.00000000000E+00  0.00000000000E+00  0.96439563723E+03  0.96439563724E+03  0.50400001928E-02 0. -1.
       -1   -1    0    0    0  501  0.00000000000E+00  0.00000000000E+00 -0.11443738412E+04  0.11443738412E+04  0.50400001928E-02 0.  1.
    10030    2    1    2    0    0  0.00000000000E+00  0.00000000000E+00 -0.17997820392E+03  0.21087694784E+04  0.21010750960E+04 0.  0.
        5    1    3    3  502    0  0.26055308612E+03  0.16164334222E+03 -0.10984525797E+04  0.11404545763E+04  0.46999998093E+01 0.  1.
       -5    1    3    3    0  502 -0.26055308612E+03 -0.16164334222E+03  0.91847437575E+03  0.96831490213E+03  0.46999998093E+01 0. -1.
</event>
<event>
 5   0  0.1395356E-05  0.2097548E+04  0.7818609E-02  0.8562324E-01
       -2   -1    0    0    0  501  0.00000000000E+00  0.00000000000E+00  0.12212847234E+04  0.12212847234E+04  0.25500000920E-02 0. -1.
        2   -1    0    0  501    0  0.00000000000E+00  0.00000000000E+00 -0.90063117690E+03  0.90063117690E+03  0.25500000920E-02 0.  1.
    10030    2    1    2    0    0  0.00000000000E+00  0.00000000000E+00  0.32065354649E+03  0.21219159003E+04  0.20975481856E+04 0.  0.
        1    1    3    3  502    0  0.38370788539E+03 -0.39599319685E+03  0.10628145132E+04  0.11973374808E+04  0.50400001928E-02 0. -1.
       -1    1    3    3    0  502 -0.38370788539E+03  0.39599319685E+03 -0.74216096675E+03  0.92457841952E+03  0.50400001928E-02 0.  1.
</event>
<event>
 5   0  0.6283269E-06  0.2075696E+04  0.7818609E-02  0.8572026E-01
       -1   -1    0    0    0  501  0.00000000000E+00  0.00000000000E+00  0.83204060430E+03  0.83204060432E+03  0.50400001928E-02 0.  1.
        1   -1    0    0  501    0  0.00000000000E+00  0.00000000000E+00 -0.12945622302E+04  0.12945622302E+04  0.50400001928E-02 0. -1.
    10030    2    1    2    0    0  0.00000000000E+00  0.00000000000E+00 -0.46252162591E+03  0.21266028345E+04  0.20756958740E+04 0.  0.
        1    1    3    3  502    0  0.33083836900E+03 -0.32375961629E+03  0.72042003829E+03  0.85631731685E+03  0.50400001928E-02 0.  1.
       -1    1    3    3    0  502 -0.33083836900E+03  0.32375961629E+03 -0.11829416642E+04  0.12702855177E+04  0.50400001928E-02 0. -1.
</event>
<event>
 5   0  0.1441136E-05  0.2101839E+04  0.7818609E-02  0.8560434E-01
       -2   -1    0    0    0  501  0.00000000000E+00  0.00000000000E+00  0.73272399384E+03  0.73272399384E+03  0.25500000920E-02 0. -1.
        2   -1    0    0  501    0  0.00000000000E+00  0.00000000000E+00 -0.15072957836E+04  0.15072957836E+04  0.25500000920E-02 0.  1.
    10030    2    1    2    0    0  0.00000000000E+00  0.00000000000E+00 -0.77457178979E+03  0.22400197775E+04  0.21018389914E+04 0.  0.
        4    1    3    3  502    0  0.90950416235E+03 -0.43629133169E+03 -0.73149772636E+02  0.10113854110E+04  0.12699999809E+01 0.  1.
       -4    1    3    3    0  502 -0.90950416235E+03  0.43629133169E+03 -0.70142201715E+03  0.12286343665E+04  0.12699999809E+01 0. -1.
</event>
<event>
 5   0  0.1344501E-05  0.2100346E+04  0.7818609E-02  0.8561091E-01
        2   -1    0    0  501    0  0.00000000000E+00  0.00000000000E+00  0.15069320961E+04  0.15069320961E+04  0.25500000920E-02 0.  1.
       -2   -1    0    0    0  501  0.00000000000E+00  0.00000000000E+00 -0.73186026886E+03  0.73186026886E+03  0.25500000920E-02 0. -1.
    10030    2    1    2    0    0  0.00000000000E+00  0.00000000000E+00  0.77507182722E+03  0.22387923649E+04  0.21003463800E+04 0.  0.
        3    1    3    3  502    0 -0.89699971864E+03 -0.92894362132E+02 -0.18610690823E+03  0.92080054803E+03  0.10100000352E+00 0. -1.
       -3    1    3    3    0  502  0.89699971864E+03  0.92894362132E+02  0.96117873545E+03  0.13179918169E+04  0.10100000352E+00 0.  1.
</event>
<event>
 5   0  0.6589193E-06  0.2112685E+04  0.7818609E-02  0.8555676E-01
        1   -1    0    0  501    0  0.00000000000E+00  0.00000000000E+00  0.12542680859E+04  0.12542680859E+04  0.50400001928E-02 0. -1.
       -1   -1    0    0    0  501  0.00000000000E+00  0.00000000000E+00 -0.88964992661E+03  0.88964992662E+03  0.50400001928E-02 0.  1.
    10030    2    1    2    0    0  0.00000000000E+00  0.00000000000E+00  0.36461815931E+03  0.21439180126E+04  0.21126850315E+04 0.  0.
        3    1    3    3  502    0  0.95714041268E+03  0.17283382399E+03 -0.23593713298E+03  0.10008274783E+04  0.10100000352E+00 0.  1.
       -3    1    3    3    0  502 -0.95714041268E+03 -0.17283382399E+03  0.60055529230E+03  0.11430905343E+04  0.10100000352E+00 0. -1.
</event>
<event>
 5   0  0.6917078E-06  0.2089185E+04  0.7818609E-02  0.8566022E-01
        1   -1    0    0  501    0  0.00000000000E+00  0.00000000000E+00  0.24402165121E+04  0.24402165121E+04  0.50400001928E-02 0. -1.
       -1   -1    0    0    0  501  0.00000000000E+00  0.00000000000E+00 -0.44716266627E+03  0.44716266630E+03  0.50400001928E-02 0.  1.
    10030    2    1    2    0    0  0.00000000000E+00  0.00000000000E+00  0.19930538458E+04  0.28873791784E+04  0.20891852209E+04 0.  0.
        5    1    3    3  502    0 -0.36063033814E+03 -0.34382121235E+03  0.22653786478E+04  0.23195322319E+04  0.46999998093E+01 0. -1.
       -5    1    3    3    0  502  0.36063033814E+03  0.34382121235E+03 -0.27232480200E+03  0.56784694649E+03  0.46999998093E+01 0.  1.
</event>
<event>
 5   0  0.5009125E-06  0.2105941E+04  0.7818609E-02  0.8558631E-01
       -3   -1    0    0    0  501  0.00000000000E+00  0.00000000000E+00  0.12329013039E+04  0.12329013081E+04  0.10100000352E+00 0. -1.
        3   -1    0    0  501    0  0.00000000000E+00  0.00000000000E+00 -0.89929937022E+03  0.89929937589E+03  0.10100000352E+00 0.  1.
    10030    2    1    2    0    0  0.00000000000E+00  0.00000000000E+00  0.33360193370E+03  0.21322006840E+04  0.21059414775E+04 0.  0.
        1    1    3    3  502    0 -0.34260327038E+03 -0.71724736394E+03  0.86601083705E+03  0.11754980016E+04  0.50400001928E-02 0. -1.
       -1    1    3    3    0  502  0.34260327038E+03  0.71724736394E+03 -0.53240890335E+03  0.95670268231E+03  0.50400001928E-02 0.  1.
</event>
<event>
 5   0  0.6599245E-06  0.2101043E+04  0.7818609E-02  0.8560784E-01
        1   -1    0    0  501    0  0.00000000000E+00  0.00000000000E+00  0.65339392339E+03  0.65339392341E+03  0.50400001928E-02 0. -1.
       -1   -1    0    0    0  501  0.00000000000E+00  0.00000000000E+00 -0.16890194725E+04  0.16890194725E+04  0.50400001928E-02 0.  1.
    10030    2    1    2    0    0  0.00000000000E+00  0.00000000000E+00 -0.10356255491E+04  0.23424133959E+04  0.21010426553E+04 0.  0.
        2    1    3    3  502    0  0.54384687371E+03  0.25968468845E+03 -0.14771223936E+04  0.15953357406E+04  0.25500000920E-02 0.  1.
       -2    1    3    3    0  502 -0.54384687371E+03 -0.25968468845E+03  0.44149684448E+03  0.74707765537E+03  0.25500000920E-02 0. -1.
</event>
<event>
 5   0  0.1344501E-05  0.2102928E+04  0.7818609E-02  0.8559954E-01
        2   -1    0    0  501    0  0.00000000000E+00  0.00000000000E+00  0.90629143918E+03  0.90629143918E+03  0.25500000920E-02 0. -1.
       -2   -1    0    0    0  501  0.00000000000E+00  0.00000000000E+00 -0.12198912212E+04  0.12198912212E+04  0.25500000920E-02 0.  1.
    10030    2    1    2    0    0  0.00000000000E+00  0.00000000000E+00 -0.31359978202E+03  0.21261826604E+04  0.21029284063E+04 0.  0.
        3    1    3    3  502    0  0.91138544559E+03  0.31812575642E+03 -0.57824198148E+03  0.11252516282E+04  0.10100000352E+00 0.  1.
       -3    1    3    3    0  502 -0.91138544559E+03 -0.31812575642E+03  0.26464219946E+03  0.10009310322E+04  0.10100000352E+00 0. -1.
</event>
<event>
 5   0  0.1398469E-05  0.2100156E+04  0.7818609E-02  0.8561175E-01
       -2   -1    0    0    0  501  0.00000000000E+00  0.00000000000E+00  0.43885909743E+03  0.43885909744E+03  0.25500000920E-02 0. -1.
        2   -1    0    0  501    0  0.00000000000E+00  0.00000000000E+00 -0.25125688261E+04  0.25125688261E+04  0.25500000920E-02 0.  1.
    10030    2    1    2    0    0  0.00000000000E+00  0.00000000000E+00 -0.20737097286E+04  0.29514279235E+04  0.21001558868E+04 0.  0.
        2    1    3    3  502    0 -0.84810566192E+03 -0.15653174325E+03 -0.19496701538E+03  0.88419315623E+03  0.25500000920E-02 0. -1.
       -2    1    3    3    0  502  0.84810566192E+03  0.15653174325E+03 -0.18787427133E+04  0.20672347673E+04  0.25500000920E-02 0.  1.
</event>
<event>
 5   0  0.1344501E-05  0.2104284E+04  0.7818609E-02  0.8559359E-01
       -2   -1    0    0    0  501  0.00000000000E+00  0.00000000000E+00  0.73197063684E+03  0.73197063684E+03  0.25500000920E-02 0.  1.
        2   -1    0    0  501    0  0.00000000000E+00  0.00000000000E+00 -0.15123589712E+04  0.15123589712E+04  0.25500000920E-02 0. -1.
    10030    2    1    2    0    0  0.00000000000E+00  0.00000000000E+00 -0.78038833435E+03  0.22443296080E+04  0.21042835924E+04 0.  0.
        3    1    3    3  502    0  0.20478782068E+01 -0.10340345402E+04 -0.59747542265E+03  0.11942397226E+04  0.10100000352E+00 0. -1.
       -3    1    3    3    0  502 -0.20478782068E+01  0.10340345402E+04 -0.18291291170E+03  0.10500898855E+04  0.10100000352E+00 0.  1.
</event>
<event>
 5   0  0.1398469E-05  0.2099939E+04  0.7818609E-02  0.8561270E-01
       -2   -1    0    0    0  501  0.00000000000E+00  0.00000000000E+00  0.74349654443E+03  0.74349654444E+03  0.25500000920E-02 0. -1.
        2   -1    0    0  501    0  0.00000000000E+00  0.00000000000E+00 -0.14827721337E+04  0.14827721337E+04  0.25500000920E-02 0.  1.
    10030    2    1    2    0    0  0.00000000000E+00  0.00000000000E+00 -0.73927558930E+03  0.22262686782E+04  0.20999390064E+04 0.  0.
        2    1    3    3  502    0 -0.27832783328E+03  0.33054205149E+03  0.64485796494E+03  0.77625139325E+03  0.25500000920E-02 0. -1.
       -2    1    3    3    0  502  0.27832783328E+03 -0.33054205149E+03 -0.13841335542E+04  0.14500172849E+04  0.25500000920E-02 0.  1.
</event>
<event>
 5   0  0.1344501E-05  0.2104516E+04  0.7818609E-02  0.8559256E-01
        2   -1    0    0  501    0  0.00000000000E+00  0.00000000000E+00  0.18857844589E+04  0.18857844589E+04  0.25500000920E-02 0. -1.
       -2   -1    0    0    0  501  0.00000000000E+00  0.00000000000E+00 -0.58715473259E+03  0.58715473260E+03  0.25500000920E-02 0.  1.
    10030    2    1    2    0    0  0.00000000000E+00  0.00000000000E+00  0.12986297263E+04  0.24729391915E+04  0.21045163527E+04 0.  0.
        3    1    3    3  502    0  0.76384962773E+03 -0.50973198847E+03  0.45608841118E+02  0.91944174935E+03  0.10100000352E+00 0.  1.
       -3    1    3    3    0  502 -0.76384962773E+03  0.50973198847E+03  0.12530208852E+04  0.15534974422E+04  0.10100000352E+00 0. -1.
</event>
<event>
 5   0  0.1390735E-05  0.2097573E+04  0.7818609E-02  0.8562313E-01
        2   -1    0    0  501    0  0.00000000000E+00  0.00000000000E+00  0.19536629997E+04  0.19536629997E+04  0.25500000920E-02 0.  1.
       -2   -1    0    0    0  501  0.00000000000E+00  0.00000000000E+00 -0.56302116042E+03  0.56302116043E+03  0.25500000920E-02 0. -1.
    10030    2    1    2    0    0  0.00000000000E+00  0.00000000000E+00  0.13906418392E+04  0.25166841601E+04  0.20975734639E+04 0.  0.
        5    1    3    3  502    0 -0.61953519096E+02  0.10196127937E+03  0.19454817569E+04  0.19491422979E+04  0.46999998093E+01 0.  1.
       -5    1    3    3    0  502  0.61953519096E+02 -0.10196127937E+03 -0.55483991770E+03  0.56754186215E+03  0.46999998093E+01 0. -1.
</event>
<event>
 5   0  0.1441136E-05  0.2099759E+04  0.7818609E-02  0.8561350E-01
       -2   -1    0    0    0  501  0.00000000000E+00  0.00000000000E+00  0.97893209241E+03  0.97893209242E+03  0.25500000920E-02 0. -1.
        2   -1    0    0  501    0  0.00000000000E+00  0.00000000000E+00 -0.11259684425E+04  0.11259684425E+04  0.25500000920E-02 0.  1.
    10030    2    1    2    0    0  0.00000000000E+00  0.00000000000E+00 -0.14703635006E+03  0.21049005349E+04  0.20997586941E+04 0.  0.
        4    1    3    3  502    0 -0.78681067137E+03  0.52592043947E+03  0.38210740918E+03  0.10206228619E+04  0.12699999809E+01 0. -1.
       -4    1    3    3    0  502  0.78681067137E+03 -0.52592043947E+03 -0.52914375924E+03  0.10842776730E+04  0.12699999809E+01 0.  1.
</event>
<event>
 5   0  0.1441136E-05  0.2102191E+04  0.7818609E-02  0.8560279E-01
       -2   -1    0    0    0  501  0.00000000000E+00  0.00000000000E+00  0.14032708479E+04  0.14032708479E+04  0.25500000920E-02 0. -1.
        2   -1    0    0  501    0  0.00000000000E+00  0.00000000000E+00 -0.78730448922E+03  0.78730448923E+03  0.25500000920E-02 0.  1.
    10030    2    1    2    0    0  0.00000000000E+00  0.00000000000E+00  0.61596635865E+03  0.21905753371E+04  0.21021907032E+04 0.  0.
        4    1    3    3  502    0  0.62936756630E+03  0.79274130748E+03  0.12774632782E+02  0.10122781822E+04  0.12699999809E+01 0.  1.
       -4    1    3    3    0  502 -0.62936756630E+03 -0.79274130748E+03  0.60319172587E+03  0.11782971549E+04  0.12699999809E+01 0. -1.
</event>
<event>
 5   0  0.6283269E-06  0.2099040E+04  0.7818609E-02  0.8561666E-01
       -1   -1    0    0    0  501  0.00000000000E+00  0.00000000000E+00  0.63553718348E+03  0.63553718350E+03  0.50400001928E-02 0. -1.
        1   -1    0    0  501    0  0.00000000000E+00  0.00000000000E+00 -0.17331670115E+04  0.17331670115E+04  0.50400001928E-02 0.  1.
    10030    2    1    2    0    0  0.00000000000E+00  0.00000000000E+00 -0.10976298280E+04  0.23687041950E+04  0.20990398576E+04 0.  0.
        1    1    3    3  502    0  0.93611531398E+03 -0.28053162414E+03 -0.11691553222E+03  0.98421497393E+03  0.50400001928E-02 0. -1.
       -1    1    3    3    0  502 -0.93611531398E+03  0.28053162414E+03 -0.98071429576E+03  0.13844892210E+04  0.50400001928E-02 0.  1.
</event>
<event>
 5   0  0.1398469E-05  0.2105342E+04  0.7818609E-02  0.8558894E-01
        2   -1    0    0  501    0  0.00000000000E+00  0.00000000000E+00  0.14314145281E+04  0.14314145281E+04  0.25500000920E-02 0.  1.
       -2   -1    0    0    0  501  0.00000000000E+00  0.00000000000E+00 -0.77414039452E+03  0.77414039453E+03  0.25500000920E-02 0. -1.
    10030    2    1    2    0    0  0.00000000000E+00  0.00000000000E+00  0.65727413358E+03  0.22055549226E+04  0.21053415946E+04 0.  0.
        2    1    3    3  502    0 -0.34911160544E+02  0.98866228628E+03 -0.48271583028E+02  0.99045547663E+03  0.25500000920E-02 0. -1.
       -2    1    3    3    0  502  0.34911160544E+02 -0.98866228628E+03  0.70554571661E+03  0.12150994460E+04  0.25500000920E-02 0.  1.
</event>
<event>
 5   0  0.6917078E-06  0.2101372E+04  0.7818609E-02  0.8560639E-01
       -1   -1    0    0    0  501  0.00000000000E+00  0.00000000000E+00  0.16123869010E+04  0.16123869010E+04  0.50400001928E-02 0. -1.
        1   -1    0    0  501    0  0.00000000000E+00  0.00000000000E+00 -0.68466252249E+03  0.68466252251E+03  0.50400001928E-02 0.  1.
    10030    2    1    2    0    0  0.00000000000E+00  0.00000000000E+00  0.92772437851E+03  0.22970494235E+04  0.21013718214E+04 0.  0.
        5    1    3    3  502    0 -0.25821132440E+03  0.38157309055E+03  0.14960627191E+04  0.15654062927E+04  0.46999998093E+01 0. -1.
       -5    1    3    3    0  502  0.25821132440E+03 -0.38157309055E+03 -0.56833834064E+03  0.73164313085E+03  0.46999998093E+01 0.  1.
</event>
<event>
 5   0  0.6238363E-06  0.2100092E+04  0.7818609E-02  0.8561203E-01
       -1   -1    0    0    0  501  0.00000000000E+00  0.00000000000E+00  0.13101488648E+04  0.13101488648E+04  0.50400001928E-02 0. -1.
        1   -1    0    0  501    0  0.00000000000E+00  0.00000000000E+00 -0.84158106773E+03  0.84158106774E+03  0.50400001928E-02 0.  1.
    10030    2    1    2    0    0  0.00000000000E+00  0.00000000000E+00  0.46856779706E+03  0.21517299325E+04  0.21000918842E+04 0.  0.
        4    1    3    3  502    0  0.81004569715E+03 -0.22079550061E+03  0.88040061798E+03  0.12165654712E+04  0.12699999809E+01 0. -1.
       -4    1    3    3    0  502 -0.81004569715E+03  0.22079550061E+03 -0.41183282091E+03  0.93516446139E+03  0.12699999809E+01 0.  1.
</event>
<event>
 5   0  0.6917078E-06  0.2101056E+04  0.7818609E-02  0.8560778E-01
        1   -1    0    0  501    0  0.00000000000E+00  0.00000000000E+00  0.10669157589E+04  0.10669157589E+04  0.50400001928E-02 0.  1.
       -1   -1    0    0    0  501  0.00000000000E+00  0.00000000000E+00 -0.10343923828E+04  0.10343923828E+04  0.50400001928E-02 0. -1.
    10030    2    1    2    0    0  0.00000000000E+00  0.00000000000E+00  0.32523376071E+02  0.21013081418E+04  0.21010564335E+04 0.  0.
        5    1    3    3  502    0  0.59251685533E+03 -0.68693748060E+03  0.54606859725E+03  0.10588542530E+04  0.46999998093E+01 0.  1.
       -5    1    3    3    0  502 -0.59251685533E+03  0.68693748060E+03 -0.51354522117E+03  0.10424538888E+04  0.46999998093E+01 0. -1.
</event>
<event>
 5   0  0.1395356E-05  0.2094591E+04  0.7818609E-02  0.8563630E-01
        2   -1    0    0  501    0  0.00000000000E+00  0.00000000000E+00  0.24700508270E+04  0.24700508270E+04  0.25500000920E-02 0. -1.
       -2   -1    0    0    0  501  0.00000000000E+00  0.00000000000E+00 -0.44405052674E+03  0.44405052675E+03  0.25500000920E-02 0.  1.
    10030    2    1    2    0    0  0.00000000000E+00  0.00000000000E+00  0.20260003003E+04  0.29141013538E+04  0.20945905288E+04 0.  0.
        1    1    3    3  502    0  0.46453316189E+03  0.34045175914E+03 -0.20395009839E+03  0.61097798770E+03  0.50400001928E-02 0.  1.
       -1    1    3    3    0  502 -0.46453316189E+03 -0.34045175914E+03  0.22299503987E+04  0.23031233661E+04  0.50400001928E-02 0. -1.
</event>
<event>
 5   0  0.1344501E-05  0.2099783E+04  0.7818609E-02  0.8561339E-01
       -2   -1    0    0    0  501  0.00000000000E+00  0.00000000000E+00  0.10846886457E+04  0.10846886457E+04  0.25500000920E-02 0.  1.
        2   -1    0    0  501    0  0.00000000000E+00  0.00000000000E+00 -0.10162104284E+04  0.10162104284E+04  0.25500000920E-02 0. -1.
    10030    2    1    2    0    0  0.00000000000E+00  0.00000000000E+00  0.68478217380E+02  0.21008990741E+04  0.20997827634E+04 0.  0.
        3    1    3    3  502    0  0.21296547970E+03 -0.55141379247E+03 -0.83389748110E+03  0.10221528679E+04  0.10100000352E+00 0. -1.
       -3    1    3    3    0  502 -0.21296547970E+03  0.55141379247E+03  0.90237569848E+03  0.10787462062E+04  0.10100000352E+00 0.  1.
</event>
<event>
 5   0  0.1390735E-05  0.2116444E+04  0.7818609E-02  0.8554034E-01
        2   -1    0    0  501    0  0.00000000000E+00  0.00000000000E+00  0.73591085308E+03  0.73591085309E+03  0.25500000920E-02 0. -1.
       -2   -1    0    0    0  501  0.00000000000E+00  0.00000000000E+00 -0.15216974475E+04  0.15216974475E+04  0.25500000920E-02 0.  1.
    10030    2    1    2    0    0  0.00000000000E+00  0.00000000000E+00 -0.78578659439E+03  0.22576083006E+04  0.21164438728E+04 0.  0.
        5    1    3    3  502    0  0.26086428436E+03  0.80157863700E+03 -0.10752747423E+04  0.13663148787E+04  0.46999998093E+01 0. -1.
       -5    1    3    3    0  502 -0.26086428436E+03 -0.80157863700E+03  0.28948814794E+03  0.89129342191E+03  0.46999998093E+01 0.  1.
</event>
<event>
 5   0  0.6917078E-06  0.2098696E+04  0.7818609E-02  0.8561818E-01
       -1   -1    0    0    0  501  0.00000000000E+00  0.00000000000E+00  0.58614353261E+03  0.58614353263E+03  0.50400001928E-02 0.  1.
        1   -1    0    0  501    0  0.00000000000E+00  0.00000000000E+00 -0.18786037069E+04  0.18786037069E+04  0.50400001928E-02 0. -1.
    10030    2    1    2    0    0  0.00000000000E+00  0.00000000000E+00 -0.12924601743E+04  0.24647472396E+04  0.20986961792E+04 0.  0.
        5    1    3    3  502    0 -0.77821985660E+03  0.65198076597E+02  0.17689590142E+03  0.80074414411E+03  0.46999998093E+01 0.  1.
       -5    1    3    3    0  502  0.77821985660E+03 -0.65198076597E+02 -0.14693560757E+04  0.16640030954E+04  0.46999998093E+01 0. -1.
</event>
<event>
 5   0  0.1344501E-05  0.2098688E+04  0.7818609E-02  0.8561822E-01
       -2   -1    0    0    0  501  0.00000000000E+00  0.00000000000E+00  0.12293309090E+04  0.12293309090E+04  0.25500000920E-02 0. -1.
        2   -1    0    0  501    0  0.00000000000E+00  0.00000000000E+00 -0.89570909811E+03  0.89570909811E+03  0.25500000920E-02 0.  1.
    10030    2    1    2    0    0  0.00000000000E+00  0.00000000000E+00  0.33362181091E+03  0.21250400071E+04  0.20986880471E+04 0.  0.
        3    1    3    3  502    0  0.53255057734E+03 -0.54342787391E+03  0.89851788419E+03  0.11773947384E+04  0.10100000352E+00 0. -1.
       -3    1    3    3    0  502 -0.53255057734E+03  0.54342787391E+03 -0.56489607328E+03  0.94764526875E+03  0.10100000352E+00 0.  1.
</event>
<event>
 5   0  0.1441136E-05  0.2098147E+04  0.7818609E-02  0.8562060E-01
        2   -1    0    0  501    0  0.00000000000E+00  0.00000000000E+00  0.25765383770E+04  0.25765383770E+04  0.25500000920E-02 0.  1.
       -2   -1    0    0    0  501  0.00000000000E+00  0.00000000000E+00 -0.42714472460E+03  0.42714472461E+03  0.25500000920E-02 0. -1.
    10030    2    1    2    0    0  0.00000000000E+00  0.00000000000E+00  0.21493936524E+04  0.30036831017E+04  0.20981465874E+04 0.  0.
        4    1    3    3  502    0  0.32523890124E+03 -0.98687597673E+03  0.12814046937E+04  0.16497588122E+04  0.12699999809E+01 0.  1.
       -4    1    3    3    0  502 -0.32523890124E+03  0.98687597673E+03  0.86798895873E+03  0.13539242895E+04  0.12699999809E+01 0. -1.
</event>
<event>
 5   0  0.1390735E-05  0.2098808E+04  0.7818609E-02  0.8561769E-01
        2   -1    0    0  501    0  0.00000000000E+00  0.00000000000E+00  0.96458455159E+03  0.96458455159E+03  0.25500000920E-02 0. -1.
       -2   -1    0    0    0  501  0.00000000000E+00  0.00000000000E+00 -0.11416818616E+04  0.11416818616E+04  0.25500000920E-02 0.  1.
    10030    2    1    2    0    0  0.00000000000E+00  0.00000000000E+00 -0.17709731001E+03  0.21062664132E+04  0.20988079345E+04 0.  0.
        5    1    3    3  502    0  0.17903962044E+03 -0.50131543103E+02  0.94791302802E+03  0.96598631253E+03  0.46999998093E+01 0. -1.
       -5    1    3    3    0  502 -0.17903962044E+03  0.50131543103E+02 -0.11250103380E+04  0.11402801007E+04  0.46999998093E+01 0.  1.
</event>
<event>
 5   0  0.6917078E-06  0.2100285E+04  0.7818609E-02  0.8561118E-01
       -1   -1    0    0    0  501  0.00000000000E+00  0.00000000000E+00  0.84422506874E+03  0.84422506876E+03  0.50400001928E-02 0. -1.
        1   -1    0    0  501    0  0.00000000000E+00  0.00000000000E+00 -0.13062862846E+04  0.13062862846E+04  0.50400001928E-02 0.  1.
    10030    2    1    2    0    0  0.00000000000E+00  0.00000000000E+00 -0.46206121589E+03  0.21505113534E+04  0.21002853411E+04 0.  0.
        5    1    3    3  502    0 -0.48237398038E+02 -0.46752232224E+03  0.73050772350E+03  0.86865850164E+03  0.46999998093E+01 0. -1.
       -5    1    3    3    0  502  0.48237398038E+02  0.46752232224E+03 -0.11925689394E+04  0.12818528518E+04  0.46999998093E+01 0.  1.
</event>
<event>
 5   0  0.1344501E-05  0.2100787E+04  0.7818609E-02  0.8560897E-01
        2   -1    0    0  501    0  0.00000000000E+00  0.00000000000E+00  0.98175338017E+03  0.98175338018E+03  0.25500000920E-02 0. -1.
       -2   -1    0    0    0  501  0.00000000000E+00  0.00000000000E+00 -0.11238323780E+04  0.11238323781E+04  0.25500000920E-02 0.  1.
    10030    2    1    2    0    0  0.00000000000E+00  0.00000000000E+00 -0.14207899788E+03  0.21055857582E+04  0.21007867440E+04 0.  0.
        3    1    3    3  502    0 -0.46438320130E+03 -0.53720431967E+03  0.70473508445E+03  0.10004457947E+04  0.10100000352E+00 0. -1.
       -3    1    3    3    0  502  0.46438320130E+03  0.53720431967E+03 -0.84681408233E+03  0.11051399635E+04  0.10100000352E+00 0.  1.
</event>
<event>
 5   0  0.1395356E-05  0.2101325E+04  0.7818609E-02  0.8560660E-01
        2   -1    0    0  501    0  0.00000000000E+00  0.00000000000E+00  0.80829011938E+03  0.80829011939E+03  0.25500000920E-02 0. -1.
       -2   -1    0    0    0  501  0.00000000000E+00  0.00000000000E+00 -0.13657123153E+04  0.13657123153E+04  0.25500000920E-02 0.  1.
    10030    2    1    2    0    0  0.00000000000E+00  0.00000000000E+00 -0.55742219590E+03  0.21740024347E+04  0.21013250775E+04 0.  0.
        1    1    3    3  502    0 -0.18059545817E+03 -0.55269764262E+03 -0.11840790861E+04  0.13191408893E+04  0.50400001928E-02 0.  1.
       -1    1    3    3    0  502  0.18059545817E+03  0.55269764262E+03  0.62665689021E+03  0.85486154536E+03  0.50400001928E-02 0. -1.
</event>
<event>
 5   0  0.1441136E-05  0.2097853E+04  0.7818609E-02  0.8562190E-01
        2   -1    0    0  501    0  0.00000000000E+00  0.00000000000E+00  0.19321589490E+04  0.19321589490E+04  0.25500000920E-02 0. -1.
       -2   -1    0    0    0  501  0.00000000000E+00  0.00000000000E+00 -0.56943890880E+03  0.56943890880E+03  0.25500000920E-02 0.  1.
    10030    2    1    2    0    0  0.00000000000E+00  0.00000000000E+00  0.13627200402E+04  0.25015978578E+04  0.20978526960E+04 0.  0.
        4    1    3    3  502    0  0.25625960682E+03  0.97533675049E+03  0.10255115037E+04  0.14382719562E+04  0.12699999809E+01 0. -1.
       -4    1    3    3    0  502 -0.25625960682E+03 -0.97533675049E+03  0.33720853648E+03  0.10633259016E+04  0.12699999809E+01 0.  1.
</event>
<event>
 5   0  0.1395356E-05  0.2097894E+04  0.7818609E-02  0.8562172E-01
        2   -1    0    0  501    0  0.00000000000E+00  0.00000000000E+00  0.18440071769E+04  0.18440071769E+04  0.25500000920E-02 0.  1.
       -2   -1    0    0    0  501  0.00000000000E+00  0.00000000000E+00 -0.59668421792E+03  0.59668421793E+03  0.25500000920E-02 0. -1.
    10030    2    1    2    0    0  0.00000000000E+00  0.00000000000E+00  0.12473229590E+04  0.24406913949E+04  0.20978941634E+04 0.  0.
        1    1    3    3  502    0 -0.35963972985E+03 -0.69691060744E+03 -0.18677449844E+03  0.80616986011E+03  0.50400001928E-02 0. -1.
       -1    1    3    3    0  502  0.35963972985E+03  0.69691060744E+03  0.14340974575E+04  0.16345215348E+04  0.50400001928E-02 0.  1.
</event>
<event>
 5   0  0.1344501E-05  0.2098179E+04  0.7818609E-02  0.8562046E-01
       -2   -1    0    0    0  501  0.00000000000E+00  0.00000000000E+00  0.89221203392E+03  0.89221203393E+03  0.25500000920E-02 0.  1.
        2   -1    0    0  501    0  0.00000000000E+00  0.00000000000E+00 -0.12335508278E+04  0.12335508278E+04  0.25500000920E-02 0. -1.
    10030    2    1    2    0    0  0.00000000000E+00  0.00000000000E+00 -0.34133879384E+03  0.21257628617E+04  0.20981791086E+04 0.  0.
        3    1    3    3  502    0  0.57275784995E+03 -0.81482807144E+03  0.16319665144E+03  0.10092717661E+04  0.10100000352E+00 0. -1.
       -3    1    3    3    0  502 -0.57275784995E+03  0.81482807144E+03 -0.50453544528E+03  0.11164910955E+04  0.10100000352E+00 0.  1.
</event>
<event>
 5   0  0.1398469E-05  0.2095220E+04  0.7818609E-02  0.8563352E-01
        2   -1    0    0  501    0  0.00000000000E+00  0.00000000000E+00  0.91999333953E+03  0.91999333954E+03  0.25500000920E-02 0.  1.
       -2   -1    0    0    0  501  0.00000000000E+00  0.00000000000E+00 -0.11929285859E+04  0.11929285859E+04  0.25500000920E-02 0. -1.
    10030    2    1    2    0    0  0.00000000000E+00  0.00000000000E+00 -0.27293524632E+03  0.21129219254E+04  0.20952196577E+04 0.  0.
        2    1    3    3  502    0  0.58305132824E+03  0.49074174507E+03  0.58843110961E+03  0.96282266409E+03  0.25500000920E-02 0.  1.
       -2    1    3    3    0  502 -0.58305132824E+03 -0.49074174507E+03 -0.86136635593E+03  0.11500992613E+04  0.25500000920E-02 0. -1.
</event>
<event>
 5   0  0.1395356E-05  0.2098548E+04  0.7818609E-02  0.8561883E-01
        2   -1    0    0  501    0  0.00000000000E+00  0.00000000000E+00  0.15888757823E+04  0.15888757823E+04  0.25500000920E-02 0. -1.
       -2   -1    0    0    0  501  0.00000000000E+00  0.00000000000E+00 -0.69292792050E+03  0.69292792051E+03  0.25500000920E-02 0.  1.
    10030    2    1    2    0    0  0.00000000000E+00  0.00000000000E+00  0.89594786183E+03  0.22818037028E+04  0.20985484429E+04 0.  0.
        1    1    3    3  502    0 -0.53789539894E+02 -0.96577663948E+03  0.89012697793E+03  0.13145127876E+04  0.50400001928E-02 0. -1.
       -1    1    3    3    0  502  0.53789539894E+02  0.96577663948E+03  0.58208839037E+01  0.96729091522E+03  0.50400001928E-02 0.  1.
</event>
<event>
 5   0  0.1398469E-05  0.2094078E+04  0.7818609E-02  0.8563857E-01
        2   -1    0    0  501    0  0.00000000000E+00  0.00000000000E+00  0.13054835635E+04  0.13054835635E+04  0.25500000920E-02 0. -1.
       -2   -1    0    0    0  501  0.00000000000E+00  0.00000000000E+00 -0.83975832885E+03  0.83975832885E+03  0.25500000920E-02 0.  1.
    10030    2    1    2    0    0  0.00000000000E+00  0.00000000000E+00  0.46572523466E+03  0.21452418924E+04  0.20940780269E+04 0.  0.
        2    1    3    3  502    0  0.70888842176E+02 -0.10200052161E+04  0.18426601289E+01  0.10224672436E+04  0.25500000920E-02 0.  1.
       -2    1    3    3    0  502 -0.70888842176E+02  0.10200052161E+04  0.46388257453E+03  0.11227746487E+04  0.25500000920E-02 0. -1.
</event>
<event>
 5   0  0.6283269E-06  0.2112328E+04  0.7818609E-02  0.8555832E-01
        1   -1    0    0  501    0  0.00000000000E+00  0.00000000000E+00  0.11499209422E+04  0.11499209423E+04  0.50400001928E-02 0. -1.
       -1   -1    0    0    0  501  0.00000000000E+00  0.00000000000E+00 -0.97005122438E+03  0.97005122439E+03  0.50400001928E-02 0.  1.
    10030    2    1    2    0    0  0.00000000000E+00  0.00000000000E+00  0.17986971787E+03  0.21199721667E+04  0.21123278325E+04 0.  0.
        1    1    3    3  502    0 -0.95262250179E+03  0.33784261768E+03  0.39740109778E+03  0.10860731549E+04  0.50400001928E-02 0. -1.
       -1    1    3    3    0  502  0.95262250179E+03 -0.33784261768E+03 -0.21753137991E+03  0.10338990118E+04  0.50400001928E-02 0.  1.
</event>
<event>
 5   0  0.6599245E-06  0.2093582E+04  0.7818609E-02  0.8564076E-01
        1   -1    0    0  501    0  0.00000000000E+00  0.00000000000E+00  0.13553913647E+04  0.13553913647E+04  0.50400001928E-02 0.  1.
       -1   -1    0    0    0  501  0.00000000000E+00  0.00000000000E+00 -0.80845385004E+03  0.80845385006E+03  0.50400001928E-02 0. -1.
    10030    2    1    2    0    0  0.00000000000E+00  0.00000000000E+00  0.54693751463E+03  0.21638452147E+04  0.20935819708E+04 0.  0.
        2    1    3    3  502    0  0.18298529717E+03  0.18144844939E+03  0.13220950758E+04  0.13469753332E+04  0.25500000920E-02 0.  1.
       -2    1    3    3    0  502 -0.18298529717E+03 -0.18144844939E+03 -0.77515756116E+03  0.81686988156E+03  0.25500000920E-02 0. -1.
</event>
<event>
 5   0  0.6238363E-06  0.2101253E+04  0.7818609E-02  0.8560692E-01
        1   -1    0    0  501    0  0.00000000000E+00  0.00000000000E+00  0.15235393090E+04  0.15235393090E+04  0.50400001928E-02 0. -1.
       -1   -1    0    0    0  501  0.00000000000E+00  0.00000000000E+00 -0.72450761013E+03  0.72450761015E+03  0.50400001928E-02 0.  1.
    10030    2    1    2    0    0  0.00000000000E+00  0.00000000000E+00  0.79903169888E+03  0.22480469192E+04  0.21012527918E+04 0.  0.
        4    1    3    3  502    0 -0.44941962012E+03  0.76758740647E+03  0.99772542395E+03  0.13366473192E+04  0.12699999809E+01 0. -1.
       -4    1    3    3    0  502  0.44941962012E+03 -0.76758740647E+03 -0.19869372506E+03  0.91139959995E+03  0.12699999809E+01 0.  1.
</event>
<event>
 5   0  0.6917078E-06  0.2094254E+04  0.7818609E-02  0.8563779E-01
        1   -1    0    0  501    0  0.00000000000E+00  0.00000000000E+00  0.99297332739E+03  0.99297332740E+03  0.50400001928E-02 0. -1.
       -1   -1    0    0    0  501  0.00000000000E+00  0.00000000000E+00 -0.11042335911E+04  0.11042335911E+04  0.50400001928E-02 0.  1.
    10030    2    1    2    0    0  0.00000000000E+00  0.00000000000E+00 -0.11126026374E+03  0.20972069185E+04  0.20942535694E+04 0.  0.
        5    1    3    3  502    0  0.46548383536E+03  0.60220104156E+03  0.66450227193E+03  0.10103992552E+04  0.46999998093E+01 0. -1.
       -5    1    3    3    0  502 -0.46548383536E+03 -0.60220104156E+03 -0.77576253567E+03  0.10868076634E+04  0.46999998093E+01 0.  1.
</event>
<event>
 5   0  0.1344501E-05  0.2102516E+04  0.7818609E-02  0.8560136E-01
       -2   -1    0    0    0  501  0.00000000000E+00  0.00000000000E+00  0.99263820552E+03  0.99263820552E+03  0.25500000920E-02 0. -1.
        2   -1    0    0  501    0  0.00000000000E+00  0.00000000000E+00 -0.11133400699E+04  0.11133400699E+04  0.25500000920E-02 0.  1.
    10030    2    1    2    0    0  0.00000000000E+00  0.00000000000E+00 -0.12070186435E+03  0.21059782754E+04  0.21025164818E+04 0.  0.
        3    1    3    3  502    0  0.85222955983E+03 -0.35556132718E+03 -0.56359711258E+03  0.10818321476E+04  0.10100000352E+00 0.  1.
       -3    1    3    3    0  502 -0.85222955983E+03  0.35556132718E+03  0.44289524823E+03  0.10241461278E+04  0.10100000352E+00 0. -1.
</event>
<event>
 5   0  0.5009125E-06  0.2103524E+04  0.7818609E-02  0.8559693E-01
        3   -1    0    0  501    0  0.00000000000E+00  0.00000000000E+00  0.62765103926E+03  0.62765104738E+03  0.10100000352E+00 0. -1.
       -3   -1    0    0    0  501  0.00000000000E+00  0.00000000000E+00 -0.17624491506E+04  0.17624491534E+04  0.10100000352E+00 0.  1.
    10030    2    1    2    0    0  0.00000000000E+00  0.00000000000E+00 -0.11347981113E+04  0.23901002008E+04  0.21035237618E+04 0.  0.
        3    1    3    3  502    0 -0.84372125088E+03 -0.33356725538E+03  0.37128220284E+02  0.90802597870E+03  0.10100000352E+00 0. -1.
       -3    1    3    3    0  502  0.84372125088E+03  0.33356725538E+03 -0.11719263316E+04  0.14820742221E+04  0.10100000352E+00 0.  1.
</event>
<event>
 5   0  0.1344501E-05  0.2058003E+04  0.7818609E-02  0.8579972E-01
        2   -1    0    0  501    0  0.00000000000E+00  0.00000000000E+00  0.73765426177E+03  0.73765426177E+03  0.25500000920E-02 0. -1.
       -2   -1    0    0    0  501  0.00000000000E+00  0.00000000000E+00 -0.14354209181E+04  0.14354209181E+04  0.25500000920E-02 0.  1.
    10030    2    1    2    0    0  0.00000000000E+00  0.00000000000E+00 -0.69776665631E+03  0.21730751799E+04  0.20580032630E+04 0.  0.
        3    1    3    3  502    0  0.71701502274E+03 -0.19676380222E+02 -0.11279353654E+04  0.13366884085E+04  0.10100000352E+00 0.  1.
       -3    1    3    3    0  502 -0.71701502274E+03  0.19676380222E+02  0.43016870909E+03  0.83638677133E+03  0.10100000352E+00 0. -1.
</event>
<event>
 5   0  0.6589193E-06  0.2101399E+04  0.7818609E-02  0.8560628E-01
       -1   -1    0    0    0  501  0.00000000000E+00  0.00000000000E+00  0.10570514646E+04  0.10570514646E+04  0.50400001928E-02 0.  1.
        1   -1    0    0  501    0  0.00000000000E+00  0.00000000000E+00 -0.10443853516E+04  0.10443853516E+04  0.50400001928E-02 0. -1.
    10030    2    1    2    0    0  0.00000000000E+00  0.00000000000E+00  0.12666113012E+02  0.21014368162E+04  0.21013986442E+04 0.  0.
        3    1    3    3  502    0  0.89308658211E+03  0.55002894137E+03 -0.55583945034E+02  0.10503452121E+04  0.10100000352E+00 0.  1.
       -3    1    3    3    0  502 -0.89308658211E+03 -0.55002894137E+03  0.68250058046E+02  0.10510916041E+04  0.10100000352E+00 0. -1.
</event>
<event>
 5   0  0.6238363E-06  0.2099847E+04  0.7818609E-02  0.8561311E-01
        1   -1    0    0  501    0  0.00000000000E+00  0.00000000000E+00  0.21147893692E+04  0.21147893692E+04  0.50400001928E-02 0.  1.
       -1   -1    0    0    0  501  0.00000000000E+00  0.00000000000E+00 -0.52125234459E+03  0.52125234461E+03  0.50400001928E-02 0. -1.
    10030    2    1    2    0    0  0.00000000000E+00  0.00000000000E+00  0.15935370246E+04  0.26360417138E+04  0.20998465820E+04 0.  0.
        4    1    3    3  502    0 -0.49970942811E+03 -0.73996026031E+02  0.19522034097E+04  0.20165030845E+04  0.12699999809E+01 0.  1.
       -4    1    3    3    0  502  0.49970942811E+03  0.73996026031E+02 -0.35866638509E+03  0.61953862923E+03  0.12699999809E+01 0. -1.
</event>
<event>
 5   0  0.6917078E-06  0.2100779E+04  0.7818609E-02  0.8560900E-01
        1   -1    0    0  501    0  0.00000000000E+00  0.00000000000E+00  0.14835394265E+04  0.14835394265E+04  0.50400001928E-02 0.  1.
       -1   -1    0    0    0  501  0.00000000000E+00  0.00000000000E+00 -0.74370691054E+03  0.74370691056E+03  0.50400001928E-02 0. -1.
    10030    2    1    2    0    0  0.00000000000E+00  0.00000000000E+00  0.73983251591E+03  0.22272463370E+04  0.21007794016E+04 0.  0.
        5    1    3    3  502    0  0.61704679541E+03 -0.49478605606E+03  0.11027104009E+04  0.13570380640E+04  0.46999998093E+01 0.  1.
       -5    1    3    3    0  502 -0.61704679541E+03  0.49478605606E+03 -0.36287788497E+03  0.87020827300E+03  0.46999998093E+01 0. -1.
</event>
<event>
 5   0  0.1441136E-05  0.2104119E+04  0.7818609E-02  0.8559431E-01
       -2   -1    0    0    0  501  0.00000000000E+00  0.00000000000E+00  0.10294764647E+04  0.10294764647E+04  0.25500000920E-02 0.  1.
        2   -1    0    0  501    0  0.00000000000E+00  0.00000000000E+00 -0.10751383653E+04  0.10751383653E+04  0.25500000920E-02 0. -1.
    10030    2    1    2    0    0  0.00000000000E+00  0.00000000000E+00 -0.45661900549E+02  0.21046148300E+04  0.21041194295E+04 0.  0.
        4    1    3    3  502    0 -0.12692110027E+03  0.60081810288E+01 -0.10674345185E+04  0.10749712220E+04  0.12699999809E+01 0. -1.
       -4    1    3    3    0  502  0.12692110027E+03 -0.60081810288E+01  0.10217726179E+04  0.10296436080E+04  0.12699999809E+01 0.  1.
</event>
<event>
 5   0  0.1441136E-05  0.2097922E+04  0.7818609E-02  0.8562159E-01
       -2   -1    0    0    0  501  0.00000000000E+00  0.00000000000E+00  0.96123603696E+03  0.96123603696E+03  0.25500000920E-02 0.  1.
        2   -1    0    0  501    0  0.00000000000E+00  0.00000000000E+00 -0.11446918859E+04  0.11446918859E+04  0.25500000920E-02 0. -1.
    10030    2    1    2    0    0  0.00000000000E+00  0.00000000000E+00 -0.18345584891E+03  0.21059279228E+04  0.20979219165E+04 0.  0.
        4    1    3    3  502    0 -0.65653796134E+03 -0.17473376516E+03  0.71053630438E+03  0.98307549869E+03  0.12699999809E+01 0.  1.
       -4    1    3    3    0  502  0.65653796134E+03  0.17473376516E+03 -0.89399215330E+03  0.11228524242E+04  0.12699999809E+01 0. -1.
</event>
<event>
 5   0  0.1344501E-05  0.2108191E+04  0.7818609E-02  0.8557644E-01
        2   -1    0    0  501    0  0.00000000000E+00  0.00000000000E+00  0.15550935325E+04  0.15550935325E+04  0.25500000920E-02 0.  1.
       -2   -1    0    0    0  501  0.00000000000E+00  0.00000000000E+00 -0.71450201042E+03  0.71450201043E+03  0.25500000920E-02 0. -1.
    10030    2    1    2    0    0  0.00000000000E+00  0.00000000000E+00  0.84059152209E+03  0.22695955429E+04  0.21081911255E+04 0.  0.
        3    1    3    3  502    0 -0.29884962479E+03  0.85912942889E+03 -0.15312106340E+03  0.92242102322E+03  0.10100000352E+00 0. -1.
       -3    1    3    3    0  502  0.29884962479E+03 -0.85912942889E+03  0.99371258549E+03  0.13471745197E+04  0.10100000352E+00 0.  1.
</event>
<event>
 5   0  0.6283269E-06  0.2122550E+04  0.7818609E-02  0.8551375E-01
       -1   -1    0    0    0  501  0.00000000000E+00  0.00000000000E+00  0.11231210816E+04  0.11231210816E+04  0.50400001928E-02 0.  1.
        1   -1    0    0  501    0  0.00000000000E+00  0.00000000000E+00 -0.10028342017E+04  0.10028342017E+04  0.50400001928E-02 0. -1.
    10030    2    1    2    0    0  0.00000000000E+00  0.00000000000E+00  0.12028687984E+03  0.21259552833E+04  0.21225496303E+04 0.  0.
        1    1    3    3  502    0 -0.64733745013E+03  0.81943863081E+03 -0.12931287766E+03  0.10522581738E+04  0.50400001928E-02 0. -1.
       -1    1    3    3    0  502  0.64733745013E+03 -0.81943863081E+03  0.24959975750E+03  0.10736971095E+04  0.50400001928E-02 0.  1.
</event>
<event>
 5   0  0.1441136E-05  0.2098446E+04  0.7818609E-02  0.8561928E-01
        2   -1    0    0  501    0  0.00000000000E+00  0.00000000000E+00  0.19559012277E+04  0.19559012277E+04  0.25500000920E-02 0. -1.
       -2   -1    0    0    0  501  0.00000000000E+00  0.00000000000E+00 -0.56284490653E+03  0.56284490653E+03  0.25500000920E-02 0.  1.
    10030    2    1    2    0    0  0.00000000000E+00  0.00000000000E+00  0.13930563212E+04  0.25187461343E+04  0.20984461334E+04 0.  0.
        4    1    3    3  502    0 -0.72259862850E+03 -0.75173171974E+03  0.83659793311E+03  0.13368422012E+04  0.12699999809E+01 0. -1.
       -4    1    3    3    0  502  0.72259862850E+03  0.75173171974E+03  0.55645838810E+03  0.11819039331E+04  0.12699999809E+01 0.  1.
</event>
<event>
 5   0  0.6238363E-06  0.2103079E+04  0.7818609E-02  0.8559888E-01
       -1   -1    0    0    0  501  0.00000000000E+00  0.00000000000E+00  0.62006438034E+03  0.62006438036E+03  0.50400001928E-02 0. -1.
        1   -1    0    0  501    0  0.00000000000E+00  0.00000000000E+00 -0.17832590802E+04  0.17832590803E+04  0.50400001928E-02 0.  1.
    10030    2    1    2    0    0  0.00000000000E+00  0.00000000000E+00 -0.11631946999E+04  0.24033234606E+04  0.21030791108E+04 0.  0.
        4    1    3    3  502    0  0.83260700953E+03  0.33703473626E+03  0.43179088530E+02  0.89927353589E+03  0.12699999809E+01 0.  1.
       -4    1    3    3    0  502 -0.83260700953E+03 -0.33703473626E+03 -0.12063737884E+04  0.15040499247E+04  0.12699999809E+01 0. -1.
</event>
<event>
 5   0  0.1395356E-05  0.2096339E+04  0.7818609E-02  0.8562858E-01
       -2   -1    0    0    0  501  0.00000000000E+00  0.00000000000E+00  0.83076981642E+03  0.83076981642E+03  0.25500000920E-02 0.  1.
        2   -1    0    0  501    0  0.00000000000E+00  0.00000000000E+00 -0.13224595760E+04  0.13224595761E+04  0.25500000920E-02 0. -1.
    10030    2    1    2    0    0  0.00000000000E+00  0.00000000000E+00 -0.49168975963E+03  0.21532293925E+04  0.20963391894E+04 0.  0.
        1    1    3    3  502    0  0.43061757801E+03  0.10940300362E+03 -0.12209547437E+04  0.12992809557E+04  0.50400001928E-02 0. -1.
       -1    1    3    3    0  502 -0.43061757801E+03 -0.10940300362E+03  0.72926498405E+03  0.85394843678E+03  0.50400001928E-02 0.  1.
</event>
<event>
 5   0  0.1390735E-05  0.2099987E+04  0.7818609E-02  0.8561249E-01
        2   -1    0    0  501    0  0.00000000000E+00  0.00000000000E+00  0.11571147416E+04  0.11571147416E+04  0.25500000920E-02 0.  1.
       -2   -1    0    0    0  501  0.00000000000E+00  0.00000000000E+00 -0.95278880622E+03  0.95278880623E+03  0.25500000920E-02 0. -1.
    10030    2    1    2    0    0  0.00000000000E+00  0.00000000000E+00  0.20432593535E+03  0.21099035478E+04  0.20999866412E+04 0.  0.
        5    1    3    3  502    0  0.88786138331E+03  0.37836258453E+03 -0.31332077278E+03  0.10147157622E+04  0.46999998093E+01 0.  1.
       -5    1    3    3    0  502 -0.88786138331E+03 -0.37836258453E+03  0.51764670814E+03  0.10951877856E+04  0.46999998093E+01 0. -1.
</event>
<event>
 5   0  0.6238363E-06  0.2102172E+04  0.7818609E-02  0.8560287E-01
       -1   -1    0    0    0  501  0.00000000000E+00  0.00000000000E+00  0.10654372530E+04  0.10654372530E+04  0.50400001928E-02 0.  1.
        1   -1    0    0  501    0  0.00000000000E+00  0.00000000000E+00 -0.10369281365E+04  0.10369281365E+04  0.50400001928E-02 0. -1.
    10030    2    1    2    0    0  0.00000000000E+00  0.00000000000E+00  0.28509116490E+02  0.21023653895E+04  0.21021720818E+04 0.  0.
        4    1    3    3  502    0  0.61700389572E+03 -0.99393011112E+02 -0.83093112082E+03  0.10397215581E+04  0.12699999809E+01 0. -1.
       -4    1    3    3    0  502 -0.61700389572E+03  0.99393011112E+02  0.85944023731E+03  0.10626438314E+04  0.12699999809E+01 0.  1.
</event>
<event>
 5   0  0.6283269E-06  0.2094881E+04  0.7818609E-02  0.8563502E-01
       -1   -1    0    0    0  501  0.00000000000E+00  0.00000000000E+00  0.10710272255E+04  0.10710272255E+04  0.50400001928E-02 0. -1.
        1   -1    0    0  501    0  0.00000000000E+00  0.00000000000E+00 -0.10243728487E+04  0.10243728487E+04  0.50400001928E-02 0.  1.
    10030    2    1    2    0    0  0.00000000000E+00  0.00000000000E+00  0.46654376812E+02  0.20954000742E+04  0.20948806267E+04 0.  0.
        1    1    3    3  502    0 -0.27180058020E+03  0.23397583406E+03  0.10077007598E+04  0.10696172529E+04  0.50400001928E-02 0. -1.
       -1    1    3    3    0  502  0.27180058020E+03 -0.23397583406E+03 -0.96104638297E+03  0.10257828213E+04  0.50400001928E-02 0.  1.
</event>
<event>
 5   0  0.6238363E-06  0.2099185E+04  0.7818609E-02  0.8561602E-01
       -1   -1    0    0    0  501  0.00000000000E+00  0.00000000000E+00  0.64460138651E+03  0.64460138653E+03  0.50400001928E-02 0.  1.
        1   -1    0    0  501    0  0.00000000000E+00  0.00000000000E+00 -0.17090320439E+04  0.17090320439E+04  0.50400001928E-02 0. -1.
    10030    2    1    2    0    0  0.00000000000E+00  0.00000000000E+00 -0.10644306574E+04  0.23536334304E+04  0.20991850086E+04 0.  0.
        4    1    3    3  502    0 -0.57769446922E+03 -0.49876025324E+02 -0.15131480669E+04  0.16204435204E+04  0.12699999809E+01 0. -1.
       -4    1    3    3    0  502  0.57769446922E+03  0.49876025324E+02  0.44871740950E+03  0.73318991002E+03  0.12699999809E+01 0.  1.
</event>
<event>
 5   0  0.1441136E-05  0.2097720E+04  0.7818609E-02  0.8562248E-01
        2   -1    0    0  501    0  0.00000000000E+00  0.00000000000E+00  0.88739039024E+03  0.88739039024E+03  0.25500000920E-02 0. -1.
       -2   -1    0    0    0  501  0.00000000000E+00  0.00000000000E+00 -0.12397110168E+04  0.12397110168E+04  0.25500000920E-02 0.  1.
    10030    2    1    2    0    0  0.00000000000E+00  0.00000000000E+00 -0.35232062655E+03  0.21271014070E+04  0.20977203274E+04 0.  0.
        4    1    3    3  502    0 -0.78276414279E+03 -0.25322590588E+03 -0.83585918973E+03  0.11728193640E+04  0.12699999809E+01 0.  1.
       -4    1    3    3    0  502  0.78276414279E+03  0.25322590588E+03  0.48353856317E+03  0.95428204302E+03  0.12699999809E+01 0. -1.
</event>
<event>
 5   0  0.6283269E-06  0.2094295E+04  0.7818609E-02  0.8563761E-01
        1   -1    0    0  501    0  0.00000000000E+00  0.00000000000E+00  0.10999191452E+04  0.10999191452E+04  0.50400001928E-02 0.  1.
       -1   -1    0    0    0  501  0.00000000000E+00  0.00000000000E+00 -0.99690786482E+03  0.99690786484E+03  0.50400001928E-02 0. -1.
    10030    2    1    2    0    0  0.00000000000E+00  0.00000000000E+00  0.10301128033E+03  0.20968270100E+04  0.20942951526E+04 0.  0.
        1    1    3    3  502    0 -0.38604206968E+03 -0.96506979410E+03  0.17866256197E+03  0.10546603710E+04  0.50400001928E-02 0.  1.
       -1    1    3    3    0  502  0.38604206968E+03  0.96506979410E+03 -0.75651281644E+02  0.10421666390E+04  0.50400001928E-02 0. -1.
</event>
<event>
 5   0  0.1395356E-05  0.2089358E+04  0.7818609E-02  0.8565946E-01
        2   -1    0    0  501    0  0.00000000000E+00  0.00000000000E+00  0.99034677318E+03  0.99034677319E+03  0.25500000920E-02 0.  1.
       -2   -1    0    0    0  501  0.00000000000E+00  0.00000000000E+00 -0.11019915535E+04  0.11019915535E+04  0.25500000920E-02 0. -1.
    10030    2    1    2    0    0  0.00000000000E+00  0.00000000000E+00 -0.11164478035E+03  0.20923383267E+04  0.20893575846E+04 0.  0.
        1    1    3    3  502    0 -0.64857177755E+03 -0.54009817852E+03 -0.67233236611E+03  0.10790654306E+04  0.50400001928E-02 0. -1.
       -1    1    3    3    0  502  0.64857177755E+03  0.54009817852E+03  0.56068758576E+03  0.10132728961E+04  0.50400001928E-02 0.  1.
</event>
<event>
 5   0  0.5009125E-06  0.2096451E+04  0.7818609E-02  0.8562808E-01
       -3   -1    0    0    0  501  0.00000000000E+00  0.00000000000E+00  0.70526548929E+03  0.70526549652E+03  0.10100000352E+00 0.  1.
        3   -1    0    0  501    0  0.00000000000E+00  0.00000000000E+00 -0.15579618577E+04  0.15579618610E+04  0.10100000352E+00 0. -1.
    10030    2    1    2    0    0  0.00000000000E+00  0.00000000000E+00 -0.85269636843E+03  0.22632273575E+04  0.20964510429E+04 0.  0.
        4    1    3    3  502    0  0.64517253062E+03  0.38188000138E+03 -0.12172222148E+04  0.14295843672E+04  0.12699999809E+01 0. -1.
       -4    1    3    3    0  502 -0.64517253062E+03 -0.38188000138E+03  0.36452584641E+03  0.83364299033E+03  0.12699999809E+01 0.  1.
</event>
<event>
 5   0  0.6917078E-06  0.2100761E+04  0.7818609E-02  0.8560908E-01
       -1   -1    0    0    0  501  0.00000000000E+00  0.00000000000E+00  0.10719080947E+04  0.10719080947E+04  0.50400001928E-02 0.  1.
        1   -1    0    0  501    0  0.00000000000E+00  0.00000000000E+00 -0.10292851629E+04  0.10292851629E+04  0.50400001928E-02 0. -1.
    10030    2    1    2    0    0  0.00000000000E+00  0.00000000000E+00  0.42622931839E+02  0.21011932576E+04  0.21007609077E+04 0.  0.
        5    1    3    3  502    0 -0.26775861475E+03 -0.18403899863E+03  0.10203723711E+04  0.10708626870E+04  0.46999998093E+01 0.  1.
       -5    1    3    3    0  502  0.26775861475E+03  0.18403899863E+03 -0.97774943922E+03  0.10303305706E+04  0.46999998093E+01 0. -1.
</event>
<event>
 5   0  0.1344501E-05  0.2105705E+04  0.7818609E-02  0.8558734E-01
       -2   -1    0    0    0  501  0.00000000000E+00  0.00000000000E+00  0.55986019606E+03  0.55986019607E+03  0.25500000920E-02 0. -1.
        2   -1    0    0  501    0  0.00000000000E+00  0.00000000000E+00 -0.19799564979E+04  0.19799564979E+04  0.25500000920E-02 0.  1.
    10030    2    1    2    0    0  0.00000000000E+00  0.00000000000E+00 -0.14200963019E+04  0.25398166940E+04  0.21057054240E+04 0.  0.
        3    1    3    3  502    0  0.49487259316E+03  0.49488848973E+03  0.23867536180E+03  0.73944535921E+03  0.10100000352E+00 0. -1.
       -3    1    3    3    0  502 -0.49487259316E+03 -0.49488848973E+03 -0.16587716637E+04  0.18003713348E+04  0.10100000352E+00 0.  1.
</event>
<event>
 5   0  0.6283269E-06  0.2103148E+04  0.7818609E-02  0.8559858E-01
        1   -1    0    0  501    0  0.00000000000E+00  0.00000000000E+00  0.14637544630E+04  0.14637544630E+04  0.50400001928E-02 0.  1.
       -1   -1    0    0    0  501  0.00000000000E+00  0.00000000000E+00 -0.75545967709E+03  0.75545967710E+03  0.50400001928E-02 0. -1.
    10030    2    1    2    0    0  0.00000000000E+00  0.00000000000E+00  0.70829478594E+03  0.22192141401E+04  0.21031476163E+04 0.  0.
        1    1    3    3  502    0  0.50329532850E+03  0.34130543396E+03 -0.55110955974E+03  0.82068101830E+03  0.50400001928E-02 0. -1.
       -1    1    3    3    0  502 -0.50329532850E+03 -0.34130543396E+03  0.12594043457E+04  0.13985331218E+04  0.50400001928E-02 0.  1.
</event>
<event>
 5   0  0.6917078E-06  0.2076611E+04  0.7818609E-02  0.8571617E-01
        1   -1    0    0  501    0  0.00000000000E+00  0.00000000000E+00  0.12541381132E+04  0.12541381132E+04  0.50400001928E-02 0.  1.
       -1   -1    0    0    0  501  0.00000000000E+00  0.00000000000E+00 -0.85961658079E+03  0.85961658080E+03  0.50400001928E-02 0. -1.
    10030    2    1    2    0    0  0.00000000000E+00  0.00000000000E+00  0.39452153243E+03  0.21137546940E+04  0.20766106200E+04 0.  0.
        5    1    3    3  502    0  0.51050567311E+03 -0.75794261261E+03  0.69898997973E+03  0.11505225456E+04  0.46999998093E+01 0.  1.
       -5    1    3    3    0  502 -0.51050567311E+03  0.75794261261E+03 -0.30446844730E+03  0.96323214838E+03  0.46999998093E+01 0. -1.
</event>
<event>
 5   0  0.5009125E-06  0.2102866E+04  0.7818609E-02  0.8559982E-01
        3   -1    0    0  501    0  0.00000000000E+00  0.00000000000E+00  0.48073198787E+03  0.48073199848E+03  0.10100000352E+00 0. -1.
       -3   -1    0    0    0  501  0.00000000000E+00  0.00000000000E+00 -0.22996413450E+04  0.22996413472E+04  0.10100000352E+00 0.  1.
    10030    2    1    2    0    0  0.00000000000E+00  0.00000000000E+00 -0.18189093572E+04  0.27803733457E+04  0.21028658283E+04 0.  0.
        5    1    3    3  502    0 -0.56844105519E+03  0.36900836906E+03 -0.19723094136E+04  0.20855020792E+04  0.46999998093E+01 0.  1.
       -5    1    3    3    0  502  0.56844105519E+03 -0.36900836906E+03  0.15340005641E+03  0.69487126647E+03  0.46999998093E+01 0. -1.
</event>
<event>
 5   0  0.1390735E-05  0.2099702E+04  0.7818609E-02  0.8561374E-01
        2   -1    0    0  501    0  0.00000000000E+00  0.00000000000E+00  0.94574467127E+03  0.94574467128E+03  0.25500000920E-02 0. -1.
       -2   -1    0    0    0  501  0.00000000000E+00  0.00000000000E+00 -0.11654176359E+04  0.11654176359E+04  0.25500000920E-02 0.  1.
    10030    2    1    2    0    0  0.00000000000E+00  0.00000000000E+00 -0.21967296466E+03  0.21111623072E+04  0.20997023780E+04 0.  0.
        5    1    3    3  502    0  0.50827465022E+03 -0.18028381787E+03 -0.10154856425E+04  0.11498167485E+04  0.46999998093E+01 0.  1.
       -5    1    3    3    0  502 -0.50827465022E+03  0.18028381787E+03  0.79581267784E+03  0.96134555871E+03  0.46999998093E+01 0. -1.
</event>
<event>
 5   0  0.6283269E-06  0.2099322E+04  0.7818609E-02  0.8561542E-01
       -1   -1    0    0    0  501  0.00000000000E+00  0.00000000000E+00  0.10457012435E+04  0.10457012435E+04  0.50400001928E-02 0. -1.
        1   -1    0    0  501    0  0.00000000000E+00  0.00000000000E+00 -0.10536354455E+04  0.10536354456E+04  0.50400001928E-02 0.  1.
    10030    2    1    2    0    0  0.00000000000E+00  0.00000000000E+00 -0.79342020218E+01  0.20993366891E+04  0.20993216958E+04 0.  0.
        1    1    3    3  502    0  0.44900478189E+03 -0.94454009370E+03 -0.93559106907E+02  0.10500069472E+04  0.50400001928E-02 0. -1.
       -1    1    3    3    0  502 -0.44900478189E+03  0.94454009370E+03  0.85624904885E+02  0.10493297418E+04  0.50400001928E-02 0.  1.
</event>
<event>
 5   0  0.6917078E-06  0.2100523E+04  0.7818609E-02  0.8561013E-01
       -1   -1    0    0    0  501  0.00000000000E+00  0.00000000000E+00  0.40667945498E+03  0.40667945501E+03  0.50400001928E-02 0.  1.
        1   -1    0    0  501    0  0.00000000000E+00  0.00000000000E+00 -0.27123308352E+04  0.27123308352E+04  0.50400001928E-02 0. -1.
    10030    2    1    2    0    0  0.00000000000E+00  0.00000000000E+00 -0.23056513802E+04  0.31190102902E+04  0.21005230071E+04 0.  0.
        5    1    3    3  502    0  0.32583063601E+03  0.33591430559E+03  0.24328924967E+03  0.52746163184E+03  0.46999998093E+01 0.  1.
       -5    1    3    3    0  502 -0.32583063601E+03 -0.33591430559E+03 -0.25489406299E+04  0.25915486584E+04  0.46999998093E+01 0. -1.
</event>
<event>
 5   0  0.6589193E-06  0.2102187E+04  0.7818609E-02  0.8560281E-01
        1   -1    0    0  501    0  0.00000000000E+00  0.00000000000E+00  0.11601217046E+04  0.11601217046E+04  0.50400001928E-02 0. -1.
       -1   -1    0    0    0  501  0.00000000000E+00  0.00000000000E+00 -0.95231190980E+03  0.95231190982E+03  0.50400001928E-02 0.  1.
    10030    2    1    2    0    0  0.00000000000E+00  0.00000000000E+00  0.20780979482E+03  0.21124336145E+04  0.21021871621E+04 0.  0.
        3    1    3    3  502    0 -0.78028639376E+03 -0.15318482592E+03  0.79463092595E+03  0.11241666984E+04  0.10100000352E+00 0. -1.
       -3    1    3    3    0  502  0.78028639376E+03  0.15318482592E+03 -0.58682113113E+03  0.98826691603E+03  0.10100000352E+00 0.  1.
</event>
<event>
 5   0  0.1441136E-05  0.2087211E+04  0.7818609E-02  0.8566898E-01
        2   -1    0    0  501    0  0.00000000000E+00  0.00000000000E+00  0.18956247839E+04  0.18956247839E+04  0.25500000920E-02 0. -1.
       -2   -1    0    0    0  501  0.00000000000E+00  0.00000000000E+00 -0.57454016475E+03  0.57454016475E+03  0.25500000920E-02 0.  1.
    10030    2    1    2    0    0  0.00000000000E+00  0.00000000000E+00  0.13210846191E+04  0.24701649486E+04  0.20872111303E+04 0.  0.
        4    1    3    3  502    0 -0.28597422056E+03  0.51086325423E+03  0.16829647866E+04  0.17818907388E+04  0.12699999809E+01 0. -1.
       -4    1    3    3    0  502  0.28597422056E+03 -0.51086325423E+03 -0.36188016747E+03  0.68827420979E+03  0.12699999809E+01 0.  1.
</event>
<event>
 5   0  0.6599245E-06  0.2100159E+04  0.7818609E-02  0.8561173E-01
        1   -1    0    0  501    0  0.00000000000E+00  0.00000000000E+00  0.12421814968E+04  0.12421814968E+04  0.50400001928E-02 0.  1.
       -1   -1    0    0    0  501  0.00000000000E+00  0.00000000000E+00 -0.88768573812E+03  0.88768573814E+03  0.50400001928E-02 0. -1.
    10030    2    1    2    0    0  0.00000000000E+00  0.00000000000E+00  0.35449575871E+03  0.21298672350E+04  0.21001588501E+04 0.  0.
        2    1    3    3  502    0 -0.73223387063E+03 -0.26781443249E+03  0.89060106841E+03  0.11836643420E+04  0.25500000920E-02 0.  1.
       -2    1    3    3    0  502  0.73223387063E+03  0.26781443249E+03 -0.53610530969E+03  0.94620289295E+03  0.25500000920E-02 0. -1.
</event>
<event>
 5   0  0.5009125E-06  0.2100888E+04  0.7818609E-02  0.8560852E-01
        3   -1    0    0  501    0  0.00000000000E+00  0.00000000000E+00  0.16433530663E+04  0.16433530694E+04  0.10100000352E+00 0.  1.
       -3   -1    0    0    0  501  0.00000000000E+00  0.00000000000E+00 -0.67145209557E+03  0.67145210316E+03  0.10100000352E+00 0. -1.
    10030    2    1    2    0    0  0.00000000000E+00  0.00000000000E+00  0.97190097077E+03  0.23148051726E+04  0.21008882622E+04 0.  0.
        2    1    3    3  502    0 -0.71521175639E+03 -0.18647306818E+03 -0.33646420148E+03  0.81210111472E+03  0.25500000920E-02 0. -1.
       -2    1    3    3    0  502  0.71521175639E+03  0.18647306818E+03  0.13083651723E+04  0.15027040579E+04  0.25500000920E-02 0.  1.
</event>
<event>
 5   0  0.1395356E-05  0.2100854E+04  0.7818609E-02  0.8560867E-01
       -2   -1    0    0    0  501  0.00000000000E+00  0.00000000000E+00  0.68119260136E+03  0.68119260136E+03  0.25500000920E-02 0.  1.
        2   -1    0    0  501    0  0.00000000000E+00  0.00000000000E+00 -0.16198020701E+04  0.16198020701E+04  0.25500000920E-02 0. -1.
    10030    2    1    2    0    0  0.00000000000E+00  0.00000000000E+00 -0.93860946878E+03  0.23009946715E+04  0.21008542889E+04 0.  0.
        1    1    3    3  502    0 -0.90131039670E+02  0.47280017267E+02 -0.16143887378E+04  0.16175938925E+04  0.50400001928E-02 0. -1.
       -1    1    3    3    0  502  0.90131039670E+02 -0.47280017267E+02  0.67577926899E+03  0.68340077902E+03  0.50400001928E-02 0.  1.
</event>
<event>
 5   0  0.1441136E-05  0.2100894E+04  0.7818609E-02  0.8560850E-01
       -2   -1    0    0    0  501  0.00000000000E+00  0.00000000000E+00  0.14510176945E+04  0.14510176945E+04  0.25500000920E-02 0. -1.
        2   -1    0    0  501    0  0.00000000000E+00  0.00000000000E+00 -0.76045859889E+03  0.76045859890E+03  0.25500000920E-02 0.  1.
    10030    2    1    2    0    0  0.00000000000E+00  0.00000000000E+00  0.69055909563E+03  0.22114762934E+04  0.21008939840E+04 0.  0.
        4    1    3    3  502    0 -0.17065702711E+03 -0.46941118890E+03 -0.62746451653E+03  0.80198754203E+03  0.12699999809E+01 0.  1.
       -4    1    3    3    0  502  0.17065702711E+03  0.46941118890E+03  0.13180236122E+04  0.14094887514E+04  0.12699999809E+01 0. -1.
</event>
<event>
 5   0  0.1441136E-05  0.2099643E+04  0.7818609E-02  0.8561401E-01
       -2   -1    0    0    0  501  0.00000000000E+00  0.00000000000E+00  0.13047623963E+04  0.13047623963E+04  0.25500000920E-02 0. -1.
        2   -1    0    0  501    0  0.00000000000E+00  0.00000000000E+00 -0.84469436014E+03  0.84469436014E+03  0.25500000920E-02 0.  1.
    10030    2    1    2    0    0  0.00000000000E+00  0.00000000000E+00  0.46006803612E+03  0.21494567564E+04  0.20996432435E+04 0.  0.
        4    1    3    3  502    0 -0.65188809579E+03  0.49539004202E+03  0.90270332275E+03  0.12187059879E+04  0.12699999809E+01 0.  1.
       -4    1    3    3    0  502  0.65188809579E+03 -0.49539004202E+03 -0.44263528663E+03  0.93075076849E+03  0.12699999809E+01 0. -1.
</event>
<event>
 5   0  0.1398469E-05  0.2106217E+04  0.7818609E-02  0.8558510E-01
       -2   -1    0    0    0  501  0.00000000000E+00  0.00000000000E+00  0.90083482966E+03  0.90083482967E+03  0.25500000920E-02 0. -1.
        2   -1    0    0  501    0  0.00000000000E+00  0.00000000000E+00 -0.12311214561E+04  0.12311214561E+04  0.25500000920E-02 0.  1.
    10030    2    1    2    0    0  0.00000000000E+00  0.00000000000E+00 -0.33028662639E+03  0.21319562857E+04  0.21062165959E+04 0.  0.
        2    1    3    3  502    0  0.18705663140E+03 -0.55520685385E+02  0.88237777264E+03  0.90369423121E+03  0.25500000920E-02 0. -1.
       -2    1    3    3    0  502 -0.18705663140E+03  0.55520685385E+02 -0.12126643990E+04  0.12282620545E+04  0.25500000920E-02 0.  1.
</event>
<event>
 5   0  0.1344501E-05  0.2106194E+04  0.7818609E-02  0.8558520E-01
       -2   -1    0    0    0  501  0.00000000000E+00  0.00000000000E+00  0.22338316833E+04  0.22338316833E+04  0.25500000920E-02 0.  1.
        2   -1    0    0  501    0  0.00000000000E+00  0.00000000000E+00 -0.49646221905E+03  0.49646221906E+03  0.25500000920E-02 0. -1.
    10030    2    1    2    0    0  0.00000000000E+00  0.00000000000E+00  0.17373694643E+04  0.27302939024E+04  0.21061937561E+04 0.  0.
        3    1    3    3  502    0  0.33539867179E+02 -0.36727582779E+02 -0.49493876906E+03  0.49743163686E+03  0.10100000352E+00 0. -1.
       -3    1    3    3    0  502 -0.33539867179E+02  0.36727582779E+02  0.22323082333E+04  0.22328622655E+04  0.10100000352E+00 0.  1.
</event>
<event>
 5   0  0.6589193E-06  0.2108101E+04  0.7818609E-02  0.8557683E-01
       -1   -1    0    0    0  501  0.00000000000E+00  0.00000000000E+00  0.11074768192E+04  0.11074768192E+04  0.50400001928E-02 0. -1.
        1   -1    0    0  501    0  0.00000000000E+00  0.00000000000E+00 -0.10032018449E+04  0.10032018449E+04  0.50400001928E-02 0.  1.
    10030    2    1    2    0    0  0.00000000000E+00  0.00000000000E+00  0.10427497427E+03  0.21106786641E+04  0.21081013146E+04 0.  0.
        3    1    3    3  502    0 -0.67064896273E+03  0.39516350480E+02  0.86534426176E+03  0.10955146164E+04  0.10100000352E+00 0. -1.
       -3    1    3    3    0  502  0.67064896273E+03 -0.39516350480E+02 -0.76106928749E+03  0.10151640477E+04  0.10100000352E+00 0.  1.
</event>
<event>
 5   0  0.6238363E-06  0.2103471E+04  0.7818609E-02  0.8559716E-01
        1   -1    0    0  501    0  0.00000000000E+00  0.00000000000E+00  0.10231291901E+04  0.10231291901E+04  0.50400001928E-02 0.  1.
       -1   -1    0    0    0  501  0.00000000000E+00  0.00000000000E+00 -0.10811411569E+04  0.10811411569E+04  0.50400001928E-02 0. -1.
    10030    2    1    2    0    0  0.00000000000E+00  0.00000000000E+00 -0.58011966822E+02  0.21042703470E+04  0.21034705382E+04 0.  0.
        4    1    3    3  502    0  0.21758282752E+03  0.10190908161E+04  0.11337552106E+03  0.10482099026E+04  0.12699999809E+01 0. -1.
       -4    1    3    3    0  502 -0.21758282752E+03 -0.10190908161E+04 -0.17138748788E+03  0.10560604444E+04  0.12699999809E+01 0.  1.
</event>
<event>
 5   0  0.1344501E-05  0.2098732E+04  0.7818609E-02  0.8561802E-01
        2   -1    0    0  501    0  0.00000000000E+00  0.00000000000E+00  0.96387432448E+03  0.96387432448E+03  0.25500000920E-02 0.  1.
       -2   -1    0    0    0  501  0.00000000000E+00  0.00000000000E+00 -0.11424402433E+04  0.11424402433E+04  0.25500000920E-02 0. -1.
    10030    2    1    2    0    0  0.00000000000E+00  0.00000000000E+00 -0.17856591884E+03  0.21063145678E+04  0.20987318245E+04 0.  0.
        3    1    3    3  502    0  0.43795095152E+03  0.60437847049E+02 -0.10444120502E+04  0.11341297589E+04  0.10100000352E+00 0. -1.
       -3    1    3    3    0  502 -0.43795095152E+03 -0.60437847049E+02  0.86584613133E+03  0.97218480889E+03  0.10100000352E+00 0.  1.
</event>
<event>
 5   0  0.1398469E-05  0.2097172E+04  0.7818609E-02  0.8562490E-01
        2   -1    0    0  501    0  0.00000000000E+00  0.00000000000E+00  0.21885517572E+04  0.21885517572E+04  0.25500000920E-02 0. -1.
       -2   -1    0    0    0  501  0.00000000000E+00  0.00000000000E+00 -0.50240213407E+03  0.50240213408E+03  0.25500000920E-02 0.  1.
    10030    2    1    2    0    0  0.00000000000E+00  0.00000000000E+00  0.16861496232E+04  0.26909538913E+04  0.20971724520E+04 0.  0.
        2    1    3    3  502    0  0.96403149502E+03 -0.13526256140E+03  0.34301383685E+03  0.10321391264E+04  0.25500000920E-02 0. -1.
       -2    1    3    3    0  502 -0.96403149502E+03  0.13526256140E+03  0.13431357863E+04  0.16588147649E+04  0.25500000920E-02 0.  1.
</event>
<event>
 5   0  0.6283269E-06  0.2098761E+04  0.7818609E-02  0.8561789E-01
        1   -1    0    0  501    0  0.00000000000E+00  0.00000000000E+00  0.25732071997E+04  0.25732071997E+04  0.50400001928E-02 0.  1.
       -1   -1    0    0    0  501  0.00000000000E+00  0.00000000000E+00 -0.42794811002E+03  0.42794811005E+03  0.50400001928E-02 0. -1.
    10030    2    1    2    0    0  0.00000000000E+00  0.00000000000E+00  0.21452590897E+04  0.30011553097E+04  0.20987607370E+04 0.  0.
        1    1    3    3  502    0 -0.75576318364E+03  0.66402003086E+03  0.14994654045E+04  0.18056846598E+04  0.50400001928E-02 0.  1.
       -1    1    3    3    0  502  0.75576318364E+03 -0.66402003086E+03  0.64579368513E+03  0.11954706500E+04  0.50400001928E-02 0. -1.
</event>
<event>
 5   0  0.1395356E-05  0.2098229E+04  0.7818609E-02  0.8562024E-01
       -2   -1    0    0    0  501  0.00000000000E+00  0.00000000000E+00  0.44587752100E+03  0.44587752101E+03  0.25500000920E-02 0.  1.
        2   -1    0    0  501    0  0.00000000000E+00  0.00000000000E+00 -0.24684823879E+04  0.24684823879E+04  0.25500000920E-02 0. -1.
    10030    2    1    2    0    0  0.00000000000E+00  0.00000000000E+00 -0.20226048669E+04  0.29143599089E+04  0.20982285936E+04 0.  0.
        1    1    3    3  502    0  0.88811517847E+03 -0.45812292756E+03 -0.56766955900E+03  0.11492927892E+04  0.50400001928E-02 0. -1.
       -1    1    3    3    0  502 -0.88811517847E+03  0.45812292756E+03 -0.14549353079E+04  0.17650671197E+04  0.50400001928E-02 0.  1.
</event>
<event>
 5   0  0.6599245E-06  0.2100463E+04  0.7818609E-02  0.8561039E-01
        1   -1    0    0  501    0  0.00000000000E+00  0.00000000000E+00  0.17235513314E+04  0.17235513314E+04  0.50400001928E-02 0. -1.
       -1   -1    0    0    0  501  0.00000000000E+00  0.00000000000E+00 -0.63994979656E+03  0.63994979658E+03  0.50400001928E-02 0.  1.
    10030    2    1    2    0    0  0.00000000000E+00  0.00000000000E+00  0.10836015348E+04  0.23635011279E+04  0.21004631145E+04 0.  0.
        2    1    3    3  502    0 -0.35198265796E+03  0.70271111394E+02 -0.56879271770E+03  0.67257339846E+03  0.25500000920E-02 0.  1.
       -2    1    3    3    0  502  0.35198265796E+03 -0.70271111394E+02  0.16523942525E+04  0.16909277295E+04  0.25500000920E-02 0. -1.
</event>
<event>
 5   0  0.1390735E-05  0.2099205E+04  0.7818609E-02  0.8561594E-01
        2   -1    0    0  501    0  0.00000000000E+00  0.00000000000E+00  0.98663891377E+03  0.98663891378E+03  0.25500000920E-02 0.  1.
       -2   -1    0    0    0  501  0.00000000000E+00  0.00000000000E+00 -0.11165837929E+04  0.11165837929E+04  0.25500000920E-02 0. -1.
    10030    2    1    2    0    0  0.00000000000E+00  0.00000000000E+00 -0.12994487914E+03  0.21032227067E+04  0.20992046309E+04 0.  0.
        5    1    3    3  502    0  0.73791799330E+03  0.72527910545E+03 -0.24163403117E+03  0.10625261600E+04  0.46999998093E+01 0. -1.
       -5    1    3    3    0  502 -0.73791799330E+03 -0.72527910545E+03  0.11168915203E+03  0.10406965467E+04  0.46999998093E+01 0.  1.
</event>
<event>
 5   0  0.6599245E-06  0.2102395E+04  0.7818609E-02  0.8560189E-01
       -1   -1    0    0    0  501  0.00000000000E+00  0.00000000000E+00  0.19567637828E+04  0.19567637828E+04  0.50400001928E-02 0.  1.
        1   -1    0    0  501    0  0.00000000000E+00  0.00000000000E+00 -0.56471602273E+03  0.56471602276E+03  0.50400001928E-02 0. -1.
    10030    2    1    2    0    0  0.00000000000E+00  0.00000000000E+00  0.13920477600E+04  0.25214798055E+04  0.21023946926E+04 0.  0.
        2    1    3    3  502    0 -0.10431826477E+03  0.17731578739E+03  0.19323842779E+04  0.19433044503E+04  0.25500000920E-02 0.  1.
       -2    1    3    3    0  502  0.10431826477E+03 -0.17731578739E+03 -0.54033651791E+03  0.57817535525E+03  0.25500000920E-02 0. -1.
</event>
<event>
 5   0  0.6283269E-06  0.2101911E+04  0.7818609E-02  0.8560402E-01
        1   -1    0    0  501    0  0.00000000000E+00  0.00000000000E+00  0.13023640433E+04  0.13023640433E+04  0.50400001928E-02 0.  1.
       -1   -1    0    0    0  501  0.00000000000E+00  0.00000000000E+00 -0.84807883813E+03  0.84807883814E+03  0.50400001928E-02 0. -1.
    10030    2    1    2    0    0  0.00000000000E+00  0.00000000000E+00  0.45428520518E+03  0.21504428815E+04  0.21019109255E+04 0.  0.
        1    1    3    3  502    0 -0.50438658598E+03 -0.14086829976E+02 -0.71604550282E+03  0.87597113481E+03  0.50400001928E-02 0. -1.
       -1    1    3    3    0  502  0.50438658598E+03  0.14086829976E+02  0.11703307080E+04  0.12744717466E+04  0.50400001928E-02 0.  1.
</event>
<event>
 5   0  0.6917078E-06  0.2097676E+04  0.7818609E-02  0.8562268E-01
       -1   -1    0    0    0  501  0.00000000000E+00  0.00000000000E+00  0.14452521129E+04  0.14452521129E+04  0.50400001928E-02 0.  1.
        1   -1    0    0  501    0  0.00000000000E+00  0.00000000000E+00 -0.76115510462E+03  0.76115510464E+03  0.50400001928E-02 0. -1.
    10030    2    1    2    0    0  0.00000000000E+00  0.00000000000E+00  0.68409700825E+03  0.22064072175E+04  0.20976758789E+04 0.  0.
        5    1    3    3  502    0  0.61464589154E+02 -0.87263955712E+03  0.95062457180E+03  0.12918927428E+04  0.46999998093E+01 0.  1.
       -5    1    3    3    0  502 -0.61464589154E+02  0.87263955712E+03 -0.26652756354E+03  0.91451447473E+03  0.46999998093E+01 0. -1.
</event>
<event>
 5   0  0.1395356E-05  0.2101868E+04  0.7818609E-02  0.8560421E-01
       -2   -1    0    0    0  501  0.00000000000E+00  0.00000000000E+00  0.59750846524E+03  0.59750846524E+03  0.25500000920E-02 0. -1.
        2   -1    0    0  501    0  0.00000000000E+00  0.00000000000E+00 -0.18484461731E+04  0.18484461731E+04  0.25500000920E-02 0.  1.
    10030    2    1    2    0    0  0.00000000000E+00  0.00000000000E+00 -0.12509377078E+04  0.24459546383E+04  0.21018679654E+04 0.  0.
        1    1    3    3  502    0  0.61678469668E+03 -0.29704639466E+03 -0.15533749314E+04  0.16975375107E+04  0.50400001928E-02 0.  1.
       -1    1    3    3    0  502 -0.61678469668E+03  0.29704639466E+03  0.30243722360E+03  0.74841712760E+03  0.50400001928E-02 0. -1.
</event>
<event>
 5   0  0.6589193E-06  0.2098641E+04  0.7818609E-02  0.8561842E-01
       -1   -1    0    0    0  501  0.00000000000E+00  0.00000000000E+00  0.48665154601E+03  0.48665154604E+03  0.50400001928E-02 0. -1.
        1   -1    0    0  501    0  0.00000000000E+00  0.00000000000E+00 -0.22625502621E+04  0.22625502621E+04  0.50400001928E-02 0.  1.
    10030    2    1    2    0    0  0.00000000000E+00  0.00000000000E+00 -0.17758987161E+04  0.27492018082E+04  0.20986410680E+04 0.  0.
        3    1    3    3  502    0  0.48459271025E+02  0.91204297752E+03 -0.21117314982E+03  0.93742455867E+03  0.10100000352E+00 0. -1.
       -3    1    3    3    0  502 -0.48459271025E+02 -0.91204297752E+03 -0.15647255663E+04  0.18117772495E+04  0.10100000352E+00 0.  1.
</event>
<event>
 5   0  0.1398469E-05  0.2099524E+04  0.7818609E-02  0.8561453E-01
        2   -1    0    0  501    0  0.00000000000E+00  0.00000000000E+00  0.28108277932E+04  0.28108277932E+04  0.25500000920E-02 0.  1.
       -2   -1    0    0    0  501  0.00000000000E+00  0.00000000000E+00 -0.39205539578E+03  0.39205539579E+03  0.25500000920E-02 0. -1.
    10030    2    1    2    0    0  0.00000000000E+00  0.00000000000E+00  0.24187723974E+04  0.32028831890E+04  0.20995239488E+04 0.  0.
        2    1    3    3  502    0 -0.89876512682E+03 -0.11854195205E+03  0.40190855882E+03  0.99164582248E+03  0.25500000920E-02 0. -1.
       -2    1    3    3    0  502  0.89876512682E+03  0.11854195205E+03  0.20168638386E+04  0.22112373665E+04  0.25500000920E-02 0.  1.
</event>
<event>
 5   0  0.6238363E-06  0.2098724E+04  0.7818609E-02  0.8561806E-01
        1   -1    0    0  501    0  0.00000000000E+00  0.00000000000E+00  0.11828888196E+04  0.11828888197E+04  0.50400001928E-02 0. -1.
       -1   -1    0    0    0  501  0.00000000000E+00  0.00000000000E+00 -0.93090782155E+03  0.93090782156E+03  0.50400001928E-02 0.  1.
    10030    2    1    2    0    0  0.00000000000E+00  0.00000000000E+00  0.25198099809E+03  0.21137966412E+04  0.20987238544E+04 0.  0.
        4    1    3    3  502    0  0.47566816823E+03 -0.22774482617E+03 -0.78773550066E+03  0.94797507563E+03  0.12699999809E+01 0.  1.
       -4    1    3    3    0  502 -0.47566816823E+03  0.22774482617E+03  0.10397164987E+04  0.11658215656E+04  0.12699999809E+01 0. -1.
</event>
<event>
 5   0  0.6917078E-06  0.2096214E+04  0.7818609E-02  0.8562913E-01
        1   -1    0    0  501    0  0.00000000000E+00  0.00000000000E+00  0.17546021174E+04  0.17546021174E+04  0.50400001928E-02 0. -1.
       -1   -1    0    0    0  501  0.00000000000E+00  0.00000000000E+00 -0.62608404893E+03  0.62608404895E+03  0.50400001928E-02 0.  1.
    10030    2    1    2    0    0  0.00000000000E+00  0.00000000000E+00  0.11285180685E+04  0.23806861663E+04  0.20962141092E+04 0.  0.
        5    1    3    3  502    0  0.87783128425E+02 -0.39457633266E+03  0.16625005253E+04  0.17109431453E+04  0.46999998093E+01 0. -1.
       -5    1    3    3    0  502 -0.87783128425E+02  0.39457633266E+03 -0.53398245686E+03  0.66974302099E+03  0.46999998093E+01 0.  1.
</event>
<event>
 5   0  0.1390735E-05  0.2100415E+04  0.7818609E-02  0.8561061E-01
        2   -1    0    0  501    0  0.00000000000E+00  0.00000000000E+00  0.11503634427E+04  0.11503634427E+04  0.25500000920E-02 0.  1.
       -2   -1    0    0    0  501  0.00000000000E+00  0.00000000000E+00 -0.95877143615E+03  0.95877143616E+03  0.25500000920E-02 0. -1.
    10030    2    1    2    0    0  0.00000000000E+00  0.00000000000E+00  0.19159200651E+03  0.21091348788E+04  0.21004148257E+04 0.  0.
        5    1    3    3  502    0  0.32244134242E+03  0.77846830104E+03  0.72524144272E+03  0.11117457242E+04  0.46999998093E+01 0.  1.
       -5    1    3    3    0  502 -0.32244134242E+03 -0.77846830104E+03 -0.53364943621E+03  0.99738915463E+03  0.46999998093E+01 0. -1.
</event>
<event>
 5   0  0.6917078E-06  0.2101970E+04  0.7818609E-02  0.8560376E-01
       -1   -1    0    0    0  501  0.00000000000E+00  0.00000000000E+00  0.47210773767E+03  0.47210773770E+03  0.50400001928E-02 0.  1.
        1   -1    0    0  501    0  0.00000000000E+00  0.00000000000E+00 -0.23396558543E+04  0.23396558543E+04  0.50400001928E-02 0. -1.
    10030    2    1    2    0    0  0.00000000000E+00  0.00000000000E+00 -0.18675481166E+04  0.28117635920E+04  0.21019701542E+04 0.  0.
        5    1    3    3  502    0  0.10381735282E+04  0.13965258771E+03 -0.10475981546E+04  0.14814827381E+04  0.46999998093E+01 0.  1.
       -5    1    3    3    0  502 -0.10381735282E+04 -0.13965258771E+03 -0.81994996204E+03  0.13302808539E+04  0.46999998093E+01 0. -1.
</event>
<event>
 5   0  0.6599245E-06  0.2101869E+04  0.7818609E-02  0.8560420E-01
        1   -1    0    0  501    0  0.00000000000E+00  0.00000000000E+00  0.17683294988E+04  0.17683294988E+04  0.50400001928E-02 0. -1.
       -1   -1    0    0    0  501  0.00000000000E+00  0.00000000000E+00 -0.62458010903E+03  0.62458010905E+03  0.50400001928E-02 0.  1.
    10030    2    1    2    0    0  0.00000000000E+00  0.00000000000E+00  0.11437493898E+04  0.23929096079E+04  0.21018691027E+04 0.  0.
        2    1    3    3  502    0 -0.10484648641E+01  0.78611353293E+03  0.13659407376E+04  0.15759979964E+04  0.25500000920E-02 0. -1.
       -2    1    3    3    0  502  0.10484648641E+01 -0.78611353293E+03 -0.22219134783E+03  0.81691161149E+03  0.25500000920E-02 0.  1.
</event>
<event>
 5   0  0.1395356E-05  0.2100618E+04  0.7818609E-02  0.8560971E-01
       -2   -1    0    0    0  501  0.00000000000E+00  0.00000000000E+00  0.10308074106E+04  0.10308074106E+04  0.25500000920E-02 0.  1.
        2   -1    0    0  501    0  0.00000000000E+00  0.00000000000E+00 -0.10701796677E+04  0.10701796677E+04  0.25500000920E-02 0. -1.
    10030    2    1    2    0    0  0.00000000000E+00  0.00000000000E+00 -0.39372257078E+02  0.21009870783E+04  0.21006181302E+04 0.  0.
        1    1    3    3  502    0  0.77411246747E+03 -0.32406611150E+03 -0.65136666846E+03  0.10623311601E+04  0.50400001928E-02 0. -1.
       -1    1    3    3    0  502 -0.77411246747E+03  0.32406611150E+03  0.61199441138E+03  0.10386559182E+04  0.50400001928E-02 0.  1.
</event>
<event>
 5   0  0.6238363E-06  0.2102939E+04  0.7818609E-02  0.8559950E-01
       -1   -1    0    0    0  501  0.00000000000E+00  0.00000000000E+00  0.53885165713E+03  0.53885165716E+03  0.50400001928E-02 0.  1.
        1   -1    0    0  501    0  0.00000000000E+00  0.00000000000E+00 -0.20517479095E+04  0.20517479095E+04  0.50400001928E-02 0. -1.
    10030    2    1    2    0    0  0.00000000000E+00  0.00000000000E+00 -0.15128962523E+04  0.25905995666E+04  0.21029386687E+04 0.  0.
        4    1    3    3  502    0 -0.53617072820E+03  0.10576988661E+02  0.35771573109E+03  0.64463406645E+03  0.12699999809E+01 0.  1.
       -4    1    3    3    0  502  0.53617072820E+03 -0.10576988661E+02 -0.18706119834E+04  0.19459655002E+04  0.12699999809E+01 0. -1.
</event>
<event>
 5   0  0.1395356E-05  0.2100360E+04  0.7818609E-02  0.8561085E-01
        2   -1    0    0  501    0  0.00000000000E+00  0.00000000000E+00  0.12183985298E+04  0.12183985298E+04  0.25500000920E-02 0.  1.
       -2   -1    0    0    0  501  0.00000000000E+00  0.00000000000E+00 -0.90518683866E+03  0.90518683867E+03  0.25500000920E-02 0. -1.
    10030    2    1    2    0    0  0.00000000000E+00  0.00000000000E+00  0.31321169118E+03  0.21235853685E+04  0.21003602676E+04 0.  0.
        1    1    3    3  502    0 -0.25150935967E+02  0.78594834948E+03 -0.54717377299E+03  0.95799087444E+03  0.50400001928E-02 0. -1.
       -1    1    3    3    0  502  0.25150935967E+02 -0.78594834948E+03  0.86038546417E+03  0.11655944941E+04  0.50400001928E-02 0.  1.
</event>
<event>
 5   0  0.1395356E-05  0.2085761E+04  0.7818609E-02  0.8567542E-01
       -2   -1    0    0    0  501  0.00000000000E+00  0.00000000000E+00  0.97971207717E+03  0.97971207718E+03  0.25500000920E-02 0.  1.
        2   -1    0    0  501    0  0.00000000000E+00  0.00000000000E+00 -0.11101222116E+04  0.11101222116E+04  0.25500000920E-02 0. -1.
    10030    2    1    2    0    0  0.00000000000E+00  0.00000000000E+00 -0.13041013443E+03  0.20898342888E+04  0.20857613841E+04 0.  0.
        1    1    3    3  502    0  0.12558713755E+03  0.45944656626E+03  0.86436563854E+03  0.98690994193E+03  0.50400001928E-02 0.  1.
       -1    1    3    3    0  502 -0.12558713755E+03 -0.45944656626E+03 -0.99477577297E+03  0.11029243468E+04  0.50400001928E-02 0. -1.
</event>
<event>
 5   0  0.6238363E-06  0.2070579E+04  0.7818609E-02  0.8574315E-01
       -1   -1    0    0    0  501  0.00000000000E+00  0.00000000000E+00  0.12317666367E+04  0.12317666367E+04  0.50400001928E-02 0.  1.
        1   -1    0    0  501    0  0.00000000000E+00  0.00000000000E+00 -0.87015243381E+03  0.87015243383E+03  0.50400001928E-02 0. -1.
    10030    2    1    2    0    0  0.00000000000E+00  0.00000000000E+00  0.36161420290E+03  0.21019190706E+04  0.20705793748E+04 0.  0.
        4    1    3    3  502    0 -0.71325087631E+03 -0.62405350597E+03 -0.24221778612E+03  0.97818232436E+03  0.12699999809E+01 0.  1.
       -4    1    3    3    0  502  0.71325087631E+03  0.62405350597E+03  0.60383198902E+03  0.11237367462E+04  0.12699999809E+01 0. -1.
</event>
<event>
 5   0  0.6589193E-06  0.2102157E+04  0.7818609E-02  0.8560294E-01
        1   -1    0    0  501    0  0.00000000000E+00  0.00000000000E+00  0.18293594078E+04  0.18293594078E+04  0.50400001928E-02 0. -1.
       -1   -1    0    0    0  501  0.00000000000E+00  0.00000000000E+00 -0.60390882688E+03  0.60390882690E+03  0.50400001928E-02 0.  1.
    10030    2    1    2    0    0  0.00000000000E+00  0.00000000000E+00  0.12254505809E+04  0.24332682347E+04  0.21021572671E+04 0.  0.
        3    1    3    3  502    0  0.70249447366E+03 -0.77570946701E+03  0.72579821392E+03  0.12735802763E+04  0.10100000352E+00 0.  1.
       -3    1    3    3    0  502 -0.70249447366E+03  0.77570946701E+03  0.49965236697E+03  0.11596879584E+04  0.10100000352E+00 0. -1.
</event>
<event>
 5   0  0.1441136E-05  0.2100486E+04  0.7818609E-02  0.8561029E-01
        2   -1    0    0  501    0  0.00000000000E+00  0.00000000000E+00  0.15861101484E+04  0.15861101484E+04  0.25500000920E-02 0. -1.
       -2   -1    0    0    0  501  0.00000000000E+00  0.00000000000E+00 -0.69541852532E+03  0.69541852532E+03  0.25500000920E-02 0.  1.
    10030    2    1    2    0    0  0.00000000000E+00  0.00000000000E+00  0.89069162304E+03  0.22815286737E+04  0.21004860203E+04 0.  0.
        4    1    3    3  502    0 -0.10417566290E+04 -0.42400538410E+02  0.58254202441E+03  0.11943247058E+04  0.12699999809E+01 0. -1.
       -4    1    3    3    0  502  0.10417566290E+04  0.42400538410E+02  0.30814959863E+03  0.10872039679E+04  0.12699999809E+01 0.  1.
</event>
<event>
 5   0  0.6238363E-06  0.2106409E+04  0.7818609E-02  0.8558425E-01
       -1   -1    0    0    0  501  0.00000000000E+00  0.00000000000E+00  0.14447067721E+04  0.14447067721E+04  0.50400001928E-02 0.  1.
        1   -1    0    0  501    0  0.00000000000E+00  0.00000000000E+00 -0.76779586382E+03  0.76779586384E+03  0.50400001928E-02 0. -1.
    10030    2    1    2    0    0  0.00000000000E+00  0.00000000000E+00  0.67691090829E+03  0.22125026360E+04  0.21064091569E+04 0.  0.
        4    1    3    3  502    0  0.15535328654E+03  0.49116503404E+03  0.13033423350E+04  0.14014565956E+04  0.12699999809E+01 0.  1.
       -4    1    3    3    0  502 -0.15535328654E+03 -0.49116503404E+03 -0.62643142670E+03  0.81104604035E+03  0.12699999809E+01 0. -1.
</event>
<event>
 5   0  0.6283269E-06  0.2101012E+04  0.7818609E-02  0.8560798E-01
       -1   -1    0    0    0  501  0.00000000000E+00  0.00000000000E+00  0.95561017143E+03  0.95561017144E+03  0.50400001928E-02 0. -1.
        1   -1    0    0  501    0  0.00000000000E+00  0.00000000000E+00 -0.11548257327E+04  0.11548257327E+04  0.50400001928E-02 0.  1.
    10030    2    1    2    0    0  0.00000000000E+00  0.00000000000E+00 -0.19921556124E+03  0.21104359041E+04  0.21010123430E+04 0.  0.
        1    1    3    3  502    0  0.84333522795E+03 -0.60515517968E+03  0.62784023046E+02  0.10398889036E+04  0.50400001928E-02 0. -1.
       -1    1    3    3    0  502 -0.84333522795E+03  0.60515517968E+03 -0.26199958429E+03  0.10705470005E+04  0.50400001928E-02 0.  1.
</event>
<event>
 5   0  0.6917078E-06  0.2095115E+04  0.7818609E-02  0.8563398E-01
       -1   -1    0    0    0  501  0.00000000000E+00  0.00000000000E+00  0.62523730638E+03  0.62523730640E+03  0.50400001928E-02 0. -1.
        1   -1    0    0  501    0  0.00000000000E+00  0.00000000000E+00 -0.17551364281E+04  0.17551364281E+04  0.50400001928E-02 0.  1.
    10030    2    1    2    0    0  0.00000000000E+00  0.00000000000E+00 -0.11298991217E+04  0.23803737345E+04  0.20951150543E+04 0.  0.
        5    1    3    3  502    0  0.50061622318E+03  0.12389558038E+03 -0.16009003815E+04  0.16819247425E+04  0.46999998093E+01 0.  1.
       -5    1    3    3    0  502 -0.50061622318E+03 -0.12389558038E+03  0.47100125980E+03  0.69844899204E+03  0.46999998093E+01 0. -1.
</event>
<event>
 5   0  0.1441136E-05  0.2104275E+04  0.7818609E-02  0.8559362E-01
        2   -1    0    0  501    0  0.00000000000E+00  0.00000000000E+00  0.79337188698E+03  0.79337188698E+03  0.25500000920E-02 0.  1.
       -2   -1    0    0    0  501  0.00000000000E+00  0.00000000000E+00 -0.13953024172E+04  0.13953024172E+04  0.25500000920E-02 0. -1.
    10030    2    1    2    0    0  0.00000000000E+00  0.00000000000E+00 -0.60193053019E+03  0.21886743042E+04  0.21042753733E+04 0.  0.
        4    1    3    3  502    0 -0.15351549952E+03 -0.69448513733E+03 -0.11073782722E+04  0.13161173448E+04  0.12699999809E+01 0. -1.
       -4    1    3    3    0  502  0.15351549952E+03  0.69448513733E+03  0.50544774201E+03  0.87255695939E+03  0.12699999809E+01 0.  1.
</event>
<event>
 5   0  0.1398469E-05  0.2100341E+04  0.7818609E-02  0.8561093E-01
        2   -1    0    0  501    0  0.00000000000E+00  0.00000000000E+00  0.86736183381E+03  0.86736183382E+03  0.25500000920E-02 0. -1.
       -2   -1    0    0    0  501  0.00000000000E+00  0.00000000000E+00 -0.12715091455E+04  0.12715091455E+04  0.25500000920E-02 0.  1.
    10030    2    1    2    0    0  0.00000000000E+00  0.00000000000E+00 -0.40414731172E+03  0.21388709793E+04  0.21003414048E+04 0.  0.
        2    1    3    3  502    0  0.82034561104E+02 -0.10353144142E+04 -0.43483392079E+02  0.10394692928E+04  0.25500000920E-02 0. -1.
       -2    1    3    3    0  502 -0.82034561104E+02  0.10353144142E+04 -0.36066391964E+03  0.10994016865E+04  0.25500000920E-02 0.  1.
</event>
<event>
 5   0  0.6917078E-06  0.2104251E+04  0.7818609E-02  0.8559373E-01
        1   -1    0    0  501    0  0.00000000000E+00  0.00000000000E+00  0.14754349177E+04  0.14754349177E+04  0.50400001928E-02 0.  1.
       -1   -1    0    0    0  501  0.00000000000E+00  0.00000000000E+00 -0.75026533863E+03  0.75026533864E+03  0.50400001928E-02 0. -1.
    10030    2    1    2    0    0  0.00000000000E+00  0.00000000000E+00  0.72516957904E+03  0.22257002563E+04  0.21042506297E+04 0.  0.
        5    1    3    3  502    0 -0.11769742481E+03  0.19348265683E+03 -0.72416784372E+03  0.75876832971E+03  0.46999998093E+01 0. -1.
       -5    1    3    3    0  502  0.11769742481E+03 -0.19348265683E+03  0.14493374228E+04  0.14669319266E+04  0.46999998093E+01 0.  1.
</event>
<event>
 5   0  0.6283269E-06  0.2101037E+04  0.7818609E-02  0.8560787E-01
       -1   -1    0    0    0  501  0.00000000000E+00  0.00000000000E+00  0.48618256601E+03  0.48618256604E+03  0.50400001928E-02 0. -1.
        1   -1    0    0  501    0  0.00000000000E+00  0.00000000000E+00 -0.22699077810E+04  0.22699077810E+04  0.50400001928E-02 0.  1.
    10030    2    1    2    0    0  0.00000000000E+00  0.00000000000E+00 -0.17837252150E+04  0.27560903470E+04  0.21010374481E+04 0.  0.
        1    1    3    3  502    0  0.83446082789E+03 -0.22068220054E+03 -0.10636828754E+03  0.86967794012E+03  0.50400001928E-02 0. -1.
       -1    1    3    3    0  502 -0.83446082789E+03  0.22068220054E+03 -0.16773569274E+04  0.18864124069E+04  0.50400001928E-02 0.  1.
</event>
<event>
 5   0  0.1344501E-05  0.2062703E+04  0.7818609E-02  0.8577853E-01
       -2   -1    0    0    0  501  0.00000000000E+00  0.00000000000E+00  0.10515232409E+04  0.10515232409E+04  0.25500000920E-02 0.  1.
        2   -1    0    0  501    0  0.00000000000E+00  0.00000000000E+00 -0.10115667936E+04  0.10115667936E+04  0.25500000920E-02 0. -1.
    10030    2    1    2    0    0  0.00000000000E+00  0.00000000000E+00  0.39956447303E+02  0.20630900346E+04  0.20627030744E+04 0.  0.
        3    1    3    3  502    0  0.68247297353E+03  0.33186954164E+03 -0.67856473234E+03  0.10180161386E+04  0.10100000352E+00 0. -1.
       -3    1    3    3    0  502 -0.68247297353E+03 -0.33186954164E+03  0.71852117964E+03  0.10450738960E+04  0.10100000352E+00 0.  1.
</event>
<event>
 5   0  0.1441136E-05  0.2098453E+04  0.7818609E-02  0.8561925E-01
        2   -1    0    0  501    0  0.00000000000E+00  0.00000000000E+00  0.22501015772E+04  0.22501015772E+04  0.25500000920E-02 0.  1.
       -2   -1    0    0    0  501  0.00000000000E+00  0.00000000000E+00 -0.48925639350E+03  0.48925639351E+03  0.25500000920E-02 0. -1.
    10030    2    1    2    0    0  0.00000000000E+00  0.00000000000E+00  0.17608451837E+04  0.27393579707E+04  0.20984533187E+04 0.  0.
        4    1    3    3  502    0  0.63593376923E+03  0.14505893389E+03  0.19532671260E+04  0.20592979220E+04  0.12699999809E+01 0.  1.
       -4    1    3    3    0  502 -0.63593376923E+03 -0.14505893389E+03 -0.19242194226E+03  0.68006004875E+03  0.12699999809E+01 0. -1.
</event>
<event>
 5   0  0.1441136E-05  0.2101825E+04  0.7818609E-02  0.8560440E-01
       -2   -1    0    0    0  501  0.00000000000E+00  0.00000000000E+00  0.70643759352E+03  0.70643759353E+03  0.25500000920E-02 0. -1.
        2   -1    0    0  501    0  0.00000000000E+00  0.00000000000E+00 -0.15633613031E+04  0.15633613031E+04  0.25500000920E-02 0.  1.
    10030    2    1    2    0    0  0.00000000000E+00  0.00000000000E+00 -0.85692370961E+03  0.22697988967E+04  0.21018251086E+04 0.  0.
        4    1    3    3  502    0  0.37917892558E+03 -0.97887270872E+03 -0.37503977616E+03  0.11147308572E+04  0.12699999809E+01 0. -1.
       -4    1    3    3    0  502 -0.37917892558E+03  0.97887270872E+03 -0.48188393345E+03  0.11550680394E+04  0.12699999809E+01 0.  1.
</event>
<event>
 5   0  0.6589193E-06  0.2099167E+04  0.7818609E-02  0.8561610E-01
        1   -1    0    0  501    0  0.00000000000E+00  0.00000000000E+00  0.18297301679E+04  0.18297301679E+04  0.50400001928E-02 0.  1.
       -1   -1    0    0    0  501  0.00000000000E+00  0.00000000000E+00 -0.60207007624E+03  0.60207007626E+03  0.50400001928E-02 0. -1.
    10030    2    1    2    0    0  0.00000000000E+00  0.00000000000E+00  0.12276600917E+04  0.24318002442E+04  0.20991672461E+04 0.  0.
        3    1    3    3  502    0 -0.75958190738E+03  0.45518209803E+02  0.14512842505E+04  0.16386770784E+04  0.10100000352E+00 0.  1.
       -3    1    3    3    0  502  0.75958190738E+03 -0.45518209803E+02 -0.22362415882E+03  0.79312316575E+03  0.10100000352E+00 0. -1.
</event>
<event>
 5   0  0.6589193E-06  0.2103173E+04  0.7818609E-02  0.8559847E-01
        1   -1    0    0  501    0  0.00000000000E+00  0.00000000000E+00  0.99708615628E+03  0.99708615630E+03  0.50400001928E-02 0.  1.
       -1   -1    0    0    0  501  0.00000000000E+00  0.00000000000E+00 -0.11090655436E+04  0.11090655436E+04  0.50400001928E-02 0. -1.
    10030    2    1    2    0    0  0.00000000000E+00  0.00000000000E+00 -0.11197938728E+03  0.21061516999E+04  0.21031727460E+04 0.  0.
        3    1    3    3  502    0  0.77179637744E+03 -0.30658220254E+03  0.59003768062E+03  0.10187280157E+04  0.10100000352E+00 0.  1.
       -3    1    3    3    0  502 -0.77179637744E+03  0.30658220254E+03 -0.70201706790E+03  0.10874236842E+04  0.10100000352E+00 0. -1.
</event>
<event>
 5   0  0.6283269E-06  0.2096818E+04  0.7818609E-02  0.8562646E-01
        1   -1    0    0  501    0  0.00000000000E+00  0.00000000000E+00  0.18294003436E+04  0.18294003436E+04  0.50400001928E-02 0. -1.
       -1   -1    0    0    0  501  0.00000000000E+00  0.00000000000E+00 -0.60083144283E+03  0.60083144285E+03  0.50400001928E-02 0.  1.
    10030    2    1    2    0    0  0.00000000000E+00  0.00000000000E+00  0.12285689008E+04  0.24302317865E+04  0.20968178252E+04 0.  0.
        1    1    3    3  502    0  0.88304016211E+03  0.47514296036E+03  0.25961904435E+03  0.10358198728E+04  0.50400001928E-02 0.  1.
       -1    1    3    3    0  502 -0.88304016211E+03 -0.47514296036E+03  0.96894985646E+03  0.13944119137E+04  0.50400001928E-02 0. -1.
</event>
<event>
 5   0  0.6599245E-06  0.2100190E+04  0.7818609E-02  0.8561160E-01
        1   -1    0    0  501    0  0.00000000000E+00  0.00000000000E+00  0.94656866779E+03  0.94656866781E+03  0.50400001928E-02 0. -1.
       -1   -1    0    0    0  501  0.00000000000E+00  0.00000000000E+00 -0.11649441822E+04  0.11649441822E+04  0.50400001928E-02 0.  1.
    10030    2    1    2    0    0  0.00000000000E+00  0.00000000000E+00 -0.21837551440E+03  0.21115128500E+04  0.21001901463E+04 0.  0.
        2    1    3    3  502    0  0.69049105434E+03 -0.31141509403E+03 -0.84039301454E+03  0.11313786615E+04  0.25500000920E-02 0.  1.
       -2    1    3    3    0  502 -0.69049105434E+03  0.31141509403E+03  0.62201750014E+03  0.98013418846E+03  0.25500000920E-02 0. -1.
</event>
<event>
 5   0  0.1344501E-05  0.2102764E+04  0.7818609E-02  0.8560027E-01
        2   -1    0    0  501    0  0.00000000000E+00  0.00000000000E+00  0.10620317557E+04  0.10620317557E+04  0.25500000920E-02 0.  1.
       -2   -1    0    0    0  501  0.00000000000E+00  0.00000000000E+00 -0.10408387411E+04  0.10408387411E+04  0.25500000920E-02 0. -1.
    10030    2    1    2    0    0  0.00000000000E+00  0.00000000000E+00  0.21193014594E+02  0.21028704969E+04  0.21027637011E+04 0.  0.
        3    1    3    3  502    0 -0.94041357075E+03  0.47013184073E+03  0.91288643159E+01  0.10514204573E+04  0.10100000352E+00 0. -1.
       -3    1    3    3    0  502  0.94041357075E+03 -0.47013184073E+03  0.12064150278E+02  0.10514500395E+04  0.10100000352E+00 0.  1.
</event>
<event>
 5   0  0.1344501E-05  0.2096895E+04  0.7818609E-02  0.8562612E-01
        2   -1    0    0  501    0  0.00000000000E+00  0.00000000000E+00  0.14858282035E+04  0.14858282035E+04  0.25500000920E-02 0. -1.
       -2   -1    0    0    0  501  0.00000000000E+00  0.00000000000E+00 -0.73981774043E+03  0.73981774043E+03  0.25500000920E-02 0.  1.
    10030    2    1    2    0    0  0.00000000000E+00  0.00000000000E+00  0.74601046307E+03  0.22256459439E+04  0.20968949084E+04 0.  0.
        3    1    3    3  502    0 -0.10252825373E+04  0.44143567747E+02  0.14513971283E+03  0.10364451179E+04  0.10100000352E+00 0. -1.
       -3    1    3    3    0  502  0.10252825373E+04 -0.44143567747E+02  0.60087075023E+03  0.11892008260E+04  0.10100000352E+00 0.  1.
</event>
<event>
 5   0  0.6589193E-06  0.2102189E+04  0.7818609E-02  0.8560280E-01
       -1   -1    0    0    0  501  0.00000000000E+00  0.00000000000E+00  0.86110071258E+03  0.86110071259E+03  0.50400001928E-02 0.  1.
        1   -1    0    0  501    0  0.00000000000E+00  0.00000000000E+00 -0.12830081517E+04  0.12830081517E+04  0.50400001928E-02 0. -1.
    10030    2    1    2    0    0  0.00000000000E+00  0.00000000000E+00 -0.42190743916E+03  0.21441088643E+04  0.21021886059E+04 0.  0.
        3    1    3    3  502    0 -0.70433180339E+03 -0.50795177389E+02  0.58311870826E+03  0.91580067561E+03  0.10100000352E+00 0.  1.
       -3    1    3    3    0  502  0.70433180339E+03  0.50795177389E+02 -0.10050261474E+04  0.12283081887E+04  0.10100000352E+00 0. -1.
</event>
<event>
 5   0  0.1398469E-05  0.2095039E+04  0.7818609E-02  0.8563432E-01
       -2   -1    0    0    0  501  0.00000000000E+00  0.00000000000E+00  0.72446201867E+03  0.72446201868E+03  0.25500000920E-02 0.  1.
        2   -1    0    0  501    0  0.00000000000E+00  0.00000000000E+00 -0.15146371186E+04  0.15146371186E+04  0.25500000920E-02 0. -1.
    10030    2    1    2    0    0  0.00000000000E+00  0.00000000000E+00 -0.79017509996E+03  0.22390991373E+04  0.20950389634E+04 0.  0.
        2    1    3    3  502    0  0.60773807189E+03  0.22544798951E+03  0.48437134910E+03  0.80918969583E+03  0.25500000920E-02 0.  1.
       -2    1    3    3    0  502 -0.60773807189E+03 -0.22544798951E+03 -0.12745464491E+04  0.14299094415E+04  0.25500000920E-02 0. -1.
</event>
<event>
 5   0  0.1395356E-05  0.2099904E+04  0.7818609E-02  0.8561286E-01
       -2   -1    0    0    0  501  0.00000000000E+00  0.00000000000E+00  0.84561581306E+03  0.84561581307E+03  0.25500000920E-02 0. -1.
        2   -1    0    0  501    0  0.00000000000E+00  0.00000000000E+00 -0.13036641703E+04  0.13036641703E+04  0.25500000920E-02 0.  1.
    10030    2    1    2    0    0  0.00000000000E+00  0.00000000000E+00 -0.45804835726E+03  0.21492799834E+04  0.20999038429E+04 0.  0.
        1    1    3    3  502    0 -0.13920866711E+03 -0.64685857634E+03  0.60537099405E+03  0.89681609667E+03  0.50400001928E-02 0. -1.
       -1    1    3    3    0  502  0.13920866711E+03  0.64685857634E+03 -0.10634193513E+04  0.12524638867E+04  0.50400001928E-02 0.  1.
</event>
<event>
 5   0  0.1441136E-05  0.2100370E+04  0.7818609E-02  0.8561081E-01
        2   -1    0    0  501    0  0.00000000000E+00  0.00000000000E+00  0.15855254422E+04  0.15855254422E+04  0.25500000920E-02 0. -1.
       -2   -1    0    0    0  501  0.00000000000E+00  0.00000000000E+00 -0.69559781877E+03  0.69559781878E+03  0.25500000920E-02 0.  1.
    10030    2    1    2    0    0  0.00000000000E+00  0.00000000000E+00  0.88992762342E+03  0.22811232610E+04  0.21003695286E+04 0.  0.
        4    1    3    3  502    0 -0.42277849505E+02 -0.32256510861E+03 -0.63949154561E+03  0.71748638709E+03  0.12699999809E+01 0.  1.
       -4    1    3    3    0  502  0.42277849505E+02  0.32256510861E+03  0.15294191690E+04  0.15636368739E+04  0.12699999809E+01 0. -1.
</event>
<event>
 5   0  0.6917078E-06  0.2099878E+04  0.7818609E-02  0.8561297E-01
        1   -1    0    0  501    0  0.00000000000E+00  0.00000000000E+00  0.97778092394E+03  0.97778092395E+03  0.50400001928E-02 0. -1.
       -1   -1    0    0    0  501  0.00000000000E+00  0.00000000000E+00 -0.11274219962E+04  0.11274219962E+04  0.50400001928E-02 0.  1.
    10030    2    1    2    0    0  0.00000000000E+00  0.00000000000E+00 -0.14964107228E+03  0.21052029202E+04  0.20998778261E+04 0.  0.
        5    1    3    3  502    0  0.41749694011E+03 -0.88636916267E+02  0.88687711892E+03  0.98424250670E+03  0.46999998093E+01 0. -1.
       -5    1    3    3    0  502 -0.41749694011E+03  0.88636916267E+02 -0.10365181912E+04  0.11209604135E+04  0.46999998093E+01 0.  1.
</event>
<event>
 5   0  0.1395356E-05  0.2101358E+04  0.7818609E-02  0.8560645E-01
        2   -1    0    0  501    0  0.00000000000E+00  0.00000000000E+00  0.83633881862E+03  0.83633881862E+03  0.25500000920E-02 0. -1.
       -2   -1    0    0    0  501  0.00000000000E+00  0.00000000000E+00 -0.13199510406E+04  0.13199510406E+04  0.25500000920E-02 0.  1.
    10030    2    1    2    0    0  0.00000000000E+00  0.00000000000E+00 -0.48361222194E+03  0.21562898592E+04  0.21013579361E+04 0.  0.
        1    1    3    3  502    0  0.10109418935E+04 -0.97524147627E+02  0.34322777508E+02  0.10162148024E+04  0.50400001928E-02 0. -1.
       -1    1    3    3    0  502 -0.10109418935E+04  0.97524147627E+02 -0.51793499945E+03  0.11400750568E+04  0.50400001928E-02 0.  1.
</event>
<event>
 5   0  0.1344501E-05  0.2084476E+04  0.7818609E-02  0.8568113E-01
        2   -1    0    0  501    0  0.00000000000E+00  0.00000000000E+00  0.12042879524E+04  0.12042879524E+04  0.25500000920E-02 0. -1.
       -2   -1    0    0    0  501  0.00000000000E+00  0.00000000000E+00 -0.90199318831E+03  0.90199318831E+03  0.25500000920E-02 0.  1.
    10030    2    1    2    0    0  0.00000000000E+00  0.00000000000E+00  0.30229476412E+03  0.21062811407E+04  0.20844755022E+04 0.  0.
        3    1    3    3  502    0  0.14105929751E+03 -0.77853498696E+03 -0.53436312462E+03  0.95475568105E+03  0.10100000352E+00 0.  1.
       -3    1    3    3    0  502 -0.14105929751E+03  0.77853498696E+03  0.83665788875E+03  0.11515254597E+04  0.10100000352E+00 0. -1.
</event>
<event>
 5   0  0.6238363E-06  0.2101074E+04  0.7818609E-02  0.8560770E-01
        1   -1    0    0  501    0  0.00000000000E+00  0.00000000000E+00  0.15914085919E+04  0.15914085919E+04  0.50400001928E-02 0. -1.
       -1   -1    0    0    0  501  0.00000000000E+00  0.00000000000E+00 -0.69349137178E+03  0.69349137180E+03  0.50400001928E-02 0.  1.
    10030    2    1    2    0    0  0.00000000000E+00  0.00000000000E+00  0.89791722010E+03  0.22848999637E+04  0.21010741324E+04 0.  0.
        4    1    3    3  502    0 -0.66523732858E+03  0.25467200717E+03 -0.39075654489E+03  0.81245973737E+03  0.12699999809E+01 0.  1.
       -4    1    3    3    0  502  0.66523732858E+03 -0.25467200717E+03  0.12886737650E+04  0.14724402263E+04  0.12699999809E+01 0. -1.
</event>
<event>
 5   0  0.1390735E-05  0.2098530E+04  0.7818609E-02  0.8561891E-01
       -2   -1    0    0    0  501  0.00000000000E+00  0.00000000000E+00  0.14232222150E+04  0.14232222150E+04  0.25500000920E-02 0.  1.
        2   -1    0    0  501    0  0.00000000000E+00  0.00000000000E+00 -0.77356652221E+03  0.77356652222E+03  0.25500000920E-02 0. -1.
    10030    2    1    2    0    0  0.00000000000E+00  0.00000000000E+00  0.64965569274E+03  0.21967887372E+04  0.20985300181E+04 0.  0.
        5    1    3    3  502    0 -0.17388043044E+03 -0.97830252304E+03  0.67769363619E+03  0.12027472657E+04  0.46999998093E+01 0. -1.
       -5    1    3    3    0  502  0.17388043044E+03  0.97830252304E+03 -0.28037943459E+02  0.99404147144E+03  0.46999998093E+01 0.  1.
</event>
<event>
 5   0  0.1398469E-05  0.2096090E+04  0.7818609E-02  0.8562968E-01
       -2   -1    0    0    0  501  0.00000000000E+00  0.00000000000E+00  0.64764533770E+03  0.64764533770E+03  0.25500000920E-02 0. -1.
        2   -1    0    0  501    0  0.00000000000E+00  0.00000000000E+00 -0.16959880507E+04  0.16959880507E+04  0.25500000920E-02 0.  1.
    10030    2    1    2    0    0  0.00000000000E+00  0.00000000000E+00 -0.10483427130E+04  0.23436333884E+04  0.20960904120E+04 0.  0.
        2    1    3    3  502    0 -0.19858430999E+03 -0.16249457112E+03  0.61198213278E+03  0.66359802944E+03  0.25500000920E-02 0. -1.
       -2    1    3    3    0  502  0.19858430999E+03  0.16249457112E+03 -0.16603248458E+04  0.16800353590E+04  0.25500000920E-02 0.  1.
</event>
<event>
 5   0  0.1398469E-05  0.2091728E+04  0.7818609E-02  0.8564896E-01
        2   -1    0    0  501    0  0.00000000000E+00  0.00000000000E+00  0.14868918674E+04  0.14868918674E+04  0.25500000920E-02 0. -1.
       -2   -1    0    0    0  501  0.00000000000E+00  0.00000000000E+00 -0.73564990585E+03  0.73564990585E+03  0.25500000920E-02 0.  1.
    10030    2    1    2    0    0  0.00000000000E+00  0.00000000000E+00  0.75124196158E+03  0.22225417733E+04  0.20917283402E+04 0.  0.
        2    1    3    3  502    0  0.74405110813E+03  0.44120296232E+02 -0.40393271464E+03  0.84777372571E+03  0.25500000920E-02 0.  1.
       -2    1    3    3    0  502 -0.74405110813E+03 -0.44120296232E+02  0.11551746762E+04  0.13747680476E+04  0.25500000920E-02 0. -1.
</event>
<event>
 5   0  0.6589193E-06  0.2112720E+04  0.7818609E-02  0.8555661E-01
        1   -1    0    0  501    0  0.00000000000E+00  0.00000000000E+00  0.14579489364E+04  0.14579489364E+04  0.50400001928E-02 0.  1.
       -1   -1    0    0    0  501  0.00000000000E+00  0.00000000000E+00 -0.76538813184E+03  0.76538813185E+03  0.50400001928E-02 0. -1.
    10030    2    1    2    0    0  0.00000000000E+00  0.00000000000E+00  0.69256080455E+03  0.22233370683E+04  0.21127203438E+04 0.  0.
        3    1    3    3  502    0  0.10110612235E+04  0.26554142554E+03  0.18619833493E+03  0.10618035960E+04  0.10100000352E+00 0.  1.
       -3    1    3    3    0  502 -0.10110612235E+04 -0.26554142554E+03  0.50636246962E+03  0.11615334723E+04  0.10100000352E+00 0. -1.
</event>
<event>
 5   0  0.6599245E-06  0.2108831E+04  0.7818609E-02  0.8557363E-01
        1   -1    0    0  501    0  0.00000000000E+00  0.00000000000E+00  0.13717170905E+04  0.13717170905E+04  0.50400001928E-02 0. -1.
       -1   -1    0    0    0  501  0.00000000000E+00  0.00000000000E+00 -0.81051129940E+03  0.81051129941E+03  0.50400001928E-02 0.  1.
    10030    2    1    2    0    0  0.00000000000E+00  0.00000000000E+00  0.56120579111E+03  0.21822283899E+04  0.21088311468E+04 0.  0.
        2    1    3    3  502    0 -0.29018477959E+03  0.24868824718E+03 -0.73632067368E+03  0.82959097457E+03  0.25500000920E-02 0.  1.
       -2    1    3    3    0  502  0.29018477959E+03 -0.24868824718E+03  0.12975264648E+04  0.13526374154E+04  0.25500000920E-02 0. -1.
</event>
<event>
 5   0  0.1395356E-05  0.2106189E+04  0.7818609E-02  0.8558522E-01
       -2   -1    0    0    0  501  0.00000000000E+00  0.00000000000E+00  0.13794787828E+04  0.13794787828E+04  0.25500000920E-02 0. -1.
        2   -1    0    0  501    0  0.00000000000E+00  0.00000000000E+00 -0.80393286991E+03  0.80393286991E+03  0.25500000920E-02 0.  1.
    10030    2    1    2    0    0  0.00000000000E+00  0.00000000000E+00  0.57554591293E+03  0.21834116528E+04  0.21061892953E+04 0.  0.
        1    1    3    3  502    0 -0.98459770103E+03  0.27898995748E+02  0.67398766547E+03  0.11935117763E+04  0.50400001928E-02 0. -1.
       -1    1    3    3    0  502  0.98459770103E+03 -0.27898995748E+02 -0.98441752541E+02  0.98989987650E+03  0.50400001928E-02 0.  1.
</event>
<event>
 5   0  0.5009125E-06  0.2109027E+04  0.7818609E-02  0.8557277E-01
        4   -1    0    0  501    0  0.00000000000E+00  0.00000000000E+00  0.99634283694E+03  0.99634364635E+03  0.12699999809E+01 0.  1.
       -4   -1    0    0    0  501  0.00000000000E+00  0.00000000000E+00 -0.11160783383E+04  0.11160790608E+04  0.12699999809E+01 0. -1.
    10030    2    1    2    0    0  0.00000000000E+00  0.00000000000E+00 -0.11973550133E+03  0.21124227072E+04  0.21090265773E+04 0.  0.
        3    1    3    3  502    0  0.76366354958E+03 -0.28523998627E+03  0.61012972378E+03  0.10182348240E+04  0.10100000352E+00 0.  1.
       -3    1    3    3    0  502 -0.76366354958E+03  0.28523998627E+03 -0.72986522512E+03  0.10941878832E+04  0.10100000352E+00 0. -1.
</event>
<event>
 5   0  0.6917078E-06  0.2097754E+04  0.7818609E-02  0.8562233E-01
        1   -1    0    0  501    0  0.00000000000E+00  0.00000000000E+00  0.21308024244E+04  0.21308024244E+04  0.50400001928E-02 0.  1.
       -1   -1    0    0    0  501  0.00000000000E+00  0.00000000000E+00 -0.51630444080E+03  0.51630444083E+03  0.50400001928E-02 0. -1.
    10030    2    1    2    0    0  0.00000000000E+00  0.00000000000E+00  0.16144979836E+04  0.26471068653E+04  0.20977538028E+04 0.  0.
        5    1    3    3  502    0  0.22819073289E+03 -0.72830505264E+03 -0.10061976475E+03  0.76983484420E+03  0.46999998093E+01 0. -1.
       -5    1    3    3    0  502 -0.22819073289E+03  0.72830505264E+03  0.17151177484E+04  0.18772720211E+04  0.46999998093E+01 0.  1.
</event>
<event>
 5   0  0.1390735E-05  0.2103038E+04  0.7818609E-02  0.8559906E-01
       -2   -1    0    0    0  501  0.00000000000E+00  0.00000000000E+00  0.64719173007E+03  0.64719173007E+03  0.25500000920E-02 0. -1.
        2   -1    0    0  501    0  0.00000000000E+00  0.00000000000E+00 -0.17084458111E+04  0.17084458111E+04  0.25500000920E-02 0.  1.
    10030    2    1    2    0    0  0.00000000000E+00  0.00000000000E+00 -0.10612540810E+04  0.23556375411E+04  0.21030378030E+04 0.  0.
        5    1    3    3  502    0  0.86482262724E+03 -0.17870542482E+03  0.10873619678E+03  0.88977494679E+03  0.46999998093E+01 0. -1.
       -5    1    3    3    0  502 -0.86482262724E+03  0.17870542482E+03 -0.11699902778E+04  0.14658625944E+04  0.46999998093E+01 0.  1.
</event>
<event>
 5   0  0.6599245E-06  0.2099111E+04  0.7818609E-02  0.8561635E-01
        1   -1    0    0  501    0  0.00000000000E+00  0.00000000000E+00  0.18702823073E+04  0.18702823073E+04  0.50400001928E-02 0.  1.
       -1   -1    0    0    0  501  0.00000000000E+00  0.00000000000E+00 -0.58898429150E+03  0.58898429153E+03  0.50400001928E-02 0. -1.
    10030    2    1    2    0    0  0.00000000000E+00  0.00000000000E+00  0.12812980158E+04  0.24592665988E+04  0.20991111449E+04 0.  0.
        2    1    3    3  502    0  0.18270008321E+03  0.10238803513E+04  0.80573973523E+03  0.13156469189E+04  0.25500000920E-02 0.  1.
       -2    1    3    3    0  502 -0.18270008321E+03 -0.10238803513E+04  0.47555828054E+03  0.11436196799E+04  0.25500000920E-02 0. -1.
</event>
<event>
 5   0  0.6589193E-06  0.2096401E+04  0.7818609E-02  0.8562831E-01
       -1   -1    0    0    0  501  0.00000000000E+00  0.00000000000E+00  0.13128355817E+04  0.13128355818E+04  0.50400001928E-02 0. -1.
        1   -1    0    0  501    0  0.00000000000E+00  0.00000000000E+00 -0.83690904642E+03  0.83690904644E+03  0.50400001928E-02 0.  1.
    10030    2    1    2    0    0  0.00000000000E+00  0.00000000000E+00  0.47592653532E+03  0.21497446282E+04  0.20964007011E+04 0.  0.
        3    1    3    3  502    0 -0.94938869606E+03  0.36448420518E+03 -0.22540924948E+02  0.10171999486E+04  0.10100000352E+00 0. -1.
       -3    1    3    3    0  502  0.94938869606E+03 -0.36448420518E+03  0.49846746027E+03  0.11325446795E+04  0.10100000352E+00 0.  1.
</event>
<event>
 5   0  0.6589193E-06  0.2095667E+04  0.7818609E-02  0.8563155E-01
       -1   -1    0    0    0  501  0.00000000000E+00  0.00000000000E+00  0.58140231107E+03  0.58140231109E+03  0.50400001928E-02 0.  1.
        1   -1    0    0  501    0  0.00000000000E+00  0.00000000000E+00 -0.18884594123E+04  0.18884594123E+04  0.50400001928E-02 0. -1.
    10030    2    1    2    0    0  0.00000000000E+00  0.00000000000E+00 -0.13070571012E+04  0.24698617234E+04  0.20956666402E+04 0.  0.
        3    1    3    3  502    0 -0.13350447774E+03 -0.11921183463E+03 -0.18703103195E+04  0.18788548663E+04  0.10100000352E+00 0. -1.
       -3    1    3    3    0  502  0.13350447774E+03  0.11921183463E+03  0.56325321826E+03  0.59100685713E+03  0.10100000352E+00 0.  1.
</event>
<event>
 5   0  0.1398469E-05  0.2096586E+04  0.7818609E-02  0.8562749E-01
        2   -1    0    0  501    0  0.00000000000E+00  0.00000000000E+00  0.13120567636E+04  0.13120567636E+04  0.25500000920E-02 0. -1.
       -2   -1    0    0    0  501  0.00000000000E+00  0.00000000000E+00 -0.83755396046E+03  0.83755396046E+03  0.25500000920E-02 0.  1.
    10030    2    1    2    0    0  0.00000000000E+00  0.00000000000E+00  0.47450280312E+03  0.21496107240E+04  0.20965861191E+04 0.  0.
        2    1    3    3  502    0 -0.31564636634E+03  0.14976266337E+03 -0.77610584641E+03  0.85111795232E+03  0.25500000920E-02 0.  1.
       -2    1    3    3    0  502  0.31564636634E+03 -0.14976266337E+03  0.12506086495E+04  0.12984927717E+04  0.25500000920E-02 0. -1.
</event>
<event>
 5   0  0.1395356E-05  0.2099680E+04  0.7818609E-02  0.8561384E-01
        2   -1    0    0  501    0  0.00000000000E+00  0.00000000000E+00  0.21838830676E+04  0.21838830676E+04  0.25500000920E-02 0.  1.
       -2   -1    0    0    0  501  0.00000000000E+00  0.00000000000E+00 -0.50468085423E+03  0.50468085423E+03  0.25500000920E-02 0. -1.
    10030    2    1    2    0    0  0.00000000000E+00  0.00000000000E+00  0.16792022134E+04  0.26885639218E+04  0.20996799490E+04 0.  0.
        1    1    3    3  502    0 -0.67071014599E+03 -0.78119145091E+03  0.57702240017E+03  0.11802826074E+04  0.50400001928E-02 0.  1.
       -1    1    3    3    0  502  0.67071014599E+03  0.78119145091E+03  0.11021798132E+04  0.15082813145E+04  0.50400001928E-02 0. -1.
</event>
<event>
 5   0  0.6283269E-06  0.2102570E+04  0.7818609E-02  0.8560112E-01
       -1   -1    0    0    0  501  0.00000000000E+00  0.00000000000E+00  0.82560447461E+03  0.82560447462E+03  0.50400001928E-02 0.  1.
        1   -1    0    0  501    0  0.00000000000E+00  0.00000000000E+00 -0.13386557802E+04  0.13386557802E+04  0.50400001928E-02 0. -1.
    10030    2    1    2    0    0  0.00000000000E+00  0.00000000000E+00 -0.51305130556E+03  0.21642602548E+04  0.21025700484E+04 0.  0.
        1    1    3    3  502    0 -0.53592606841E+03 -0.23939519039E+03 -0.11542812544E+04  0.12949486563E+04  0.50400001928E-02 0. -1.
       -1    1    3    3    0  502  0.53592606841E+03  0.23939519039E+03  0.64122994888E+03  0.86931159853E+03  0.50400001928E-02 0.  1.
</event>
<event>
 5   0  0.1395356E-05  0.2096531E+04  0.7818609E-02  0.8562773E-01
       -2   -1    0    0    0  501  0.00000000000E+00  0.00000000000E+00  0.64396729208E+03  0.64396729209E+03  0.25500000920E-02 0.  1.
        2   -1    0    0  501    0  0.00000000000E+00  0.00000000000E+00 -0.17063921684E+04  0.17063921684E+04  0.25500000920E-02 0. -1.
    10030    2    1    2    0    0  0.00000000000E+00  0.00000000000E+00 -0.10624248763E+04  0.23503594605E+04  0.20965311769E+04 0.  0.
        1    1    3    3  502    0 -0.48518017134E+03  0.82854332279E+03 -0.10028314062E+04  0.13883640249E+04  0.50400001928E-02 0. -1.
       -1    1    3    3    0  502  0.48518017134E+03 -0.82854332279E+03 -0.59593470155E+02  0.96199543560E+03  0.50400001928E-02 0.  1.
</event>
<event>
 5   0  0.1395356E-05  0.2103413E+04  0.7818609E-02  0.8559742E-01
       -2   -1    0    0    0  501  0.00000000000E+00  0.00000000000E+00  0.92900910660E+03  0.92900910660E+03  0.25500000920E-02 0.  1.
        2   -1    0    0  501    0  0.00000000000E+00  0.00000000000E+00 -0.11906084453E+04  0.11906084453E+04  0.25500000920E-02 0. -1.
    10030    2    1    2    0    0  0.00000000000E+00  0.00000000000E+00 -0.26159933866E+03  0.21196175519E+04  0.21034125492E+04 0.  0.
        1    1    3    3  502    0  0.54923152876E+03  0.87271149868E+03 -0.33928841185E+03  0.10855400769E+04  0.50400001928E-02 0. -1.
       -1    1    3    3    0  502 -0.54923152876E+03 -0.87271149868E+03  0.77689073189E+02  0.10340774750E+04  0.50400001928E-02 0.  1.
</event>
<event>
 5   0  0.1390735E-05  0.2099013E+04  0.7818609E-02  0.8561678E-01
       -2   -1    0    0    0  501  0.00000000000E+00  0.00000000000E+00  0.84396145466E+03  0.84396145467E+03  0.25500000920E-02 0.  1.
        2   -1    0    0  501    0  0.00000000000E+00  0.00000000000E+00 -0.13051113545E+04  0.13051113545E+04  0.25500000920E-02 0. -1.
    10030    2    1    2    0    0  0.00000000000E+00  0.00000000000E+00 -0.46114989981E+03  0.21490728091E+04  0.20990127939E+04 0.  0.
        5    1    3    3  502    0 -0.14112985511E+02  0.10328762046E+04 -0.40653918999E+02  0.10337829857E+04  0.46999998093E+01 0.  1.
       -5    1    3    3    0  502  0.14112985511E+02 -0.10328762046E+04 -0.42049598081E+03  0.11152898234E+04  0.46999998093E+01 0. -1.
</event>
<event>
 5   0  0.1344501E-05  0.2112494E+04  0.7818609E-02  0.8555759E-01
       -2   -1    0    0    0  501  0.00000000000E+00  0.00000000000E+00  0.11891475555E+04  0.11891475555E+04  0.25500000920E-02 0. -1.
        2   -1    0    0  501    0  0.00000000000E+00  0.00000000000E+00 -0.93819988317E+03  0.93819988317E+03  0.25500000920E-02 0.  1.
    10030    2    1    2    0    0  0.00000000000E+00  0.00000000000E+00  0.25094767233E+03  0.21273474387E+04  0.21124943528E+04 0.  0.
        3    1    3    3  502    0  0.75844094483E+03  0.16152710356E+03 -0.59673976093E+03  0.97847944508E+03  0.10100000352E+00 0.  1.
       -3    1    3    3    0  502 -0.75844094483E+03 -0.16152710356E+03  0.84768743326E+03  0.11488679936E+04  0.10100000352E+00 0. -1.
</event>
<event>
 5   0  0.6238363E-06  0.2098130E+04  0.7818609E-02  0.8562068E-01
        1   -1    0    0  501    0  0.00000000000E+00  0.00000000000E+00  0.73815432407E+03  0.73815432409E+03  0.50400001928E-02 0.  1.
       -1   -1    0    0    0  501  0.00000000000E+00  0.00000000000E+00 -0.14909314820E+04  0.14909314820E+04  0.50400001928E-02 0. -1.
    10030    2    1    2    0    0  0.00000000000E+00  0.00000000000E+00 -0.75277715788E+03  0.22290858060E+04  0.20981301393E+04 0.  0.
        4    1    3    3  502    0 -0.89430648776E+03  0.51216117981E+02  0.20370261636E+03  0.91864223373E+03  0.12699999809E+01 0.  1.
       -4    1    3    3    0  502  0.89430648776E+03 -0.51216117981E+02 -0.95647977424E+03  0.13104435723E+04  0.12699999809E+01 0. -1.
</event>
<event>
 5   0  0.6283269E-06  0.2099802E+04  0.7818609E-02  0.8561331E-01
        1   -1    0    0  501    0  0.00000000000E+00  0.00000000000E+00  0.18584804470E+04  0.18584804470E+04  0.50400001928E-02 0.  1.
       -1   -1    0    0    0  501  0.00000000000E+00  0.00000000000E+00 -0.59311484224E+03  0.59311484227E+03  0.50400001928E-02 0. -1.
    10030    2    1    2    0    0  0.00000000000E+00  0.00000000000E+00  0.12653656047E+04  0.24515952892E+04  0.20998022165E+04 0.  0.
        1    1    3    3  502    0 -0.47934363281E+03 -0.66650029362E+03 -0.13140648333E+03  0.83142084626E+03  0.50400001928E-02 0. -1.
       -1    1    3    3    0  502  0.47934363281E+03  0.66650029362E+03  0.13967720880E+04  0.16201744430E+04  0.50400001928E-02 0.  1.
</event>
<event>
 5   0  0.6283269E-06  0.2101373E+04  0.7818609E-02  0.8560639E-01
        1   -1    0    0  501    0  0.00000000000E+00  0.00000000000E+00  0.12754273313E+04  0.12754273313E+04  0.50400001928E-02 0. -1.
       -1   -1    0    0    0  501  0.00000000000E+00  0.00000000000E+00 -0.86554690937E+03  0.86554690939E+03  0.50400001928E-02 0.  1.
    10030    2    1    2    0    0  0.00000000000E+00  0.00000000000E+00  0.40988042193E+03  0.21409742407E+04  0.21013730604E+04 0.  0.
        1    1    3    3  502    0 -0.30495158283E+03 -0.47194732035E+03  0.11094846858E+04  0.12436583169E+04  0.50400001928E-02 0. -1.
       -1    1    3    3    0  502  0.30495158283E+03  0.47194732035E+03 -0.69960426389E+03  0.89731592382E+03  0.50400001928E-02 0.  1.
</event>
<event>
 5   0  0.1390735E-05  0.2096824E+04  0.7818609E-02  0.8562644E-01
       -2   -1    0    0    0  501  0.00000000000E+00  0.00000000000E+00  0.12369980280E+04  0.12369980280E+04  0.25500000920E-02 0.  1.
        2   -1    0    0  501    0  0.00000000000E+00  0.00000000000E+00 -0.88857705077E+03  0.88857705077E+03  0.25500000920E-02 0. -1.
    10030    2    1    2    0    0  0.00000000000E+00  0.00000000000E+00  0.34842097723E+03  0.21255750788E+04  0.20968243222E+04 0.  0.
        5    1    3    3  502    0  0.89762588810E+03 -0.30286811348E+03  0.62946139227E+03  0.11374115629E+04  0.46999998093E+01 0.  1.
       -5    1    3    3    0  502 -0.89762588810E+03  0.30286811348E+03 -0.28104041503E+03  0.98816351584E+03  0.46999998093E+01 0. -1.
</event>
<event>
 5   0  0.1395356E-05  0.2100880E+04  0.7818609E-02  0.8560856E-01
        2   -1    0    0  501    0  0.00000000000E+00  0.00000000000E+00  0.10767175198E+04  0.10767175198E+04  0.25500000920E-02 0.  1.
       -2   -1    0    0    0  501  0.00000000000E+00  0.00000000000E+00 -0.10248037565E+04  0.10248037565E+04  0.25500000920E-02 0. -1.
    10030    2    1    2    0    0  0.00000000000E+00  0.00000000000E+00  0.51913763312E+02  0.21015212763E+04  0.21008799671E+04 0.  0.
        1    1    3    3  502    0  0.52867264413E+03 -0.86894965393E+03  0.28844104731E+03  0.10572447699E+04  0.50400001928E-02 0.  1.
       -1    1    3    3    0  502 -0.52867264413E+03  0.86894965393E+03 -0.23652728400E+03  0.10442765064E+04  0.50400001928E-02 0. -1.
</event>
<event>
 5   0  0.6589193E-06  0.2103466E+04  0.7818609E-02  0.8559718E-01
       -1   -1    0    0    0  501  0.00000000000E+00  0.00000000000E+00  0.62004073332E+03  0.62004073334E+03  0.50400001928E-02 0. -1.
        1   -1    0    0  501    0  0.00000000000E+00  0.00000000000E+00 -0.17839825167E+04  0.17839825167E+04  0.50400001928E-02 0.  1.
    10030    2    1    2    0    0  0.00000000000E+00  0.00000000000E+00 -0.11639417834E+04  0.24040232501E+04  0.21034655480E+04 0.  0.
        3    1    3    3  502    0  0.86757723674E+03 -0.32780641138E+03 -0.11488180452E+04  0.14764586740E+04  0.10100000352E+00 0.  1.
       -3    1    3    3    0  502 -0.86757723674E+03  0.32780641138E+03 -0.15123738245E+02  0.92756457603E+03  0.10100000352E+00 0. -1.
</event>
<event>
 5   0  0.6589193E-06  0.2099831E+04  0.7818609E-02  0.8561318E-01
       -1   -1    0    0    0  501  0.00000000000E+00  0.00000000000E+00  0.15509125285E+04  0.15509125285E+04  0.50400001928E-02 0.  1.
        1   -1    0    0  501    0  0.00000000000E+00  0.00000000000E+00 -0.71075713658E+03  0.71075713660E+03  0.50400001928E-02 0. -1.
    10030    2    1    2    0    0  0.00000000000E+00  0.00000000000E+00  0.84015539191E+03  0.22616696651E+04  0.20998306102E+04 0.  0.
        3    1    3    3  502    0 -0.59466046403E+03  0.83495418996E+02 -0.50753719491E+03  0.78624841297E+03  0.10100000352E+00 0. -1.
       -3    1    3    3    0  502  0.59466046403E+03 -0.83495418996E+02  0.13476925868E+04  0.14754212521E+04  0.10100000352E+00 0.  1.
</event>
<event>
 5   0  0.1395356E-05  0.2116582E+04  0.7818609E-02  0.8553974E-01
        2   -1    0    0  501    0  0.00000000000E+00  0.00000000000E+00  0.87194002600E+03  0.87194002600E+03  0.25500000920E-02 0.  1.
       -2   -1    0    0    0  501  0.00000000000E+00  0.00000000000E+00 -0.12844689784E+04  0.12844689784E+04  0.25500000920E-02 0. -1.
    10030    2    1    2    0    0  0.00000000000E+00  0.00000000000E+00 -0.41252895240E+03  0.21564090044E+04  0.21165820697E+04 0.  0.
        1    1    3    3  502    0  0.82436761608E+03 -0.65938207938E+03 -0.28259567931E+03  0.10928069413E+04  0.50400001928E-02 0. -1.
       -1    1    3    3    0  502 -0.82436761608E+03  0.65938207938E+03 -0.12993327309E+03  0.10636020631E+04  0.50400001928E-02 0.  1.
</event>
<event>
 5   0  0.6283269E-06  0.2102224E+04  0.7818609E-02  0.8560264E-01
        1   -1    0    0  501    0  0.00000000000E+00  0.00000000000E+00  0.74171241800E+03  0.74171241802E+03  0.50400001928E-02 0. -1.
       -1   -1    0    0    0  501  0.00000000000E+00  0.00000000000E+00 -0.14895757259E+04  0.14895757260E+04  0.50400001928E-02 0.  1.
    10030    2    1    2    0    0  0.00000000000E+00  0.00000000000E+00 -0.74786330795E+03  0.22312881440E+04  0.21022243586E+04 0.  0.
        1    1    3    3  502    0  0.80961157209E+03  0.50140238794E+03 -0.84617628476E+03  0.12739268257E+04  0.50400001928E-02 0.  1.
       -1    1    3    3    0  502 -0.80961157209E+03 -0.50140238794E+03  0.98312976817E+02  0.95736131828E+03  0.50400001928E-02 0. -1.
</event>
<event>
 5   0  0.6599245E-06  0.2103991E+04  0.7818609E-02  0.8559487E-01
       -1   -1    0    0    0  501  0.00000000000E+00  0.00000000000E+00  0.67033396048E+03  0.67033396050E+03  0.50400001928E-02 0. -1.
        1   -1    0    0  501    0  0.00000000000E+00  0.00000000000E+00 -0.16509598397E+04  0.16509598397E+04  0.50400001928E-02 0.  1.
    10030    2    1    2    0    0  0.00000000000E+00  0.00000000000E+00 -0.98062587926E+03  0.23212938002E+04  0.21039909201E+04 0.  0.
        2    1    3    3  502    0  0.82537430505E+03 -0.49239740628E+03 -0.96227560007E+03  0.13600265731E+04  0.25500000920E-02 0.  1.
       -2    1    3    3    0  502 -0.82537430505E+03  0.49239740628E+03 -0.18350279191E+02  0.96126722710E+03  0.25500000920E-02 0. -1.
</event>
<event>
 5   0  0.6238363E-06  0.2099264E+04  0.7818609E-02  0.8561567E-01
        1   -1    0    0  501    0  0.00000000000E+00  0.00000000000E+00  0.12058336559E+04  0.12058336559E+04  0.50400001928E-02 0. -1.
       -1   -1    0    0    0  501  0.00000000000E+00  0.00000000000E+00 -0.91366483201E+03  0.91366483203E+03  0.50400001928E-02 0.  1.
    10030    2    1    2    0    0  0.00000000000E+00  0.00000000000E+00  0.29216882384E+03  0.21194984879E+04  0.20992644470E+04 0.  0.
        4    1    3    3  502    0  0.85566313316E+03 -0.58424161674E+03 -0.23548482736E+02  0.10363656730E+04  0.12699999809E+01 0.  1.
       -4    1    3    3    0  502 -0.85566313316E+03  0.58424161674E+03  0.31571730657E+03  0.10831328149E+04  0.12699999809E+01 0. -1.
</event>
<event>
 5   0  0.6238363E-06  0.2093072E+04  0.7818609E-02  0.8564301E-01
       -1   -1    0    0    0  501  0.00000000000E+00  0.00000000000E+00  0.71583778861E+03  0.71583778863E+03  0.50400001928E-02 0.  1.
        1   -1    0    0  501    0  0.00000000000E+00  0.00000000000E+00 -0.15300085586E+04  0.15300085586E+04  0.50400001928E-02 0. -1.
    10030    2    1    2    0    0  0.00000000000E+00  0.00000000000E+00 -0.81417077002E+03  0.22458463473E+04  0.20930723286E+04 0.  0.
        4    1    3    3  502    0 -0.18107746214E+03 -0.46971882912E+03 -0.13915570760E+04  0.14798167232E+04  0.12699999809E+01 0. -1.
       -4    1    3    3    0  502  0.18107746214E+03  0.46971882912E+03  0.57738630595E+03  0.76602962405E+03  0.12699999809E+01 0.  1.
</event>
<event>
 5   0  0.6283269E-06  0.2099829E+04  0.7818609E-02  0.8561319E-01
        1   -1    0    0  501    0  0.00000000000E+00  0.00000000000E+00  0.20695060548E+04  0.20695060548E+04  0.50400001928E-02 0. -1.
       -1   -1    0    0    0  501  0.00000000000E+00  0.00000000000E+00 -0.53264882591E+03  0.53264882594E+03  0.50400001928E-02 0.  1.
    10030    2    1    2    0    0  0.00000000000E+00  0.00000000000E+00  0.15368572289E+04  0.26021548807E+04  0.20998285362E+04 0.  0.
        1    1    3    3  502    0  0.40976008759E+03  0.37253289421E+03 -0.33693837271E+03  0.64823726650E+03  0.50400001928E-02 0.  1.
       -1    1    3    3    0  502 -0.40976008759E+03 -0.37253289421E+03  0.18737956016E+04  0.19539176142E+04  0.50400001928E-02 0. -1.
</event>
<event>
 5   0  0.6589193E-06  0.2099431E+04  0.7818609E-02  0.8561494E-01
       -1   -1    0    0    0  501  0.00000000000E+00  0.00000000000E+00  0.65071460473E+03  0.65071460474E+03  0.50400001928E-02 0. -1.
        1   -1    0    0  501    0  0.00000000000E+00  0.00000000000E+00 -0.16933728142E+04  0.16933728142E+04  0.50400001928E-02 0.  1.
    10030    2    1    2    0    0  0.00000000000E+00  0.00000000000E+00 -0.10426582095E+04  0.23440874189E+04  0.20994308004E+04 0.  0.
        3    1    3    3  502    0 -0.41383853624E+03 -0.85798771475E+03 -0.10137413791E+04  0.13910703960E+04  0.10100000352E+00 0.  1.
       -3    1    3    3    0  502  0.41383853624E+03  0.85798771475E+03 -0.28916830371E+02  0.95301702294E+03  0.10100000352E+00 0. -1.
</event>
<event>
 5   0  0.6238363E-06  0.2102370E+04  0.7818609E-02  0.8560200E-01
       -1   -1    0    0    0  501  0.00000000000E+00  0.00000000000E+00  0.95404077497E+03  0.95404077499E+03  0.50400001928E-02 0.  1.
        1   -1    0    0  501    0  0.00000000000E+00  0.00000000000E+00 -0.11582207509E+04  0.11582207509E+04  0.50400001928E-02 0. -1.
    10030    2    1    2    0    0  0.00000000000E+00  0.00000000000E+00 -0.20417997590E+03  0.21122615259E+04  0.21023699225E+04 0.  0.
        4    1    3    3  502    0  0.34422752128E+03 -0.46550743962E+03 -0.98359963446E+03  0.11413411482E+04  0.12699999809E+01 0. -1.
       -4    1    3    3    0  502 -0.34422752128E+03  0.46550743962E+03  0.77941965856E+03  0.97092037768E+03  0.12699999809E+01 0.  1.
</event>
<event>
 5   0  0.1344501E-05  0.2046645E+04  0.7818609E-02  0.8585118E-01
        2   -1    0    0  501    0  0.00000000000E+00  0.00000000000E+00  0.80477257850E+03  0.80477257850E+03  0.25500000920E-02 0.  1.
       -2   -1    0    0    0  501  0.00000000000E+00  0.00000000000E+00 -0.13012231061E+04  0.13012231061E+04  0.25500000920E-02 0. -1.
    10030    2    1    2    0    0  0.00000000000E+00  0.00000000000E+00 -0.49645052762E+03  0.21059956846E+04  0.20466447413E+04 0.  0.
        3    1    3    3  502    0 -0.26822735332E+03  0.48319916500E+03  0.63800607578E+03  0.84408477599E+03  0.10100000352E+00 0.  1.
       -3    1    3    3    0  502  0.26822735332E+03 -0.48319916500E+03 -0.11344566034E+04  0.12619109086E+04  0.10100000352E+00 0. -1.
</event>
<event>
 5   0  0.6599245E-06  0.2094084E+04  0.7818609E-02  0.8563854E-01
        1   -1    0    0  501    0  0.00000000000E+00  0.00000000000E+00  0.20603000497E+04  0.20603000497E+04  0.50400001928E-02 0. -1.
       -1   -1    0    0    0  501  0.00000000000E+00  0.00000000000E+00 -0.53210565793E+03  0.53210565796E+03  0.50400001928E-02 0.  1.
    10030    2    1    2    0    0  0.00000000000E+00  0.00000000000E+00  0.15281943917E+04  0.25924057076E+04  0.20940843474E+04 0.  0.
        2    1    3    3  502    0 -0.42957506840E+03  0.71383709318E+03  0.15492051692E+04  0.17590152903E+04  0.25500000920E-02 0. -1.
       -2    1    3    3    0  502  0.42957506840E+03 -0.71383709318E+03 -0.21010777496E+02  0.83339041737E+03  0.25500000920E-02 0.  1.
</event>
<event>
 5   0  0.6589193E-06  0.2098361E+04  0.7818609E-02  0.8561966E-01
        1   -1    0    0  501    0  0.00000000000E+00  0.00000000000E+00  0.14736685881E+04  0.14736685882E+04  0.50400001928E-02 0. -1.
       -1   -1    0    0    0  501  0.00000000000E+00  0.00000000000E+00 -0.74696551488E+03  0.74696551490E+03  0.50400001928E-02 0.  1.
    10030    2    1    2    0    0  0.00000000000E+00  0.00000000000E+00  0.72670307326E+03  0.22206341030E+04  0.20983608991E+04 0.  0.
        3    1    3    3  502    0  0.21264403758E+03 -0.10055482978E+04  0.58643025453E+03  0.11833196185E+04  0.10100000352E+00 0.  1.
       -3    1    3    3    0  502 -0.21264403758E+03  0.10055482978E+04  0.14027281873E+03  0.10373144845E+04  0.10100000352E+00 0. -1.
</event>
<event>
 5   0  0.6599245E-06  0.2121345E+04  0.7818609E-02  0.8551899E-01
        1   -1    0    0  501    0  0.00000000000E+00  0.00000000000E+00  0.96183159598E+03  0.96183159599E+03  0.50400001928E-02 0.  1.
       -1   -1    0    0    0  501  0.00000000000E+00  0.00000000000E+00 -0.11696706601E+04  0.11696706601E+04  0.50400001928E-02 0. -1.
    10030    2    1    2    0    0  0.00000000000E+00  0.00000000000E+00 -0.20783906415E+03  0.21315022561E+04  0.21213450430E+04 0.  0.
        2    1    3    3  502    0  0.76144439221E+03  0.42804305780E+03  0.50063214860E+03  0.10068023490E+04  0.25500000920E-02 0.  1.
       -2    1    3    3    0  502 -0.76144439221E+03 -0.42804305780E+03 -0.70847121275E+03  0.11246999071E+04  0.25500000920E-02 0. -1.
</event>
<event>
 5   0  0.1395356E-05  0.2098488E+04  0.7818609E-02  0.8561910E-01
        2   -1    0    0  501    0  0.00000000000E+00  0.00000000000E+00  0.21191160141E+04  0.21191160141E+04  0.25500000920E-02 0.  1.
       -2   -1    0    0    0  501  0.00000000000E+00  0.00000000000E+00 -0.51951499848E+03  0.51951499849E+03  0.25500000920E-02 0. -1.
    10030    2    1    2    0    0  0.00000000000E+00  0.00000000000E+00  0.15996010156E+04  0.26386310126E+04  0.20984876010E+04 0.  0.
        1    1    3    3  502    0 -0.10004063070E+03  0.71822469370E+03 -0.15371546377E+03  0.74127139582E+03  0.50400001928E-02 0. -1.
       -1    1    3    3    0  502  0.10004063070E+03 -0.71822469370E+03  0.17533164794E+04  0.18973596167E+04  0.50400001928E-02 0.  1.
</event>
<event>
 5   0  0.6283269E-06  0.2100796E+04  0.7818609E-02  0.8560893E-01
        1   -1    0    0  501    0  0.00000000000E+00  0.00000000000E+00  0.14209214677E+04  0.14209214677E+04  0.50400001928E-02 0. -1.
       -1   -1    0    0    0  501  0.00000000000E+00  0.00000000000E+00 -0.77649338827E+03  0.77649338829E+03  0.50400001928E-02 0.  1.
    10030    2    1    2    0    0  0.00000000000E+00  0.00000000000E+00  0.64442807944E+03  0.21974148560E+04  0.21007961586E+04 0.  0.
        1    1    3    3  502    0  0.75305080249E+02  0.82381670325E+03  0.99927948414E+03  0.12972680151E+04  0.50400001928E-02 0. -1.
       -1    1    3    3    0  502 -0.75305080249E+02 -0.82381670325E+03 -0.35485140470E+03  0.90014684086E+03  0.50400001928E-02 0.  1.
</event>
<event>
 5   0  0.1398469E-05  0.2109422E+04  0.7818609E-02  0.8557104E-01
       -2   -1    0    0    0  501  0.00000000000E+00  0.00000000000E+00  0.75041165583E+03  0.75041165584E+03  0.25500000920E-02 0.  1.
        2   -1    0    0  501    0  0.00000000000E+00  0.00000000000E+00 -0.14824068590E+04  0.14824068590E+04  0.25500000920E-02 0. -1.
    10030    2    1    2    0    0  0.00000000000E+00  0.00000000000E+00 -0.73199520320E+03  0.22328185149E+04  0.21094220874E+04 0.  0.
        2    1    3    3  502    0 -0.31309654030E+03  0.22753809807E+03  0.67252428016E+03  0.77594583383E+03  0.25500000920E-02 0. -1.
       -2    1    3    3    0  502  0.31309654030E+03 -0.22753809807E+03 -0.14045194834E+04  0.14568726810E+04  0.25500000920E-02 0.  1.
</event>
<event>
 5   0  0.6917078E-06  0.2088968E+04  0.7818609E-02  0.8566119E-01
        1   -1    0    0  501    0  0.00000000000E+00  0.00000000000E+00  0.15625372089E+04  0.15625372089E+04  0.50400001928E-02 0. -1.
       -1   -1    0    0    0  501  0.00000000000E+00  0.00000000000E+00 -0.69818936136E+03  0.69818936138E+03  0.50400001928E-02 0.  1.
    10030    2    1    2    0    0  0.00000000000E+00  0.00000000000E+00  0.86434784757E+03  0.22607265703E+04  0.20889680285E+04 0.  0.
        5    1    3    3  502    0  0.50439373778E+03 -0.82096764391E+03  0.86846346040E+03  0.12971706854E+04  0.46999998093E+01 0. -1.
       -5    1    3    3    0  502 -0.50439373778E+03  0.82096764391E+03 -0.41156128323E+01  0.96355588490E+03  0.46999998093E+01 0.  1.
</event>
<event>
 5   0  0.6238363E-06  0.2101830E+04  0.7818609E-02  0.8560438E-01
       -1   -1    0    0    0  501  0.00000000000E+00  0.00000000000E+00  0.89038206631E+03  0.89038206633E+03  0.50400001928E-02 0. -1.
        1   -1    0    0  501    0  0.00000000000E+00  0.00000000000E+00 -0.12403911769E+04  0.12403911769E+04  0.50400001928E-02 0.  1.
    10030    2    1    2    0    0  0.00000000000E+00  0.00000000000E+00 -0.35000911057E+03  0.21307732432E+04  0.21018297354E+04 0.  0.
        4    1    3    3  502    0  0.20276197860E+03 -0.95066964568E+03  0.22991433014E+03  0.99887306866E+03  0.12699999809E+01 0. -1.
       -4    1    3    3    0  502 -0.20276197860E+03  0.95066964568E+03 -0.57992344071E+03  0.11319001746E+04  0.12699999809E+01 0.  1.
</event>
<event>
 5   0  0.6589193E-06  0.2103636E+04  0.7818609E-02  0.8559643E-01
       -1   -1    0    0    0  501  0.00000000000E+00  0.00000000000E+00  0.58032709048E+03  0.58032709051E+03  0.50400001928E-02 0. -1.
        1   -1    0    0  501    0  0.00000000000E+00  0.00000000000E+00 -0.19063746993E+04  0.19063746994E+04  0.50400001928E-02 0.  1.
    10030    2    1    2    0    0  0.00000000000E+00  0.00000000000E+00 -0.13260476089E+04  0.24867017899E+04  0.21036357885E+04 0.  0.
        3    1    3    3  502    0  0.33400361203E+00 -0.93177202586E+03 -0.86187480731E+02  0.93574970573E+03  0.10100000352E+00 0. -1.
       -3    1    3    3    0  502 -0.33400361203E+00  0.93177202586E+03 -0.12398601281E+04  0.15509520841E+04  0.10100000352E+00 0.  1.
</event>
<event>
 5   0  0.5009125E-06  0.2075584E+04  0.7818609E-02  0.8572076E-01
        3   -1    0    0  501    0  0.00000000000E+00  0.00000000000E+00  0.83791242179E+03  0.83791242788E+03  0.10100000352E+00 0.  1.
       -3   -1    0    0    0  501  0.00000000000E+00  0.00000000000E+00 -0.12853523881E+04  0.12853523921E+04  0.10100000352E+00 0. -1.
    10030    2    1    2    0    0  0.00000000000E+00  0.00000000000E+00 -0.44743996634E+03  0.21232648200E+04  0.20755844893E+04 0.  0.
        5    1    3    3  502    0 -0.75939404751E+03  0.63843733132E+02 -0.94434208811E+03  0.12134905896E+04  0.46999998093E+01 0. -1.
       -5    1    3    3    0  502  0.75939404751E+03 -0.63843733132E+02  0.49690212177E+03  0.90977423039E+03  0.46999998093E+01 0.  1.
</event>
<event>
 5   0  0.1344501E-05  0.2099436E+04  0.7818609E-02  0.8561492E-01
        2   -1    0    0  501    0  0.00000000000E+00  0.00000000000E+00  0.65913536141E+03  0.65913536141E+03  0.25500000920E-02 0.  1.
       -2   -1    0    0    0  501  0.00000000000E+00  0.00000000000E+00 -0.16717479867E+04  0.16717479867E+04  0.25500000920E-02 0. -1.
    10030    2    1    2    0    0  0.00000000000E+00  0.00000000000E+00 -0.10126126253E+04  0.23308833481E+04  0.20994363181E+04 0.  0.
        3    1    3    3  502    0 -0.12808170417E+03 -0.10178821870E+04 -0.75311781611E+03  0.12726647338E+04  0.10100000352E+00 0. -1.
       -3    1    3    3    0  502  0.12808170417E+03  0.10178821870E+04 -0.25949480919E+03  0.10582186143E+04  0.10100000352E+00 0.  1.
</event>
<event>
 5   0  0.1441136E-05  0.2099456E+04  0.7818609E-02  0.8561483E-01
        2   -1    0    0  501    0  0.00000000000E+00  0.00000000000E+00  0.13951556554E+04  0.13951556554E+04  0.25500000920E-02 0. -1.
       -2   -1    0    0    0  501  0.00000000000E+00  0.00000000000E+00 -0.78982481800E+03  0.78982481800E+03  0.25500000920E-02 0.  1.
    10030    2    1    2    0    0  0.00000000000E+00  0.00000000000E+00  0.60533083740E+03  0.21849804734E+04  0.20994557024E+04 0.  0.
        4    1    3    3  502    0  0.24934471731E+02  0.29941788490E+03 -0.74411810542E+03  0.80248748613E+03  0.12699999809E+01 0.  1.
       -4    1    3    3    0  502 -0.24934471731E+02 -0.29941788490E+03  0.13494489428E+04  0.13824929873E+04  0.12699999809E+01 0. -1.
</event>
<event>
 5   0  0.6238363E-06  0.2086925E+04  0.7818609E-02  0.8567025E-01
        1   -1    0    0  501    0  0.00000000000E+00  0.00000000000E+00  0.10951526640E+04  0.10951526640E+04  0.50400001928E-02 0. -1.
       -1   -1    0    0    0  501  0.00000000000E+00  0.00000000000E+00 -0.99421211298E+03  0.99421211300E+03  0.50400001928E-02 0.  1.
    10030    2    1    2    0    0  0.00000000000E+00  0.00000000000E+00  0.10094055103E+03  0.20893647770E+04  0.20869250529E+04 0.  0.
        4    1    3    3  502    0  0.67383929459E+03 -0.56744589311E+01  0.84809534265E+03  0.10832169300E+04  0.12699999809E+01 0. -1.
       -4    1    3    3    0  502 -0.67383929459E+03  0.56744589311E+01 -0.74715479162E+03  0.10061478470E+04  0.12699999809E+01 0.  1.
</event>
<event>
 5   0  0.6917078E-06  0.2095278E+04  0.7818609E-02  0.8563327E-01
        1   -1    0    0  501    0  0.00000000000E+00  0.00000000000E+00  0.24347670336E+04  0.24347670336E+04  0.50400001928E-02 0. -1.
       -1   -1    0    0    0  501  0.00000000000E+00  0.00000000000E+00 -0.45078110408E+03  0.45078110411E+03  0.50400001928E-02 0.  1.
    10030    2    1    2    0    0  0.00000000000E+00  0.00000000000E+00  0.19839859295E+04  0.28855481377E+04  0.20952775202E+04 0.  0.
        5    1    3    3  502    0 -0.62610780132E+03  0.11417211090E+03  0.21380070583E+04  0.22307269042E+04  0.46999998093E+01 0. -1.
       -5    1    3    3    0  502  0.62610780132E+03 -0.11417211090E+03 -0.15402112877E+03  0.65482123353E+03  0.46999998093E+01 0.  1.
</event>
<event>
 5   0  0.1344501E-05  0.2131718E+04  0.7818609E-02  0.8547399E-01
       -2   -1    0    0    0  501  0.00000000000E+00  0.00000000000E+00  0.72725111954E+03  0.72725111954E+03  0.25500000920E-02 0.  1.
        2   -1    0    0  501    0  0.00000000000E+00  0.00000000000E+00 -0.15621229319E+04  0.15621229319E+04  0.25500000920E-02 0. -1.
    10030    2    1    2    0    0  0.00000000000E+00  0.00000000000E+00 -0.83487181236E+03  0.22893740514E+04  0.21317182282E+04 0.  0.
        3    1    3    3  502    0  0.10535561132E+04  0.41427333884E+02 -0.58505214415E+03  0.12058120622E+04  0.10100000352E+00 0. -1.
       -3    1    3    3    0  502 -0.10535561132E+04 -0.41427333884E+02 -0.24981966820E+03  0.10835619893E+04  0.10100000352E+00 0.  1.
</event>
<event>
 5   0  0.6238363E-06  0.2101974E+04  0.7818609E-02  0.8560374E-01
       -1   -1    0    0    0  501  0.00000000000E+00  0.00000000000E+00  0.12907115806E+04  0.12907115806E+04  0.50400001928E-02 0. -1.
        1   -1    0    0  501    0  0.00000000000E+00  0.00000000000E+00 -0.85578627381E+03  0.85578627383E+03  0.50400001928E-02 0.  1.
    10030    2    1    2    0    0  0.00000000000E+00  0.00000000000E+00  0.43492530679E+03  0.21464978544E+04  0.21019736004E+04 0.  0.
        4    1    3    3  502    0  0.59844627212E+03 -0.56505031283E+03  0.88487516607E+03  0.12084806449E+04  0.12699999809E+01 0. -1.
       -4    1    3    3    0  502 -0.59844627212E+03  0.56505031283E+03 -0.44994985929E+03  0.93801720955E+03  0.12699999809E+01 0.  1.
</event>
<event>
 5   0  0.1344501E-05  0.2102734E+04  0.7818609E-02  0.8560040E-01
       -2   -1    0    0    0  501  0.00000000000E+00  0.00000000000E+00  0.63231494036E+03  0.63231494036E+03  0.25500000920E-02 0.  1.
        2   -1    0    0  501    0  0.00000000000E+00  0.00000000000E+00 -0.17481366791E+04  0.17481366791E+04  0.25500000920E-02 0. -1.
    10030    2    1    2    0    0  0.00000000000E+00  0.00000000000E+00 -0.11158217388E+04  0.23804516195E+04  0.21027343532E+04 0.  0.
        3    1    3    3  502    0 -0.53487554211E+03 -0.57711816132E+03  0.23147517422E+03  0.82020606201E+03  0.10100000352E+00 0.  1.
       -3    1    3    3    0  502  0.53487554211E+03  0.57711816132E+03 -0.13472969130E+04  0.15602455575E+04  0.10100000352E+00 0. -1.
</event>
<event>
 5   0  0.6917078E-06  0.2097150E+04  0.7818609E-02  0.8562500E-01
       -1   -1    0    0    0  501  0.00000000000E+00  0.00000000000E+00  0.10228483806E+04  0.10228483806E+04  0.50400001928E-02 0. -1.
        1   -1    0    0  501    0  0.00000000000E+00  0.00000000000E+00 -0.10749483814E+04  0.10749483814E+04  0.50400001928E-02 0.  1.
    10030    2    1    2    0    0  0.00000000000E+00  0.00000000000E+00 -0.52100000808E+02  0.20977967620E+04  0.20971496953E+04 0.  0.
        5    1    3    3  502    0 -0.10260475575E+04  0.18094045286E+03  0.92198500544E+02  0.10459616108E+04  0.46999998093E+01 0.  1.
       -5    1    3    3    0  502  0.10260475575E+04 -0.18094045286E+03 -0.14429850135E+03  0.10518351512E+04  0.46999998093E+01 0. -1.
</event>
<event>
 5   0  0.6599245E-06  0.2100402E+04  0.7818609E-02  0.8561066E-01
        1   -1    0    0  501    0  0.00000000000E+00  0.00000000000E+00  0.45826259531E+03  0.45826259534E+03  0.50400001928E-02 0. -1.
       -1   -1    0    0    0  501  0.00000000000E+00  0.00000000000E+00 -0.24067473272E+04  0.24067473272E+04  0.50400001928E-02 0.  1.
    10030    2    1    2    0    0  0.00000000000E+00  0.00000000000E+00 -0.19484847319E+04  0.28650099225E+04  0.21004021296E+04 0.  0.
        2    1    3    3  502    0  0.30243168850E+03 -0.90291447239E+03 -0.37004853403E+03  0.10215945322E+04  0.25500000920E-02 0.  1.
       -2    1    3    3    0  502 -0.30243168850E+03  0.90291447239E+03 -0.15784361979E+04  0.18434153903E+04  0.25500000920E-02 0. -1.
</event>
<event>
 5   0  0.1390735E-05  0.2098180E+04  0.7818609E-02  0.8562045E-01
       -2   -1    0    0    0  501  0.00000000000E+00  0.00000000000E+00  0.69261668990E+03  0.69261668991E+03  0.25500000920E-02 0.  1.
        2   -1    0    0  501    0  0.00000000000E+00  0.00000000000E+00 -0.15890320032E+04  0.15890320032E+04  0.25500000920E-02 0. -1.
    10030    2    1    2    0    0  0.00000000000E+00  0.00000000000E+00 -0.89641531333E+03  0.22816486931E+04  0.20981802461E+04 0.  0.
        5    1    3    3  502    0 -0.85400253523E+03 -0.18554222918E+01  0.21436854841E+03  0.88051106598E+03  0.46999998093E+01 0.  1.
       -5    1    3    3    0  502  0.85400253523E+03  0.18554222918E+01 -0.11107838617E+04  0.14011376272E+04  0.46999998093E+01 0. -1.
</event>
<event>
 5   0  0.6283269E-06  0.2103071E+04  0.7818609E-02  0.8559892E-01
        1   -1    0    0  501    0  0.00000000000E+00  0.00000000000E+00  0.11602165144E+04  0.11602165144E+04  0.50400001928E-02 0. -1.
       -1   -1    0    0    0  501  0.00000000000E+00  0.00000000000E+00 -0.95303537785E+03  0.95303537786E+03  0.50400001928E-02 0.  1.
    10030    2    1    2    0    0  0.00000000000E+00  0.00000000000E+00  0.20718113654E+03  0.21132518923E+04  0.21030714531E+04 0.  0.
        1    1    3    3  502    0  0.44465761763E+03  0.57672292497E+01 -0.85389862067E+03  0.96275464801E+03  0.50400001928E-02 0.  1.
       -1    1    3    3    0  502 -0.44465761763E+03 -0.57672292497E+01  0.10610797572E+04  0.11504972443E+04  0.50400001928E-02 0. -1.
</event>
<event>
 5   0  0.6283269E-06  0.2104070E+04  0.7818609E-02  0.8559453E-01
       -1   -1    0    0    0  501  0.00000000000E+00  0.00000000000E+00  0.63019006753E+03  0.63019006755E+03  0.50400001928E-02 0.  1.
        1   -1    0    0  501    0  0.00000000000E+00  0.00000000000E+00 -0.17562598800E+04  0.17562598800E+04  0.50400001928E-02 0. -1.
    10030    2    1    2    0    0  0.00000000000E+00  0.00000000000E+00 -0.11260698125E+04  0.23864499476E+04  0.21040698966E+04 0.  0.
        1    1    3    3  502    0 -0.77778559916E+03  0.10867105064E+03  0.23092404539E+03  0.81858765583E+03  0.50400001928E-02 0.  1.
       -1    1    3    3    0  502  0.77778559916E+03 -0.10867105064E+03 -0.13569938579E+04  0.15678622917E+04  0.50400001928E-02 0. -1.
</event>
<event>
 5   0  0.1344501E-05  0.2095672E+04  0.7818609E-02  0.8563152E-01
       -2   -1    0    0    0  501  0.00000000000E+00  0.00000000000E+00  0.46405776011E+03  0.46405776012E+03  0.25500000920E-02 0.  1.
        2   -1    0    0  501    0  0.00000000000E+00  0.00000000000E+00 -0.23659981213E+04  0.23659981213E+04  0.25500000920E-02 0. -1.
    10030    2    1    2    0    0  0.00000000000E+00  0.00000000000E+00 -0.19019403612E+04  0.28300558814E+04  0.20956715283E+04 0.  0.
        3    1    3    3  502    0  0.70837924933E+03 -0.40610218965E+03 -0.64159061378E+02  0.81904611877E+03  0.10100000352E+00 0.  1.
       -3    1    3    3    0  502 -0.70837924933E+03  0.40610218965E+03 -0.18377812998E+04  0.20110097627E+04  0.10100000352E+00 0. -1.
</event>
<event>
 5   0  0.6238363E-06  0.2100464E+04  0.7818609E-02  0.8561039E-01
       -1   -1    0    0    0  501  0.00000000000E+00  0.00000000000E+00  0.44381660035E+03  0.44381660038E+03  0.50400001928E-02 0. -1.
        1   -1    0    0  501    0  0.00000000000E+00  0.00000000000E+00 -0.24852329897E+04  0.24852329897E+04  0.50400001928E-02 0.  1.
    10030    2    1    2    0    0  0.00000000000E+00  0.00000000000E+00 -0.20414163894E+04  0.29290495901E+04  0.21004643835E+04 0.  0.
        4    1    3    3  502    0  0.80660173834E+03  0.65835903117E+03 -0.82878099220E+03  0.13307601302E+04  0.12699999809E+01 0.  1.
       -4    1    3    3    0  502 -0.80660173834E+03 -0.65835903117E+03 -0.12126353972E+04  0.15982894599E+04  0.12699999809E+01 0. -1.
</event>
<event>
 5   0  0.6283269E-06  0.2099851E+04  0.7818609E-02  0.8561309E-01
       -1   -1    0    0    0  501  0.00000000000E+00  0.00000000000E+00  0.14031116774E+04  0.14031116775E+04  0.50400001928E-02 0.  1.
        1   -1    0    0  501    0  0.00000000000E+00  0.00000000000E+00 -0.78564207008E+03  0.78564207010E+03  0.50400001928E-02 0. -1.
    10030    2    1    2    0    0  0.00000000000E+00  0.00000000000E+00  0.61746960736E+03  0.21887537475E+04  0.20998510070E+04 0.  0.
        1    1    3    3  502    0 -0.40210511287E+03 -0.52994472028E+03 -0.53794473527E+03  0.85551999777E+03  0.50400001928E-02 0. -1.
       -1    1    3    3    0  502  0.40210511287E+03  0.52994472028E+03  0.11554143426E+04  0.13332337498E+04  0.50400001928E-02 0.  1.
</event>
<event>
 5   0  0.1390735E-05  0.2105457E+04  0.7818609E-02  0.8558843E-01
       -2   -1    0    0    0  501  0.00000000000E+00  0.00000000000E+00  0.77935988268E+03  0.77935988268E+03  0.25500000920E-02 0. -1.
        2   -1    0    0  501    0  0.00000000000E+00  0.00000000000E+00 -0.14219839085E+04  0.14219839085E+04  0.25500000920E-02 0.  1.
    10030    2    1    2    0    0  0.00000000000E+00  0.00000000000E+00 -0.64262402580E+03  0.22013437912E+04  0.21054569215E+04 0.  0.
        5    1    3    3  502    0  0.56527529308E+03 -0.96036058943E+02 -0.12443877305E+04  0.13701394072E+04  0.46999998093E+01 0.  1.
       -5    1    3    3    0  502 -0.56527529308E+03  0.96036058943E+02  0.60176370466E+03  0.83120438391E+03  0.46999998093E+01 0. -1.
</event>
<event>
 5   0  0.6917078E-06  0.2100049E+04  0.7818609E-02  0.8561222E-01
        1   -1    0    0  501    0  0.00000000000E+00  0.00000000000E+00  0.12976257318E+04  0.12976257319E+04  0.50400001928E-02 0.  1.
       -1   -1    0    0    0  501  0.00000000000E+00  0.00000000000E+00 -0.84966827131E+03  0.84966827132E+03  0.50400001928E-02 0. -1.
    10030    2    1    2    0    0  0.00000000000E+00  0.00000000000E+00  0.44795746054E+03  0.21472940032E+04  0.21000489636E+04 0.  0.
        5    1    3    3  502    0 -0.38620739234E+03 -0.90037081980E+03  0.61024122108E+03  0.11542271011E+04  0.46999998093E+01 0.  1.
       -5    1    3    3    0  502  0.38620739234E+03  0.90037081980E+03 -0.16228376054E+03  0.99306690207E+03  0.46999998093E+01 0. -1.
</event>
<event>
 5   0  0.1344501E-05  0.2101671E+04  0.7818609E-02  0.8560508E-01
        2   -1    0    0  501    0  0.00000000000E+00  0.00000000000E+00  0.82360840670E+03  0.82360840670E+03  0.25500000920E-02 0.  1.
       -2   -1    0    0    0  501  0.00000000000E+00  0.00000000000E+00 -0.13407526006E+04  0.13407526006E+04  0.25500000920E-02 0. -1.
    10030    2    1    2    0    0  0.00000000000E+00  0.00000000000E+00 -0.51714419389E+03  0.21643610073E+04  0.21016708716E+04 0.  0.
        3    1    3    3  502    0  0.27645336943E+03  0.69425803967E+03 -0.10194158025E+04  0.12639736072E+04  0.10100000352E+00 0. -1.
       -3    1    3    3    0  502 -0.27645336943E+03 -0.69425803967E+03  0.50227160866E+03  0.90038740006E+03  0.10100000352E+00 0.  1.
</event>
<event>
 5   0  0.6599245E-06  0.2101638E+04  0.7818609E-02  0.8560522E-01
       -1   -1    0    0    0  501  0.00000000000E+00  0.00000000000E+00  0.11493552041E+04  0.11493552041E+04  0.50400001928E-02 0.  1.
        1   -1    0    0  501    0  0.00000000000E+00  0.00000000000E+00 -0.96073017115E+03  0.96073017116E+03  0.50400001928E-02 0. -1.
    10030    2    1    2    0    0  0.00000000000E+00  0.00000000000E+00  0.18862503295E+03  0.21100853753E+04  0.21016376681E+04 0.  0.
        2    1    3    3  502    0 -0.26758717048E+03  0.67263252316E+03  0.85907154849E+03  0.11234061289E+04  0.25500000920E-02 0.  1.
       -2    1    3    3    0  502  0.26758717048E+03 -0.67263252316E+03 -0.67044651554E+03  0.98667924637E+03  0.25500000920E-02 0. -1.
</event>
<event>
 5   0  0.6238363E-06  0.2099380E+04  0.7818609E-02  0.8561517E-01
        1   -1    0    0  501    0  0.00000000000E+00  0.00000000000E+00  0.18060326926E+04  0.18060326927E+04  0.50400001928E-02 0. -1.
       -1   -1    0    0    0  501  0.00000000000E+00  0.00000000000E+00 -0.61009353644E+03  0.61009353646E+03  0.50400001928E-02 0.  1.
    10030    2    1    2    0    0  0.00000000000E+00  0.00000000000E+00  0.11959391562E+04  0.24161262291E+04  0.20993797869E+04 0.  0.
        4    1    3    3  502    0  0.50464870230E+03 -0.39952220862E+03  0.15522666228E+04  0.16804230388E+04  0.12699999809E+01 0. -1.
       -4    1    3    3    0  502 -0.50464870230E+03  0.39952220862E+03 -0.35632746664E+03  0.73570319035E+03  0.12699999809E+01 0.  1.
</event>
<event>
 5   0  0.6283269E-06  0.2102328E+04  0.7818609E-02  0.8560219E-01
       -1   -1    0    0    0  501  0.00000000000E+00  0.00000000000E+00  0.73301774909E+03  0.73301774911E+03  0.50400001928E-02 0. -1.
        1   -1    0    0  501    0  0.00000000000E+00  0.00000000000E+00 -0.15073924234E+04  0.15073924234E+04  0.50400001928E-02 0.  1.
    10030    2    1    2    0    0  0.00000000000E+00  0.00000000000E+00 -0.77437467433E+03  0.22404101725E+04  0.21023276636E+04 0.  0.
        1    1    3    3  502    0 -0.88807927362E+03 -0.56134572513E+03 -0.42335117702E+03  0.11327047446E+04  0.50400001928E-02 0. -1.
       -1    1    3    3    0  502  0.88807927362E+03  0.56134572513E+03 -0.35102349731E+03  0.11077054279E+04  0.50400001928E-02 0.  1.
</event>
<event>
 5   0  0.6238363E-06  0.2100433E+04  0.7818609E-02  0.8561053E-01
       -1   -1    0    0    0  501  0.00000000000E+00  0.00000000000E+00  0.41864988216E+03  0.41864988219E+03  0.50400001928E-02 0.  1.
        1   -1    0    0  501    0  0.00000000000E+00  0.00000000000E+00 -0.26345513290E+04  0.26345513290E+04  0.50400001928E-02 0. -1.
    10030    2    1    2    0    0  0.00000000000E+00  0.00000000000E+00 -0.22159014469E+04  0.30532012112E+04  0.21004329111E+04 0.  0.
        4    1    3    3  502    0  0.54230653362E+03 -0.52240657239E+03 -0.21721131815E+04  0.22989306839E+04  0.12699999809E+01 0. -1.
       -4    1    3    3    0  502 -0.54230653362E+03  0.52240657239E+03 -0.43788265365E+02  0.75427052731E+03  0.12699999809E+01 0.  1.
</event>
<event>
 5   0  0.1398469E-05  0.2102358E+04  0.7818609E-02  0.8560205E-01
       -2   -1    0    0    0  501  0.00000000000E+00  0.00000000000E+00  0.10172739383E+04  0.10172739383E+04  0.25500000920E-02 0. -1.
        2   -1    0    0  501    0  0.00000000000E+00  0.00000000000E+00 -0.10862143573E+04  0.10862143573E+04  0.25500000920E-02 0.  1.
    10030    2    1    2    0    0  0.00000000000E+00  0.00000000000E+00 -0.68940418951E+02  0.21034882956E+04  0.21023582541E+04 0.  0.
        2    1    3    3  502    0 -0.95249608506E+03  0.42854625311E+03  0.84239567068E+02  0.10478535145E+04  0.25500000920E-02 0.  1.
       -2    1    3    3    0  502  0.95249608506E+03 -0.42854625311E+03 -0.15317998602E+03  0.10556347812E+04  0.25500000920E-02 0. -1.
</event>
<event>
 5   0  0.1395356E-05  0.2040329E+04  0.7818609E-02  0.8587994E-01
        2   -1    0    0  501    0  0.00000000000E+00  0.00000000000E+00  0.11506469456E+04  0.11506469456E+04  0.25500000920E-02 0.  1.
       -2   -1    0    0    0  501  0.00000000000E+00  0.00000000000E+00 -0.90447888159E+03  0.90447888160E+03  0.25500000920E-02 0. -1.
    10030    2    1    2    0    0  0.00000000000E+00  0.00000000000E+00  0.24616806396E+03  0.20551258272E+04  0.20403292503E+04 0.  0.
        1    1    3    3  502    0 -0.59717058508E+03 -0.78845225224E+03  0.37482894724E+03  0.10577175433E+04  0.50400001928E-02 0.  1.
       -1    1    3    3    0  502  0.59717058508E+03  0.78845225224E+03 -0.12866088327E+03  0.99740828383E+03  0.50400001928E-02 0. -1.
</event>
<event>
 5   0  0.1344501E-05  0.2101894E+04  0.7818609E-02  0.8560410E-01
       -2   -1    0    0    0  501  0.00000000000E+00  0.00000000000E+00  0.92690644321E+03  0.92690644321E+03  0.25500000920E-02 0.  1.
        2   -1    0    0  501    0  0.00000000000E+00  0.00000000000E+00 -0.11915867514E+04  0.11915867514E+04  0.25500000920E-02 0. -1.
    10030    2    1    2    0    0  0.00000000000E+00  0.00000000000E+00 -0.26468030816E+03  0.21184931946E+04  0.21018938484E+04 0.  0.
        3    1    3    3  502    0  0.11807383901E+03 -0.50915398632E+03  0.78662247885E+03  0.94443324151E+03  0.10100000352E+00 0.  1.
       -3    1    3    3    0  502 -0.11807383901E+03  0.50915398632E+03 -0.10513027870E+04  0.11740599531E+04  0.10100000352E+00 0. -1.
</event>
<event>
 5   0  0.1395356E-05  0.2094506E+04  0.7818609E-02  0.8563668E-01
        2   -1    0    0  501    0  0.00000000000E+00  0.00000000000E+00  0.95995406350E+03  0.95995406350E+03  0.25500000920E-02 0.  1.
       -2   -1    0    0    0  501  0.00000000000E+00  0.00000000000E+00 -0.11424905180E+04  0.11424905180E+04  0.25500000920E-02 0. -1.
    10030    2    1    2    0    0  0.00000000000E+00  0.00000000000E+00 -0.18253645448E+03  0.21024445815E+04  0.20945055887E+04 0.  0.
        1    1    3    3  502    0 -0.73871260009E+02  0.63343284413E+03  0.74256944989E+03  0.97882762477E+03  0.50400001928E-02 0.  1.
       -1    1    3    3    0  502  0.73871260009E+02 -0.63343284413E+03 -0.92510590437E+03  0.11236169567E+04  0.50400001928E-02 0. -1.
</event>
<event>
 5   0  0.1441136E-05  0.2156339E+04  0.7818609E-02  0.8536824E-01
       -2   -1    0    0    0  501  0.00000000000E+00  0.00000000000E+00  0.14989635582E+04  0.14989635582E+04  0.25500000920E-02 0. -1.
        2   -1    0    0  501    0  0.00000000000E+00  0.00000000000E+00 -0.77550209391E+03  0.77550209391E+03  0.25500000920E-02 0.  1.
    10030    2    1    2    0    0  0.00000000000E+00  0.00000000000E+00  0.72346146426E+03  0.22744656521E+04  0.21563389140E+04 0.  0.
        4    1    3    3  502    0 -0.84974798091E+03  0.63913331023E+03  0.55007562227E+03  0.11971415215E+04  0.12699999809E+01 0. -1.
       -4    1    3    3    0  502  0.84974798091E+03 -0.63913331023E+03  0.17338584199E+03  0.10773241306E+04  0.12699999809E+01 0.  1.
</event>
<event>
 5   0  0.6589193E-06  0.2101954E+04  0.7818609E-02  0.8560383E-01
       -1   -1    0    0    0  501  0.00000000000E+00  0.00000000000E+00  0.94300579786E+03  0.94300579787E+03  0.50400001928E-02 0.  1.
        1   -1    0    0  501    0  0.00000000000E+00  0.00000000000E+00 -0.11713103306E+04  0.11713103306E+04  0.50400001928E-02 0. -1.
    10030    2    1    2    0    0  0.00000000000E+00  0.00000000000E+00 -0.22830453276E+03  0.21143161285E+04  0.21019537891E+04 0.  0.
        3    1    3    3  502    0  0.20929720065E+03  0.27458521663E+03  0.88433385607E+03  0.94934121294E+03  0.10100000352E+00 0.  1.
       -3    1    3    3    0  502 -0.20929720065E+03 -0.27458521663E+03 -0.11126383888E+04  0.11649749156E+04  0.10100000352E+00 0. -1.
</event>
<event>
 5   0  0.6283269E-06  0.2101976E+04  0.7818609E-02  0.8560374E-01
       -1   -1    0    0    0  501  0.00000000000E+00  0.00000000000E+00  0.14598412336E+04  0.14598412336E+04  0.50400001928E-02 0.  1.
        1   -1    0    0  501    0  0.00000000000E+00  0.00000000000E+00 -0.75664088062E+03  0.75664088064E+03  0.50400001928E-02 0. -1.
    10030    2    1    2    0    0  0.00000000000E+00  0.00000000000E+00  0.70320035299E+03  0.22164821143E+04  0.21019757911E+04 0.  0.
        1    1    3    3  502    0 -0.41932142009E+03 -0.23981975426E+03  0.13358454276E+04  0.14205023669E+04  0.50400001928E-02 0.  1.
       -1    1    3    3    0  502  0.41932142009E+03  0.23981975426E+03 -0.63264507457E+03  0.79597974741E+03  0.50400001928E-02 0. -1.
</event>
<event>
 5   0  0.6917078E-06  0.2102654E+04  0.7818609E-02  0.8560075E-01
        1   -1    0    0  501    0  0.00000000000E+00  0.00000000000E+00  0.18923485221E+04  0.18923485221E+04  0.50400001928E-02 0. -1.
       -1   -1    0    0    0  501  0.00000000000E+00  0.00000000000E+00 -0.58408288907E+03  0.58408288909E+03  0.50400001928E-02 0.  1.
    10030    2    1    2    0    0  0.00000000000E+00  0.00000000000E+00  0.13082656330E+04  0.24764314112E+04  0.21026539344E+04 0.  0.
        5    1    3    3  502    0 -0.46072596489E+03  0.10566618871E+03  0.17601237454E+04  0.18224959389E+04  0.46999998093E+01 0. -1.
       -5    1    3    3    0  502  0.46072596489E+03 -0.10566618871E+03 -0.45185811240E+03  0.65393547228E+03  0.46999998093E+01 0.  1.
</event>
<event>
 5   0  0.6283269E-06  0.2098582E+04  0.7818609E-02  0.8561868E-01
        1   -1    0    0  501    0  0.00000000000E+00  0.00000000000E+00  0.16994584257E+04  0.16994584257E+04  0.50400001928E-02 0. -1.
       -1   -1    0    0    0  501  0.00000000000E+00  0.00000000000E+00 -0.64786054656E+03  0.64786054658E+03  0.50400001928E-02 0.  1.
    10030    2    1    2    0    0  0.00000000000E+00  0.00000000000E+00  0.10515978791E+04  0.23473189722E+04  0.20985824402E+04 0.  0.
        1    1    3    3  502    0  0.27481680149E+03 -0.64954747046E+03 -0.34318552085E+03  0.78435482564E+03  0.50400001928E-02 0.  1.
       -1    1    3    3    0  502 -0.27481680149E+03  0.64954747046E+03  0.13947834000E+04  0.15629641466E+04  0.50400001928E-02 0. -1.
</event>
<event>
 5   0  0.6238363E-06  0.2100039E+04  0.7818609E-02  0.8561226E-01
       -1   -1    0    0    0  501  0.00000000000E+00  0.00000000000E+00  0.96802602745E+03  0.96802602746E+03  0.50400001928E-02 0.  1.
        1   -1    0    0  501    0  0.00000000000E+00  0.00000000000E+00 -0.11389579092E+04  0.11389579092E+04  0.50400001928E-02 0. -1.
    10030    2    1    2    0    0  0.00000000000E+00  0.00000000000E+00 -0.17093188175E+03  0.21069839367E+04  0.21000389523E+04 0.  0.
        4    1    3    3  502    0  0.47272779716E+03  0.24898749760E+03  0.82144426462E+03  0.97991766846E+03  0.12699999809E+01 0.  1.
       -4    1    3    3    0  502 -0.47272779716E+03 -0.24898749760E+03 -0.99237614637E+03  0.11270662682E+04  0.12699999809E+01 0. -1.
</event>
<event>
 5   0  0.6589193E-06  0.2100407E+04  0.7818609E-02  0.8561064E-01
       -1   -1    0    0    0  501  0.00000000000E+00  0.00000000000E+00  0.58553160133E+03  0.58553160136E+03  0.50400001928E-02 0.  1.
        1   -1    0    0  501    0  0.00000000000E+00  0.00000000000E+00 -0.18836339273E+04  0.18836339273E+04  0.50400001928E-02 0. -1.
    10030    2    1    2    0    0  0.00000000000E+00  0.00000000000E+00 -0.12981023260E+04  0.24691655287E+04  0.21004068081E+04 0.  0.
        3    1    3    3  502    0 -0.74870586748E+02 -0.80924584895E+03  0.13289224015E+03  0.82349548056E+03  0.10100000352E+00 0.  1.
       -3    1    3    3    0  502  0.74870586748E+02  0.80924584895E+03 -0.14309945661E+04  0.16456700481E+04  0.10100000352E+00 0. -1.
</event>
<event>
 5   0  0.1441136E-05  0.2095553E+04  0.7818609E-02  0.8563205E-01
        2   -1    0    0  501    0  0.00000000000E+00  0.00000000000E+00  0.11304103503E+04  0.11304103503E+04  0.25500000920E-02 0. -1.
       -2   -1    0    0    0  501  0.00000000000E+00  0.00000000000E+00 -0.97118351741E+03  0.97118351742E+03  0.25500000920E-02 0.  1.
    10030    2    1    2    0    0  0.00000000000E+00  0.00000000000E+00  0.15922683292E+03  0.21015938678E+04  0.20955532922E+04 0.  0.
        4    1    3    3  502    0 -0.66891037028E+03 -0.79446750827E+03 -0.59402828787E+02  0.10402643963E+04  0.12699999809E+01 0. -1.
       -4    1    3    3    0  502  0.66891037028E+03  0.79446750827E+03  0.21862966171E+03  0.10613294715E+04  0.12699999809E+01 0.  1.
</event>
<event>
 5   0  0.6599245E-06  0.2100776E+04  0.7818609E-02  0.8560902E-01
       -1   -1    0    0    0  501  0.00000000000E+00  0.00000000000E+00  0.85614255361E+03  0.85614255362E+03  0.50400001928E-02 0. -1.
        1   -1    0    0  501    0  0.00000000000E+00  0.00000000000E+00 -0.12887044729E+04  0.12887044729E+04  0.50400001928E-02 0.  1.
    10030    2    1    2    0    0  0.00000000000E+00  0.00000000000E+00 -0.43256191931E+03  0.21448470266E+04  0.21007757980E+04 0.  0.
        2    1    3    3  502    0 -0.20196676765E+03  0.88801495908E+03 -0.75066701896E+03  0.11801957957E+04  0.25500000920E-02 0.  1.
       -2    1    3    3    0  502  0.20196676765E+03 -0.88801495908E+03  0.31810509965E+03  0.96465123087E+03  0.25500000920E-02 0. -1.
</event>
<event>
 5   0  0.6589193E-06  0.2102661E+04  0.7818609E-02  0.8560072E-01
        1   -1    0    0  501    0  0.00000000000E+00  0.00000000000E+00  0.19171327288E+04  0.19171327288E+04  0.50400001928E-02 0. -1.
       -1   -1    0    0    0  501  0.00000000000E+00  0.00000000000E+00 -0.57653613480E+03  0.57653613482E+03  0.50400001928E-02 0.  1.
    10030    2    1    2    0    0  0.00000000000E+00  0.00000000000E+00  0.13405965940E+04  0.24936688636E+04  0.21026614501E+04 0.  0.
        3    1    3    3  502    0 -0.60468036658E+02 -0.10488666513E+04  0.71651488936E+03  0.12716804758E+04  0.10100000352E+00 0. -1.
       -3    1    3    3    0  502  0.60468036658E+02  0.10488666513E+04  0.62408170465E+03  0.12219883878E+04  0.10100000352E+00 0.  1.
</event>
<event>
 5   0  0.1390735E-05  0.2097691E+04  0.7818609E-02  0.8562261E-01
       -2   -1    0    0    0  501  0.00000000000E+00  0.00000000000E+00  0.59369838494E+03  0.59369838495E+03  0.25500000920E-02 0.  1.
        2   -1    0    0  501    0  0.00000000000E+00  0.00000000000E+00 -0.18529223377E+04  0.18529223377E+04  0.25500000920E-02 0. -1.
    10030    2    1    2    0    0  0.00000000000E+00  0.00000000000E+00 -0.12592239527E+04  0.24466207226E+04  0.20976911110E+04 0.  0.
        5    1    3    3  502    0  0.35188867839E+03  0.62500240842E+03  0.26292478368E+03  0.76394056338E+03  0.46999998093E+01 0.  1.
       -5    1    3    3    0  502 -0.35188867839E+03 -0.62500240842E+03 -0.15221487364E+04  0.16826801592E+04  0.46999998093E+01 0. -1.
</event>
<event>
 5   0  0.6599245E-06  0.2111648E+04  0.7818609E-02  0.8556130E-01
       -1   -1    0    0    0  501  0.00000000000E+00  0.00000000000E+00  0.62636763405E+03  0.62636763407E+03  0.50400001928E-02 0. -1.
        1   -1    0    0  501    0  0.00000000000E+00  0.00000000000E+00 -0.17797279117E+04  0.17797279118E+04  0.50400001928E-02 0.  1.
    10030    2    1    2    0    0  0.00000000000E+00  0.00000000000E+00 -0.11533602777E+04  0.24060955458E+04  0.21116476613E+04 0.  0.
        2    1    3    3  502    0  0.81675645111E+03  0.30206940870E+03  0.10358257970E+03  0.87696429741E+03  0.25500000920E-02 0. -1.
       -2    1    3    3    0  502 -0.81675645111E+03 -0.30206940870E+03 -0.12569428574E+04  0.15291312484E+04  0.25500000920E-02 0.  1.
</event>
<event>
 5   0  0.6589193E-06  0.2099584E+04  0.7818609E-02  0.8561427E-01
       -1   -1    0    0    0  501  0.00000000000E+00  0.00000000000E+00  0.88102726773E+03  0.88102726775E+03  0.50400001928E-02 0. -1.
        1   -1    0    0  501    0  0.00000000000E+00  0.00000000000E+00 -0.12508839875E+04  0.12508839875E+04  0.50400001928E-02 0.  1.
    10030    2    1    2    0    0  0.00000000000E+00  0.00000000000E+00 -0.36985671972E+03  0.21319112552E+04  0.20995836747E+04 0.  0.
        3    1    3    3  502    0 -0.34791578596E+03  0.87096308440E+03  0.29396979338E+03  0.98287351075E+03  0.10100000352E+00 0.  1.
       -3    1    3    3    0  502  0.34791578596E+03 -0.87096308440E+03 -0.66382651310E+03  0.11490377445E+04  0.10100000352E+00 0. -1.
</event>
<event>
 5   0  0.6917078E-06  0.2097873E+04  0.7818609E-02  0.8562181E-01
       -1   -1    0    0    0  501  0.00000000000E+00  0.00000000000E+00  0.67227841429E+03  0.67227841431E+03  0.50400001928E-02 0.  1.
        1   -1    0    0  501    0  0.00000000000E+00  0.00000000000E+00 -0.16366256633E+04  0.16366256633E+04  0.50400001928E-02 0. -1.
    10030    2    1    2    0    0  0.00000000000E+00  0.00000000000E+00 -0.96434724898E+03  0.23089040776E+04  0.20978733095E+04 0.  0.
        5    1    3    3  502    0 -0.41488640119E+03  0.48039925023E+03 -0.14012389556E+04  0.15383129935E+04  0.46999998093E+01 0. -1.
       -5    1    3    3    0  502  0.41488640119E+03 -0.48039925023E+03  0.43689170659E+03  0.77059108404E+03  0.46999998093E+01 0.  1.
</event>
<event>
 5   0  0.1398469E-05  0.2098396E+04  0.7818609E-02  0.8561950E-01
        2   -1    0    0  501    0  0.00000000000E+00  0.00000000000E+00  0.10838637957E+04  0.10838637957E+04  0.25500000920E-02 0. -1.
       -2   -1    0    0    0  501  0.00000000000E+00  0.00000000000E+00 -0.10156413950E+04  0.10156413950E+04  0.25500000920E-02 0.  1.
    10030    2    1    2    0    0  0.00000000000E+00  0.00000000000E+00  0.68222400720E+02  0.20995051907E+04  0.20983964711E+04 0.  0.
        2    1    3    3  502    0  0.52251924107E+03 -0.80027325278E+03  0.46718317506E+03  0.10638250587E+04  0.25500000920E-02 0. -1.
       -2    1    3    3    0  502 -0.52251924107E+03  0.80027325278E+03 -0.39896077434E+03  0.10356801320E+04  0.25500000920E-02 0.  1.
</event>
<event>
 5   0  0.1398469E-05  0.2097543E+04  0.7818609E-02  0.8562326E-01
       -2   -1    0    0    0  501  0.00000000000E+00  0.00000000000E+00  0.59935395401E+03  0.59935395401E+03  0.25500000920E-02 0.  1.
        2   -1    0    0  501    0  0.00000000000E+00  0.00000000000E+00 -0.18351786825E+04  0.18351786825E+04  0.25500000920E-02 0. -1.
    10030    2    1    2    0    0  0.00000000000E+00  0.00000000000E+00 -0.12358247285E+04  0.24345326365E+04  0.20975429432E+04 0.  0.
        2    1    3    3  502    0 -0.95339431805E+03 -0.35227857893E+03 -0.31779569065E+03  0.10649201960E+04  0.25500000920E-02 0. -1.
       -2    1    3    3    0  502  0.95339431805E+03  0.35227857893E+03 -0.91802903786E+03  0.13696124405E+04  0.25500000920E-02 0.  1.
</event>
<event>
 5   0  0.1344501E-05  0.2100941E+04  0.7818609E-02  0.8560829E-01
       -2   -1    0    0    0  501  0.00000000000E+00  0.00000000000E+00  0.90910873565E+03  0.90910873565E+03  0.25500000920E-02 0.  1.
        2   -1    0    0  501    0  0.00000000000E+00  0.00000000000E+00 -0.12138129270E+04  0.12138129270E+04  0.25500000920E-02 0. -1.
    10030    2    1    2    0    0  0.00000000000E+00  0.00000000000E+00 -0.30470419130E+03  0.21229216626E+04  0.21009406801E+04 0.  0.
        3    1    3    3  502    0 -0.43196003222E+03 -0.13872505619E+03 -0.11097106423E+04  0.11988710650E+04  0.10100000352E+00 0. -1.
       -3    1    3    3    0  502  0.43196003222E+03  0.13872505619E+03  0.80500645098E+03  0.92405059763E+03  0.10100000352E+00 0.  1.
</event>
<event>
 5   0  0.1441136E-05  0.2108511E+04  0.7818609E-02  0.8557503E-01
       -2   -1    0    0    0  501  0.00000000000E+00  0.00000000000E+00  0.13734108744E+04  0.13734108744E+04  0.25500000920E-02 0.  1.
        2   -1    0    0  501    0  0.00000000000E+00  0.00000000000E+00 -0.80926615598E+03  0.80926615598E+03  0.25500000920E-02 0. -1.
    10030    2    1    2    0    0  0.00000000000E+00  0.00000000000E+00  0.56414471844E+03  0.21826770304E+04  0.21085112653E+04 0.  0.
        4    1    3    3  502    0 -0.49654114426E+03  0.19256647270E+03  0.12239209291E+04  0.13347730174E+04  0.12699999809E+01 0.  1.
       -4    1    3    3    0  502  0.49654114426E+03 -0.19256647270E+03 -0.65977621062E+03  0.84790401306E+03  0.12699999809E+01 0. -1.
</event>
<event>
 5   0  0.6283269E-06  0.2064745E+04  0.7818609E-02  0.8576934E-01
        1   -1    0    0  501    0  0.00000000000E+00  0.00000000000E+00  0.61633415017E+03  0.61633415019E+03  0.50400001928E-02 0. -1.
       -1   -1    0    0    0  501  0.00000000000E+00  0.00000000000E+00 -0.17292455308E+04  0.17292455308E+04  0.50400001928E-02 0.  1.
    10030    2    1    2    0    0  0.00000000000E+00  0.00000000000E+00 -0.11129113807E+04  0.23455796810E+04  0.20647450929E+04 0.  0.
        1    1    3    3  502    0  0.39865910629E+03 -0.72541591082E+03 -0.12573274074E+04  0.15053336959E+04  0.50400001928E-02 0.  1.
       -1    1    3    3    0  502 -0.39865910629E+03  0.72541591082E+03  0.14441602672E+03  0.84024598511E+03  0.50400001928E-02 0. -1.
</event>
<event>
 5   0  0.1441136E-05  0.2131378E+04  0.7818609E-02  0.8547546E-01
        2   -1    0    0  501    0  0.00000000000E+00  0.00000000000E+00  0.86275929614E+03  0.86275929614E+03  0.25500000920E-02 0.  1.
       -2   -1    0    0    0  501  0.00000000000E+00  0.00000000000E+00 -0.13163493061E+04  0.13163493061E+04  0.25500000920E-02 0. -1.
    10030    2    1    2    0    0  0.00000000000E+00  0.00000000000E+00 -0.45359000997E+03  0.21791086023E+04  0.21313775835E+04 0.  0.
        4    1    3    3  502    0  0.15525607379E+03 -0.47476565324E+03  0.73566005818E+03  0.88921550147E+03  0.12699999809E+01 0.  1.
       -4    1    3    3    0  502 -0.15525607379E+03  0.47476565324E+03 -0.11892500682E+04  0.12898931008E+04  0.12699999809E+01 0. -1.
</event>
<event>
 5   0  0.6238363E-06  0.2101172E+04  0.7818609E-02  0.8560727E-01
        1   -1    0    0  501    0  0.00000000000E+00  0.00000000000E+00  0.10757295062E+04  0.10757295062E+04  0.50400001928E-02 0. -1.
       -1   -1    0    0    0  501  0.00000000000E+00  0.00000000000E+00 -0.10260303382E+04  0.10260303382E+04  0.50400001928E-02 0.  1.
    10030    2    1    2    0    0  0.00000000000E+00  0.00000000000E+00  0.49699168002E+02  0.21017598444E+04  0.21011721577E+04 0.  0.
        4    1    3    3  502    0  0.10325434171E+04 -0.19384682756E+03  0.22203986155E+02  0.10508173632E+04  0.12699999809E+01 0.  1.
       -4    1    3    3    0  502 -0.10325434171E+04  0.19384682756E+03  0.27495181847E+02  0.10509424812E+04  0.12699999809E+01 0. -1.
</event>
<event>
 5   0  0.1395356E-05  0.2100139E+04  0.7818609E-02  0.8561182E-01
       -2   -1    0    0    0  501  0.00000000000E+00  0.00000000000E+00  0.75774463877E+03  0.75774463877E+03  0.25500000920E-02 0. -1.
        2   -1    0    0  501    0  0.00000000000E+00  0.00000000000E+00 -0.14551678222E+04  0.14551678222E+04  0.25500000920E-02 0.  1.
    10030    2    1    2    0    0  0.00000000000E+00  0.00000000000E+00 -0.69742318343E+03  0.22129124610E+04  0.21001386771E+04 0.  0.
        1    1    3    3  502    0 -0.59902560597E+03  0.72753956673E+03 -0.83672306092E+03  0.12602582983E+04  0.50400001928E-02 0.  1.
       -1    1    3    3    0  502  0.59902560597E+03 -0.72753956673E+03  0.13929987748E+03  0.95265416267E+03  0.50400001928E-02 0. -1.
</event>
<event>
 5   0  0.6589193E-06  0.2112279E+04  0.7818609E-02  0.8555853E-01
       -1   -1    0    0    0  501  0.00000000000E+00  0.00000000000E+00  0.46557071459E+03  0.46557071462E+03  0.50400001928E-02 0.  1.
        1   -1    0    0  501    0  0.00000000000E+00  0.00000000000E+00 -0.23958357020E+04  0.23958357020E+04  0.50400001928E-02 0. -1.
    10030    2    1    2    0    0  0.00000000000E+00  0.00000000000E+00 -0.19302649874E+04  0.28614064166E+04  0.21122792806E+04 0.  0.
        3    1    3    3  502    0  0.95346765029E+03  0.33502642057E+03 -0.54960998183E+03  0.11503974987E+04  0.10100000352E+00 0. -1.
       -3    1    3    3    0  502 -0.95346765029E+03 -0.33502642057E+03 -0.13806550055E+04  0.17110089179E+04  0.10100000352E+00 0.  1.
</event>
<event>
 5   0  0.1344501E-05  0.2092890E+04  0.7818609E-02  0.8564382E-01
        2   -1    0    0  501    0  0.00000000000E+00  0.00000000000E+00  0.15474111474E+04  0.15474111474E+04  0.25500000920E-02 0.  1.
       -2   -1    0    0    0  501  0.00000000000E+00  0.00000000000E+00 -0.70766402194E+03  0.70766402194E+03  0.25500000920E-02 0. -1.
    10030    2    1    2    0    0  0.00000000000E+00  0.00000000000E+00  0.83974712550E+03  0.22550751694E+04  0.20928900556E+04 0.  0.
        3    1    3    3  502    0 -0.83266543192E+02 -0.66647220741E+03 -0.44476278387E+03  0.80556344541E+03  0.10100000352E+00 0. -1.
       -3    1    3    3    0  502  0.83266543192E+02  0.66647220741E+03  0.12845099094E+04  0.14495117240E+04  0.10100000352E+00 0.  1.
</event>
<event>
 5   0  0.6917078E-06  0.2100786E+04  0.7818609E-02  0.8560897E-01
        1   -1    0    0  501    0  0.00000000000E+00  0.00000000000E+00  0.18761612362E+04  0.18761612363E+04  0.50400001928E-02 0.  1.
       -1   -1    0    0    0  501  0.00000000000E+00  0.00000000000E+00 -0.58807596108E+03  0.58807596111E+03  0.50400001928E-02 0. -1.
    10030    2    1    2    0    0  0.00000000000E+00  0.00000000000E+00  0.12880852752E+04  0.24642371974E+04  0.21007858741E+04 0.  0.
        5    1    3    3  502    0 -0.44670668978E+03  0.33135270623E+03  0.16892453075E+04  0.17784581191E+04  0.46999998093E+01 0.  1.
       -5    1    3    3    0  502  0.44670668978E+03 -0.33135270623E+03 -0.40116003232E+03  0.68577907824E+03  0.46999998093E+01 0. -1.
</event>
<event>
 5   0  0.1395356E-05  0.2103468E+04  0.7818609E-02  0.8559717E-01
       -2   -1    0    0    0  501  0.00000000000E+00  0.00000000000E+00  0.10284532516E+04  0.10284532516E+04  0.25500000920E-02 0. -1.
        2   -1    0    0  501    0  0.00000000000E+00  0.00000000000E+00 -0.10755415208E+04  0.10755415208E+04  0.25500000920E-02 0.  1.
    10030    2    1    2    0    0  0.00000000000E+00  0.00000000000E+00 -0.47088269220E+02  0.21039947723E+04  0.21034677789E+04 0.  0.
        1    1    3    3  502    0 -0.19735470466E+03  0.10343304394E+03  0.10045737315E+04  0.10289876851E+04  0.50400001928E-02 0. -1.
       -1    1    3    3    0  502  0.19735470466E+03 -0.10343304394E+03 -0.10516620007E+04  0.10750070873E+04  0.50400001928E-02 0.  1.
</event>
<event>
 5   0  0.1344501E-05  0.2098953E+04  0.7818609E-02  0.8561705E-01
        2   -1    0    0  501    0  0.00000000000E+00  0.00000000000E+00  0.78885124592E+03  0.78885124592E+03  0.25500000920E-02 0. -1.
       -2   -1    0    0    0  501  0.00000000000E+00  0.00000000000E+00 -0.13962085181E+04  0.13962085181E+04  0.25500000920E-02 0.  1.
    10030    2    1    2    0    0  0.00000000000E+00  0.00000000000E+00 -0.60735727216E+03  0.21850597640E+04  0.20989529095E+04 0.  0.
        3    1    3    3  502    0 -0.31084348792E+03  0.77445719254E+03 -0.96617651379E+03  0.12766772039E+04  0.10100000352E+00 0.  1.
       -3    1    3    3    0  502  0.31084348792E+03 -0.77445719254E+03  0.35881924164E+03  0.90838256006E+03  0.10100000352E+00 0. -1.
</event>
<event>
 5   0  0.6917078E-06  0.2101629E+04  0.7818609E-02  0.8560526E-01
        1   -1    0    0  501    0  0.00000000000E+00  0.00000000000E+00  0.17604506196E+04  0.17604506196E+04  0.50400001928E-02 0.  1.
       -1   -1    0    0    0  501  0.00000000000E+00  0.00000000000E+00 -0.62723219760E+03  0.62723219762E+03  0.50400001928E-02 0. -1.
    10030    2    1    2    0    0  0.00000000000E+00  0.00000000000E+00  0.11332184220E+04  0.23876828172E+04  0.21016291880E+04 0.  0.
        5    1    3    3  502    0  0.80206991595E+03  0.62587611677E+03  0.26784855166E+03  0.10520465770E+04  0.46999998093E+01 0. -1.
       -5    1    3    3    0  502 -0.80206991595E+03 -0.62587611677E+03  0.86536987032E+03  0.13356362402E+04  0.46999998093E+01 0.  1.
</event>
<event>
 5   0  0.6238363E-06  0.2038362E+04  0.7818609E-02  0.8588892E-01
        1   -1    0    0  501    0  0.00000000000E+00  0.00000000000E+00  0.14501766984E+04  0.14501766984E+04  0.50400001928E-02 0.  1.
       -1   -1    0    0    0  501  0.00000000000E+00  0.00000000000E+00 -0.71627825447E+03  0.71627825449E+03  0.50400001928E-02 0. -1.
    10030    2    1    2    0    0  0.00000000000E+00  0.00000000000E+00  0.73389844388E+03  0.21664549529E+04  0.20383621211E+04 0.  0.
        4    1    3    3  502    0 -0.11018015819E+03  0.76026648347E+03 -0.34490330745E+03  0.84208354546E+03  0.12699999809E+01 0. -1.
       -4    1    3    3    0  502  0.11018015819E+03 -0.76026648347E+03  0.10788017513E+04  0.13243714074E+04  0.12699999809E+01 0.  1.
</event>
<event>
 5   0  0.6599245E-06  0.2101705E+04  0.7818609E-02  0.8560493E-01
        1   -1    0    0  501    0  0.00000000000E+00  0.00000000000E+00  0.12487900144E+04  0.12487900144E+04  0.50400001928E-02 0.  1.
       -1   -1    0    0    0  501  0.00000000000E+00  0.00000000000E+00 -0.88428861537E+03  0.88428861539E+03  0.50400001928E-02 0. -1.
    10030    2    1    2    0    0  0.00000000000E+00  0.00000000000E+00  0.36450139903E+03  0.21330786298E+04  0.21017048249E+04 0.  0.
        2    1    3    3  502    0  0.10181614060E+03 -0.86076053138E+03 -0.42076980018E+03  0.96349491105E+03  0.25500000920E-02 0. -1.
       -2    1    3    3    0  502 -0.10181614060E+03  0.86076053138E+03  0.78527119921E+03  0.11695837188E+04  0.25500000920E-02 0.  1.
</event>
<event>
 5   0  0.1441136E-05  0.2100048E+04  0.7818609E-02  0.8561222E-01
       -2   -1    0    0    0  501  0.00000000000E+00  0.00000000000E+00  0.10525461684E+04  0.10525461684E+04  0.25500000920E-02 0. -1.
        2   -1    0    0  501    0  0.00000000000E+00  0.00000000000E+00 -0.10475080419E+04  0.10475080419E+04  0.25500000920E-02 0.  1.
    10030    2    1    2    0    0  0.00000000000E+00  0.00000000000E+00  0.50381265032E+01  0.21000542102E+04  0.21000481669E+04 0.  0.
        4    1    3    3  502    0 -0.58267140961E+03  0.63380381189E+03 -0.59859473547E+03  0.10485850055E+04  0.12699999809E+01 0.  1.
       -4    1    3    3    0  502  0.58267140961E+03 -0.63380381189E+03  0.60363286197E+03  0.10514692047E+04  0.12699999809E+01 0. -1.
</event>
<event>
 5   0  0.1395356E-05  0.2097285E+04  0.7818609E-02  0.8562440E-01
       -2   -1    0    0    0  501  0.00000000000E+00  0.00000000000E+00  0.65152034675E+03  0.65152034676E+03  0.25500000920E-02 0. -1.
        2   -1    0    0  501    0  0.00000000000E+00  0.00000000000E+00 -0.16878226281E+04  0.16878226281E+04  0.25500000920E-02 0.  1.
    10030    2    1    2    0    0  0.00000000000E+00  0.00000000000E+00 -0.10363022814E+04  0.23393429749E+04  0.20972847055E+04 0.  0.
        1    1    3    3  502    0 -0.43419541741E+03  0.26767575386E+03 -0.15401263121E+04  0.16223948431E+04  0.50400001928E-02 0.  1.
       -1    1    3    3    0  502  0.43419541741E+03 -0.26767575386E+03  0.50382403072E+03  0.71694813178E+03  0.50400001928E-02 0. -1.
</event>
<event>
 5   0  0.6283269E-06  0.2102533E+04  0.7818609E-02  0.8560128E-01
       -1   -1    0    0    0  501  0.00000000000E+00  0.00000000000E+00  0.11739105509E+04  0.11739105509E+04  0.50400001928E-02 0. -1.
        1   -1    0    0  501    0  0.00000000000E+00  0.00000000000E+00 -0.94143575122E+03  0.94143575123E+03  0.50400001928E-02 0.  1.
    10030    2    1    2    0    0  0.00000000000E+00  0.00000000000E+00  0.23247479968E+03  0.21153463021E+04  0.21025331021E+04 0.  0.
        1    1    3    3  502    0 -0.83977221234E+02  0.89351137529E+03  0.66706510197E+03  0.11182086575E+04  0.50400001928E-02 0. -1.
       -1    1    3    3    0  502  0.83977221234E+02 -0.89351137529E+03 -0.43459030229E+03  0.99713764462E+03  0.50400001928E-02 0.  1.
</event>
<event>
 5   0  0.1390735E-05  0.2080707E+04  0.7818609E-02  0.8569790E-01
        2   -1    0    0  501    0  0.00000000000E+00  0.00000000000E+00  0.91621095001E+03  0.91621095001E+03  0.25500000920E-02 0.  1.
       -2   -1    0    0    0  501  0.00000000000E+00  0.00000000000E+00 -0.11813166408E+04  0.11813166409E+04  0.25500000920E-02 0. -1.
    10030    2    1    2    0    0  0.00000000000E+00  0.00000000000E+00 -0.26510569084E+03  0.20975275909E+04  0.20807068431E+04 0.  0.
        5    1    3    3  502    0 -0.41426779247E+03 -0.95364836359E+03 -0.96909599613E+02  0.10442588596E+04  0.46999998093E+01 0. -1.
       -5    1    3    3    0  502  0.41426779247E+03  0.95364836359E+03 -0.16819609123E+03  0.10532687313E+04  0.46999998093E+01 0.  1.
</event>
<event>
 5   0  0.6238363E-06  0.2098892E+04  0.7818609E-02  0.8561732E-01
       -1   -1    0    0    0  501  0.00000000000E+00  0.00000000000E+00  0.78813907188E+03  0.78813907190E+03  0.50400001928E-02 0.  1.
        1   -1    0    0  501    0  0.00000000000E+00  0.00000000000E+00 -0.13973891705E+04  0.13973891705E+04  0.50400001928E-02 0. -1.
    10030    2    1    2    0    0  0.00000000000E+00  0.00000000000E+00 -0.60925009858E+03  0.21855282424E+04  0.20988920924E+04 0.  0.
        4    1    3    3  502    0  0.49534272898E+03 -0.90307259598E+03 -0.51399906933E+03  0.11511303962E+04  0.12699999809E+01 0. -1.
       -4    1    3    3    0  502 -0.49534272898E+03  0.90307259598E+03 -0.95251029244E+02  0.10343978462E+04  0.12699999809E+01 0.  1.
</event>
<event>
 5   0  0.6589193E-06  0.2099353E+04  0.7818609E-02  0.8561528E-01
       -1   -1    0    0    0  501  0.00000000000E+00  0.00000000000E+00  0.98213186117E+03  0.98213186119E+03  0.50400001928E-02 0. -1.
        1   -1    0    0  501    0  0.00000000000E+00  0.00000000000E+00 -0.11218663800E+04  0.11218663800E+04  0.50400001928E-02 0.  1.
    10030    2    1    2    0    0  0.00000000000E+00  0.00000000000E+00 -0.13973451885E+03  0.21039982412E+04  0.20993529630E+04 0.  0.
        3    1    3    3  502    0 -0.29711269650E+03 -0.37735661946E+02  0.93840096096E+03  0.98503619646E+03  0.10100000352E+00 0. -1.
       -3    1    3    3    0  502  0.29711269650E+03  0.37735661946E+02 -0.10781354798E+04  0.11189620448E+04  0.10100000352E+00 0.  1.
</event>
<event>
 5   0  0.5009125E-06  0.2099653E+04  0.7818609E-02  0.8561396E-01
       -3   -1    0    0    0  501  0.00000000000E+00  0.00000000000E+00  0.12910468245E+04  0.12910468285E+04  0.10100000352E+00 0. -1.
        3   -1    0    0  501    0  0.00000000000E+00  0.00000000000E+00 -0.85367581735E+03  0.85367582333E+03  0.10100000352E+00 0.  1.
    10030    2    1    2    0    0  0.00000000000E+00  0.00000000000E+00  0.43737100720E+03  0.21447226518E+04  0.20996527940E+04 0.  0.
        5    1    3    3  502    0  0.21223841286E+03 -0.10278655909E+03  0.12636316895E+04  0.12854560892E+04  0.46999998093E+01 0. -1.
       -5    1    3    3    0  502 -0.21223841286E+03  0.10278655909E+03 -0.82626068226E+03  0.85926656264E+03  0.46999998093E+01 0.  1.
</event>
<event>
 5   0  0.6599245E-06  0.2097714E+04  0.7818609E-02  0.8562251E-01
        1   -1    0    0  501    0  0.00000000000E+00  0.00000000000E+00  0.11662525572E+04  0.11662525573E+04  0.50400001928E-02 0. -1.
       -1   -1    0    0    0  501  0.00000000000E+00  0.00000000000E+00 -0.94327852618E+03  0.94327852619E+03  0.50400001928E-02 0.  1.
    10030    2    1    2    0    0  0.00000000000E+00  0.00000000000E+00  0.22297403107E+03  0.21095310835E+04  0.20977139875E+04 0.  0.
        2    1    3    3  502    0 -0.57925842219E+03  0.57622985242E+03  0.77285423769E+03  0.11246709898E+04  0.25500000920E-02 0. -1.
       -2    1    3    3    0  502  0.57925842219E+03 -0.57622985242E+03 -0.54988020662E+03  0.98486009369E+03  0.25500000920E-02 0.  1.
</event>
<event>
 5   0  0.1441136E-05  0.2100063E+04  0.7818609E-02  0.8561216E-01
       -2   -1    0    0    0  501  0.00000000000E+00  0.00000000000E+00  0.10593256985E+04  0.10593256985E+04  0.25500000920E-02 0.  1.
        2   -1    0    0  501    0  0.00000000000E+00  0.00000000000E+00 -0.10408188105E+04  0.10408188105E+04  0.25500000920E-02 0. -1.
    10030    2    1    2    0    0  0.00000000000E+00  0.00000000000E+00  0.18506888003E+02  0.21001445091E+04  0.21000629643E+04 0.  0.
        4    1    3    3  502    0 -0.32580180581E+02  0.48776556821E+02 -0.10391783558E+04  0.10408332665E+04  0.12699999809E+01 0. -1.
       -4    1    3    3    0  502  0.32580180581E+02 -0.48776556821E+02  0.10576852438E+04  0.10593112425E+04  0.12699999809E+01 0.  1.
</event>
<event>
 5   0  0.6283269E-06  0.2121822E+04  0.7818609E-02  0.8551691E-01
        1   -1    0    0  501    0  0.00000000000E+00  0.00000000000E+00  0.13081851221E+04  0.13081851221E+04  0.50400001928E-02 0. -1.
       -1   -1    0    0    0  501  0.00000000000E+00  0.00000000000E+00 -0.86037721962E+03  0.86037721963E+03  0.50400001928E-02 0.  1.
    10030    2    1    2    0    0  0.00000000000E+00  0.00000000000E+00  0.44780790249E+03  0.21685623417E+04  0.21218224979E+04 0.  0.
        1    1    3    3  502    0  0.40088826585E+03  0.97398577027E+03  0.93929468563E+02  0.10574414535E+04  0.50400001928E-02 0. -1.
       -1    1    3    3    0  502 -0.40088826585E+03 -0.97398577027E+03  0.35387843393E+03  0.11111208883E+04  0.50400001928E-02 0.  1.
</event>
<event>
 5   0  0.6589193E-06  0.2098441E+04  0.7818609E-02  0.8561931E-01
        1   -1    0    0  501    0  0.00000000000E+00  0.00000000000E+00  0.95046324429E+03  0.95046324430E+03  0.50400001928E-02 0. -1.
       -1   -1    0    0    0  501  0.00000000000E+00  0.00000000000E+00 -0.11582388660E+04  0.11582388660E+04  0.50400001928E-02 0.  1.
    10030    2    1    2    0    0  0.00000000000E+00  0.00000000000E+00 -0.20777562172E+03  0.21087021103E+04  0.20984408214E+04 0.  0.
        3    1    3    3  502    0  0.25472325999E+03 -0.42008055267E+03 -0.10355199042E+04  0.11461470639E+04  0.10100000352E+00 0.  1.
       -3    1    3    3    0  502 -0.25472325999E+03  0.42008055267E+03  0.82774428250E+03  0.96255504639E+03  0.10100000352E+00 0. -1.
</event>
<event>
 5   0  0.1398469E-05  0.2098273E+04  0.7818609E-02  0.8562005E-01
        2   -1    0    0  501    0  0.00000000000E+00  0.00000000000E+00  0.14631171695E+04  0.14631171695E+04  0.25500000920E-02 0.  1.
       -2   -1    0    0    0  501  0.00000000000E+00  0.00000000000E+00 -0.75228906531E+03  0.75228906531E+03  0.25500000920E-02 0. -1.
    10030    2    1    2    0    0  0.00000000000E+00  0.00000000000E+00  0.71082810415E+03  0.22154062348E+04  0.20982726685E+04 0.  0.
        2    1    3    3  502    0 -0.11337322323E+03 -0.19609777749E+03 -0.72616353806E+03  0.76067161778E+03  0.25500000920E-02 0. -1.
       -2    1    3    3    0  502  0.11337322323E+03  0.19609777749E+03  0.14369916422E+04  0.14547346170E+04  0.25500000920E-02 0.  1.
</event>
<event>
 5   0  0.1441136E-05  0.2098963E+04  0.7818609E-02  0.8561700E-01
       -2   -1    0    0    0  501  0.00000000000E+00  0.00000000000E+00  0.40113147278E+03  0.40113147279E+03  0.25500000920E-02 0. -1.
        2   -1    0    0  501    0  0.00000000000E+00  0.00000000000E+00 -0.27457619944E+04  0.27457619944E+04  0.25500000920E-02 0.  1.
    10030    2    1    2    0    0  0.00000000000E+00  0.00000000000E+00 -0.23446305216E+04  0.31468934672E+04  0.20989631276E+04 0.  0.
        4    1    3    3  502    0  0.56921571246E+03 -0.18027307309E+03 -0.24662956229E+04  0.25375422401E+04  0.12699999809E+01 0.  1.
       -4    1    3    3    0  502 -0.56921571246E+03  0.18027307309E+03  0.12166510123E+03  0.60935122708E+03  0.12699999809E+01 0. -1.
</event>
<event>
 5   0  0.6917078E-06  0.2104858E+04  0.7818609E-02  0.8559106E-01
       -1   -1    0    0    0  501  0.00000000000E+00  0.00000000000E+00  0.74748231324E+03  0.74748231326E+03  0.50400001928E-02 0.  1.
        1   -1    0    0  501    0  0.00000000000E+00  0.00000000000E+00 -0.14817837460E+04  0.14817837460E+04  0.50400001928E-02 0. -1.
    10030    2    1    2    0    0  0.00000000000E+00  0.00000000000E+00 -0.73430143273E+03  0.22292660592E+04  0.21048583251E+04 0.  0.
        5    1    3    3  502    0 -0.22759851168E+03  0.81583204332E+03  0.29443147465E+03  0.89671343733E+03  0.46999998093E+01 0.  1.
       -5    1    3    3    0  502  0.22759851168E+03 -0.81583204332E+03 -0.10287329074E+04  0.13325526219E+04  0.46999998093E+01 0. -1.
</event>
<event>
 5   0  0.1441136E-05  0.2102221E+04  0.7818609E-02  0.8560266E-01
       -2   -1    0    0    0  501  0.00000000000E+00  0.00000000000E+00  0.90148470008E+03  0.90148470008E+03  0.25500000920E-02 0.  1.
        2   -1    0    0  501    0  0.00000000000E+00  0.00000000000E+00 -0.12255703104E+04  0.12255703104E+04  0.25500000920E-02 0. -1.
    10030    2    1    2    0    0  0.00000000000E+00  0.00000000000E+00 -0.32408561028E+03  0.21270550104E+04  0.21022206199E+04 0.  0.
        4    1    3    3  502    0  0.95720344549E+01  0.41255255948E+03 -0.11401791248E+04  0.12125598079E+04  0.12699999809E+01 0. -1.
       -4    1    3    3    0  502 -0.95720344549E+01 -0.41255255948E+03  0.81609351451E+03  0.91449520256E+03  0.12699999809E+01 0.  1.
</event>
<event>
 5   0  0.6599245E-06  0.2099582E+04  0.7818609E-02  0.8561427E-01
        1   -1    0    0  501    0  0.00000000000E+00  0.00000000000E+00  0.14299789413E+04  0.14299789413E+04  0.50400001928E-02 0.  1.
       -1   -1    0    0    0  501  0.00000000000E+00  0.00000000000E+00 -0.77068353235E+03  0.77068353237E+03  0.50400001928E-02 0. -1.
    10030    2    1    2    0    0  0.00000000000E+00  0.00000000000E+00  0.65929540891E+03  0.22006624736E+04  0.20995820743E+04 0.  0.
        2    1    3    3  502    0  0.70928572951E+03 -0.61098625278E+03 -0.16827077104E+03  0.95116008093E+03  0.25500000920E-02 0. -1.
       -2    1    3    3    0  502 -0.70928572951E+03  0.61098625278E+03  0.82756617995E+03  0.12495023927E+04  0.25500000920E-02 0.  1.
</event>
<event>
 5   0  0.1390735E-05  0.2094840E+04  0.7818609E-02  0.8563520E-01
        2   -1    0    0  501    0  0.00000000000E+00  0.00000000000E+00  0.13149034605E+04  0.13149034605E+04  0.25500000920E-02 0.  1.
       -2   -1    0    0    0  501  0.00000000000E+00  0.00000000000E+00 -0.83434955539E+03  0.83434955540E+03  0.25500000920E-02 0. -1.
    10030    2    1    2    0    0  0.00000000000E+00  0.00000000000E+00  0.48055390513E+03  0.21492530159E+04  0.20948404404E+04 0.  0.
        5    1    3    3  502    0 -0.78261680365E+01 -0.15744350048E+03 -0.82209844632E+03  0.83708879469E+03  0.46999998093E+01 0. -1.
       -5    1    3    3    0  502  0.78261680365E+01  0.15744350048E+03  0.13026523515E+04  0.13121642212E+04  0.46999998093E+01 0.  1.
</event>
<event>
 5   0  0.6599245E-06  0.2124318E+04  0.7818609E-02  0.8550606E-01
       -1   -1    0    0    0  501  0.00000000000E+00  0.00000000000E+00  0.64184498877E+03  0.64184498879E+03  0.50400001928E-02 0.  1.
        1   -1    0    0  501    0  0.00000000000E+00  0.00000000000E+00 -0.17577171954E+04  0.17577171954E+04  0.50400001928E-02 0. -1.
    10030    2    1    2    0    0  0.00000000000E+00  0.00000000000E+00 -0.11158722066E+04  0.23995621842E+04  0.21243182187E+04 0.  0.
        2    1    3    3  502    0 -0.72685835362E+03  0.30150892593E+03  0.24790708390E+03  0.82503855722E+03  0.25500000920E-02 0.  1.
       -2    1    3    3    0  502  0.72685835362E+03 -0.30150892593E+03 -0.13637792905E+04  0.15745236269E+04  0.25500000920E-02 0. -1.
</event>
<event>
 5   0  0.1344501E-05  0.2099857E+04  0.7818609E-02  0.8561306E-01
       -2   -1    0    0    0  501  0.00000000000E+00  0.00000000000E+00  0.55604789467E+03  0.55604789468E+03  0.25500000920E-02 0. -1.
        2   -1    0    0  501    0  0.00000000000E+00  0.00000000000E+00 -0.19824727950E+04  0.19824727950E+04  0.25500000920E-02 0.  1.
    10030    2    1    2    0    0  0.00000000000E+00  0.00000000000E+00 -0.14264249003E+04  0.25385206897E+04  0.20998569703E+04 0.  0.
        3    1    3    3  502    0 -0.66398176072E+03 -0.64139364833E+03 -0.10865011508E+03  0.92954959437E+03  0.10100000352E+00 0. -1.
       -3    1    3    3    0  502  0.66398176072E+03  0.64139364833E+03 -0.13177747852E+04  0.16089710953E+04  0.10100000352E+00 0.  1.
</event>
<event>
 5   0  0.5009125E-06  0.2104476E+04  0.7818609E-02  0.8559274E-01
       -4   -1    0    0    0  501  0.00000000000E+00  0.00000000000E+00  0.47494042208E+03  0.47494212008E+03  0.12699999809E+01 0.  1.
        4   -1    0    0  501    0  0.00000000000E+00  0.00000000000E+00 -0.23312433393E+04  0.23312436852E+04  0.12699999809E+01 0. -1.
    10030    2    1    2    0    0  0.00000000000E+00  0.00000000000E+00 -0.18563029172E+04  0.28061858053E+04  0.21044757669E+04 0.  0.
        2    1    3    3  502    0 -0.46445304230E+03 -0.60294250105E+03 -0.18970274226E+04  0.20440081531E+04  0.25500000920E-02 0. -1.
       -2    1    3    3    0  502  0.46445304230E+03  0.60294250105E+03  0.40724505385E+02  0.76217765214E+03  0.25500000920E-02 0.  1.
</event>
<event>
 5   0  0.1398469E-05  0.2099560E+04  0.7818609E-02  0.8561437E-01
       -2   -1    0    0    0  501  0.00000000000E+00  0.00000000000E+00  0.60518190269E+03  0.60518190270E+03  0.25500000920E-02 0.  1.
        2   -1    0    0  501    0  0.00000000000E+00  0.00000000000E+00 -0.18210025786E+04  0.18210025786E+04  0.25500000920E-02 0. -1.
    10030    2    1    2    0    0  0.00000000000E+00  0.00000000000E+00 -0.12158206759E+04  0.24261844813E+04  0.20995597685E+04 0.  0.
        2    1    3    3  502    0 -0.14730487902E+03 -0.26967821494E+03  0.55204803163E+03  0.63180859145E+03  0.25500000920E-02 0.  1.
       -2    1    3    3    0  502  0.14730487902E+03  0.26967821494E+03 -0.17678687075E+04  0.17943758899E+04  0.25500000920E-02 0. -1.
</event>
<event>
 5   0  0.5009125E-06  0.2098179E+04  0.7818609E-02  0.8562046E-01
       -3   -1    0    0    0  501  0.00000000000E+00  0.00000000000E+00  0.13220700029E+04  0.13220700068E+04  0.10100000352E+00 0. -1.
        3   -1    0    0  501    0  0.00000000000E+00  0.00000000000E+00 -0.83247399575E+03  0.83247400188E+03  0.10100000352E+00 0.  1.
    10030    2    1    2    0    0  0.00000000000E+00  0.00000000000E+00  0.48959600714E+03  0.21545440086E+04  0.20981791236E+04 0.  0.
        2    1    3    3  502    0  0.52131750053E+03  0.70248467780E+03 -0.34983699797E+03  0.94214785679E+03  0.25500000920E-02 0.  1.
       -2    1    3    3    0  502 -0.52131750053E+03 -0.70248467780E+03  0.83943300511E+03  0.12123961518E+04  0.25500000920E-02 0. -1.
</event>
<event>
 5   0  0.1441136E-05  0.2097696E+04  0.7818609E-02  0.8562259E-01
        2   -1    0    0  501    0  0.00000000000E+00  0.00000000000E+00  0.17545439121E+04  0.17545439121E+04  0.25500000920E-02 0.  1.
       -2   -1    0    0    0  501  0.00000000000E+00  0.00000000000E+00 -0.62699056321E+03  0.62699056321E+03  0.25500000920E-02 0. -1.
    10030    2    1    2    0    0  0.00000000000E+00  0.00000000000E+00  0.11275533489E+04  0.23815344753E+04  0.20976963323E+04 0.  0.
        4    1    3    3  502    0 -0.42412737392E+03 -0.95861963911E+03  0.52371422902E+03  0.11717994062E+04  0.12699999809E+01 0.  1.
       -4    1    3    3    0  502  0.42412737392E+03  0.95861963911E+03  0.60383911983E+03  0.12097350691E+04  0.12699999809E+01 0. -1.
</event>
<event>
 5   0  0.1390735E-05  0.2092721E+04  0.7818609E-02  0.8564457E-01
       -2   -1    0    0    0  501  0.00000000000E+00  0.00000000000E+00  0.45420240993E+03  0.45420240994E+03  0.25500000920E-02 0. -1.
        2   -1    0    0  501    0  0.00000000000E+00  0.00000000000E+00 -0.24105340351E+04  0.24105340351E+04  0.25500000920E-02 0.  1.
    10030    2    1    2    0    0  0.00000000000E+00  0.00000000000E+00 -0.19563316251E+04  0.28647364450E+04  0.20927210688E+04 0.  0.
        5    1    3    3  502    0 -0.84855342358E+03  0.31151429938E+03 -0.25670712595E+03  0.93968330298E+03  0.46999998093E+01 0. -1.
       -5    1    3    3    0  502  0.84855342358E+03 -0.31151429938E+03 -0.16996244992E+04  0.19250531420E+04  0.46999998093E+01 0.  1.
</event>
<event>
 5   0  0.6238363E-06  0.2097806E+04  0.7818609E-02  0.8562211E-01
       -1   -1    0    0    0  501  0.00000000000E+00  0.00000000000E+00  0.96333381836E+03  0.96333381837E+03  0.50400001928E-02 0. -1.
        1   -1    0    0  501    0  0.00000000000E+00  0.00000000000E+00 -0.11420728490E+04  0.11420728490E+04  0.50400001928E-02 0.  1.
    10030    2    1    2    0    0  0.00000000000E+00  0.00000000000E+00 -0.17873903063E+03  0.21054066674E+04  0.20978059000E+04 0.  0.
        4    1    3    3  502    0 -0.10136453615E+04  0.26755547846E+03 -0.55588496471E+02  0.10498354856E+04  0.12699999809E+01 0. -1.
       -4    1    3    3    0  502  0.10136453615E+04 -0.26755547846E+03 -0.12315053416E+03  0.10555711818E+04  0.12699999809E+01 0.  1.
</event>
<event>
 5   0  0.5009125E-06  0.2101458E+04  0.7818609E-02  0.8560601E-01
        4   -1    0    0  501    0  0.00000000000E+00  0.00000000000E+00  0.90222830364E+03  0.90222919749E+03  0.12699999809E+01 0.  1.
       -4   -1    0    0    0  501  0.00000000000E+00  0.00000000000E+00 -0.12236701990E+04  0.12236708580E+04  0.12699999809E+01 0. -1.
    10030    2    1    2    0    0  0.00000000000E+00  0.00000000000E+00 -0.32144189532E+03  0.21259000555E+04  0.21014581019E+04 0.  0.
        1    1    3    3  502    0  0.84362051733E+03  0.48462141412E+03 -0.56217155250E+03  0.11236504558E+04  0.50400001928E-02 0. -1.
       -1    1    3    3    0  502 -0.84362051733E+03 -0.48462141412E+03  0.24072965717E+03  0.10022495997E+04  0.50400001928E-02 0.  1.
</event>
<event>
 5   0  0.1390735E-05  0.2101905E+04  0.7818609E-02  0.8560405E-01
       -2   -1    0    0    0  501  0.00000000000E+00  0.00000000000E+00  0.15964088286E+04  0.15964088286E+04  0.25500000920E-02 0.  1.
        2   -1    0    0  501    0  0.00000000000E+00  0.00000000000E+00 -0.69186603216E+03  0.69186603217E+03  0.25500000920E-02 0. -1.
    10030    2    1    2    0    0  0.00000000000E+00  0.00000000000E+00  0.90454279646E+03  0.22882748608E+04  0.21019048903E+04 0.  0.
        5    1    3    3  502    0  0.80075683120E+03 -0.53034053748E+03 -0.12178011362E+02  0.96054306638E+03  0.46999998093E+01 0.  1.
       -5    1    3    3    0  502 -0.80075683120E+03  0.53034053748E+03  0.91672080783E+03  0.13277317944E+04  0.46999998093E+01 0. -1.
</event>
<event>
 5   0  0.6589193E-06  0.2098272E+04  0.7818609E-02  0.8562005E-01
        1   -1    0    0  501    0  0.00000000000E+00  0.00000000000E+00  0.25739287377E+04  0.25739287377E+04  0.50400001928E-02 0. -1.
       -1   -1    0    0    0  501  0.00000000000E+00  0.00000000000E+00 -0.42762872240E+03  0.42762872243E+03  0.50400001928E-02 0.  1.
    10030    2    1    2    0    0  0.00000000000E+00  0.00000000000E+00  0.21463000153E+04  0.30015574601E+04  0.20982715341E+04 0.  0.
        3    1    3    3  502    0  0.32415729640E+03  0.68362282334E+03  0.21128595115E+04  0.22442356033E+04  0.10100000352E+00 0. -1.
       -3    1    3    3    0  502 -0.32415729640E+03 -0.68362282334E+03  0.33440503806E+02  0.75732185687E+03  0.10100000352E+00 0.  1.
</event>
<event>
 5   0  0.1395356E-05  0.2088897E+04  0.7818609E-02  0.8566150E-01
       -2   -1    0    0    0  501  0.00000000000E+00  0.00000000000E+00  0.58931867665E+03  0.58931867666E+03  0.25500000920E-02 0.  1.
        2   -1    0    0  501    0  0.00000000000E+00  0.00000000000E+00 -0.18510738270E+04  0.18510738270E+04  0.25500000920E-02 0. -1.
    10030    2    1    2    0    0  0.00000000000E+00  0.00000000000E+00 -0.12617551503E+04  0.24403925036E+04  0.20888967214E+04 0.  0.
        1    1    3    3  502    0  0.75789729402E+03  0.69475859377E+03 -0.84558032355E+03  0.13312039271E+04  0.50400001928E-02 0. -1.
       -1    1    3    3    0  502 -0.75789729402E+03 -0.69475859377E+03 -0.41617482678E+03  0.11091885766E+04  0.50400001928E-02 0.  1.
</event>
<event>
 5   0  0.6283269E-06  0.2101312E+04  0.7818609E-02  0.8560666E-01
        1   -1    0    0  501    0  0.00000000000E+00  0.00000000000E+00  0.21619119332E+04  0.21619119332E+04  0.50400001928E-02 0.  1.
       -1   -1    0    0    0  501  0.00000000000E+00  0.00000000000E+00 -0.51060277423E+03  0.51060277425E+03  0.50400001928E-02 0. -1.
    10030    2    1    2    0    0  0.00000000000E+00  0.00000000000E+00  0.16513091589E+04  0.26725147074E+04  0.21013121907E+04 0.  0.
        1    1    3    3  502    0 -0.98352329216E+03 -0.11712763711E+03  0.12714151929E+04  0.16116865521E+04  0.50400001928E-02 0.  1.
       -1    1    3    3    0  502  0.98352329216E+03  0.11712763711E+03  0.37989396605E+03  0.10608281553E+04  0.50400001928E-02 0. -1.
</event>
<event>
 5   0  0.1395356E-05  0.2105260E+04  0.7818609E-02  0.8558930E-01
        2   -1    0    0  501    0  0.00000000000E+00  0.00000000000E+00  0.78957238316E+03  0.78957238317E+03  0.25500000920E-02 0.  1.
       -2   -1    0    0    0  501  0.00000000000E+00  0.00000000000E+00 -0.14033297472E+04  0.14033297472E+04  0.25500000920E-02 0. -1.
    10030    2    1    2    0    0  0.00000000000E+00  0.00000000000E+00 -0.61375736399E+03  0.21929021303E+04  0.21052604711E+04 0.  0.
        1    1    3    3  502    0  0.99902142664E+03  0.23729287753E+03 -0.65546979609E+02  0.10289062772E+04  0.50400001928E-02 0.  1.
       -1    1    3    3    0  502 -0.99902142664E+03 -0.23729287753E+03 -0.54821038438E+03  0.11639958532E+04  0.50400001928E-02 0. -1.
</event>
<event>
 5   0  0.1395356E-05  0.2103462E+04  0.7818609E-02  0.8559720E-01
       -2   -1    0    0    0  501  0.00000000000E+00  0.00000000000E+00  0.37265892071E+03  0.37265892072E+03  0.25500000920E-02 0. -1.
        2   -1    0    0  501    0  0.00000000000E+00  0.00000000000E+00 -0.29682326548E+04  0.29682326548E+04  0.25500000920E-02 0.  1.
    10030    2    1    2    0    0  0.00000000000E+00  0.00000000000E+00 -0.25955737341E+04  0.33408915755E+04  0.21034622674E+04 0.  0.
        1    1    3    3  502    0  0.50144891082E+03 -0.91593547382E+03 -0.14971120068E+04  0.18253035811E+04  0.50400001928E-02 0.  1.
       -1    1    3    3    0  502 -0.50144891082E+03  0.91593547382E+03 -0.10984617273E+04  0.15155879944E+04  0.50400001928E-02 0. -1.
</event>
<event>
 5   0  0.1390735E-05  0.2103420E+04  0.7818609E-02  0.8559738E-01
       -2   -1    0    0    0  501  0.00000000000E+00  0.00000000000E+00  0.33404460793E+03  0.33404460794E+03  0.25500000920E-02 0.  1.
        2   -1    0    0  501    0  0.00000000000E+00  0.00000000000E+00 -0.33112172054E+04  0.33112172054E+04  0.25500000920E-02 0. -1.
    10030    2    1    2    0    0  0.00000000000E+00  0.00000000000E+00 -0.29771725974E+04  0.36452618133E+04  0.21034203129E+04 0.  0.
        5    1    3    3  502    0 -0.25437379210E+03  0.12465107866E+03  0.26666777210E+03  0.38907288288E+03  0.46999998093E+01 0.  1.
       -5    1    3    3    0  502  0.25437379210E+03 -0.12465107866E+03 -0.32438403695E+04  0.32561889304E+04  0.46999998093E+01 0. -1.
</event>
<event>
 5   0  0.1344501E-05  0.2116404E+04  0.7818609E-02  0.8554052E-01
       -2   -1    0    0    0  501  0.00000000000E+00  0.00000000000E+00  0.67354710689E+03  0.67354710689E+03  0.25500000920E-02 0. -1.
        2   -1    0    0  501    0  0.00000000000E+00  0.00000000000E+00 -0.16625288630E+04  0.16625288630E+04  0.25500000920E-02 0.  1.
    10030    2    1    2    0    0  0.00000000000E+00  0.00000000000E+00 -0.98898175611E+03  0.23360759699E+04  0.21164040312E+04 0.  0.
        3    1    3    3  502    0 -0.66134986750E+03 -0.77731467314E+03 -0.18584300630E+03  0.10373713807E+04  0.10100000352E+00 0. -1.
       -3    1    3    3    0  502  0.66134986750E+03  0.77731467314E+03 -0.80313874981E+03  0.12987045892E+04  0.10100000352E+00 0.  1.
</event>
<event>
 5   0  0.6599245E-06  0.2126253E+04  0.7818609E-02  0.8549766E-01
        1   -1    0    0  501    0  0.00000000000E+00  0.00000000000E+00  0.72652428556E+03  0.72652428558E+03  0.50400001928E-02 0.  1.
       -1   -1    0    0    0  501  0.00000000000E+00  0.00000000000E+00 -0.15556777508E+04  0.15556777509E+04  0.50400001928E-02 0. -1.
    10030    2    1    2    0    0  0.00000000000E+00  0.00000000000E+00 -0.82915346528E+03  0.22822020364E+04  0.21262527287E+04 0.  0.
        2    1    3    3  502    0  0.24192167126E+03  0.37983655730E+02  0.69583908591E+03  0.73767261479E+03  0.25500000920E-02 0.  1.
       -2    1    3    3    0  502 -0.24192167126E+03 -0.37983655730E+02 -0.15249925512E+04  0.15445294216E+04  0.25500000920E-02 0. -1.
</event>
<event>
 5   0  0.6589193E-06  0.2111639E+04  0.7818609E-02  0.8556134E-01
        1   -1    0    0  501    0  0.00000000000E+00  0.00000000000E+00  0.23367837426E+04  0.23367837426E+04  0.50400001928E-02 0. -1.
       -1   -1    0    0    0  501  0.00000000000E+00  0.00000000000E+00 -0.47704659841E+03  0.47704659844E+03  0.50400001928E-02 0.  1.
    10030    2    1    2    0    0  0.00000000000E+00  0.00000000000E+00  0.18597371442E+04  0.28138303411E+04  0.21116389234E+04 0.  0.
        3    1    3    3  502    0  0.21041921978E+03 -0.94097466076E+03  0.35665413398E+03  0.10280621293E+04  0.10100000352E+00 0. -1.
       -3    1    3    3    0  502 -0.21041921978E+03  0.94097466076E+03  0.15030830102E+04  0.17857682117E+04  0.10100000352E+00 0.  1.
</event>
<event>
 5   0  0.5009125E-06  0.2104240E+04  0.7818609E-02  0.8559378E-01
        3   -1    0    0  501    0  0.00000000000E+00  0.00000000000E+00  0.24046684036E+04  0.24046684057E+04  0.10100000352E+00 0.  1.
       -3   -1    0    0    0  501  0.00000000000E+00  0.00000000000E+00 -0.46033653787E+03  0.46033654895E+03  0.10100000352E+00 0. -1.
    10030    2    1    2    0    0  0.00000000000E+00  0.00000000000E+00  0.19443318657E+04  0.28650049546E+04  0.21042402396E+04 0.  0.
        4    1    3    3  502    0 -0.71006938233E+02  0.43951401018E+03  0.22700921881E+04  0.23133384331E+04  0.12699999809E+01 0.  1.
       -4    1    3    3    0  502  0.71006938233E+02 -0.43951401018E+03 -0.32576032244E+03  0.55166652155E+03  0.12699999809E+01 0. -1.
</event>
<event>
 5   0  0.6599245E-06  0.2103627E+04  0.7818609E-02  0.8559647E-01
       -1   -1    0    0    0  501  0.00000000000E+00  0.00000000000E+00  0.61773106141E+03  0.61773106143E+03  0.50400001928E-02 0.  1.
        1   -1    0    0  501    0  0.00000000000E+00  0.00000000000E+00 -0.17909270488E+04  0.17909270488E+04  0.50400001928E-02 0. -1.
    10030    2    1    2    0    0  0.00000000000E+00  0.00000000000E+00 -0.11731959874E+04  0.24086581103E+04  0.21036266464E+04 0.  0.
        2    1    3    3  502    0  0.39550754426E+03  0.78987749219E+02  0.52567410875E+03  0.66256965725E+03  0.25500000920E-02 0.  1.
       -2    1    3    3    0  502 -0.39550754426E+03 -0.78987749219E+02 -0.16988700962E+04  0.17460884530E+04  0.25500000920E-02 0. -1.
</event>
<event>
 5   0  0.6283269E-06  0.2101172E+04  0.7818609E-02  0.8560727E-01
       -1   -1    0    0    0  501  0.00000000000E+00  0.00000000000E+00  0.12476311764E+04  0.12476311764E+04  0.50400001928E-02 0.  1.
        1   -1    0    0  501    0  0.00000000000E+00  0.00000000000E+00 -0.88466147500E+03  0.88466147502E+03  0.50400001928E-02 0. -1.
    10030    2    1    2    0    0  0.00000000000E+00  0.00000000000E+00  0.36296970137E+03  0.21322926514E+04  0.21011722793E+04 0.  0.
        1    1    3    3  502    0  0.34095774351E+03 -0.57961504093E+03  0.10006110991E+04  0.12055821623E+04  0.50400001928E-02 0.  1.
       -1    1    3    3    0  502 -0.34095774351E+03  0.57961504093E+03 -0.63764139768E+03  0.92671048909E+03  0.50400001928E-02 0. -1.
</event>
<event>
 5   0  0.1395356E-05  0.2100622E+04  0.7818609E-02  0.8560969E-01
        2   -1    0    0  501    0  0.00000000000E+00  0.00000000000E+00  0.96947232768E+03  0.96947232769E+03  0.25500000920E-02 0. -1.
       -2   -1    0    0    0  501  0.00000000000E+00  0.00000000000E+00 -0.11378905212E+04  0.11378905212E+04  0.25500000920E-02 0.  1.
    10030    2    1    2    0    0  0.00000000000E+00  0.00000000000E+00 -0.16841819353E+03  0.21073628489E+04  0.21006221671E+04 0.  0.
        1    1    3    3  502    0 -0.53074648747E+02  0.65794490191E+03  0.73538553347E+03  0.98818029486E+03  0.50400001928E-02 0. -1.
       -1    1    3    3    0  502  0.53074648747E+02 -0.65794490191E+03 -0.90380372700E+03  0.11191825540E+04  0.50400001928E-02 0.  1.
</event>
<event>
 5   0  0.6589193E-06  0.2100660E+04  0.7818609E-02  0.8560953E-01
       -1   -1    0    0    0  501  0.00000000000E+00  0.00000000000E+00  0.94338640611E+03  0.94338640612E+03  0.50400001928E-02 0. -1.
        1   -1    0    0  501    0  0.00000000000E+00  0.00000000000E+00 -0.11693972276E+04  0.11693972276E+04  0.50400001928E-02 0.  1.
    10030    2    1    2    0    0  0.00000000000E+00  0.00000000000E+00 -0.22601082144E+03  0.21127836337E+04  0.21006603227E+04 0.  0.
        3    1    3    3  502    0  0.97956406720E+03  0.27320925740E+03 -0.37720826968E+03  0.10846543915E+04  0.10100000352E+00 0. -1.
       -3    1    3    3    0  502 -0.97956406720E+03 -0.27320925740E+03  0.15119744823E+03  0.10281292422E+04  0.10100000352E+00 0.  1.
</event>
<event>
 5   0  0.1398469E-05  0.2097357E+04  0.7818609E-02  0.8562408E-01
        2   -1    0    0  501    0  0.00000000000E+00  0.00000000000E+00  0.11956029943E+04  0.11956029943E+04  0.25500000920E-02 0.  1.
       -2   -1    0    0    0  501  0.00000000000E+00  0.00000000000E+00 -0.91980960406E+03  0.91980960406E+03  0.25500000920E-02 0. -1.
    10030    2    1    2    0    0  0.00000000000E+00  0.00000000000E+00  0.27579339028E+03  0.21154125984E+04  0.20973574963E+04 0.  0.
        2    1    3    3  502    0 -0.67664006094E+03  0.58196063316E+03 -0.41748601395E+03  0.98529920455E+03  0.25500000920E-02 0. -1.
       -2    1    3    3    0  502  0.67664006094E+03 -0.58196063316E+03  0.69327940424E+03  0.11301133939E+04  0.25500000920E-02 0.  1.
</event>
<event>
 5   0  0.6917078E-06  0.2078378E+04  0.7818609E-02  0.8570829E-01
        1   -1    0    0  501    0  0.00000000000E+00  0.00000000000E+00  0.13079213103E+04  0.13079213103E+04  0.50400001928E-02 0.  1.
       -1   -1    0    0    0  501  0.00000000000E+00  0.00000000000E+00 -0.82567143301E+03  0.82567143303E+03  0.50400001928E-02 0. -1.
    10030    2    1    2    0    0  0.00000000000E+00  0.00000000000E+00  0.48224987731E+03  0.21335927434E+04  0.20783775043E+04 0.  0.
        5    1    3    3  502    0 -0.50175464015E+03 -0.90781000220E+03  0.17608197625E+03  0.10520948966E+04  0.46999998093E+01 0.  1.
       -5    1    3    3    0  502  0.50175464015E+03  0.90781000220E+03  0.30616790107E+03  0.10814978468E+04  0.46999998093E+01 0. -1.
</event>
<event>
 5   0  0.1441136E-05  0.2102177E+04  0.7818609E-02  0.8560285E-01
        2   -1    0    0  501    0  0.00000000000E+00  0.00000000000E+00  0.12394634416E+04  0.12394634416E+04  0.25500000920E-02 0.  1.
       -2   -1    0    0    0  501  0.00000000000E+00  0.00000000000E+00 -0.89134321575E+03  0.89134321576E+03  0.25500000920E-02 0. -1.
    10030    2    1    2    0    0  0.00000000000E+00  0.00000000000E+00  0.34812022589E+03  0.21308066574E+04  0.21021772807E+04 0.  0.
        4    1    3    3  502    0  0.92921833661E+03  0.41967486854E+03  0.43290433921E+03  0.11076919663E+04  0.12699999809E+01 0. -1.
       -4    1    3    3    0  502 -0.92921833661E+03 -0.41967486854E+03 -0.84784113325E+02  0.10231146911E+04  0.12699999809E+01 0.  1.
</event>
<event>
 5   0  0.1395356E-05  0.2105120E+04  0.7818609E-02  0.8558991E-01
        2   -1    0    0  501    0  0.00000000000E+00  0.00000000000E+00  0.15913234304E+04  0.15913234304E+04  0.25500000920E-02 0.  1.
       -2   -1    0    0    0  501  0.00000000000E+00  0.00000000000E+00 -0.69620179690E+03  0.69620179690E+03  0.25500000920E-02 0. -1.
    10030    2    1    2    0    0  0.00000000000E+00  0.00000000000E+00  0.89512163346E+03  0.22875252273E+04  0.21051196941E+04 0.  0.
        1    1    3    3  502    0 -0.99593451302E+03  0.33869709261E+03  0.40866916831E+03  0.11285440904E+04  0.50400001928E-02 0. -1.
       -1    1    3    3    0  502  0.99593451302E+03 -0.33869709261E+03  0.48645246515E+03  0.11589811369E+04  0.50400001928E-02 0.  1.
</event>
<event>
 5   0  0.1395356E-05  0.2099918E+04  0.7818609E-02  0.8561280E-01
       -2   -1    0    0    0  501  0.00000000000E+00  0.00000000000E+00  0.66575513516E+03  0.66575513517E+03  0.25500000920E-02 0. -1.
        2   -1    0    0  501    0  0.00000000000E+00  0.00000000000E+00 -0.16558845900E+04  0.16558845900E+04  0.25500000920E-02 0.  1.
    10030    2    1    2    0    0  0.00000000000E+00  0.00000000000E+00 -0.99012945484E+03  0.23216397252E+04  0.20999177784E+04 0.  0.
        1    1    3    3  502    0 -0.35461680725E+03 -0.65041849102E+03 -0.13176804384E+04  0.15116477868E+04  0.50400001928E-02 0.  1.
       -1    1    3    3    0  502  0.35461680725E+03  0.65041849102E+03  0.32755098356E+03  0.80999193842E+03  0.50400001928E-02 0. -1.
</event>
<event>
 5   0  0.6238363E-06  0.2100951E+04  0.7818609E-02  0.8560824E-01
       -1   -1    0    0    0  501  0.00000000000E+00  0.00000000000E+00  0.93049654142E+03  0.93049654143E+03  0.50400001928E-02 0.  1.
        1   -1    0    0  501    0  0.00000000000E+00  0.00000000000E+00 -0.11859248778E+04  0.11859248778E+04  0.50400001928E-02 0. -1.
    10030    2    1    2    0    0  0.00000000000E+00  0.00000000000E+00 -0.25542833638E+03  0.21164214192E+04  0.21009512105E+04 0.  0.
        4    1    3    3  502    0 -0.63049361815E+03  0.75997356732E+03  0.23327541153E+03  0.10146433147E+04  0.12699999809E+01 0.  1.
       -4    1    3    3    0  502  0.63049361815E+03 -0.75997356732E+03 -0.48870374791E+03  0.11017781045E+04  0.12699999809E+01 0. -1.
</event>
<event>
 5   0  0.1441136E-05  0.2100886E+04  0.7818609E-02  0.8560853E-01
       -2   -1    0    0    0  501  0.00000000000E+00  0.00000000000E+00  0.18761545588E+04  0.18761545588E+04  0.25500000920E-02 0.  1.
        2   -1    0    0  501    0  0.00000000000E+00  0.00000000000E+00 -0.58813388012E+03  0.58813388012E+03  0.25500000920E-02 0. -1.
    10030    2    1    2    0    0  0.00000000000E+00  0.00000000000E+00  0.12880206787E+04  0.24642884389E+04  0.21008855851E+04 0.  0.
        4    1    3    3  502    0  0.84582201859E+03  0.51652019447E+03  0.10524022044E+04  0.14456002252E+04  0.12699999809E+01 0. -1.
       -4    1    3    3    0  502 -0.84582201859E+03 -0.51652019447E+03  0.23561847428E+03  0.10186882137E+04  0.12699999809E+01 0.  1.
</event>
<event>
 5   0  0.1441136E-05  0.2098643E+04  0.7818609E-02  0.8561841E-01
       -2   -1    0    0    0  501  0.00000000000E+00  0.00000000000E+00  0.91876560479E+03  0.91876560479E+03  0.25500000920E-02 0. -1.
        2   -1    0    0  501    0  0.00000000000E+00  0.00000000000E+00 -0.11984291995E+04  0.11984291995E+04  0.25500000920E-02 0.  1.
    10030    2    1    2    0    0  0.00000000000E+00  0.00000000000E+00 -0.27966359472E+03  0.21171948043E+04  0.20986429218E+04 0.  0.
        4    1    3    3  502    0  0.18983937821E+03 -0.90906429507E+03 -0.63265504837E+03  0.11236952012E+04  0.12699999809E+01 0.  1.
       -4    1    3    3    0  502 -0.18983937821E+03  0.90906429507E+03  0.35299145366E+03  0.99349960309E+03  0.12699999809E+01 0. -1.
</event>
<event>
 5   0  0.5009125E-06  0.2099369E+04  0.7818609E-02  0.8561522E-01
       -4   -1    0    0    0  501  0.00000000000E+00  0.00000000000E+00  0.11942888362E+04  0.11942895114E+04  0.12699999809E+01 0. -1.
        4   -1    0    0  501    0  0.00000000000E+00  0.00000000000E+00 -0.92258720319E+03  0.92258807731E+03  0.12699999809E+01 0.  1.
    10030    2    1    2    0    0  0.00000000000E+00  0.00000000000E+00  0.27170163299E+03  0.21168775887E+04  0.20993687023E+04 0.  0.
        5    1    3    3  502    0  0.10063750075E+04 -0.19026154552E+03  0.36760464985E+03  0.10881844421E+04  0.46999998093E+01 0. -1.
       -5    1    3    3    0  502 -0.10063750075E+04  0.19026154552E+03 -0.95903016860E+02  0.10286931467E+04  0.46999998093E+01 0.  1.
</event>
<event>
 5   0  0.1395356E-05  0.2102175E+04  0.7818609E-02  0.8560286E-01
        2   -1    0    0  501    0  0.00000000000E+00  0.00000000000E+00  0.11722810134E+04  0.11722810134E+04  0.25500000920E-02 0.  1.
       -2   -1    0    0    0  501  0.00000000000E+00  0.00000000000E+00 -0.94242329912E+03  0.94242329912E+03  0.25500000920E-02 0. -1.
    10030    2    1    2    0    0  0.00000000000E+00  0.00000000000E+00  0.22985771431E+03  0.21147043125E+04  0.21021750071E+04 0.  0.
        1    1    3    3  502    0  0.46647008510E+03 -0.74065857032E+03 -0.47044616599E+03  0.99372483777E+03  0.50400001928E-02 0. -1.
       -1    1    3    3    0  502 -0.46647008510E+03  0.74065857032E+03  0.70030388030E+03  0.11209794748E+04  0.50400001928E-02 0.  1.
</event>
<event>
 5   0  0.6589193E-06  0.2101513E+04  0.7818609E-02  0.8560577E-01
       -1   -1    0    0    0  501  0.00000000000E+00  0.00000000000E+00  0.93975453027E+03  0.93975453028E+03  0.50400001928E-02 0.  1.
        1   -1    0    0  501    0  0.00000000000E+00  0.00000000000E+00 -0.11748700695E+04  0.11748700695E+04  0.50400001928E-02 0. -1.
    10030    2    1    2    0    0  0.00000000000E+00  0.00000000000E+00 -0.23511553921E+03  0.21146245998E+04  0.21015132360E+04 0.  0.
        3    1    3    3  502    0  0.15754000452E+03  0.35516554338E+03 -0.10999315767E+04  0.11665379976E+04  0.10100000352E+00 0. -1.
       -3    1    3    3    0  502 -0.15754000452E+03 -0.35516554338E+03  0.86481603751E+03  0.94808660214E+03  0.10100000352E+00 0.  1.
</event>
<event>
 5   0  0.6917078E-06  0.2101258E+04  0.7818609E-02  0.8560689E-01
        1   -1    0    0  501    0  0.00000000000E+00  0.00000000000E+00  0.77814881813E+03  0.77814881815E+03  0.50400001928E-02 0. -1.
       -1   -1    0    0    0  501  0.00000000000E+00  0.00000000000E+00 -0.14185219552E+04  0.14185219552E+04  0.50400001928E-02 0.  1.
    10030    2    1    2    0    0  0.00000000000E+00  0.00000000000E+00 -0.64037313707E+03  0.21966707734E+04  0.21012578928E+04 0.  0.
        5    1    3    3  502    0  0.63178500988E+03 -0.68877500785E+03 -0.82180331263E+03  0.12445666253E+04  0.46999998093E+01 0.  1.
       -5    1    3    3    0  502 -0.63178500988E+03  0.68877500785E+03  0.18143017556E+03  0.95210414806E+03  0.46999998093E+01 0. -1.
</event>
<event>
 5   0  0.6917078E-06  0.2098996E+04  0.7818609E-02  0.8561686E-01
       -1   -1    0    0    0  501  0.00000000000E+00  0.00000000000E+00  0.65499377663E+03  0.65499377665E+03  0.50400001928E-02 0.  1.
        1   -1    0    0  501    0  0.00000000000E+00  0.00000000000E+00 -0.16816137008E+04  0.16816137009E+04  0.50400001928E-02 0. -1.
    10030    2    1    2    0    0  0.00000000000E+00  0.00000000000E+00 -0.10266199242E+04  0.23366074775E+04  0.20989964352E+04 0.  0.
        5    1    3    3  502    0 -0.27709428737E+03  0.97133643389E+03 -0.19619636572E+03  0.10289756148E+04  0.46999998093E+01 0. -1.
       -5    1    3    3    0  502  0.27709428737E+03 -0.97133643389E+03 -0.83042355849E+03  0.13076318627E+04  0.46999998093E+01 0.  1.
</event>
<event>
 5   0  0.6599245E-06  0.2101160E+04  0.7818609E-02  0.8560733E-01
       -1   -1    0    0    0  501  0.00000000000E+00  0.00000000000E+00  0.44913583937E+03  0.44913583939E+03  0.50400001928E-02 0.  1.
        1   -1    0    0  501    0  0.00000000000E+00  0.00000000000E+00 -0.24574262428E+04  0.24574262428E+04  0.50400001928E-02 0. -1.
    10030    2    1    2    0    0  0.00000000000E+00  0.00000000000E+00 -0.20082904034E+04  0.29065620822E+04  0.21011598685E+04 0.  0.
        2    1    3    3  502    0 -0.90849326556E+03  0.23079684327E+03 -0.34784947970E+03  0.99981321104E+03  0.25500000920E-02 0.  1.
       -2    1    3    3    0  502  0.90849326556E+03 -0.23079684327E+03 -0.16604409237E+04  0.19067488711E+04  0.25500000920E-02 0. -1.
</event>
<event>
 5   0  0.1344501E-05  0.2102718E+04  0.7818609E-02  0.8560047E-01
        2   -1    0    0  501    0  0.00000000000E+00  0.00000000000E+00  0.17438099738E+04  0.17438099738E+04  0.25500000920E-02 0. -1.
       -2   -1    0    0    0  501  0.00000000000E+00  0.00000000000E+00 -0.63387376099E+03  0.63387376100E+03  0.25500000920E-02 0.  1.
    10030    2    1    2    0    0  0.00000000000E+00  0.00000000000E+00  0.11099362128E+04  0.23776837348E+04  0.21027176573E+04 0.  0.
        3    1    3    3  502    0 -0.76232206687E+03 -0.17142413934E+03 -0.24046375397E+03  0.81752308613E+03  0.10100000352E+00 0.  1.
       -3    1    3    3    0  502  0.76232206687E+03  0.17142413934E+03  0.13503999667E+04  0.15601606486E+04  0.10100000352E+00 0. -1.
</event>
<event>
 5   0  0.1390735E-05  0.2097851E+04  0.7818609E-02  0.8562190E-01
       -2   -1    0    0    0  501  0.00000000000E+00  0.00000000000E+00  0.17046170993E+04  0.17046170993E+04  0.25500000920E-02 0. -1.
        2   -1    0    0  501    0  0.00000000000E+00  0.00000000000E+00 -0.64545006183E+03  0.64545006184E+03  0.25500000920E-02 0.  1.
    10030    2    1    2    0    0  0.00000000000E+00  0.00000000000E+00  0.10591670374E+04  0.23500671611E+04  0.20978514839E+04 0.  0.
        5    1    3    3  502    0  0.52522328944E+03 -0.89758353969E+03  0.68280241845E+03  0.12440888019E+04  0.46999998093E+01 0.  1.
       -5    1    3    3    0  502 -0.52522328944E+03  0.89758353969E+03  0.37636461897E+03  0.11059783591E+04  0.46999998093E+01 0. -1.
</event>
<event>
 5   0  0.1398469E-05  0.2102177E+04  0.7818609E-02  0.8560285E-01
       -2   -1    0    0    0  501  0.00000000000E+00  0.00000000000E+00  0.54432102115E+03  0.54432102116E+03  0.25500000920E-02 0. -1.
        2   -1    0    0  501    0  0.00000000000E+00  0.00000000000E+00 -0.20296605797E+04  0.20296605797E+04  0.25500000920E-02 0.  1.
    10030    2    1    2    0    0  0.00000000000E+00  0.00000000000E+00 -0.14853395586E+04  0.25739816009E+04  0.21021768901E+04 0.  0.
        2    1    3    3  502    0  0.30007871364E+03 -0.69529437834E+03 -0.16351699355E+04  0.18020161556E+04  0.25500000920E-02 0.  1.
       -2    1    3    3    0  502 -0.30007871364E+03  0.69529437834E+03  0.14983037692E+03  0.77196544533E+03  0.25500000920E-02 0. -1.
</event>
<event>
 5   0  0.6599245E-06  0.2100970E+04  0.7818609E-02  0.8560816E-01
        1   -1    0    0  501    0  0.00000000000E+00  0.00000000000E+00  0.87466636895E+03  0.87466636897E+03  0.50400001928E-02 0. -1.
       -1   -1    0    0    0  501  0.00000000000E+00  0.00000000000E+00 -0.12616452167E+04  0.12616452167E+04  0.50400001928E-02 0.  1.
    10030    2    1    2    0    0  0.00000000000E+00  0.00000000000E+00 -0.38697884777E+03  0.21363115857E+04  0.21009699100E+04 0.  0.
        2    1    3    3  502    0 -0.54259833282E+02 -0.21223879433E+03  0.85118242167E+03  0.87892033216E+03  0.25500000920E-02 0. -1.
       -2    1    3    3    0  502  0.54259833282E+02  0.21223879433E+03 -0.12381612694E+04  0.12573912535E+04  0.25500000920E-02 0.  1.
</event>
<event>
 5   0  0.1395356E-05  0.2105297E+04  0.7818609E-02  0.8558913E-01
        2   -1    0    0  501    0  0.00000000000E+00  0.00000000000E+00  0.17280520388E+04  0.17280520388E+04  0.25500000920E-02 0.  1.
       -2   -1    0    0    0  501  0.00000000000E+00  0.00000000000E+00 -0.64122451864E+03  0.64122451865E+03  0.25500000920E-02 0. -1.
    10030    2    1    2    0    0  0.00000000000E+00  0.00000000000E+00  0.10868275201E+04  0.23692765574E+04  0.21052974486E+04 0.  0.
        1    1    3    3  502    0 -0.30939970686E+03 -0.39994693344E+03  0.15824240246E+04  0.16612499877E+04  0.50400001928E-02 0.  1.
       -1    1    3    3    0  502  0.30939970686E+03  0.39994693344E+03 -0.49559650443E+03  0.70802656970E+03  0.50400001928E-02 0. -1.
</event>
<event>
 5   0  0.5009125E-06  0.2100502E+04  0.7818609E-02  0.8561022E-01
       -3   -1    0    0    0  501  0.00000000000E+00  0.00000000000E+00  0.17192880626E+04  0.17192880656E+04  0.10100000352E+00 0.  1.
        3   -1    0    0  501    0  0.00000000000E+00  0.00000000000E+00 -0.64156032196E+03  0.64156032991E+03  0.10100000352E+00 0. -1.
    10030    2    1    2    0    0  0.00000000000E+00  0.00000000000E+00  0.10777277407E+04  0.23608483955E+04  0.21005018599E+04 0.  0.
        3    1    3    3  502    0 -0.44583180833E+03  0.35904703193E+03  0.15285394850E+04  0.16322113037E+04  0.10100000352E+00 0.  1.
       -3    1    3    3    0  502  0.44583180833E+03 -0.35904703193E+03 -0.45081174438E+03  0.72863709179E+03  0.10100000352E+00 0. -1.
</event>
<event>
 5   0  0.5009125E-06  0.2104520E+04  0.7818609E-02  0.8559255E-01
        4   -1    0    0  501    0  0.00000000000E+00  0.00000000000E+00  0.11450328768E+04  0.11450335811E+04  0.12699999809E+01 0.  1.
       -4   -1    0    0    0  501  0.00000000000E+00  0.00000000000E+00 -0.96700190851E+03  0.96700274248E+03  0.12699999809E+01 0. -1.
    10030    2    1    2    0    0  0.00000000000E+00  0.00000000000E+00  0.17803096832E+03  0.21120363236E+04  0.21045195192E+04 0.  0.
        4    1    3    3  502    0  0.67942001121E+03 -0.62492079649E+01 -0.71734575290E+03  0.98804713771E+03  0.12699999809E+01 0. -1.
       -4    1    3    3    0  502 -0.67942001121E+03  0.62492079649E+01  0.89537672123E+03  0.11239891859E+04  0.12699999809E+01 0.  1.
</event>
<event>
 5   0  0.6283269E-06  0.2063990E+04  0.7818609E-02  0.8577274E-01
       -1   -1    0    0    0  501  0.00000000000E+00  0.00000000000E+00  0.89434590282E+03  0.89434590283E+03  0.50400001928E-02 0.  1.
        1   -1    0    0  501    0  0.00000000000E+00  0.00000000000E+00 -0.11908297826E+04  0.11908297826E+04  0.50400001928E-02 0. -1.
    10030    2    1    2    0    0  0.00000000000E+00  0.00000000000E+00 -0.29648387982E+03  0.20851756855E+04  0.20639900553E+04 0.  0.
        1    1    3    3  502    0  0.44422356079E+03  0.51011957583E+03  0.63915348632E+03  0.93063082514E+03  0.50400001928E-02 0.  1.
       -1    1    3    3    0  502 -0.44422356079E+03 -0.51011957583E+03 -0.93563736613E+03  0.11545448603E+04  0.50400001928E-02 0. -1.
</event>
<event>
 5   0  0.6589193E-06  0.2097504E+04  0.7818609E-02  0.8562344E-01
       -1   -1    0    0    0  501  0.00000000000E+00  0.00000000000E+00  0.17308653289E+04  0.17308653289E+04  0.50400001928E-02 0.  1.
        1   -1    0    0  501    0  0.00000000000E+00  0.00000000000E+00 -0.63545139455E+03  0.63545139457E+03  0.50400001928E-02 0. -1.
    10030    2    1    2    0    0  0.00000000000E+00  0.00000000000E+00  0.10954139344E+04  0.23663167235E+04  0.20975040282E+04 0.  0.
        3    1    3    3  502    0 -0.18585561981E+03 -0.10320650993E+04  0.53256708980E+03  0.11761498187E+04  0.10100000352E+00 0. -1.
       -3    1    3    3    0  502  0.18585561981E+03  0.10320650993E+04  0.56284684458E+03  0.11901669048E+04  0.10100000352E+00 0.  1.
</event>
<event>
 5   0  0.6599245E-06  0.2099662E+04  0.7818609E-02  0.8561392E-01
        1   -1    0    0  501    0  0.00000000000E+00  0.00000000000E+00  0.23011762861E+04  0.23011762861E+04  0.50400001928E-02 0. -1.
       -1   -1    0    0    0  501  0.00000000000E+00  0.00000000000E+00 -0.47894849112E+03  0.47894849115E+03  0.50400001928E-02 0.  1.
    10030    2    1    2    0    0  0.00000000000E+00  0.00000000000E+00  0.18222277949E+04  0.27801247772E+04  0.20996617919E+04 0.  0.
        2    1    3    3  502    0 -0.94281155751E+03 -0.46164865192E+03  0.89591292278E+03  0.13800989370E+04  0.25500000920E-02 0. -1.
       -2    1    3    3    0  502  0.94281155751E+03  0.46164865192E+03  0.92631487216E+03  0.14000258402E+04  0.25500000920E-02 0.  1.
</event>
<event>
 5   0  0.6589193E-06  0.2089624E+04  0.7818609E-02  0.8565828E-01
        1   -1    0    0  501    0  0.00000000000E+00  0.00000000000E+00  0.11652638358E+04  0.11652638358E+04  0.50400001928E-02 0.  1.
       -1   -1    0    0    0  501  0.00000000000E+00  0.00000000000E+00 -0.93681110166E+03  0.93681110167E+03  0.50400001928E-02 0. -1.
    10030    2    1    2    0    0  0.00000000000E+00  0.00000000000E+00  0.22845273412E+03  0.21020749375E+04  0.20896239832E+04 0.  0.
        3    1    3    3  502    0 -0.34447043334E+03 -0.80702655073E+03 -0.45632180656E+03  0.98903050224E+03  0.10100000352E+00 0. -1.
       -3    1    3    3    0  502  0.34447043334E+03  0.80702655073E+03  0.68477454067E+03  0.11130444352E+04  0.10100000352E+00 0.  1.
</event>
<event>
 5   0  0.6238363E-06  0.2100264E+04  0.7818609E-02  0.8561127E-01
        1   -1    0    0  501    0  0.00000000000E+00  0.00000000000E+00  0.24272965392E+04  0.24272965392E+04  0.50400001928E-02 0.  1.
       -1   -1    0    0    0  501  0.00000000000E+00  0.00000000000E+00 -0.45432321747E+03  0.45432321750E+03  0.50400001928E-02 0. -1.
    10030    2    1    2    0    0  0.00000000000E+00  0.00000000000E+00  0.19729733217E+04  0.28816197567E+04  0.21002639582E+04 0.  0.
        4    1    3    3  502    0  0.89917657558E+03 -0.32906494437E+03  0.15781683135E+04  0.18459195785E+04  0.12699999809E+01 0.  1.
       -4    1    3    3    0  502 -0.89917657558E+03  0.32906494437E+03  0.39480500823E+03  0.10357001782E+04  0.12699999809E+01 0. -1.
</event>
<event>
 5   0  0.6599245E-06  0.2101923E+04  0.7818609E-02  0.8560397E-01
       -1   -1    0    0    0  501  0.00000000000E+00  0.00000000000E+00  0.71520602343E+03  0.71520602345E+03  0.50400001928E-02 0.  1.
        1   -1    0    0  501    0  0.00000000000E+00  0.00000000000E+00 -0.15443388940E+04  0.15443388940E+04  0.50400001928E-02 0. -1.
    10030    2    1    2    0    0  0.00000000000E+00  0.00000000000E+00 -0.82913287054E+03  0.22595449174E+04  0.21019233851E+04 0.  0.
        2    1    3    3  502    0 -0.23081153790E+02 -0.98588903383E+03 -0.80514501467E+03  0.12730940348E+04  0.25500000920E-02 0. -1.
       -2    1    3    3    0  502  0.23081153790E+02  0.98588903383E+03 -0.23987855877E+02  0.98645088267E+03  0.25500000920E-02 0.  1.
</event>
<event>
 5   0  0.1398469E-05  0.2102546E+04  0.7818609E-02  0.8560123E-01
        2   -1    0    0  501    0  0.00000000000E+00  0.00000000000E+00  0.99461561305E+03  0.99461561306E+03  0.25500000920E-02 0. -1.
       -2   -1    0    0    0  501  0.00000000000E+00  0.00000000000E+00 -0.11111575564E+04  0.11111575564E+04  0.25500000920E-02 0.  1.
    10030    2    1    2    0    0  0.00000000000E+00  0.00000000000E+00 -0.11654194332E+03  0.21057731694E+04  0.21025457466E+04 0.  0.
        2    1    3    3  502    0 -0.28483842604E+03 -0.13342690356E+02 -0.10716856876E+04  0.11089730247E+04  0.25500000920E-02 0.  1.
       -2    1    3    3    0  502  0.28483842604E+03  0.13342690356E+02  0.95514374431E+03  0.99680014478E+03  0.25500000920E-02 0. -1.
</event>
<event>
 5   0  0.6599245E-06  0.2098194E+04  0.7818609E-02  0.8562039E-01
       -1   -1    0    0    0  501  0.00000000000E+00  0.00000000000E+00  0.20018981749E+04  0.20018981749E+04  0.50400001928E-02 0.  1.
        1   -1    0    0  501    0  0.00000000000E+00  0.00000000000E+00 -0.54978070853E+03  0.54978070855E+03  0.50400001928E-02 0. -1.
    10030    2    1    2    0    0  0.00000000000E+00  0.00000000000E+00  0.14521174664E+04  0.25516788835E+04  0.20981944591E+04 0.  0.
        2    1    3    3  502    0 -0.60067365776E+03  0.30883216494E+01  0.17720631511E+04  0.18711029347E+04  0.25500000920E-02 0.  1.
       -2    1    3    3    0  502  0.60067365776E+03 -0.30883216494E+01 -0.31994568470E+03  0.68057594875E+03  0.25500000920E-02 0. -1.
</event>
<event>
 5   0  0.6917078E-06  0.2102510E+04  0.7818609E-02  0.8560139E-01
        1   -1    0    0  501    0  0.00000000000E+00  0.00000000000E+00  0.11101771199E+04  0.11101771199E+04  0.50400001928E-02 0. -1.
       -1   -1    0    0    0  501  0.00000000000E+00  0.00000000000E+00 -0.99545976754E+03  0.99545976755E+03  0.50400001928E-02 0.  1.
    10030    2    1    2    0    0  0.00000000000E+00  0.00000000000E+00  0.11471735232E+03  0.21056368874E+04  0.21025096030E+04 0.  0.
        5    1    3    3  502    0 -0.66265047212E+03  0.80954853302E+03 -0.45945573397E+02  0.10471903176E+04  0.46999998093E+01 0.  1.
       -5    1    3    3    0  502  0.66265047212E+03 -0.80954853302E+03  0.16066292572E+03  0.10584465698E+04  0.46999998093E+01 0. -1.
</event>
<event>
 5   0  0.5009125E-06  0.2115334E+04  0.7818609E-02  0.8554518E-01
       -3   -1    0    0    0  501  0.00000000000E+00  0.00000000000E+00  0.11492933458E+04  0.11492933502E+04  0.10100000352E+00 0.  1.
        3   -1    0    0  501    0  0.00000000000E+00  0.00000000000E+00 -0.97334573634E+03  0.97334574158E+03  0.10100000352E+00 0. -1.
    10030    2    1    2    0    0  0.00000000000E+00  0.00000000000E+00  0.17594760944E+03  0.21226390918E+04  0.21153342886E+04 0.  0.
        4    1    3    3  502    0  0.18651478668E+03  0.66962576626E+03 -0.71194382943E+03  0.99501359873E+03  0.12699999809E+01 0. -1.
       -4    1    3    3    0  502 -0.18651478668E+03 -0.66962576626E+03  0.88789143887E+03  0.11276254931E+04  0.12699999809E+01 0.  1.
</event>
<event>
 5   0  0.1344501E-05  0.2099731E+04  0.7818609E-02  0.8561362E-01
        2   -1    0    0  501    0  0.00000000000E+00  0.00000000000E+00  0.89520200283E+03  0.89520200283E+03  0.25500000920E-02 0. -1.
       -2   -1    0    0    0  501  0.00000000000E+00  0.00000000000E+00 -0.12312498852E+04  0.12312498852E+04  0.25500000920E-02 0.  1.
    10030    2    1    2    0    0  0.00000000000E+00  0.00000000000E+00 -0.33604788235E+03  0.21264518880E+04  0.20997308048E+04 0.  0.
        3    1    3    3  502    0 -0.25713897875E+02 -0.65497039749E+03  0.66251626917E+03  0.93197384258E+03  0.10100000352E+00 0. -1.
       -3    1    3    3    0  502  0.25713897875E+02  0.65497039749E+03 -0.99856415153E+03  0.11944780454E+04  0.10100000352E+00 0.  1.
</event>
<event>
 5   0  0.1344501E-05  0.2099726E+04  0.7818609E-02  0.8561364E-01
        2   -1    0    0  501    0  0.00000000000E+00  0.00000000000E+00  0.12463234459E+04  0.12463234459E+04  0.25500000920E-02 0. -1.
       -2   -1    0    0    0  501  0.00000000000E+00  0.00000000000E+00 -0.88437135193E+03  0.88437135194E+03  0.25500000920E-02 0.  1.
    10030    2    1    2    0    0  0.00000000000E+00  0.00000000000E+00  0.36195209395E+03  0.21306947978E+04  0.20997264115E+04 0.  0.
        3    1    3    3  502    0  0.33045261907E+03 -0.22336539622E+03 -0.80449167695E+03  0.89794092354E+03  0.10100000352E+00 0.  1.
       -3    1    3    3    0  502 -0.33045261907E+03  0.22336539622E+03  0.11664437709E+04  0.12327538743E+04  0.10100000352E+00 0. -1.
</event>
<event>
 5   0  0.1441136E-05  0.2104616E+04  0.7818609E-02  0.8559213E-01
       -2   -1    0    0    0  501  0.00000000000E+00  0.00000000000E+00  0.69496844050E+03  0.69496844051E+03  0.25500000920E-02 0.  1.
        2   -1    0    0  501    0  0.00000000000E+00  0.00000000000E+00 -0.15933847959E+04  0.15933847959E+04  0.25500000920E-02 0. -1.
    10030    2    1    2    0    0  0.00000000000E+00  0.00000000000E+00 -0.89841635539E+03  0.22883532364E+04  0.21046160189E+04 0.  0.
        4    1    3    3  502    0 -0.19314085166E+03 -0.12092321233E+03 -0.15662355718E+04  0.15827259052E+04  0.12699999809E+01 0. -1.
       -4    1    3    3    0  502  0.19314085166E+03  0.12092321233E+03  0.66781921637E+03  0.70562733119E+03  0.12699999809E+01 0.  1.
</event>
<event>
 5   0  0.1344501E-05  0.2102021E+04  0.7818609E-02  0.8560354E-01
        2   -1    0    0  501    0  0.00000000000E+00  0.00000000000E+00  0.14292338712E+04  0.14292338712E+04  0.25500000920E-02 0.  1.
       -2   -1    0    0    0  501  0.00000000000E+00  0.00000000000E+00 -0.77287748989E+03  0.77287748989E+03  0.25500000920E-02 0. -1.
    10030    2    1    2    0    0  0.00000000000E+00  0.00000000000E+00  0.65635638127E+03  0.22021113611E+04  0.21020206344E+04 0.  0.
        3    1    3    3  502    0 -0.73428889915E+03  0.66160051971E+03  0.70258528481E+03  0.12126506206E+04  0.10100000352E+00 0.  1.
       -3    1    3    3    0  502  0.73428889915E+03 -0.66160051971E+03 -0.46228903539E+02  0.98946074042E+03  0.10100000352E+00 0. -1.
</event>
<event>
 5   0  0.1395356E-05  0.2100704E+04  0.7818609E-02  0.8560934E-01
        2   -1    0    0  501    0  0.00000000000E+00  0.00000000000E+00  0.13537974081E+04  0.13537974081E+04  0.25500000920E-02 0. -1.
       -2   -1    0    0    0  501  0.00000000000E+00  0.00000000000E+00 -0.81492164989E+03  0.81492164990E+03  0.25500000920E-02 0.  1.
    10030    2    1    2    0    0  0.00000000000E+00  0.00000000000E+00  0.53887575820E+03  0.21687190580E+04  0.21007035178E+04 0.  0.
        1    1    3    3  502    0 -0.56743708715E+03  0.50918391298E+03 -0.47644019553E+03  0.89902634280E+03  0.50400001928E-02 0.  1.
       -1    1    3    3    0  502  0.56743708715E+03 -0.50918391298E+03  0.10153159537E+04  0.12696927152E+04  0.50400001928E-02 0. -1.
</event>
<event>
 5   0  0.1344501E-05  0.2098626E+04  0.7818609E-02  0.8561849E-01
        2   -1    0    0  501    0  0.00000000000E+00  0.00000000000E+00  0.19156902382E+04  0.19156902382E+04  0.25500000920E-02 0. -1.
       -2   -1    0    0    0  501  0.00000000000E+00  0.00000000000E+00 -0.57475753442E+03  0.57475753442E+03  0.25500000920E-02 0.  1.
    10030    2    1    2    0    0  0.00000000000E+00  0.00000000000E+00  0.13409327038E+04  0.24904477727E+04  0.20986256436E+04 0.  0.
        3    1    3    3  502    0 -0.30793154680E+03  0.27334631718E+03 -0.47488289688E+03  0.62853307199E+03  0.10100000352E+00 0.  1.
       -3    1    3    3    0  502  0.30793154680E+03 -0.27334631718E+03  0.18158156007E+04  0.18619147007E+04  0.10100000352E+00 0. -1.
</event>
<event>
 5   0  0.1390735E-05  0.2100436E+04  0.7818609E-02  0.8561052E-01
        2   -1    0    0  501    0  0.00000000000E+00  0.00000000000E+00  0.14748030949E+04  0.14748030949E+04  0.25500000920E-02 0.  1.
       -2   -1    0    0    0  501  0.00000000000E+00  0.00000000000E+00 -0.74786755880E+03  0.74786755881E+03  0.25500000920E-02 0. -1.
    10030    2    1    2    0    0  0.00000000000E+00  0.00000000000E+00  0.72693553612E+03  0.22226706537E+04  0.21004355647E+04 0.  0.
        5    1    3    3  502    0 -0.39267441306E+03  0.76685941662E+03  0.99897427861E+03  0.13191809045E+04  0.46999998093E+01 0.  1.
       -5    1    3    3    0  502  0.39267441306E+03 -0.76685941662E+03 -0.27203874249E+03  0.90348974922E+03  0.46999998093E+01 0. -1.
</event>
<event>
 5   0  0.6589193E-06  0.2100557E+04  0.7818609E-02  0.8560998E-01
        1   -1    0    0  501    0  0.00000000000E+00  0.00000000000E+00  0.13409333714E+04  0.13409333714E+04  0.50400001928E-02 0. -1.
       -1   -1    0    0    0  501  0.00000000000E+00  0.00000000000E+00 -0.82262458241E+03  0.82262458243E+03  0.50400001928E-02 0.  1.
    10030    2    1    2    0    0  0.00000000000E+00  0.00000000000E+00  0.51830878897E+03  0.21635579538E+04  0.21005568354E+04 0.  0.
        3    1    3    3  502    0  0.20561510315E+03  0.67063823939E+03 -0.54598858866E+03  0.88889637637E+03  0.10100000352E+00 0.  1.
       -3    1    3    3    0  502 -0.20561510315E+03 -0.67063823939E+03  0.10642973776E+04  0.12746615774E+04  0.10100000352E+00 0. -1.
</event>
<event>
 5   0  0.6283269E-06  0.2090694E+04  0.7818609E-02  0.8565354E-01
        1   -1    0    0  501    0  0.00000000000E+00  0.00000000000E+00  0.95866165116E+03  0.95866165117E+03  0.50400001928E-02 0. -1.
       -1   -1    0    0    0  501  0.00000000000E+00  0.00000000000E+00 -0.11398705385E+04  0.11398705385E+04  0.50400001928E-02 0.  1.
    10030    2    1    2    0    0  0.00000000000E+00  0.00000000000E+00 -0.18120888732E+03  0.20985321897E+04  0.20906938299E+04 0.  0.
        1    1    3    3  502    0  0.26306697261E+03  0.70378017286E+03  0.63892125778E+03  0.98627133055E+03  0.50400001928E-02 0. -1.
       -1    1    3    3    0  502 -0.26306697261E+03 -0.70378017286E+03 -0.82013014510E+03  0.11122608591E+04  0.50400001928E-02 0.  1.
</event>
<event>
 5   0  0.6589193E-06  0.2099532E+04  0.7818609E-02  0.8561449E-01
       -1   -1    0    0    0  501  0.00000000000E+00  0.00000000000E+00  0.84318646246E+03  0.84318646247E+03  0.50400001928E-02 0.  1.
        1   -1    0    0  501    0  0.00000000000E+00  0.00000000000E+00 -0.13069574277E+04  0.13069574277E+04  0.50400001928E-02 0. -1.
    10030    2    1    2    0    0  0.00000000000E+00  0.00000000000E+00 -0.46377096526E+03  0.21501438902E+04  0.20995321480E+04 0.  0.
        3    1    3    3  502    0 -0.35115463173E+03 -0.93067413189E+03  0.11167869567E+03  0.10009675601E+04  0.10100000352E+00 0.  1.
       -3    1    3    3    0  502  0.35115463173E+03  0.93067413189E+03 -0.57544966093E+03  0.11491763301E+04  0.10100000352E+00 0. -1.
</event>
<event>
 5   0  0.6283269E-06  0.2100420E+04  0.7818609E-02  0.8561059E-01
        1   -1    0    0  501    0  0.00000000000E+00  0.00000000000E+00  0.14834249360E+04  0.14834249360E+04  0.50400001928E-02 0.  1.
       -1   -1    0    0    0  501  0.00000000000E+00  0.00000000000E+00 -0.74350952019E+03  0.74350952021E+03  0.50400001928E-02 0. -1.
    10030    2    1    2    0    0  0.00000000000E+00  0.00000000000E+00  0.73991541583E+03  0.22269344562E+04  0.21004195414E+04 0.  0.
        1    1    3    3  502    0  0.12722128487E+03 -0.85400995870E+03  0.10038160435E+04  0.13240713403E+04  0.50400001928E-02 0.  1.
       -1    1    3    3    0  502 -0.12722128487E+03  0.85400995870E+03 -0.26390062768E+03  0.90286311598E+03  0.50400001928E-02 0. -1.
</event>
<event>
 5   0  0.6238363E-06  0.2097404E+04  0.7818609E-02  0.8562388E-01
        1   -1    0    0  501    0  0.00000000000E+00  0.00000000000E+00  0.15561593127E+04  0.15561593127E+04  0.50400001928E-02 0.  1.
       -1   -1    0    0    0  501  0.00000000000E+00  0.00000000000E+00 -0.70672448739E+03  0.70672448740E+03  0.50400001928E-02 0. -1.
    10030    2    1    2    0    0  0.00000000000E+00  0.00000000000E+00  0.84943482532E+03  0.22628838001E+04  0.20974040074E+04 0.  0.
        4    1    3    3  502    0  0.94490006689E+02 -0.21443733187E+03 -0.67811555796E+03  0.71746362521E+03  0.12699999809E+01 0. -1.
       -4    1    3    3    0  502 -0.94490006689E+02  0.21443733187E+03  0.15275503833E+04  0.15454201749E+04  0.12699999809E+01 0.  1.
</event>
<event>
 5   0  0.1441136E-05  0.2100665E+04  0.7818609E-02  0.8560950E-01
       -2   -1    0    0    0  501  0.00000000000E+00  0.00000000000E+00  0.13516758225E+04  0.13516758225E+04  0.25500000920E-02 0. -1.
        2   -1    0    0  501    0  0.00000000000E+00  0.00000000000E+00 -0.81617114023E+03  0.81617114024E+03  0.25500000920E-02 0.  1.
    10030    2    1    2    0    0  0.00000000000E+00  0.00000000000E+00  0.53550468228E+03  0.21678469627E+04  0.21006654158E+04 0.  0.
        4    1    3    3  502    0 -0.68713050927E+03 -0.78382482668E+03  0.13452087119E+03  0.10510124516E+04  0.12699999809E+01 0. -1.
       -4    1    3    3    0  502  0.68713050927E+03  0.78382482668E+03  0.40098381108E+03  0.11168345112E+04  0.12699999809E+01 0.  1.
</event>
<event>
 5   0  0.1390735E-05  0.2101923E+04  0.7818609E-02  0.8560397E-01
        2   -1    0    0  501    0  0.00000000000E+00  0.00000000000E+00  0.27942437169E+04  0.27942437169E+04  0.25500000920E-02 0. -1.
       -2   -1    0    0    0  501  0.00000000000E+00  0.00000000000E+00 -0.39528418291E+03  0.39528418292E+03  0.25500000920E-02 0.  1.
    10030    2    1    2    0    0  0.00000000000E+00  0.00000000000E+00  0.23989595340E+04  0.31895278999E+04  0.21019232569E+04 0.  0.
        5    1    3    3  502    0 -0.95511627434E+03  0.43436287344E+03  0.12902731436E+04  0.16630529392E+04  0.46999998093E+01 0.  1.
       -5    1    3    3    0  502  0.95511627434E+03 -0.43436287344E+03  0.11086863904E+04  0.15264749607E+04  0.46999998093E+01 0. -1.
</event>
<event>
 5   0  0.6238363E-06  0.2102062E+04  0.7818609E-02  0.8560336E-01
       -1   -1    0    0    0  501  0.00000000000E+00  0.00000000000E+00  0.73380104483E+03  0.73380104484E+03  0.50400001928E-02 0. -1.
        1   -1    0    0  501    0  0.00000000000E+00  0.00000000000E+00 -0.15054027698E+04  0.15054027698E+04  0.50400001928E-02 0.  1.
    10030    2    1    2    0    0  0.00000000000E+00  0.00000000000E+00 -0.77160172500E+03  0.22392038147E+04  0.21020619643E+04 0.  0.
        4    1    3    3  502    0  0.78638345221E+03  0.52060159980E+03 -0.88000815777E+03  0.12898995815E+04  0.12699999809E+01 0.  1.
       -4    1    3    3    0  502 -0.78638345221E+03 -0.52060159980E+03  0.10840643277E+03  0.94930423321E+03  0.12699999809E+01 0. -1.
</event>
<event>
 5   0  0.1344501E-05  0.2098552E+04  0.7818609E-02  0.8561882E-01
       -2   -1    0    0    0  501  0.00000000000E+00  0.00000000000E+00  0.98614085825E+03  0.98614085826E+03  0.25500000920E-02 0. -1.
        2   -1    0    0  501    0  0.00000000000E+00  0.00000000000E+00 -0.11164530829E+04  0.11164530829E+04  0.25500000920E-02 0.  1.
    10030    2    1    2    0    0  0.00000000000E+00  0.00000000000E+00 -0.13031222461E+03  0.21025939411E+04  0.20985518829E+04 0.  0.
        3    1    3    3  502    0  0.26318361508E+03  0.95415442331E+03 -0.41411377861E+03  0.10729242800E+04  0.10100000352E+00 0.  1.
       -3    1    3    3    0  502 -0.26318361508E+03 -0.95415442331E+03  0.28380155400E+03  0.10296696611E+04  0.10100000352E+00 0. -1.
</event>
<event>
 5   0  0.1395356E-05  0.2097643E+04  0.7818609E-02  0.8562282E-01
        2   -1    0    0  501    0  0.00000000000E+00  0.00000000000E+00  0.82638591882E+03  0.82638591883E+03  0.25500000920E-02 0.  1.
       -2   -1    0    0    0  501  0.00000000000E+00  0.00000000000E+00 -0.13311296997E+04  0.13311296997E+04  0.25500000920E-02 0. -1.
    10030    2    1    2    0    0  0.00000000000E+00  0.00000000000E+00 -0.50474378088E+03  0.21575156185E+04  0.20976432871E+04 0.  0.
        1    1    3    3  502    0  0.68139789173E+03  0.49557532359E+03  0.39005889828E+03  0.92846321002E+03  0.50400001928E-02 0. -1.
       -1    1    3    3    0  502 -0.68139789173E+03 -0.49557532359E+03 -0.89480267916E+03  0.12290524085E+04  0.50400001928E-02 0.  1.
</event>
<event>
 5   0  0.1398469E-05  0.2101460E+04  0.7818609E-02  0.8560601E-01
        2   -1    0    0  501    0  0.00000000000E+00  0.00000000000E+00  0.18631508239E+04  0.18631508239E+04  0.25500000920E-02 0. -1.
       -2   -1    0    0    0  501  0.00000000000E+00  0.00000000000E+00 -0.59256257418E+03  0.59256257419E+03  0.25500000920E-02 0.  1.
    10030    2    1    2    0    0  0.00000000000E+00  0.00000000000E+00  0.12705882498E+04  0.24557133981E+04  0.21014599195E+04 0.  0.
        2    1    3    3  502    0 -0.96391137692E+03  0.22115112078E+02  0.14725600218E+03  0.97534534957E+03  0.25500000920E-02 0.  1.
       -2    1    3    3    0  502  0.96391137692E+03 -0.22115112078E+02  0.11233322476E+04  0.14803680486E+04  0.25500000920E-02 0. -1.
</event>
<event>
 5   0  0.5009125E-06  0.2100087E+04  0.7818609E-02  0.8561205E-01
       -4   -1    0    0    0  501  0.00000000000E+00  0.00000000000E+00  0.14223331173E+04  0.14223336843E+04  0.12699999809E+01 0.  1.
        4   -1    0    0  501    0  0.00000000000E+00  0.00000000000E+00 -0.77519798231E+03  0.77519902263E+03  0.12699999809E+01 0. -1.
    10030    2    1    2    0    0  0.00000000000E+00  0.00000000000E+00  0.64713513499E+03  0.21975327069E+04  0.21000871684E+04 0.  0.
        5    1    3    3  502    0 -0.46060734373E+03  0.27810260998E+03  0.12671107804E+04  0.13766234076E+04  0.46999998093E+01 0.  1.
       -5    1    3    3    0  502  0.46060734373E+03 -0.27810260998E+03 -0.61997564538E+03  0.82090929927E+03  0.46999998093E+01 0. -1.
</event>
<event>
 5   0  0.6238363E-06  0.2104539E+04  0.7818609E-02  0.8559247E-01
        1   -1    0    0  501    0  0.00000000000E+00  0.00000000000E+00  0.21385723497E+04  0.21385723497E+04  0.50400001928E-02 0.  1.
       -1   -1    0    0    0  501  0.00000000000E+00  0.00000000000E+00 -0.51776166280E+03  0.51776166282E+03  0.50400001928E-02 0. -1.
    10030    2    1    2    0    0  0.00000000000E+00  0.00000000000E+00  0.16208106869E+04  0.26563340125E+04  0.21045386913E+04 0.  0.
        4    1    3    3  502    0  0.84352093217E+03  0.27020064209E+03  0.15274523042E+04  0.17656862985E+04  0.12699999809E+01 0. -1.
       -4    1    3    3    0  502 -0.84352093217E+03 -0.27020064209E+03  0.93358382649E+02  0.89064771403E+03  0.12699999809E+01 0.  1.
</event>
<event>
 5   0  0.1390735E-05  0.2100156E+04  0.7818609E-02  0.8561175E-01
        2   -1    0    0  501    0  0.00000000000E+00  0.00000000000E+00  0.28564146208E+04  0.28564146208E+04  0.25500000920E-02 0. -1.
       -2   -1    0    0    0  501  0.00000000000E+00  0.00000000000E+00 -0.38603064501E+03  0.38603064502E+03  0.25500000920E-02 0.  1.
    10030    2    1    2    0    0  0.00000000000E+00  0.00000000000E+00  0.24703839758E+04  0.32424452658E+04  0.21001557833E+04 0.  0.
        5    1    3    3  502    0 -0.31586290547E+03 -0.18396012717E+03 -0.28462022565E+03  0.46329414661E+03  0.46999998093E+01 0.  1.
       -5    1    3    3    0  502  0.31586290547E+03  0.18396012717E+03  0.27550042015E+04  0.27791511192E+04  0.46999998093E+01 0. -1.
</event>
<event>
 5   0  0.1390735E-05  0.2102545E+04  0.7818609E-02  0.8560123E-01
        2   -1    0    0  501    0  0.00000000000E+00  0.00000000000E+00  0.10178909563E+04  0.10178909563E+04  0.25500000920E-02 0. -1.
       -2   -1    0    0    0  501  0.00000000000E+00  0.00000000000E+00 -0.10857492050E+04  0.10857492050E+04  0.25500000920E-02 0.  1.
    10030    2    1    2    0    0  0.00000000000E+00  0.00000000000E+00 -0.67858248730E+02  0.21036401613E+04  0.21025454064E+04 0.  0.
        5    1    3    3  502    0  0.51822143748E+03  0.47333021149E+03 -0.81699701333E+03  0.10770799214E+04  0.46999998093E+01 0.  1.
       -5    1    3    3    0  502 -0.51822143748E+03 -0.47333021149E+03  0.74913876459E+03  0.10265602398E+04  0.46999998093E+01 0. -1.
</event>
<event>
 5   0  0.6917078E-06  0.2099586E+04  0.7818609E-02  0.8561426E-01
        1   -1    0    0  501    0  0.00000000000E+00  0.00000000000E+00  0.11383370014E+04  0.11383370014E+04  0.50400001928E-02 0.  1.
       -1   -1    0    0    0  501  0.00000000000E+00  0.00000000000E+00 -0.96813605524E+03  0.96813605525E+03  0.50400001928E-02 0. -1.
    10030    2    1    2    0    0  0.00000000000E+00  0.00000000000E+00  0.17020094614E+03  0.21064730566E+04  0.20995857630E+04 0.  0.
        5    1    3    3  502    0 -0.43365954399E+03 -0.90960999074E+03 -0.21013011187E+03  0.10293821881E+04  0.46999998093E+01 0.  1.
       -5    1    3    3    0  502  0.43365954399E+03  0.90960999074E+03  0.38033105801E+03  0.10770908685E+04  0.46999998093E+01 0. -1.
</event>
<event>
 5   0  0.6238363E-06  0.2098243E+04  0.7818609E-02  0.8562018E-01
        1   -1    0    0  501    0  0.00000000000E+00  0.00000000000E+00  0.80524197191E+03  0.80524197193E+03  0.50400001928E-02 0.  1.
       -1   -1    0    0    0  501  0.00000000000E+00  0.00000000000E+00 -0.13668633559E+04  0.13668633559E+04  0.50400001928E-02 0. -1.
    10030    2    1    2    0    0  0.00000000000E+00  0.00000000000E+00 -0.56162138399E+03  0.21721053278E+04  0.20982428306E+04 0.  0.
        4    1    3    3  502    0  0.38513890086E+03 -0.37108131804E+03 -0.12151462650E+04  0.13276352570E+04  0.12699999809E+01 0. -1.
       -4    1    3    3    0  502 -0.38513890086E+03  0.37108131804E+03  0.65352488097E+03  0.84447007081E+03  0.12699999809E+01 0.  1.
</event>
<event>
 5   0  0.6589193E-06  0.2100049E+04  0.7818609E-02  0.8561222E-01
        1   -1    0    0  501    0  0.00000000000E+00  0.00000000000E+00  0.12808836798E+04  0.12808836798E+04  0.50400001928E-02 0. -1.
       -1   -1    0    0    0  501  0.00000000000E+00  0.00000000000E+00 -0.86077432188E+03  0.86077432189E+03  0.50400001928E-02 0.  1.
    10030    2    1    2    0    0  0.00000000000E+00  0.00000000000E+00  0.42010935794E+03  0.21416580017E+04  0.21000493146E+04 0.  0.
        3    1    3    3  502    0  0.59636316193E+03 -0.38881161241E+03  0.99718154425E+03  0.12252324405E+04  0.10100000352E+00 0. -1.
       -3    1    3    3    0  502 -0.59636316193E+03  0.38881161241E+03 -0.57707218631E+03  0.91642556123E+03  0.10100000352E+00 0.  1.
</event>
<event>
 5   0  0.6917078E-06  0.2100827E+04  0.7818609E-02  0.8560879E-01
       -1   -1    0    0    0  501  0.00000000000E+00  0.00000000000E+00  0.76427638507E+03  0.76427638508E+03  0.50400001928E-02 0.  1.
        1   -1    0    0  501    0  0.00000000000E+00  0.00000000000E+00 -0.14436770371E+04  0.14436770371E+04  0.50400001928E-02 0. -1.
    10030    2    1    2    0    0  0.00000000000E+00  0.00000000000E+00 -0.67940065203E+03  0.22079534222E+04  0.21008267583E+04 0.  0.
        5    1    3    3  502    0  0.51065994621E+03  0.88141134794E+03 -0.60906346537E+03  0.11868613819E+04  0.46999998093E+01 0.  1.
       -5    1    3    3    0  502 -0.51065994621E+03 -0.88141134794E+03 -0.70337186653E+02  0.10210920403E+04  0.46999998093E+01 0. -1.
</event>
<event>
 5   0  0.6283269E-06  0.2101804E+04  0.7818609E-02  0.8560449E-01
       -1   -1    0    0    0  501  0.00000000000E+00  0.00000000000E+00  0.98256389958E+03  0.98256389959E+03  0.50400001928E-02 0.  1.
        1   -1    0    0  501    0  0.00000000000E+00  0.00000000000E+00 -0.11239929451E+04  0.11239929451E+04  0.50400001928E-02 0. -1.
    10030    2    1    2    0    0  0.00000000000E+00  0.00000000000E+00 -0.14142904548E+03  0.21065568447E+04  0.21018038835E+04 0.  0.
        1    1    3    3  502    0  0.40302753875E+02  0.85886779065E+03 -0.67632982484E+03  0.10939379442E+04  0.50400001928E-02 0. -1.
       -1    1    3    3    0  502 -0.40302753875E+02 -0.85886779065E+03  0.53490077936E+03  0.10126189005E+04  0.50400001928E-02 0.  1.
</event>
<event>
 5   0  0.5009125E-06  0.2101389E+04  0.7818609E-02  0.8560632E-01
        3   -1    0    0  501    0  0.00000000000E+00  0.00000000000E+00  0.21167598253E+04  0.21167598277E+04  0.10100000352E+00 0. -1.
       -3   -1    0    0    0  501  0.00000000000E+00  0.00000000000E+00 -0.52153227047E+03  0.52153228025E+03  0.10100000352E+00 0.  1.
    10030    2    1    2    0    0  0.00000000000E+00  0.00000000000E+00  0.15952275548E+04  0.26382921079E+04  0.21013886588E+04 0.  0.
        4    1    3    3  502    0  0.28550555745E+03  0.10018076886E+04  0.96987310476E+03  0.14233016267E+04  0.12699999809E+01 0.  1.
       -4    1    3    3    0  502 -0.28550555745E+03 -0.10018076886E+04  0.62535445003E+03  0.12149904812E+04  0.12699999809E+01 0. -1.
</event>
<event>
 5   0  0.1395356E-05  0.2102597E+04  0.7818609E-02  0.8560100E-01
        2   -1    0    0  501    0  0.00000000000E+00  0.00000000000E+00  0.20810253379E+04  0.20810253379E+04  0.25500000920E-02 0.  1.
       -2   -1    0    0    0  501  0.00000000000E+00  0.00000000000E+00 -0.53109831644E+03  0.53109831644E+03  0.25500000920E-02 0. -1.
    10030    2    1    2    0    0  0.00000000000E+00  0.00000000000E+00  0.15499270215E+04  0.26121236543E+04  0.21025974921E+04 0.  0.
        1    1    3    3  502    0  0.80587764775E+03  0.61459882774E+03  0.42786892988E+03  0.11001101415E+04  0.50400001928E-02 0.  1.
       -1    1    3    3    0  502 -0.80587764775E+03 -0.61459882774E+03  0.11220580916E+04  0.15120135129E+04  0.50400001928E-02 0. -1.
</event>
<event>
 5   0  0.6283269E-06  0.2097232E+04  0.7818609E-02  0.8562464E-01
       -1   -1    0    0    0  501  0.00000000000E+00  0.00000000000E+00  0.94565529591E+03  0.94565529593E+03  0.50400001928E-02 0. -1.
        1   -1    0    0  501    0  0.00000000000E+00  0.00000000000E+00 -0.11627862983E+04  0.11627862983E+04  0.50400001928E-02 0.  1.
    10030    2    1    2    0    0  0.00000000000E+00  0.00000000000E+00 -0.21713100236E+03  0.21084415942E+04  0.20972315285E+04 0.  0.
        1    1    3    3  502    0 -0.35449336307E+03  0.54694551124E+03  0.71727528017E+03  0.96917426931E+03  0.50400001928E-02 0. -1.
       -1    1    3    3    0  502  0.35449336307E+03 -0.54694551124E+03 -0.93440628253E+03  0.11392673249E+04  0.50400001928E-02 0.  1.
</event>
<event>
 5   0  0.1441136E-05  0.2098632E+04  0.7818609E-02  0.8561846E-01
       -2   -1    0    0    0  501  0.00000000000E+00  0.00000000000E+00  0.94334456873E+03  0.94334456873E+03  0.25500000920E-02 0. -1.
        2   -1    0    0  501    0  0.00000000000E+00  0.00000000000E+00 -0.11671918682E+04  0.11671918682E+04  0.25500000920E-02 0.  1.
    10030    2    1    2    0    0  0.00000000000E+00  0.00000000000E+00 -0.22384729944E+03  0.21105364369E+04  0.20986320397E+04 0.  0.
        4    1    3    3  502    0 -0.31227734215E+03  0.81578479152E+02  0.89218392360E+03  0.94877075899E+03  0.12699999809E+01 0. -1.
       -4    1    3    3    0  502  0.31227734215E+03 -0.81578479152E+02 -0.11160312230E+04  0.11617656779E+04  0.12699999809E+01 0.  1.
</event>
<event>
 5   0  0.1390735E-05  0.2101901E+04  0.7818609E-02  0.8560406E-01
       -2   -1    0    0    0  501  0.00000000000E+00  0.00000000000E+00  0.99392254157E+03  0.99392254157E+03  0.25500000920E-02 0.  1.
        2   -1    0    0  501    0  0.00000000000E+00  0.00000000000E+00 -0.11112509532E+04  0.11112509532E+04  0.25500000920E-02 0. -1.
    10030    2    1    2    0    0  0.00000000000E+00  0.00000000000E+00 -0.11732841168E+03  0.21051734948E+04  0.21019013980E+04 0.  0.
        5    1    3    3  502    0 -0.84248363335E+03 -0.26223088540E+03  0.51312870949E+03  0.10207188017E+04  0.46999998093E+01 0.  1.
       -5    1    3    3    0  502  0.84248363335E+03  0.26223088540E+03 -0.63045712117E+03  0.10844546931E+04  0.46999998093E+01 0. -1.
</event>
<event>
 5   0  0.6599245E-06  0.2100816E+04  0.7818609E-02  0.8560884E-01
        1   -1    0    0  501    0  0.00000000000E+00  0.00000000000E+00  0.14407035113E+04  0.14407035113E+04  0.50400001928E-02 0. -1.
       -1   -1    0    0    0  501  0.00000000000E+00  0.00000000000E+00 -0.76584576363E+03  0.76584576365E+03  0.50400001928E-02 0.  1.
    10030    2    1    2    0    0  0.00000000000E+00  0.00000000000E+00  0.67485774764E+03  0.22065492749E+04  0.21008157280E+04 0.  0.
        2    1    3    3  502    0 -0.66966593740E+03 -0.37519521911E+03  0.10905473619E+04  0.13336106886E+04  0.25500000920E-02 0. -1.
       -2    1    3    3    0  502  0.66966593740E+03  0.37519521911E+03 -0.41568961424E+03  0.87293858636E+03  0.25500000920E-02 0.  1.
</event>
<event>
 5   0  0.6283269E-06  0.2099949E+04  0.7818609E-02  0.8561266E-01
        1   -1    0    0  501    0  0.00000000000E+00  0.00000000000E+00  0.19569315462E+04  0.19569315462E+04  0.50400001928E-02 0.  1.
       -1   -1    0    0    0  501  0.00000000000E+00  0.00000000000E+00 -0.56335460759E+03  0.56335460762E+03  0.50400001928E-02 0. -1.
    10030    2    1    2    0    0  0.00000000000E+00  0.00000000000E+00  0.13935769386E+04  0.25202861539E+04  0.20999489550E+04 0.  0.
        1    1    3    3  502    0 -0.41611407476E+03 -0.17677514313E+03 -0.44055179326E+03  0.63125767878E+03  0.50400001928E-02 0. -1.
       -1    1    3    3    0  502  0.41611407476E+03  0.17677514313E+03  0.18341287319E+04  0.18890284751E+04  0.50400001928E-02 0.  1.
</event>
<event>
 5   0  0.1398469E-05  0.2100950E+04  0.7818609E-02  0.8560825E-01
       -2   -1    0    0    0  501  0.00000000000E+00  0.00000000000E+00  0.11864432796E+04  0.11864432796E+04  0.25500000920E-02 0. -1.
        2   -1    0    0  501    0  0.00000000000E+00  0.00000000000E+00 -0.93008857115E+03  0.93008857115E+03  0.25500000920E-02 0.  1.
    10030    2    1    2    0    0  0.00000000000E+00  0.00000000000E+00  0.25635470848E+03  0.21165318508E+04  0.21009496279E+04 0.  0.
        2    1    3    3  502    0  0.43777645591E+02  0.85966550412E+03  0.73476946941E+03  0.11317364686E+04  0.25500000920E-02 0. -1.
       -2    1    3    3    0  502 -0.43777645591E+02 -0.85966550412E+03 -0.47841476093E+03  0.98479538216E+03  0.25500000920E-02 0.  1.
</event>
<event>
 5   0  0.6589193E-06  0.2099063E+04  0.7818609E-02  0.8561656E-01
        1   -1    0    0  501    0  0.00000000000E+00  0.00000000000E+00  0.19864128994E+04  0.19864128994E+04  0.50400001928E-02 0. -1.
       -1   -1    0    0    0  501  0.00000000000E+00  0.00000000000E+00 -0.55452534881E+03  0.55452534883E+03  0.50400001928E-02 0.  1.
    10030    2    1    2    0    0  0.00000000000E+00  0.00000000000E+00  0.14318875506E+04  0.25409382483E+04  0.20990629395E+04 0.  0.
        3    1    3    3  502    0 -0.80092640265E+03  0.67820080475E+03  0.70533112655E+03  0.12644886090E+04  0.10100000352E+00 0. -1.
       -3    1    3    3    0  502  0.80092640265E+03 -0.67820080475E+03  0.72655642408E+03  0.12764496393E+04  0.10100000352E+00 0.  1.
</event>
<event>
 5   0  0.6589193E-06  0.2103943E+04  0.7818609E-02  0.8559508E-01
        1   -1    0    0  501    0  0.00000000000E+00  0.00000000000E+00  0.20303952209E+04  0.20303952209E+04  0.50400001928E-02 0.  1.
       -1   -1    0    0    0  501  0.00000000000E+00  0.00000000000E+00 -0.54503880520E+03  0.54503880522E+03  0.50400001928E-02 0. -1.
    10030    2    1    2    0    0  0.00000000000E+00  0.00000000000E+00  0.14853564157E+04  0.25754340261E+04  0.21039431412E+04 0.  0.
        3    1    3    3  502    0 -0.37241568270E+02 -0.55443061032E+03 -0.35072627145E+03  0.65710666086E+03  0.10100000352E+00 0. -1.
       -3    1    3    3    0  502  0.37241568270E+02  0.55443061032E+03  0.18360826872E+04  0.19183273653E+04  0.10100000352E+00 0.  1.
</event>
<event>
 5   0  0.1398469E-05  0.2098452E+04  0.7818609E-02  0.8561926E-01
       -2   -1    0    0    0  501  0.00000000000E+00  0.00000000000E+00  0.90678573226E+03  0.90678573226E+03  0.25500000920E-02 0.  1.
        2   -1    0    0  501    0  0.00000000000E+00  0.00000000000E+00 -0.12140412428E+04  0.12140412428E+04  0.25500000920E-02 0. -1.
    10030    2    1    2    0    0  0.00000000000E+00  0.00000000000E+00 -0.30725551057E+03  0.21208269751E+04  0.20984520746E+04 0.  0.
        2    1    3    3  502    0 -0.44672638423E+03  0.39772160886E+03  0.71761282297E+03  0.93419222016E+03  0.25500000920E-02 0.  1.
       -2    1    3    3    0  502  0.44672638423E+03 -0.39772160886E+03 -0.10248683335E+04  0.11866347549E+04  0.25500000920E-02 0. -1.
</event>
<event>
 5   0  0.6589193E-06  0.2094727E+04  0.7818609E-02  0.8563570E-01
       -1   -1    0    0    0  501  0.00000000000E+00  0.00000000000E+00  0.96373367664E+03  0.96373367665E+03  0.50400001928E-02 0. -1.
        1   -1    0    0  501    0  0.00000000000E+00  0.00000000000E+00 -0.11382505712E+04  0.11382505712E+04  0.50400001928E-02 0.  1.
    10030    2    1    2    0    0  0.00000000000E+00  0.00000000000E+00 -0.17451689453E+03  0.21019842478E+04  0.20947271020E+04 0.  0.
        3    1    3    3  502    0 -0.38816676570E+03 -0.97109781406E+03 -0.14460532527E+03  0.10557533390E+04  0.10100000352E+00 0.  1.
       -3    1    3    3    0  502  0.38816676570E+03  0.97109781406E+03 -0.29911569258E+02  0.10462309089E+04  0.10100000352E+00 0. -1.
</event>
<event>
 5   0  0.1344501E-05  0.2099170E+04  0.7818609E-02  0.8561609E-01
       -2   -1    0    0    0  501  0.00000000000E+00  0.00000000000E+00  0.11553172070E+04  0.11553172070E+04  0.25500000920E-02 0. -1.
        2   -1    0    0  501    0  0.00000000000E+00  0.00000000000E+00 -0.95352873824E+03  0.95352873825E+03  0.25500000920E-02 0.  1.
    10030    2    1    2    0    0  0.00000000000E+00  0.00000000000E+00  0.20178846872E+03  0.21088459452E+04  0.20991695107E+04 0.  0.
        3    1    3    3  502    0  0.77215863235E+03  0.39438375234E+03  0.69511099154E+03  0.11112816018E+04  0.10100000352E+00 0. -1.
       -3    1    3    3    0  502 -0.77215863235E+03 -0.39438375234E+03 -0.49332252282E+03  0.99756434346E+03  0.10100000352E+00 0.  1.
</event>
<event>
 5   0  0.1344501E-05  0.2123307E+04  0.7818609E-02  0.8551045E-01
        2   -1    0    0  501    0  0.00000000000E+00  0.00000000000E+00  0.20991672744E+04  0.20991672744E+04  0.25500000920E-02 0. -1.
       -2   -1    0    0    0  501  0.00000000000E+00  0.00000000000E+00 -0.53693095763E+03  0.53693095763E+03  0.25500000920E-02 0.  1.
    10030    2    1    2    0    0  0.00000000000E+00  0.00000000000E+00  0.15622363168E+04  0.26360982320E+04  0.21233067559E+04 0.  0.
        3    1    3    3  502    0  0.61380773204E+03  0.74487366792E+03  0.13300704942E+04  0.16433758678E+04  0.10100000352E+00 0. -1.
       -3    1    3    3    0  502 -0.61380773204E+03 -0.74487366792E+03  0.23216582256E+03  0.99272236423E+03  0.10100000352E+00 0.  1.
</event>
<event>
 5   0  0.1398469E-05  0.2100818E+04  0.7818609E-02  0.8560883E-01
        2   -1    0    0  501    0  0.00000000000E+00  0.00000000000E+00  0.16483030472E+04  0.16483030472E+04  0.25500000920E-02 0. -1.
       -2   -1    0    0    0  501  0.00000000000E+00  0.00000000000E+00 -0.66939067815E+03  0.66939067815E+03  0.25500000920E-02 0.  1.
    10030    2    1    2    0    0  0.00000000000E+00  0.00000000000E+00  0.97891236902E+03  0.23176937253E+04  0.21008176452E+04 0.  0.
        2    1    3    3  502    0  0.83955625033E+03 -0.34243478347E+03 -0.95614177652E+02  0.91173370530E+03  0.25500000920E-02 0.  1.
       -2    1    3    3    0  502 -0.83955625033E+03  0.34243478347E+03  0.10745265467E+04  0.14059600200E+04  0.25500000920E-02 0. -1.
</event>
<event>
 5   0  0.6238363E-06  0.2102755E+04  0.7818609E-02  0.8560031E-01
       -1   -1    0    0    0  501  0.00000000000E+00  0.00000000000E+00  0.53904512342E+03  0.53904512344E+03  0.50400001928E-02 0.  1.
        1   -1    0    0  501    0  0.00000000000E+00  0.00000000000E+00 -0.20506526908E+04  0.20506526908E+04  0.50400001928E-02 0. -1.
    10030    2    1    2    0    0  0.00000000000E+00  0.00000000000E+00 -0.15116075674E+04  0.25896978142E+04  0.21027547007E+04 0.  0.
        4    1    3    3  502    0 -0.37225370480E+03 -0.56196497941E+03 -0.17495055515E+04  0.18748729947E+04  0.12699999809E+01 0. -1.
       -4    1    3    3    0  502  0.37225370480E+03  0.56196497941E+03  0.23789798411E+03  0.71482481950E+03  0.12699999809E+01 0.  1.
</event>
<event>
 5   0  0.1395356E-05  0.2096036E+04  0.7818609E-02  0.8562992E-01
       -2   -1    0    0    0  501  0.00000000000E+00  0.00000000000E+00  0.85828247032E+03  0.85828247033E+03  0.25500000920E-02 0.  1.
        2   -1    0    0  501    0  0.00000000000E+00  0.00000000000E+00 -0.12796971236E+04  0.12796971236E+04  0.25500000920E-02 0. -1.
    10030    2    1    2    0    0  0.00000000000E+00  0.00000000000E+00 -0.42141465330E+03  0.21379795940E+04  0.20960358857E+04 0.  0.
        1    1    3    3  502    0  0.84957052236E+03  0.20632784421E+03  0.37878520491E+03  0.95279561462E+03  0.50400001928E-02 0.  1.
       -1    1    3    3    0  502 -0.84957052236E+03 -0.20632784421E+03 -0.80019985821E+03  0.11851839793E+04  0.50400001928E-02 0. -1.
</event>
<event>
 5   0  0.1398469E-05  0.2090432E+04  0.7818609E-02  0.8565470E-01
        2   -1    0    0  501    0  0.00000000000E+00  0.00000000000E+00  0.15698268117E+04  0.15698268117E+04  0.25500000920E-02 0.  1.
       -2   -1    0    0    0  501  0.00000000000E+00  0.00000000000E+00 -0.69592195417E+03  0.69592195417E+03  0.25500000920E-02 0. -1.
    10030    2    1    2    0    0  0.00000000000E+00  0.00000000000E+00  0.87390485749E+03  0.22657487658E+04  0.20904324361E+04 0.  0.
        2    1    3    3  502    0 -0.10548857376E+03 -0.22509486158E+03 -0.66341528051E+03  0.70845985795E+03  0.25500000920E-02 0. -1.
       -2    1    3    3    0  502  0.10548857376E+03  0.22509486158E+03  0.15373201380E+04  0.15572889079E+04  0.25500000920E-02 0.  1.
</event>
<event>
 5   0  0.1395356E-05  0.2103309E+04  0.7818609E-02  0.8559787E-01
       -2   -1    0    0    0  501  0.00000000000E+00  0.00000000000E+00  0.61211996778E+03  0.61211996779E+03  0.25500000920E-02 0.  1.
        2   -1    0    0  501    0  0.00000000000E+00  0.00000000000E+00 -0.18067982532E+04  0.18067982532E+04  0.25500000920E-02 0. -1.
    10030    2    1    2    0    0  0.00000000000E+00  0.00000000000E+00 -0.11946782854E+04  0.24189182210E+04  0.21033090962E+04 0.  0.
        1    1    3    3  502    0  0.12210567228E+03  0.58476606492E+03  0.39804946012E+03  0.71784714154E+03  0.50400001928E-02 0.  1.
       -1    1    3    3    0  502 -0.12210567228E+03 -0.58476606492E+03 -0.15927277455E+04  0.17010710794E+04  0.50400001928E-02 0. -1.
</event>
<event>
 5   0  0.1344501E-05  0.2102874E+04  0.7818609E-02  0.8559978E-01
       -2   -1    0    0    0  501  0.00000000000E+00  0.00000000000E+00  0.10860735379E+04  0.10860735379E+04  0.25500000920E-02 0.  1.
        2   -1    0    0  501    0  0.00000000000E+00  0.00000000000E+00 -0.10179049075E+04  0.10179049075E+04  0.25500000920E-02 0. -1.
    10030    2    1    2    0    0  0.00000000000E+00  0.00000000000E+00  0.68168630395E+02  0.21039784454E+04  0.21028738280E+04 0.  0.
        3    1    3    3  502    0 -0.24780679374E+03 -0.10147160044E+04  0.15440885845E+03  0.10558877224E+04  0.10100000352E+00 0.  1.
       -3    1    3    3    0  502  0.24780679374E+03  0.10147160044E+04 -0.86240228056E+02  0.10480907230E+04  0.10100000352E+00 0. -1.
</event>
<event>
 5   0  0.6599245E-06  0.2099518E+04  0.7818609E-02  0.8561456E-01
       -1   -1    0    0    0  501  0.00000000000E+00  0.00000000000E+00  0.11906569538E+04  0.11906569538E+04  0.50400001928E-02 0.  1.
        1   -1    0    0  501    0  0.00000000000E+00  0.00000000000E+00 -0.92553441622E+03  0.92553441623E+03  0.50400001928E-02 0. -1.
    10030    2    1    2    0    0  0.00000000000E+00  0.00000000000E+00  0.26512253758E+03  0.21161913700E+04  0.20995180291E+04 0.  0.
        2    1    3    3  502    0 -0.42806585038E+03  0.54485127053E+03 -0.66230188398E+03  0.95851294450E+03  0.25500000920E-02 0. -1.
       -2    1    3    3    0  502  0.42806585038E+03 -0.54485127053E+03  0.92742442155E+03  0.11576784255E+04  0.25500000920E-02 0.  1.
</event>
<event>
 5   0  0.1395356E-05  0.2102550E+04  0.7818609E-02  0.8560121E-01
       -2   -1    0    0    0  501  0.00000000000E+00  0.00000000000E+00  0.69105368518E+03  0.69105368519E+03  0.25500000920E-02 0. -1.
        2   -1    0    0  501    0  0.00000000000E+00  0.00000000000E+00 -0.15992668601E+04  0.15992668601E+04  0.25500000920E-02 0.  1.
    10030    2    1    2    0    0  0.00000000000E+00  0.00000000000E+00 -0.90821317495E+03  0.22903205453E+04  0.21025501252E+04 0.  0.
        1    1    3    3  502    0 -0.32491312046E+03 -0.15404708850E+03 -0.15301955268E+04  0.15718770281E+04  0.50400001928E-02 0.  1.
       -1    1    3    3    0  502  0.32491312046E+03  0.15404708850E+03  0.62198235186E+03  0.71844351718E+03  0.50400001928E-02 0. -1.
</event>
<event>
 5   0  0.1441136E-05  0.2120187E+04  0.7818609E-02  0.8552402E-01
        2   -1    0    0  501    0  0.00000000000E+00  0.00000000000E+00  0.21355805191E+04  0.21355805191E+04  0.25500000920E-02 0. -1.
       -2   -1    0    0    0  501  0.00000000000E+00  0.00000000000E+00 -0.52622628388E+03  0.52622628389E+03  0.25500000920E-02 0.  1.
    10030    2    1    2    0    0  0.00000000000E+00  0.00000000000E+00  0.16093542352E+04  0.26618068030E+04  0.21201873507E+04 0.  0.
        4    1    3    3  502    0  0.10087159798E+04 -0.13584927822E+03  0.11767548711E+04  0.15558652236E+04  0.12699999809E+01 0.  1.
       -4    1    3    3    0  502 -0.10087159798E+04  0.13584927822E+03  0.43259936411E+03  0.11059415794E+04  0.12699999809E+01 0. -1.
</event>
<event>
 5   0  0.6283269E-06  0.2099456E+04  0.7818609E-02  0.8561483E-01
       -1   -1    0    0    0  501  0.00000000000E+00  0.00000000000E+00  0.16286260159E+04  0.16286260159E+04  0.50400001928E-02 0. -1.
        1   -1    0    0  501    0  0.00000000000E+00  0.00000000000E+00 -0.67660017358E+03  0.67660017360E+03  0.50400001928E-02 0.  1.
    10030    2    1    2    0    0  0.00000000000E+00  0.00000000000E+00  0.95202584232E+03  0.23052261895E+04  0.20994557819E+04 0.  0.
        1    1    3    3  502    0  0.86894691571E+03  0.29334333079E+03  0.10367620319E+04  0.13841945538E+04  0.50400001928E-02 0. -1.
       -1    1    3    3    0  502 -0.86894691571E+03 -0.29334333079E+03 -0.84736189588E+02  0.92103163566E+03  0.50400001928E-02 0.  1.
</event>
<event>
 5   0  0.6599245E-06  0.2131044E+04  0.7818609E-02  0.8547690E-01
        1   -1    0    0  501    0  0.00000000000E+00  0.00000000000E+00  0.18365832211E+04  0.18365832211E+04  0.50400001928E-02 0. -1.
       -1   -1    0    0    0  501  0.00000000000E+00  0.00000000000E+00 -0.61817914148E+03  0.61817914150E+03  0.50400001928E-02 0.  1.
    10030    2    1    2    0    0  0.00000000000E+00  0.00000000000E+00  0.12184040796E+04  0.24547623626E+04  0.21310442876E+04 0.  0.
        2    1    3    3  502    0 -0.69594319082E+03  0.79656279024E+03  0.46128981550E+03  0.11539659863E+04  0.25500000920E-02 0.  1.
       -2    1    3    3    0  502  0.69594319082E+03 -0.79656279024E+03  0.75711426408E+03  0.13007963763E+04  0.25500000920E-02 0. -1.
</event>
<event>
 5   0  0.6917078E-06  0.2142702E+04  0.7818609E-02  0.8542663E-01
       -1   -1    0    0    0  501  0.00000000000E+00  0.00000000000E+00  0.57512131692E+03  0.57512131694E+03  0.50400001928E-02 0.  1.
        1   -1    0    0  501    0  0.00000000000E+00  0.00000000000E+00 -0.19957405327E+04  0.19957405327E+04  0.50400001928E-02 0. -1.
    10030    2    1    2    0    0  0.00000000000E+00  0.00000000000E+00 -0.14206192158E+04  0.25708618497E+04  0.21427019610E+04 0.  0.
        5    1    3    3  502    0  0.26560882058E+03 -0.80521174818E+03  0.75420033864E+02  0.85124865726E+03  0.46999998093E+01 0.  1.
       -5    1    3    3    0  502 -0.26560882058E+03  0.80521174818E+03 -0.14960392497E+04  0.17196131924E+04  0.46999998093E+01 0. -1.
</event>
<event>
 5   0  0.5009125E-06  0.2100558E+04  0.7818609E-02  0.8560997E-01
       -3   -1    0    0    0  501  0.00000000000E+00  0.00000000000E+00  0.11697969182E+04  0.11697969226E+04  0.10100000352E+00 0. -1.
        3   -1    0    0  501    0  0.00000000000E+00  0.00000000000E+00 -0.94297260048E+03  0.94297260589E+03  0.10100000352E+00 0.  1.
    10030    2    1    2    0    0  0.00000000000E+00  0.00000000000E+00  0.22682431772E+03  0.21127695284E+04  0.21005584517E+04 0.  0.
        2    1    3    3  502    0 -0.78724692939E+03 -0.53642311968E+02  0.81058748239E+03  0.11312326428E+04  0.25500000920E-02 0. -1.
       -2    1    3    3    0  502  0.78724692939E+03  0.53642311968E+02 -0.58376316468E+03  0.98153688566E+03  0.25500000920E-02 0.  1.
</event>
<event>
 5   0  0.6589193E-06  0.2095945E+04  0.7818609E-02  0.8563032E-01
       -1   -1    0    0    0  501  0.00000000000E+00  0.00000000000E+00  0.99239422920E+03  0.99239422921E+03  0.50400001928E-02 0.  1.
        1   -1    0    0  501    0  0.00000000000E+00  0.00000000000E+00 -0.11066629367E+04  0.11066629367E+04  0.50400001928E-02 0. -1.
    10030    2    1    2    0    0  0.00000000000E+00  0.00000000000E+00 -0.11426870753E+03  0.20990571659E+04  0.20959445719E+04 0.  0.
        3    1    3    3  502    0 -0.69303684541E+03  0.30899284467E+03 -0.78102812961E+03  0.10889359929E+04  0.10100000352E+00 0. -1.
       -3    1    3    3    0  502  0.69303684541E+03 -0.30899284467E+03  0.66675942208E+03  0.10101211731E+04  0.10100000352E+00 0.  1.
</event>
<event>
 5   0  0.1441136E-05  0.2098238E+04  0.7818609E-02  0.8562020E-01
        2   -1    0    0  501    0  0.00000000000E+00  0.00000000000E+00  0.22026585078E+04  0.22026585078E+04  0.25500000920E-02 0. -1.
       -2   -1    0    0    0  501  0.00000000000E+00  0.00000000000E+00 -0.49969179137E+03  0.49969179138E+03  0.25500000920E-02 0.  1.
    10030    2    1    2    0    0  0.00000000000E+00  0.00000000000E+00  0.17029667165E+04  0.27023502992E+04  0.20982377135E+04 0.  0.
        4    1    3    3  502    0 -0.89160492005E+03 -0.34574149863E+03  0.29580805438E+03  0.10009997679E+04  0.12699999809E+01 0. -1.
       -4    1    3    3    0  502  0.89160492005E+03  0.34574149863E+03  0.14071586621E+04  0.17013505313E+04  0.12699999809E+01 0.  1.
</event>
<event>
 5   0  0.6283269E-06  0.2103694E+04  0.7818609E-02  0.8559618E-01
       -1   -1    0    0    0  501  0.00000000000E+00  0.00000000000E+00  0.93346645819E+03  0.93346645820E+03  0.50400001928E-02 0. -1.
        1   -1    0    0  501    0  0.00000000000E+00  0.00000000000E+00 -0.11852405688E+04  0.11852405688E+04  0.50400001928E-02 0.  1.
    10030    2    1    2    0    0  0.00000000000E+00  0.00000000000E+00 -0.25177411060E+03  0.21187070270E+04  0.21036941944E+04 0.  0.
        1    1    3    3  502    0  0.78744860682E+03  0.21895721033E+03 -0.79270320489E+03  0.11385938430E+04  0.50400001928E-02 0.  1.
       -1    1    3    3    0  502 -0.78744860682E+03 -0.21895721033E+03  0.54092909428E+03  0.98011318397E+03  0.50400001928E-02 0. -1.
</event>
<event>
 5   0  0.1390735E-05  0.2102464E+04  0.7818609E-02  0.8560159E-01
       -2   -1    0    0    0  501  0.00000000000E+00  0.00000000000E+00  0.55646454865E+03  0.55646454866E+03  0.25500000920E-02 0. -1.
        2   -1    0    0  501    0  0.00000000000E+00  0.00000000000E+00 -0.19859104688E+04  0.19859104688E+04  0.25500000920E-02 0.  1.
    10030    2    1    2    0    0  0.00000000000E+00  0.00000000000E+00 -0.14294459201E+04  0.25423750174E+04  0.21024640522E+04 0.  0.
        5    1    3    3  502    0  0.33507720054E+03  0.82313315053E+03 -0.35780591446E+02  0.88945334591E+03  0.46999998093E+01 0. -1.
       -5    1    3    3    0  502 -0.33507720054E+03 -0.82313315053E+03 -0.13936653287E+04  0.16529216715E+04  0.46999998093E+01 0.  1.
</event>
<event>
 5   0  0.1390735E-05  0.2099073E+04  0.7818609E-02  0.8561652E-01
       -2   -1    0    0    0  501  0.00000000000E+00  0.00000000000E+00  0.69426816624E+03  0.69426816624E+03  0.25500000920E-02 0.  1.
        2   -1    0    0  501    0  0.00000000000E+00  0.00000000000E+00 -0.15866013868E+04  0.15866013868E+04  0.25500000920E-02 0. -1.
    10030    2    1    2    0    0  0.00000000000E+00  0.00000000000E+00 -0.89233322061E+03  0.22808695531E+04  0.20990729720E+04 0.  0.
        5    1    3    3  502    0 -0.35251413731E+03  0.98854471432E+03 -0.44157240402E+03  0.11386374081E+04  0.46999998093E+01 0. -1.
       -5    1    3    3    0  502  0.35251413731E+03 -0.98854471432E+03 -0.45076081658E+03  0.11422321450E+04  0.46999998093E+01 0.  1.
</event>
<event>
 5   0  0.1390735E-05  0.2105869E+04  0.7818609E-02  0.8558662E-01
       -2   -1    0    0    0  501  0.00000000000E+00  0.00000000000E+00  0.11069051797E+04  0.11069051797E+04  0.25500000920E-02 0. -1.
        2   -1    0    0  501    0  0.00000000000E+00  0.00000000000E+00 -0.10015955137E+04  0.10015955137E+04  0.25500000920E-02 0.  1.
    10030    2    1    2    0    0  0.00000000000E+00  0.00000000000E+00  0.10530966600E+03  0.21085006934E+04  0.21058691907E+04 0.  0.
        5    1    3    3  502    0  0.53388065747E+03  0.90709282703E+03  0.81031363832E+02  0.10556676206E+04  0.46999998093E+01 0.  1.
       -5    1    3    3    0  502 -0.53388065747E+03 -0.90709282703E+03  0.24278302170E+02  0.10528330728E+04  0.46999998093E+01 0. -1.
</event>
<event>
 5   0  0.1398469E-05  0.2102586E+04  0.7818609E-02  0.8560105E-01
       -2   -1    0    0    0  501  0.00000000000E+00  0.00000000000E+00  0.47298947616E+03  0.47298947617E+03  0.25500000920E-02 0.  1.
        2   -1    0    0  501    0  0.00000000000E+00  0.00000000000E+00 -0.23366621201E+04  0.23366621201E+04  0.25500000920E-02 0. -1.
    10030    2    1    2    0    0  0.00000000000E+00  0.00000000000E+00 -0.18636726439E+04  0.28096515962E+04  0.21025856388E+04 0.  0.
        2    1    3    3  502    0  0.42842423652E+03 -0.86066515938E+03 -0.15002280717E+04  0.17818462644E+04  0.25500000920E-02 0. -1.
       -2    1    3    3    0  502 -0.42842423652E+03  0.86066515938E+03 -0.36344457225E+03  0.10278053318E+04  0.25500000920E-02 0.  1.
</event>
<event>
 5   0  0.6238363E-06  0.2098739E+04  0.7818609E-02  0.8561799E-01
        1   -1    0    0  501    0  0.00000000000E+00  0.00000000000E+00  0.14978197604E+04  0.14978197604E+04  0.50400001928E-02 0.  1.
       -1   -1    0    0    0  501  0.00000000000E+00  0.00000000000E+00 -0.73518622592E+03  0.73518622594E+03  0.50400001928E-02 0. -1.
    10030    2    1    2    0    0  0.00000000000E+00  0.00000000000E+00  0.76263353452E+03  0.22330059864E+04  0.20987391041E+04 0.  0.
        4    1    3    3  502    0  0.23589270640E+03 -0.88579908212E+03 -0.16213336745E+03  0.93089968555E+03  0.12699999809E+01 0. -1.
       -4    1    3    3    0  502 -0.23589270640E+03  0.88579908212E+03  0.92476690196E+03  0.13021063008E+04  0.12699999809E+01 0.  1.
</event>
<event>
 5   0  0.1395356E-05  0.2097427E+04  0.7818609E-02  0.8562378E-01
        2   -1    0    0  501    0  0.00000000000E+00  0.00000000000E+00  0.21063059178E+04  0.21063059178E+04  0.25500000920E-02 0. -1.
       -2   -1    0    0    0  501  0.00000000000E+00  0.00000000000E+00 -0.52214632075E+03  0.52214632075E+03  0.25500000920E-02 0.  1.
    10030    2    1    2    0    0  0.00000000000E+00  0.00000000000E+00  0.15841595971E+04  0.26284522386E+04  0.20974268858E+04 0.  0.
        1    1    3    3  502    0  0.88306969972E+03 -0.37814080074E+03  0.13193055462E+04  0.16319833589E+04  0.50400001928E-02 0. -1.
       -1    1    3    3    0  502 -0.88306969972E+03  0.37814080074E+03  0.26485405092E+03  0.99646887963E+03  0.50400001928E-02 0.  1.
</event>
<event>
 5   0  0.1390735E-05  0.2098341E+04  0.7818609E-02  0.8561975E-01
        2   -1    0    0  501    0  0.00000000000E+00  0.00000000000E+00  0.51822035053E+03  0.51822035053E+03  0.25500000920E-02 0.  1.
       -2   -1    0    0    0  501  0.00000000000E+00  0.00000000000E+00 -0.21241126235E+04  0.21241126235E+04  0.25500000920E-02 0. -1.
    10030    2    1    2    0    0  0.00000000000E+00  0.00000000000E+00 -0.16058922730E+04  0.26423329741E+04  0.20983406667E+04 0.  0.
        5    1    3    3  502    0  0.23052938604E+03  0.66448072165E+03 -0.17832677886E+04  0.19169623166E+04  0.46999998093E+01 0. -1.
       -5    1    3    3    0  502 -0.23052938604E+03 -0.66448072165E+03  0.17737551558E+03  0.72537065752E+03  0.46999998093E+01 0.  1.
</event>
<event>
 5   0  0.1441136E-05  0.2096470E+04  0.7818609E-02  0.8562800E-01
        2   -1    0    0  501    0  0.00000000000E+00  0.00000000000E+00  0.11964557234E+04  0.11964557234E+04  0.25500000920E-02 0.  1.
       -2   -1    0    0    0  501  0.00000000000E+00  0.00000000000E+00 -0.91837671357E+03  0.91837671357E+03  0.25500000920E-02 0. -1.
    10030    2    1    2    0    0  0.00000000000E+00  0.00000000000E+00  0.27807900982E+03  0.21148324370E+04  0.20964704388E+04 0.  0.
        4    1    3    3  502    0 -0.61858706450E+03  0.17298676674E+03 -0.69660054974E+03  0.94753802912E+03  0.12699999809E+01 0. -1.
       -4    1    3    3    0  502  0.61858706450E+03 -0.17298676674E+03  0.97467955956E+03  0.11672944078E+04  0.12699999809E+01 0.  1.
</event>
<event>
 5   0  0.1344501E-05  0.2104685E+04  0.7818609E-02  0.8559183E-01
        2   -1    0    0  501    0  0.00000000000E+00  0.00000000000E+00  0.79919862258E+03  0.79919862259E+03  0.25500000920E-02 0. -1.
       -2   -1    0    0    0  501  0.00000000000E+00  0.00000000000E+00 -0.13856683589E+04  0.13856683589E+04  0.25500000920E-02 0.  1.
    10030    2    1    2    0    0  0.00000000000E+00  0.00000000000E+00 -0.58646973635E+03  0.21848669815E+04  0.21046845311E+04 0.  0.
        3    1    3    3  502    0  0.75197156616E+02 -0.98911829972E+03  0.71452970236E+02  0.99454268906E+03  0.10100000352E+00 0.  1.
       -3    1    3    3    0  502 -0.75197156616E+02  0.98911829972E+03 -0.65792270659E+03  0.11903242925E+04  0.10100000352E+00 0. -1.
</event>
<event>
 5   0  0.1390735E-05  0.2111886E+04  0.7818609E-02  0.8556026E-01
        2   -1    0    0  501    0  0.00000000000E+00  0.00000000000E+00  0.15096852735E+04  0.15096852735E+04  0.25500000920E-02 0. -1.
       -2   -1    0    0    0  501  0.00000000000E+00  0.00000000000E+00 -0.73857483750E+03  0.73857483751E+03  0.25500000920E-02 0.  1.
    10030    2    1    2    0    0  0.00000000000E+00  0.00000000000E+00  0.77111043602E+03  0.22482601110E+04  0.21118859397E+04 0.  0.
        5    1    3    3  502    0  0.81991741630E+03 -0.21641708906E+03 -0.28427502986E+03  0.89439102667E+03  0.46999998093E+01 0.  1.
       -5    1    3    3    0  502 -0.81991741630E+03  0.21641708906E+03  0.10553854659E+04  0.13538690844E+04  0.46999998093E+01 0. -1.
</event>
<event>
 5   0  0.6238363E-06  0.2088036E+04  0.7818609E-02  0.8566532E-01
        1   -1    0    0  501    0  0.00000000000E+00  0.00000000000E+00  0.71931030770E+03  0.71931030771E+03  0.50400001928E-02 0.  1.
       -1   -1    0    0    0  501  0.00000000000E+00  0.00000000000E+00 -0.15153037911E+04  0.15153037912E+04  0.50400001928E-02 0. -1.
    10030    2    1    2    0    0  0.00000000000E+00  0.00000000000E+00 -0.79599348345E+03  0.22346140989E+04  0.20880360498E+04 0.  0.
        4    1    3    3  502    0  0.48545828873E+03 -0.22832633769E+02 -0.13868634838E+04  0.14695519776E+04  0.12699999809E+01 0. -1.
       -4    1    3    3    0  502 -0.48545828873E+03  0.22832633769E+02  0.59087000032E+03  0.76506212130E+03  0.12699999809E+01 0.  1.
</event>
<event>
 5   0  0.6589193E-06  0.2100648E+04  0.7818609E-02  0.8560958E-01
       -1   -1    0    0    0  501  0.00000000000E+00  0.00000000000E+00  0.63061450785E+03  0.63061450787E+03  0.50400001928E-02 0.  1.
        1   -1    0    0  501    0  0.00000000000E+00  0.00000000000E+00 -0.17493744876E+04  0.17493744877E+04  0.50400001928E-02 0. -1.
    10030    2    1    2    0    0  0.00000000000E+00  0.00000000000E+00 -0.11187599798E+04  0.23799889955E+04  0.21006484062E+04 0.  0.
        3    1    3    3  502    0 -0.53434537588E+03 -0.42140376714E+03  0.34705559473E+03  0.76390687372E+03  0.10100000352E+00 0.  1.
       -3    1    3    3    0  502  0.53434537588E+03  0.42140376714E+03 -0.14658155745E+04  0.16160821218E+04  0.10100000352E+00 0. -1.
</event>
<event>
 5   0  0.6917078E-06  0.2074063E+04  0.7818609E-02  0.8572756E-01
       -1   -1    0    0    0  501  0.00000000000E+00  0.00000000000E+00  0.35013524410E+03  0.35013524414E+03  0.50400001928E-02 0.  1.
        1   -1    0    0  501    0  0.00000000000E+00  0.00000000000E+00 -0.30714832728E+04  0.30714832728E+04  0.50400001928E-02 0. -1.
    10030    2    1    2    0    0  0.00000000000E+00  0.00000000000E+00 -0.27213480287E+04  0.34216185170E+04  0.20740632059E+04 0.  0.
        5    1    3    3  502    0  0.16280458336E+03 -0.47648820658E+03 -0.28562556964E+04  0.29003043006E+04  0.46999998093E+01 0. -1.
       -5    1    3    3    0  502 -0.16280458336E+03  0.47648820658E+03  0.13490766762E+03  0.52131421634E+03  0.46999998093E+01 0.  1.
</event>
<event>
 5   0  0.1395356E-05  0.2097870E+04  0.7818609E-02  0.8562182E-01
       -2   -1    0    0    0  501  0.00000000000E+00  0.00000000000E+00  0.93403129202E+03  0.93403129202E+03  0.25500000920E-02 0. -1.
        2   -1    0    0  501    0  0.00000000000E+00  0.00000000000E+00 -0.11779744093E+04  0.11779744093E+04  0.25500000920E-02 0.  1.
    10030    2    1    2    0    0  0.00000000000E+00  0.00000000000E+00 -0.24394311730E+03  0.21120057013E+04  0.20978703101E+04 0.  0.
        1    1    3    3  502    0 -0.48517137047E+03  0.86354450951E+03 -0.46949975339E+03  0.10961434199E+04  0.50400001928E-02 0.  1.
       -1    1    3    3    0  502  0.48517137047E+03 -0.86354450951E+03  0.22555663609E+03  0.10158622814E+04  0.50400001928E-02 0. -1.
</event>
<event>
 5   0  0.1390735E-05  0.2104857E+04  0.7818609E-02  0.8559107E-01
        2   -1    0    0  501    0  0.00000000000E+00  0.00000000000E+00  0.20176121060E+04  0.20176121060E+04  0.25500000920E-02 0.  1.
       -2   -1    0    0    0  501  0.00000000000E+00  0.00000000000E+00 -0.54896867694E+03  0.54896867695E+03  0.25500000920E-02 0. -1.
    10030    2    1    2    0    0  0.00000000000E+00  0.00000000000E+00  0.14686434290E+04  0.25665807829E+04  0.21048570958E+04 0.  0.
        5    1    3    3  502    0 -0.26377372441E+03  0.84996369642E+03  0.49339307484E+02  0.89133120678E+03  0.46999998093E+01 0.  1.
       -5    1    3    3    0  502  0.26377372441E+03 -0.84996369642E+03  0.14193041215E+04  0.16752495761E+04  0.46999998093E+01 0. -1.
</event>
<event>
 5   0  0.6917078E-06  0.2084365E+04  0.7818609E-02  0.8568162E-01
       -1   -1    0    0    0  501  0.00000000000E+00  0.00000000000E+00  0.63484595208E+03  0.63484595210E+03  0.50400001928E-02 0.  1.
        1   -1    0    0  501    0  0.00000000000E+00  0.00000000000E+00 -0.17108783762E+04  0.17108783762E+04  0.50400001928E-02 0. -1.
    10030    2    1    2    0    0  0.00000000000E+00  0.00000000000E+00 -0.10760324241E+04  0.23457243283E+04  0.20843648545E+04 0.  0.
        5    1    3    3  502    0 -0.11958507526E+02 -0.48891558691E+03 -0.15737060692E+04  0.16479545926E+04  0.46999998093E+01 0. -1.
       -5    1    3    3    0  502  0.11958507526E+02  0.48891558691E+03  0.49767364509E+03  0.69776973569E+03  0.46999998093E+01 0.  1.
</event>
<event>
 5   0  0.6283269E-06  0.2105266E+04  0.7818609E-02  0.8558927E-01
       -1   -1    0    0    0  501  0.00000000000E+00  0.00000000000E+00  0.57347450691E+03  0.57347450693E+03  0.50400001928E-02 0. -1.
        1   -1    0    0  501    0  0.00000000000E+00  0.00000000000E+00 -0.19321457032E+04  0.19321457032E+04  0.50400001928E-02 0.  1.
    10030    2    1    2    0    0  0.00000000000E+00  0.00000000000E+00 -0.13586711963E+04  0.25056202101E+04  0.21052660682E+04 0.  0.
        1    1    3    3  502    0 -0.25993197487E+03  0.64780869004E+03 -0.16170909562E+04  0.17613074380E+04  0.50400001928E-02 0.  1.
       -1    1    3    3    0  502  0.25993197487E+03 -0.64780869004E+03  0.25841975991E+03  0.74431277215E+03  0.50400001928E-02 0. -1.
</event>
<event>
 5   0  0.1441136E-05  0.2102747E+04  0.7818609E-02  0.8560034E-01
       -2   -1    0    0    0  501  0.00000000000E+00  0.00000000000E+00  0.78455742124E+03  0.78455742124E+03  0.25500000920E-02 0.  1.
        2   -1    0    0  501    0  0.00000000000E+00  0.00000000000E+00 -0.14089293200E+04  0.14089293200E+04  0.25500000920E-02 0. -1.
    10030    2    1    2    0    0  0.00000000000E+00  0.00000000000E+00 -0.62437189878E+03  0.21934867413E+04  0.21027467313E+04 0.  0.
        4    1    3    3  502    0 -0.45004695604E+03 -0.93774986208E+03 -0.15238499267E+03  0.10512563271E+04  0.12699999809E+01 0.  1.
       -4    1    3    3    0  502  0.45004695604E+03  0.93774986208E+03 -0.47198690610E+03  0.11422304141E+04  0.12699999809E+01 0. -1.
</event>
<event>
 5   0  0.6283269E-06  0.2097232E+04  0.7818609E-02  0.8562464E-01
       -1   -1    0    0    0  501  0.00000000000E+00  0.00000000000E+00  0.87307490728E+03  0.87307490729E+03  0.50400001928E-02 0. -1.
        1   -1    0    0  501    0  0.00000000000E+00  0.00000000000E+00 -0.12594516918E+04  0.12594516918E+04  0.50400001928E-02 0.  1.
    10030    2    1    2    0    0  0.00000000000E+00  0.00000000000E+00 -0.38637678456E+03  0.21325265991E+04  0.20972321465E+04 0.  0.
        1    1    3    3  502    0  0.48899015339E+03  0.52227529419E+03 -0.97271426031E+03  0.12074998490E+04  0.50400001928E-02 0.  1.
       -1    1    3    3    0  502 -0.48899015339E+03 -0.52227529419E+03  0.58633747575E+03  0.92502675017E+03  0.50400001928E-02 0. -1.
</event>
<event>
 5   0  0.1441136E-05  0.2089239E+04  0.7818609E-02  0.8565999E-01
       -2   -1    0    0    0  501  0.00000000000E+00  0.00000000000E+00  0.12154084969E+04  0.12154084969E+04  0.25500000920E-02 0.  1.
        2   -1    0    0  501    0  0.00000000000E+00  0.00000000000E+00 -0.89782969831E+03  0.89782969832E+03  0.25500000920E-02 0. -1.
    10030    2    1    2    0    0  0.00000000000E+00  0.00000000000E+00  0.31757879854E+03  0.21132381952E+04  0.20892389467E+04 0.  0.
        4    1    3    3  502    0 -0.63607295885E+03  0.73818704911E+03 -0.22199122531E+03  0.99939513980E+03  0.12699999809E+01 0.  1.
       -4    1    3    3    0  502  0.63607295885E+03 -0.73818704911E+03  0.53957002386E+03  0.11138430554E+04  0.12699999809E+01 0. -1.
</event>
<event>
 5   0  0.1395356E-05  0.2100534E+04  0.7818609E-02  0.8561008E-01
       -2   -1    0    0    0  501  0.00000000000E+00  0.00000000000E+00  0.50578085293E+03  0.50578085293E+03  0.25500000920E-02 0.  1.
        2   -1    0    0  501    0  0.00000000000E+00  0.00000000000E+00 -0.21809059670E+04  0.21809059670E+04  0.25500000920E-02 0. -1.
    10030    2    1    2    0    0  0.00000000000E+00  0.00000000000E+00 -0.16751251141E+04  0.26866868200E+04  0.21005337228E+04 0.  0.
        1    1    3    3  502    0  0.49403237038E+03 -0.41171453762E+03 -0.18996233296E+04  0.20055287676E+04  0.50400001928E-02 0. -1.
       -1    1    3    3    0  502 -0.49403237038E+03  0.41171453762E+03  0.22449821549E+03  0.68115805233E+03  0.50400001928E-02 0.  1.
</event>
<event>
 5   0  0.1390735E-05  0.2101408E+04  0.7818609E-02  0.8560623E-01
       -2   -1    0    0    0  501  0.00000000000E+00  0.00000000000E+00  0.12825936268E+04  0.12825936268E+04  0.25500000920E-02 0.  1.
        2   -1    0    0  501    0  0.00000000000E+00  0.00000000000E+00 -0.86073968677E+03  0.86073968677E+03  0.25500000920E-02 0. -1.
    10030    2    1    2    0    0  0.00000000000E+00  0.00000000000E+00  0.42185394007E+03  0.21433333136E+04  0.21014083245E+04 0.  0.
        5    1    3    3  502    0 -0.37277706750E+03  0.80686759253E+03  0.78242639602E+03  0.11841499944E+04  0.46999998093E+01 0.  1.
       -5    1    3    3    0  502  0.37277706750E+03 -0.80686759253E+03 -0.36057245595E+03  0.95918331925E+03  0.46999998093E+01 0. -1.
</event>
<event>
 5   0  0.6283269E-06  0.2094779E+04  0.7818609E-02  0.8563547E-01
        1   -1    0    0  501    0  0.00000000000E+00  0.00000000000E+00  0.74594677914E+03  0.74594677915E+03  0.50400001928E-02 0. -1.
       -1   -1    0    0    0  501  0.00000000000E+00  0.00000000000E+00 -0.14706480685E+04  0.14706480685E+04  0.50400001928E-02 0.  1.
    10030    2    1    2    0    0  0.00000000000E+00  0.00000000000E+00 -0.72470128939E+03  0.22165948477E+04  0.20947794060E+04 0.  0.
        1    1    3    3  502    0 -0.74125715421E+03 -0.89708528850E+02  0.41488005626E+03  0.85418689402E+03  0.50400001928E-02 0. -1.
       -1    1    3    3    0  502  0.74125715421E+03  0.89708528850E+02 -0.11395813456E+04  0.13624079537E+04  0.50400001928E-02 0.  1.
</event>
<event>
 5   0  0.6917078E-06  0.2098522E+04  0.7818609E-02  0.8561895E-01
        1   -1    0    0  501    0  0.00000000000E+00  0.00000000000E+00  0.96227429306E+03  0.96227429307E+03  0.50400001928E-02 0.  1.
       -1   -1    0    0    0  501  0.00000000000E+00  0.00000000000E+00 -0.11441106154E+04  0.11441106154E+04  0.50400001928E-02 0. -1.
    10030    2    1    2    0    0  0.00000000000E+00  0.00000000000E+00 -0.18183632237E+03  0.21063849085E+04  0.20985216069E+04 0.  0.
        5    1    3    3  502    0  0.28034858027E+02 -0.69615428565E+03  0.69656565026E+03  0.98521192533E+03  0.46999998093E+01 0.  1.
       -5    1    3    3    0  502 -0.28034858027E+02  0.69615428565E+03 -0.87840197263E+03  0.11211729832E+04  0.46999998093E+01 0. -1.
</event>
<event>
 5   0  0.1441136E-05  0.2102692E+04  0.7818609E-02  0.8560059E-01
        2   -1    0    0  501    0  0.00000000000E+00  0.00000000000E+00  0.17940825525E+04  0.17940825525E+04  0.25500000920E-02 0.  1.
       -2   -1    0    0    0  501  0.00000000000E+00  0.00000000000E+00 -0.61609655908E+03  0.61609655909E+03  0.25500000920E-02 0. -1.
    10030    2    1    2    0    0  0.00000000000E+00  0.00000000000E+00  0.11779859934E+04  0.24101791116E+04  0.21026916914E+04 0.  0.
        4    1    3    3  502    0  0.73264721332E+03 -0.72620019302E+03  0.35636708107E+03  0.10913925824E+04  0.12699999809E+01 0. -1.
       -4    1    3    3    0  502 -0.73264721332E+03  0.72620019302E+03  0.82161891231E+03  0.13187865292E+04  0.12699999809E+01 0.  1.
</event>
<event>
 5   0  0.6238363E-06  0.2096355E+04  0.7818609E-02  0.8562851E-01
       -1   -1    0    0    0  501  0.00000000000E+00  0.00000000000E+00  0.10907073070E+04  0.10907073071E+04  0.50400001928E-02 0.  1.
        1   -1    0    0  501    0  0.00000000000E+00  0.00000000000E+00 -0.10073061572E+04  0.10073061572E+04  0.50400001928E-02 0. -1.
    10030    2    1    2    0    0  0.00000000000E+00  0.00000000000E+00  0.83401149852E+02  0.20980134643E+04  0.20963551093E+04 0.  0.
        4    1    3    3  502    0  0.12432891198E+03 -0.88818068163E+03 -0.50127074974E+03  0.10274222983E+04  0.12699999809E+01 0. -1.
       -4    1    3    3    0  502 -0.12432891198E+03  0.88818068163E+03  0.58467189960E+03  0.10705911660E+04  0.12699999809E+01 0.  1.
</event>
<event>
 5   0  0.1441136E-05  0.2099349E+04  0.7818609E-02  0.8561530E-01
        2   -1    0    0  501    0  0.00000000000E+00  0.00000000000E+00  0.19365197445E+04  0.19365197445E+04  0.25500000920E-02 0.  1.
       -2   -1    0    0    0  501  0.00000000000E+00  0.00000000000E+00 -0.56896720221E+03  0.56896720222E+03  0.25500000920E-02 0. -1.
    10030    2    1    2    0    0  0.00000000000E+00  0.00000000000E+00  0.13675525423E+04  0.25054869467E+04  0.20993486810E+04 0.  0.
        4    1    3    3  502    0  0.70902364398E+03 -0.55452719039E+03  0.13282438676E+04  0.16045087464E+04  0.12699999809E+01 0.  1.
       -4    1    3    3    0  502 -0.70902364398E+03  0.55452719039E+03  0.39308674671E+02  0.90097820029E+03  0.12699999809E+01 0. -1.
</event>
<event>
 5   0  0.6599245E-06  0.2080000E+04  0.7818609E-02  0.8570105E-01
        1   -1    0    0  501    0  0.00000000000E+00  0.00000000000E+00  0.16786627244E+04  0.16786627244E+04  0.50400001928E-02 0.  1.
       -1   -1    0    0    0  501  0.00000000000E+00  0.00000000000E+00 -0.64432217045E+03  0.64432217047E+03  0.50400001928E-02 0. -1.
    10030    2    1    2    0    0  0.00000000000E+00  0.00000000000E+00  0.10343405539E+04  0.23229848948E+04  0.20799996250E+04 0.  0.
        2    1    3    3  502    0 -0.37580190317E+03 -0.67819361336E+03 -0.25692846838E+03  0.81681447434E+03  0.25500000920E-02 0. -1.
       -2    1    3    3    0  502  0.37580190317E+03  0.67819361336E+03  0.12912690223E+04  0.15061704205E+04  0.25500000920E-02 0.  1.
</event>
<event>
 5   0  0.1395356E-05  0.2103423E+04  0.7818609E-02  0.8559737E-01
       -2   -1    0    0    0  501  0.00000000000E+00  0.00000000000E+00  0.52559565767E+03  0.52559565767E+03  0.25500000920E-02 0.  1.
        2   -1    0    0  501    0  0.00000000000E+00  0.00000000000E+00 -0.21044632624E+04  0.21044632624E+04  0.25500000920E-02 0. -1.
    10030    2    1    2    0    0  0.00000000000E+00  0.00000000000E+00 -0.15788676047E+04  0.26300589200E+04  0.21034226893E+04 0.  0.
        1    1    3    3  502    0 -0.79232986129E+03  0.67873990720E+03 -0.62344836275E+03  0.12153856720E+04  0.50400001928E-02 0.  1.
       -1    1    3    3    0  502  0.79232986129E+03 -0.67873990720E+03 -0.95541924194E+03  0.14146732480E+04  0.50400001928E-02 0. -1.
</event>
<event>
 5   0  0.6283269E-06  0.2043520E+04  0.7818609E-02  0.8586540E-01
        1   -1    0    0  501    0  0.00000000000E+00  0.00000000000E+00  0.11804166240E+04  0.11804166240E+04  0.50400001928E-02 0. -1.
       -1   -1    0    0    0  501  0.00000000000E+00  0.00000000000E+00 -0.88442779697E+03  0.88442779699E+03  0.50400001928E-02 0.  1.
    10030    2    1    2    0    0  0.00000000000E+00  0.00000000000E+00  0.29598882702E+03  0.20648444210E+04  0.20435197814E+04 0.  0.
        1    1    3    3  502    0  0.77424155187E+03  0.39071507553E+03  0.69389604782E+03  0.11106754594E+04  0.50400001928E-02 0.  1.
       -1    1    3    3    0  502 -0.77424155187E+03 -0.39071507553E+03 -0.39790722080E+03  0.95416896160E+03  0.50400001928E-02 0. -1.
</event>
<event>
 5   0  0.6283269E-06  0.2096238E+04  0.7818609E-02  0.8562902E-01
       -1   -1    0    0    0  501  0.00000000000E+00  0.00000000000E+00  0.53095001224E+03  0.53095001226E+03  0.50400001928E-02 0. -1.
        1   -1    0    0  501    0  0.00000000000E+00  0.00000000000E+00 -0.20690335079E+04  0.20690335079E+04  0.50400001928E-02 0.  1.
    10030    2    1    2    0    0  0.00000000000E+00  0.00000000000E+00 -0.15380834957E+04  0.25999835202E+04  0.20962379315E+04 0.  0.
        1    1    3    3  502    0 -0.87818184194E+03  0.47844104891E+03 -0.37988456904E+03  0.10697763648E+04  0.50400001928E-02 0. -1.
       -1    1    3    3    0  502  0.87818184194E+03 -0.47844104891E+03 -0.11581989266E+04  0.15302071554E+04  0.50400001928E-02 0.  1.
</event>
<event>
 5   0  0.6589193E-06  0.2095459E+04  0.7818609E-02  0.8563246E-01
        1   -1    0    0  501    0  0.00000000000E+00  0.00000000000E+00  0.18224028599E+04  0.18224028599E+04  0.50400001928E-02 0.  1.
       -1   -1    0    0    0  501  0.00000000000E+00  0.00000000000E+00 -0.60235722602E+03  0.60235722605E+03  0.50400001928E-02 0. -1.
    10030    2    1    2    0    0  0.00000000000E+00  0.00000000000E+00  0.12200456339E+04  0.24247600860E+04  0.20954594069E+04 0.  0.
        3    1    3    3  502    0  0.50910761684E+03 -0.47454615313E+03  0.15162659638E+04  0.16683665964E+04  0.10100000352E+00 0.  1.
       -3    1    3    3    0  502 -0.50910761684E+03  0.47454615313E+03 -0.29622032988E+03  0.75639348954E+03  0.10100000352E+00 0. -1.
</event>
<event>
 5   0  0.1344501E-05  0.2131513E+04  0.7818609E-02  0.8547487E-01
       -2   -1    0    0    0  501  0.00000000000E+00  0.00000000000E+00  0.14617855600E+04  0.14617855600E+04  0.25500000920E-02 0.  1.
        2   -1    0    0  501    0  0.00000000000E+00  0.00000000000E+00 -0.77701990367E+03  0.77701990368E+03  0.25500000920E-02 0. -1.
    10030    2    1    2    0    0  0.00000000000E+00  0.00000000000E+00  0.68476565630E+03  0.22388054636E+04  0.21315125850E+04 0.  0.
        3    1    3    3  502    0  0.84133006741E+03 -0.57643535068E+03  0.17418715192E+02  0.10200085380E+04  0.10100000352E+00 0. -1.
       -3    1    3    3    0  502 -0.84133006741E+03  0.57643535068E+03  0.66734694111E+03  0.12187969256E+04  0.10100000352E+00 0.  1.
</event>
<event>
 5   0  0.1398469E-05  0.2099999E+04  0.7818609E-02  0.8561244E-01
       -2   -1    0    0    0  501  0.00000000000E+00  0.00000000000E+00  0.12297871620E+04  0.12297871620E+04  0.25500000920E-02 0. -1.
        2   -1    0    0  501    0  0.00000000000E+00  0.00000000000E+00 -0.89649573147E+03  0.89649573147E+03  0.25500000920E-02 0.  1.
    10030    2    1    2    0    0  0.00000000000E+00  0.00000000000E+00  0.33329143051E+03  0.21262828935E+04  0.20999989917E+04 0.  0.
        2    1    3    3  502    0  0.96735020786E+03  0.68447047498E+02 -0.24094393839E+03  0.99925242277E+03  0.25500000920E-02 0.  1.
       -2    1    3    3    0  502 -0.96735020786E+03 -0.68447047498E+02  0.57423536891E+03  0.11270304707E+04  0.25500000920E-02 0. -1.
</event>
<event>
 5   0  0.6238363E-06  0.2100311E+04  0.7818609E-02  0.8561106E-01
       -1   -1    0    0    0  501  0.00000000000E+00  0.00000000000E+00  0.11899863055E+04  0.11899863055E+04  0.50400001928E-02 0. -1.
        1   -1    0    0  501    0  0.00000000000E+00  0.00000000000E+00 -0.92675607206E+03  0.92675607207E+03  0.50400001928E-02 0.  1.
    10030    2    1    2    0    0  0.00000000000E+00  0.00000000000E+00  0.26323023342E+03  0.21167423776E+04  0.21003114381E+04 0.  0.
        4    1    3    3  502    0  0.11462577430E+03 -0.56379776248E+03  0.10170199353E+04  0.11684768490E+04  0.12699999809E+01 0. -1.
       -4    1    3    3    0  502 -0.11462577430E+03  0.56379776248E+03 -0.75378970183E+03  0.94826552853E+03  0.12699999809E+01 0.  1.
</event>
<event>
 5   0  0.1395356E-05  0.2093357E+04  0.7818609E-02  0.8564175E-01
        2   -1    0    0  501    0  0.00000000000E+00  0.00000000000E+00  0.96262711983E+03  0.96262711983E+03  0.25500000920E-02 0.  1.
       -2   -1    0    0    0  501  0.00000000000E+00  0.00000000000E+00 -0.11380692680E+04  0.11380692680E+04  0.25500000920E-02 0. -1.
    10030    2    1    2    0    0  0.00000000000E+00  0.00000000000E+00 -0.17544214812E+03  0.21006963878E+04  0.20933574387E+04 0.  0.
        1    1    3    3  502    0  0.76788154516E+03  0.69595877264E+03 -0.23498589075E+03  0.10626471896E+04  0.50400001928E-02 0. -1.
       -1    1    3    3    0  502 -0.76788154516E+03 -0.69595877264E+03  0.59543742626E+02  0.10380491982E+04  0.50400001928E-02 0.  1.
</event>
<event>
 5   0  0.1390735E-05  0.2095647E+04  0.7818609E-02  0.8563163E-01
        2   -1    0    0  501    0  0.00000000000E+00  0.00000000000E+00  0.16737038451E+04  0.16737038451E+04  0.25500000920E-02 0. -1.
       -2   -1    0    0    0  501  0.00000000000E+00  0.00000000000E+00 -0.65599058426E+03  0.65599058426E+03  0.25500000920E-02 0.  1.
    10030    2    1    2    0    0  0.00000000000E+00  0.00000000000E+00  0.10177132609E+04  0.23296944294E+04  0.20956468817E+04 0.  0.
        5    1    3    3  502    0  0.79744283668E+03 -0.34131155244E+03  0.11622984195E+04  0.14502994034E+04  0.46999998093E+01 0. -1.
       -5    1    3    3    0  502 -0.79744283668E+03  0.34131155244E+03 -0.14458515862E+03  0.87939502597E+03  0.46999998093E+01 0.  1.
</event>
<event>
 5   0  0.6238363E-06  0.2103102E+04  0.7818609E-02  0.8559878E-01
        1   -1    0    0  501    0  0.00000000000E+00  0.00000000000E+00  0.15958676491E+04  0.15958676491E+04  0.50400001928E-02 0. -1.
       -1   -1    0    0    0  501  0.00000000000E+00  0.00000000000E+00 -0.69288905163E+03  0.69288905165E+03  0.50400001928E-02 0.  1.
    10030    2    1    2    0    0  0.00000000000E+00  0.00000000000E+00  0.90297859742E+03  0.22887567007E+04  0.21031017302E+04 0.  0.
        4    1    3    3  502    0  0.61695584388E+03 -0.39927418955E+03  0.12700175479E+04  0.14673106612E+04  0.12699999809E+01 0. -1.
       -4    1    3    3    0  502 -0.61695584388E+03  0.39927418955E+03 -0.36703895045E+03  0.82144603949E+03  0.12699999809E+01 0.  1.
</event>
<event>
 5   0  0.1395356E-05  0.2093939E+04  0.7818609E-02  0.8563918E-01
       -2   -1    0    0    0  501  0.00000000000E+00  0.00000000000E+00  0.10511172593E+04  0.10511172593E+04  0.25500000920E-02 0. -1.
        2   -1    0    0  501    0  0.00000000000E+00  0.00000000000E+00 -0.10428382833E+04  0.10428382833E+04  0.25500000920E-02 0.  1.
    10030    2    1    2    0    0  0.00000000000E+00  0.00000000000E+00  0.82789759986E+01  0.20939555427E+04  0.20939391761E+04 0.  0.
        1    1    3    3  502    0  0.86011267637E+03 -0.12882616648E+03  0.58702938520E+03  0.10492823721E+04  0.50400001928E-02 0. -1.
       -1    1    3    3    0  502 -0.86011267637E+03  0.12882616648E+03 -0.57875040920E+03  0.10446731706E+04  0.50400001928E-02 0.  1.
</event>
<event>
 5   0  0.6283269E-06  0.2100510E+04  0.7818609E-02  0.8561019E-01
       -1   -1    0    0    0  501  0.00000000000E+00  0.00000000000E+00  0.13167187736E+04  0.13167187736E+04  0.50400001928E-02 0. -1.
        1   -1    0    0  501    0  0.00000000000E+00  0.00000000000E+00 -0.83771572268E+03  0.83771572270E+03  0.50400001928E-02 0.  1.
    10030    2    1    2    0    0  0.00000000000E+00  0.00000000000E+00  0.47900305092E+03  0.21544344963E+04  0.21005104323E+04 0.  0.
        1    1    3    3  502    0 -0.59141583035E+03  0.26081025325E+03 -0.60954254114E+03  0.88844627416E+03  0.50400001928E-02 0.  1.
       -1    1    3    3    0  502  0.59141583035E+03 -0.26081025325E+03  0.10885455921E+04  0.12659882221E+04  0.50400001928E-02 0. -1.
</event>
<event>
 5   0  0.1395356E-05  0.2101407E+04  0.7818609E-02  0.8560624E-01
       -2   -1    0    0    0  501  0.00000000000E+00  0.00000000000E+00  0.65667468803E+03  0.65667468803E+03  0.25500000920E-02 0. -1.
        2   -1    0    0  501    0  0.00000000000E+00  0.00000000000E+00 -0.16811633492E+04  0.16811633492E+04  0.25500000920E-02 0.  1.
    10030    2    1    2    0    0  0.00000000000E+00  0.00000000000E+00 -0.10244886611E+04  0.23378380372E+04  0.21014065935E+04 0.  0.
        1    1    3    3  502    0 -0.16583189588E+03  0.23638382278E+03  0.61166709983E+03  0.67639793791E+03  0.50400001928E-02 0. -1.
       -1    1    3    3    0  502  0.16583189588E+03 -0.23638382278E+03 -0.16361557610E+04  0.16614400993E+04  0.50400001928E-02 0.  1.
</event>
<event>
 5   0  0.6238363E-06  0.2087188E+04  0.7818609E-02  0.8566908E-01
        1   -1    0    0  501    0  0.00000000000E+00  0.00000000000E+00  0.75352350343E+03  0.75352350345E+03  0.50400001928E-02 0. -1.
       -1   -1    0    0    0  501  0.00000000000E+00  0.00000000000E+00 -0.14453271521E+04  0.14453271521E+04  0.50400001928E-02 0.  1.
    10030    2    1    2    0    0  0.00000000000E+00  0.00000000000E+00 -0.69180364864E+03  0.21988506555E+04  0.20871875615E+04 0.  0.
        4    1    3    3  502    0 -0.47762948586E+03  0.43471859198E+02 -0.13223465911E+04  0.14066349378E+04  0.12699999809E+01 0.  1.
       -4    1    3    3    0  502  0.47762948586E+03 -0.43471859198E+02  0.63054294244E+03  0.79221571776E+03  0.12699999809E+01 0. -1.
</event>
<event>
 5   0  0.1398469E-05  0.2100758E+04  0.7818609E-02  0.8560910E-01
        2   -1    0    0  501    0  0.00000000000E+00  0.00000000000E+00  0.15614966325E+04  0.15614966325E+04  0.25500000920E-02 0.  1.
       -2   -1    0    0    0  501  0.00000000000E+00  0.00000000000E+00 -0.70656303743E+03  0.70656303743E+03  0.25500000920E-02 0. -1.
    10030    2    1    2    0    0  0.00000000000E+00  0.00000000000E+00  0.85493359503E+03  0.22680596699E+04  0.21007577714E+04 0.  0.
        2    1    3    3  502    0 -0.86295399809E+03 -0.42519828035E+03  0.88272710953E+03  0.13056379017E+04  0.25500000920E-02 0.  1.
       -2    1    3    3    0  502  0.86295399809E+03  0.42519828035E+03 -0.27793514505E+02  0.96242176819E+03  0.25500000920E-02 0. -1.
</event>
<event>
 5   0  0.1398469E-05  0.2095802E+04  0.7818609E-02  0.8563095E-01
       -2   -1    0    0    0  501  0.00000000000E+00  0.00000000000E+00  0.48438426131E+03  0.48438426131E+03  0.25500000920E-02 0.  1.
        2   -1    0    0  501    0  0.00000000000E+00  0.00000000000E+00 -0.22669949441E+04  0.22669949441E+04  0.25500000920E-02 0. -1.
    10030    2    1    2    0    0  0.00000000000E+00  0.00000000000E+00 -0.17826106828E+04  0.27513792054E+04  0.20958021580E+04 0.  0.
        2    1    3    3  502    0  0.18792683219E+03 -0.76229616097E+03  0.19827312243E+02  0.78536937399E+03  0.25500000920E-02 0.  1.
       -2    1    3    3    0  502 -0.18792683219E+03  0.76229616097E+03 -0.18024379951E+04  0.19660098314E+04  0.25500000920E-02 0. -1.
</event>
<event>
 5   0  0.6238363E-06  0.2076858E+04  0.7818609E-02  0.8571507E-01
        1   -1    0    0  501    0  0.00000000000E+00  0.00000000000E+00  0.10322728489E+04  0.10322728489E+04  0.50400001928E-02 0.  1.
       -1   -1    0    0    0  501  0.00000000000E+00  0.00000000000E+00 -0.10446220160E+04  0.10446220161E+04  0.50400001928E-02 0. -1.
    10030    2    1    2    0    0  0.00000000000E+00  0.00000000000E+00 -0.12349167108E+02  0.20768948650E+04  0.20768581507E+04 0.  0.
        4    1    3    3  502    0 -0.94439993181E+03 -0.10549191580E+02  0.42549357942E+03  0.10358807439E+04  0.12699999809E+01 0.  1.
       -4    1    3    3    0  502  0.94439993181E+03  0.10549191580E+02 -0.43784274653E+03  0.10410141211E+04  0.12699999809E+01 0. -1.
</event>
<event>
 5   0  0.6917078E-06  0.2087597E+04  0.7818609E-02  0.8566727E-01
       -1   -1    0    0    0  501  0.00000000000E+00  0.00000000000E+00  0.89179460605E+03  0.89179460606E+03  0.50400001928E-02 0.  1.
        1   -1    0    0  501    0  0.00000000000E+00  0.00000000000E+00 -0.12217107308E+04  0.12217107309E+04  0.50400001928E-02 0. -1.
    10030    2    1    2    0    0  0.00000000000E+00  0.00000000000E+00 -0.32991612479E+03  0.21135053369E+04  0.20875967426E+04 0.  0.
        5    1    3    3  502    0 -0.50684856906E+03 -0.56277397687E+03  0.56220584850E+03  0.94324309014E+03  0.46999998093E+01 0.  1.
       -5    1    3    3    0  502  0.50684856906E+03  0.56277397687E+03 -0.89212197330E+03  0.11702622468E+04  0.46999998093E+01 0. -1.
</event>
<event>
 5   0  0.6599245E-06  0.2111566E+04  0.7818609E-02  0.8556165E-01
        1   -1    0    0  501    0  0.00000000000E+00  0.00000000000E+00  0.12069194684E+04  0.12069194684E+04  0.50400001928E-02 0.  1.
       -1   -1    0    0    0  501  0.00000000000E+00  0.00000000000E+00 -0.92357300617E+03  0.92357300618E+03  0.50400001928E-02 0. -1.
    10030    2    1    2    0    0  0.00000000000E+00  0.00000000000E+00  0.28334646225E+03  0.21304924746E+04  0.21115664722E+04 0.  0.
        2    1    3    3  502    0  0.50891060852E+03 -0.67393179445E+03  0.78099615555E+03  0.11502734745E+04  0.25500000920E-02 0.  1.
       -2    1    3    3    0  502 -0.50891060852E+03  0.67393179445E+03 -0.49764969329E+03  0.98021900016E+03  0.25500000920E-02 0. -1.
</event>
<event>
 5   0  0.1344501E-05  0.2100609E+04  0.7818609E-02  0.8560975E-01
       -2   -1    0    0    0  501  0.00000000000E+00  0.00000000000E+00  0.53044551660E+03  0.53044551660E+03  0.25500000920E-02 0. -1.
        2   -1    0    0  501    0  0.00000000000E+00  0.00000000000E+00 -0.20796463375E+04  0.20796463375E+04  0.25500000920E-02 0.  1.
    10030    2    1    2    0    0  0.00000000000E+00  0.00000000000E+00 -0.15492008209E+04  0.26100918541E+04  0.21006085555E+04 0.  0.
        3    1    3    3  502    0 -0.40574294563E+03 -0.96403600289E+03 -0.65576833351E+03  0.12345140219E+04  0.10100000352E+00 0. -1.
       -3    1    3    3    0  502  0.40574294563E+03  0.96403600289E+03 -0.89343248743E+03  0.13755778323E+04  0.10100000352E+00 0.  1.
</event>
<event>
 5   0  0.6599245E-06  0.2102507E+04  0.7818609E-02  0.8560140E-01
        1   -1    0    0  501    0  0.00000000000E+00  0.00000000000E+00  0.28544793118E+04  0.28544793118E+04  0.50400001928E-02 0.  1.
       -1   -1    0    0    0  501  0.00000000000E+00  0.00000000000E+00 -0.38715782058E+03  0.38715782062E+03  0.50400001928E-02 0. -1.
    10030    2    1    2    0    0  0.00000000000E+00  0.00000000000E+00  0.24673214912E+04  0.32416371324E+04  0.21025070647E+04 0.  0.
        2    1    3    3  502    0  0.93640918108E+03 -0.12328887287E+03  0.52197247429E+03  0.10791281502E+04  0.25500000920E-02 0. -1.
       -2    1    3    3    0  502 -0.93640918108E+03  0.12328887287E+03  0.19453490169E+04  0.21625089822E+04  0.25500000920E-02 0.  1.
</event>
<event>
 5   0  0.6283269E-06  0.2099232E+04  0.7818609E-02  0.8561582E-01
        1   -1    0    0  501    0  0.00000000000E+00  0.00000000000E+00  0.15680455748E+04  0.15680455748E+04  0.50400001928E-02 0.  1.
       -1   -1    0    0    0  501  0.00000000000E+00  0.00000000000E+00 -0.70259018596E+03  0.70259018598E+03  0.50400001928E-02 0. -1.
    10030    2    1    2    0    0  0.00000000000E+00  0.00000000000E+00  0.86545538883E+03  0.22706357608E+04  0.20992316995E+04 0.  0.
        1    1    3    3  502    0 -0.23970829091E+02 -0.50352041853E+03 -0.56308805329E+03  0.75576158165E+03  0.50400001928E-02 0. -1.
       -1    1    3    3    0  502  0.23970829091E+02  0.50352041853E+03  0.14285434421E+04  0.15148741791E+04  0.50400001928E-02 0.  1.
</event>
<event>
 5   0  0.1395356E-05  0.2099610E+04  0.7818609E-02  0.8561415E-01
       -2   -1    0    0    0  501  0.00000000000E+00  0.00000000000E+00  0.10160605628E+04  0.10160605628E+04  0.25500000920E-02 0.  1.
        2   -1    0    0  501    0  0.00000000000E+00  0.00000000000E+00 -0.10846699740E+04  0.10846699740E+04  0.25500000920E-02 0. -1.
    10030    2    1    2    0    0  0.00000000000E+00  0.00000000000E+00 -0.68609411146E+02  0.21007305368E+04  0.20996098535E+04 0.  0.
        1    1    3    3  502    0 -0.11393194294E+03 -0.24455038540E+03  0.98078351627E+03  0.10172127036E+04  0.50400001928E-02 0.  1.
       -1    1    3    3    0  502  0.11393194294E+03  0.24455038540E+03 -0.10493929274E+04  0.10835178331E+04  0.50400001928E-02 0. -1.
</event>
<event>
 5   0  0.6917078E-06  0.2102396E+04  0.7818609E-02  0.8560189E-01
        1   -1    0    0  501    0  0.00000000000E+00  0.00000000000E+00  0.71845208329E+03  0.71845208331E+03  0.50400001928E-02 0. -1.
       -1   -1    0    0    0  501  0.00000000000E+00  0.00000000000E+00 -0.15380528412E+04  0.15380528412E+04  0.50400001928E-02 0.  1.
    10030    2    1    2    0    0  0.00000000000E+00  0.00000000000E+00 -0.81960075789E+03  0.22565049245E+04  0.21023960312E+04 0.  0.
        5    1    3    3  502    0 -0.91985618721E+03 -0.33543009024E+03  0.79383031231E+00  0.97911770015E+03  0.46999998093E+01 0.  1.
       -5    1    3    3    0  502  0.91985618721E+03  0.33543009024E+03 -0.82039458820E+03  0.12773872244E+04  0.46999998093E+01 0. -1.
</event>
<event>
 5   0  0.6917078E-06  0.2105857E+04  0.7818609E-02  0.8558668E-01
       -1   -1    0    0    0  501  0.00000000000E+00  0.00000000000E+00  0.10049948540E+04  0.10049948540E+04  0.50400001928E-02 0.  1.
        1   -1    0    0  501    0  0.00000000000E+00  0.00000000000E+00 -0.11031481998E+04  0.11031481998E+04  0.50400001928E-02 0. -1.
    10030    2    1    2    0    0  0.00000000000E+00  0.00000000000E+00 -0.98153345766E+02  0.21081430538E+04  0.21058568461E+04 0.  0.
        5    1    3    3  502    0  0.84531419975E+03 -0.99094854737E+02 -0.66963696731E+03  0.10829642859E+04  0.46999998093E+01 0. -1.
       -5    1    3    3    0  502 -0.84531419975E+03  0.99094854737E+02  0.57148362154E+03  0.10251787679E+04  0.46999998093E+01 0.  1.
</event>
<event>
 5   0  0.1398469E-05  0.2091288E+04  0.7818609E-02  0.8565091E-01
        2   -1    0    0  501    0  0.00000000000E+00  0.00000000000E+00  0.12765374631E+04  0.12765374631E+04  0.25500000920E-02 0. -1.
       -2   -1    0    0    0  501  0.00000000000E+00  0.00000000000E+00 -0.85651367044E+03  0.85651367045E+03  0.25500000920E-02 0.  1.
    10030    2    1    2    0    0  0.00000000000E+00  0.00000000000E+00  0.42002379266E+03  0.21330511335E+04  0.20912883952E+04 0.  0.
        2    1    3    3  502    0 -0.69808293048E+03  0.66939454318E+03  0.61539436648E+03  0.11463503210E+04  0.25500000920E-02 0. -1.
       -2    1    3    3    0  502  0.69808293048E+03 -0.66939454318E+03 -0.19537057383E+03  0.98670081250E+03  0.25500000920E-02 0.  1.
</event>
<event>
 5   0  0.1398469E-05  0.2102780E+04  0.7818609E-02  0.8560020E-01
        2   -1    0    0  501    0  0.00000000000E+00  0.00000000000E+00  0.19696611560E+04  0.19696611560E+04  0.25500000920E-02 0. -1.
       -2   -1    0    0    0  501  0.00000000000E+00  0.00000000000E+00 -0.56122399411E+03  0.56122399412E+03  0.25500000920E-02 0.  1.
    10030    2    1    2    0    0  0.00000000000E+00  0.00000000000E+00  0.14084371619E+04  0.25308851501E+04  0.21027801607E+04 0.  0.
        2    1    3    3  502    0  0.63246572100E+03  0.21370101523E+03 -0.27338999801E+03  0.72140356471E+03  0.25500000920E-02 0.  1.
       -2    1    3    3    0  502 -0.63246572100E+03 -0.21370101523E+03  0.16818271599E+04  0.18094815854E+04  0.25500000920E-02 0. -1.
</event>
<event>
 5   0  0.6589193E-06  0.2096698E+04  0.7818609E-02  0.8562699E-01
       -1   -1    0    0    0  501  0.00000000000E+00  0.00000000000E+00  0.70342203516E+03  0.70342203518E+03  0.50400001928E-02 0.  1.
        1   -1    0    0  501    0  0.00000000000E+00  0.00000000000E+00 -0.15624125143E+04  0.15624125143E+04  0.50400001928E-02 0. -1.
    10030    2    1    2    0    0  0.00000000000E+00  0.00000000000E+00 -0.85899047914E+03  0.22658345495E+04  0.20966977756E+04 0.  0.
        3    1    3    3  502    0  0.41479235026E+03  0.45634899396E+03 -0.13456624147E+04  0.14802413461E+04  0.10100000352E+00 0. -1.
       -3    1    3    3    0  502 -0.41479235026E+03 -0.45634899396E+03  0.48667193558E+03  0.78559320339E+03  0.10100000352E+00 0.  1.
</event>
<event>
 5   0  0.1390735E-05  0.2091100E+04  0.7818609E-02  0.8565174E-01
       -2   -1    0    0    0  501  0.00000000000E+00  0.00000000000E+00  0.10206373379E+04  0.10206373379E+04  0.25500000920E-02 0.  1.
        2   -1    0    0  501    0  0.00000000000E+00  0.00000000000E+00 -0.10710709410E+04  0.10710709410E+04  0.25500000920E-02 0. -1.
    10030    2    1    2    0    0  0.00000000000E+00  0.00000000000E+00 -0.50433603158E+02  0.20917082789E+04  0.20911001831E+04 0.  0.
        5    1    3    3  502    0 -0.60014158944E+03 -0.60599132826E+02  0.82902845193E+03  0.10252572586E+04  0.46999998093E+01 0.  1.
       -5    1    3    3    0  502  0.60014158944E+03  0.60599132826E+02 -0.87946205509E+03  0.10664510203E+04  0.46999998093E+01 0. -1.
</event>
<event>
 5   0  0.6238363E-06  0.2097150E+04  0.7818609E-02  0.8562500E-01
       -1   -1    0    0    0  501  0.00000000000E+00  0.00000000000E+00  0.12359318199E+04  0.12359318199E+04  0.50400001928E-02 0. -1.
        1   -1    0    0  501    0  0.00000000000E+00  0.00000000000E+00 -0.88961998047E+03  0.88961998048E+03  0.50400001928E-02 0.  1.
    10030    2    1    2    0    0  0.00000000000E+00  0.00000000000E+00  0.34631183946E+03  0.21255518004E+04  0.20971501058E+04 0.  0.
        4    1    3    3  502    0 -0.23587395944E+03 -0.34543634082E+03  0.11477107083E+04  0.12215581333E+04  0.12699999809E+01 0. -1.
       -4    1    3    3    0  502  0.23587395944E+03  0.34543634082E+03 -0.80139886882E+03  0.90399366709E+03  0.12699999809E+01 0.  1.
</event>
<event>
 5   0  0.1398469E-05  0.2088400E+04  0.7818609E-02  0.8566371E-01
        2   -1    0    0  501    0  0.00000000000E+00  0.00000000000E+00  0.19499858021E+04  0.19499858021E+04  0.25500000920E-02 0. -1.
       -2   -1    0    0    0  501  0.00000000000E+00  0.00000000000E+00 -0.55915960820E+03  0.55915960820E+03  0.25500000920E-02 0.  1.
    10030    2    1    2    0    0  0.00000000000E+00  0.00000000000E+00  0.13908261939E+04  0.25091454103E+04  0.20883996716E+04 0.  0.
        2    1    3    3  502    0 -0.80814828035E+03  0.61247361637E+03  0.39594680633E+03  0.10885777176E+04  0.25500000920E-02 0.  1.
       -2    1    3    3    0  502  0.80814828035E+03 -0.61247361637E+03  0.99487938760E+03  0.14205676927E+04  0.25500000920E-02 0. -1.
</event>
<event>
 5   0  0.6589193E-06  0.2100703E+04  0.7818609E-02  0.8560934E-01
       -1   -1    0    0    0  501  0.00000000000E+00  0.00000000000E+00  0.89529631002E+03  0.89529631004E+03  0.50400001928E-02 0. -1.
        1   -1    0    0  501    0  0.00000000000E+00  0.00000000000E+00 -0.12322603876E+04  0.12322603876E+04  0.50400001928E-02 0.  1.
    10030    2    1    2    0    0  0.00000000000E+00  0.00000000000E+00 -0.33696407757E+03  0.21275566976E+04  0.21007029091E+04 0.  0.
        3    1    3    3  502    0  0.96659856280E+03  0.33493184608E+03 -0.40974147219E+03  0.11019892047E+04  0.10100000352E+00 0. -1.
       -3    1    3    3    0  502 -0.96659856280E+03 -0.33493184608E+03  0.72777394626E+02  0.10255674929E+04  0.10100000352E+00 0.  1.
</event>
<event>
 5   0  0.6917078E-06  0.2098704E+04  0.7818609E-02  0.8561815E-01
        1   -1    0    0  501    0  0.00000000000E+00  0.00000000000E+00  0.75069426033E+03  0.75069426035E+03  0.50400001928E-02 0.  1.
       -1   -1    0    0    0  501  0.00000000000E+00  0.00000000000E+00 -0.14668279906E+04  0.14668279906E+04  0.50400001928E-02 0. -1.
    10030    2    1    2    0    0  0.00000000000E+00  0.00000000000E+00 -0.71613373026E+03  0.22175222510E+04  0.20987037461E+04 0.  0.
        5    1    3    3  502    0  0.27274614020E+03 -0.40375615916E+03 -0.13400414823E+04  0.14258831500E+04  0.46999998093E+01 0. -1.
       -5    1    3    3    0  502 -0.27274614020E+03  0.40375615916E+03  0.62390775208E+03  0.79163910095E+03  0.46999998093E+01 0.  1.
</event>
<event>
 5   0  0.6599245E-06  0.2099602E+04  0.7818609E-02  0.8561419E-01
        1   -1    0    0  501    0  0.00000000000E+00  0.00000000000E+00  0.14728760867E+04  0.14728760867E+04  0.50400001928E-02 0. -1.
       -1   -1    0    0    0  501  0.00000000000E+00  0.00000000000E+00 -0.74825187479E+03  0.74825187481E+03  0.50400001928E-02 0.  1.
    10030    2    1    2    0    0  0.00000000000E+00  0.00000000000E+00  0.72462421191E+03  0.22211279615E+04  0.20996021464E+04 0.  0.
        2    1    3    3  502    0  0.69649464620E+03  0.49033939905E+03 -0.28683762893E+03  0.89878437004E+03  0.25500000920E-02 0.  1.
       -2    1    3    3    0  502 -0.69649464620E+03 -0.49033939905E+03  0.10114618408E+04  0.13223435915E+04  0.25500000920E-02 0. -1.
</event>
<event>
 5   0  0.6917078E-06  0.2093598E+04  0.7818609E-02  0.8564069E-01
        1   -1    0    0  501    0  0.00000000000E+00  0.00000000000E+00  0.90519435122E+03  0.90519435123E+03  0.50400001928E-02 0. -1.
       -1   -1    0    0    0  501  0.00000000000E+00  0.00000000000E+00 -0.12105557285E+04  0.12105557285E+04  0.50400001928E-02 0.  1.
    10030    2    1    2    0    0  0.00000000000E+00  0.00000000000E+00 -0.30536137728E+03  0.21157500797E+04  0.20935980582E+04 0.  0.
        5    1    3    3  502    0  0.11755692050E+03 -0.38283456319E+03 -0.11300665909E+04  0.11989389151E+04  0.46999998093E+01 0.  1.
       -5    1    3    3    0  502 -0.11755692050E+03  0.38283456319E+03  0.82470521358E+03  0.91681116466E+03  0.46999998093E+01 0. -1.
</event>
<event>
 5   0  0.1398469E-05  0.2097760E+04  0.7818609E-02  0.8562231E-01
       -2   -1    0    0    0  501  0.00000000000E+00  0.00000000000E+00  0.57049743244E+03  0.57049743245E+03  0.25500000920E-02 0. -1.
        2   -1    0    0  501    0  0.00000000000E+00  0.00000000000E+00 -0.19284037527E+04  0.19284037527E+04  0.25500000920E-02 0.  1.
    10030    2    1    2    0    0  0.00000000000E+00  0.00000000000E+00 -0.13579063202E+04  0.24989011851E+04  0.20977601289E+04 0.  0.
        2    1    3    3  502    0 -0.11566019718E+03 -0.43106443078E+03 -0.18096467819E+04  0.18638710524E+04  0.25500000920E-02 0.  1.
       -2    1    3    3    0  502  0.11566019718E+03  0.43106443078E+03  0.45174046170E+03  0.63503013270E+03  0.25500000920E-02 0. -1.
</event>
<event>
 5   0  0.1398469E-05  0.2100178E+04  0.7818609E-02  0.8561165E-01
        2   -1    0    0  501    0  0.00000000000E+00  0.00000000000E+00  0.86674499049E+03  0.86674499049E+03  0.25500000920E-02 0. -1.
       -2   -1    0    0    0  501  0.00000000000E+00  0.00000000000E+00 -0.12722160807E+04  0.12722160807E+04  0.25500000920E-02 0.  1.
    10030    2    1    2    0    0  0.00000000000E+00  0.00000000000E+00 -0.40547109021E+03  0.21389610712E+04  0.21001780065E+04 0.  0.
        2    1    3    3  502    0 -0.57670887877E+03 -0.86510881184E+03 -0.35269770871E+03  0.10979080385E+04  0.25500000920E-02 0.  1.
       -2    1    3    3    0  502  0.57670887877E+03  0.86510881184E+03 -0.52773381499E+02  0.10410530327E+04  0.25500000920E-02 0. -1.
</event>
<event>
 5   0  0.6238363E-06  0.2102472E+04  0.7818609E-02  0.8560155E-01
        1   -1    0    0  501    0  0.00000000000E+00  0.00000000000E+00  0.20149067037E+04  0.20149067037E+04  0.50400001928E-02 0. -1.
       -1   -1    0    0    0  501  0.00000000000E+00  0.00000000000E+00 -0.54846057208E+03  0.54846057210E+03  0.50400001928E-02 0.  1.
    10030    2    1    2    0    0  0.00000000000E+00  0.00000000000E+00  0.14664461317E+04  0.25633672758E+04  0.21024717677E+04 0.  0.
        4    1    3    3  502    0 -0.30219884181E+03 -0.99190518380E+03  0.52241769924E+03  0.11610865166E+04  0.12699999809E+01 0. -1.
       -4    1    3    3    0  502  0.30219884181E+03  0.99190518380E+03  0.94402843242E+03  0.14022807592E+04  0.12699999809E+01 0.  1.
</event>
<event>
 5   0  0.1441136E-05  0.2101159E+04  0.7818609E-02  0.8560733E-01
        2   -1    0    0  501    0  0.00000000000E+00  0.00000000000E+00  0.20246664261E+04  0.20246664261E+04  0.25500000920E-02 0. -1.
       -2   -1    0    0    0  501  0.00000000000E+00  0.00000000000E+00 -0.54513517169E+03  0.54513517170E+03  0.25500000920E-02 0.  1.
    10030    2    1    2    0    0  0.00000000000E+00  0.00000000000E+00  0.14795312544E+04  0.25698015978E+04  0.21011586135E+04 0.  0.
        4    1    3    3  502    0  0.46317322801E+03 -0.26274752708E+03  0.18473766937E+04  0.19225940714E+04  0.12699999809E+01 0. -1.
       -4    1    3    3    0  502 -0.46317322801E+03  0.26274752708E+03 -0.36784543927E+03  0.64720752639E+03  0.12699999809E+01 0.  1.
</event>
<event>
 5   0  0.6917078E-06  0.2101334E+04  0.7818609E-02  0.8560656E-01
       -1   -1    0    0    0  501  0.00000000000E+00  0.00000000000E+00  0.68705355197E+03  0.68705355198E+03  0.50400001928E-02 0. -1.
        1   -1    0    0  501    0  0.00000000000E+00  0.00000000000E+00 -0.16067175413E+04  0.16067175413E+04  0.50400001928E-02 0.  1.
    10030    2    1    2    0    0  0.00000000000E+00  0.00000000000E+00 -0.91966398931E+03  0.22937710933E+04  0.21013338562E+04 0.  0.
        5    1    3    3  502    0 -0.82031448263E+03  0.55190193929E+03 -0.71795676244E+02  0.99130636542E+03  0.46999998093E+01 0. -1.
       -5    1    3    3    0  502  0.82031448263E+03 -0.55190193929E+03 -0.84786831307E+03  0.13024647279E+04  0.46999998093E+01 0.  1.
</event>
<event>
 5   0  0.6917078E-06  0.2105292E+04  0.7818609E-02  0.8558916E-01
       -1   -1    0    0    0  501  0.00000000000E+00  0.00000000000E+00  0.14878780422E+04  0.14878780422E+04  0.50400001928E-02 0.  1.
        1   -1    0    0  501    0  0.00000000000E+00  0.00000000000E+00 -0.74472729070E+03  0.74472729072E+03  0.50400001928E-02 0. -1.
    10030    2    1    2    0    0  0.00000000000E+00  0.00000000000E+00  0.74315075147E+03  0.22326053329E+04  0.21052917929E+04 0.  0.
        5    1    3    3  502    0  0.54482702438E+03  0.79227844808E+03 -0.82698017702E+02  0.96509205670E+03  0.46999998093E+01 0. -1.
       -5    1    3    3    0  502 -0.54482702438E+03 -0.79227844808E+03  0.82584876917E+03  0.12675132762E+04  0.46999998093E+01 0.  1.
</event>
<event>
 5   0  0.6589193E-06  0.2090255E+04  0.7818609E-02  0.8565548E-01
        1   -1    0    0  501    0  0.00000000000E+00  0.00000000000E+00  0.21969710030E+04  0.21969710030E+04  0.50400001928E-02 0.  1.
       -1   -1    0    0    0  501  0.00000000000E+00  0.00000000000E+00 -0.49718056780E+03  0.49718056783E+03  0.50400001928E-02 0. -1.
    10030    2    1    2    0    0  0.00000000000E+00  0.00000000000E+00  0.16997904352E+04  0.26941515708E+04  0.20902548082E+04 0.  0.
        3    1    3    3  502    0 -0.32321386285E+01  0.81164404058E+03  0.16985376659E+04  0.18825001216E+04  0.10100000352E+00 0.  1.
       -3    1    3    3    0  502  0.32321386285E+01 -0.81164404058E+03  0.12527693019E+01  0.81165144919E+03  0.10100000352E+00 0. -1.
</event>
<event>
 5   0  0.1398469E-05  0.2100261E+04  0.7818609E-02  0.8561128E-01
       -2   -1    0    0    0  501  0.00000000000E+00  0.00000000000E+00  0.19666271099E+04  0.19666271099E+04  0.25500000920E-02 0.  1.
        2   -1    0    0  501    0  0.00000000000E+00  0.00000000000E+00 -0.56074400947E+03  0.56074400947E+03  0.25500000920E-02 0. -1.
    10030    2    1    2    0    0  0.00000000000E+00  0.00000000000E+00  0.14058831004E+04  0.25273711193E+04  0.21002612892E+04 0.  0.
        2    1    3    3  502    0 -0.53417975617E+01 -0.10259211058E+04  0.43323920824E+03  0.11136601195E+04  0.25500000920E-02 0. -1.
       -2    1    3    3    0  502  0.53417975617E+01  0.10259211058E+04  0.97264389216E+03  0.14137109999E+04  0.25500000920E-02 0.  1.
</event>
<event>
 5   0  0.6283269E-06  0.2046187E+04  0.7818609E-02  0.8585326E-01
       -1   -1    0    0    0  501  0.00000000000E+00  0.00000000000E+00  0.58845462581E+03  0.58845462583E+03  0.50400001928E-02 0. -1.
        1   -1    0    0  501    0  0.00000000000E+00  0.00000000000E+00 -0.17787616386E+04  0.17787616386E+04  0.50400001928E-02 0.  1.
    10030    2    1    2    0    0  0.00000000000E+00  0.00000000000E+00 -0.11903070128E+04  0.23672162644E+04  0.20461872001E+04 0.  0.
        1    1    3    3  502    0 -0.73653197960E+03  0.62224167213E+03 -0.19934031539E+03  0.98458144247E+03  0.50400001928E-02 0. -1.
       -1    1    3    3    0  502  0.73653197960E+03 -0.62224167213E+03 -0.99096669740E+03  0.13826348220E+04  0.50400001928E-02 0.  1.
</event>
<event>
 5   0  0.1398469E-05  0.2091862E+04  0.7818609E-02  0.8564837E-01
        2   -1    0    0  501    0  0.00000000000E+00  0.00000000000E+00  0.22257017697E+04  0.22257017697E+04  0.25500000920E-02 0.  1.
       -2   -1    0    0    0  501  0.00000000000E+00  0.00000000000E+00 -0.49151773597E+03  0.49151773597E+03  0.25500000920E-02 0. -1.
    10030    2    1    2    0    0  0.00000000000E+00  0.00000000000E+00  0.17341840337E+04  0.27172195057E+04  0.20918622276E+04 0.  0.
        2    1    3    3  502    0  0.33688552208E+03 -0.62284236229E+02  0.21507524773E+04  0.21778676268E+04  0.25500000920E-02 0.  1.
       -2    1    3    3    0  502 -0.33688552208E+03  0.62284236229E+02 -0.41656844359E+03  0.53935187890E+03  0.25500000920E-02 0. -1.
</event>
<event>
 5   0  0.1398469E-05  0.2100812E+04  0.7818609E-02  0.8560886E-01
       -2   -1    0    0    0  501  0.00000000000E+00  0.00000000000E+00  0.82180672674E+03  0.82180672674E+03  0.25500000920E-02 0. -1.
        2   -1    0    0  501    0  0.00000000000E+00  0.00000000000E+00 -0.13425945815E+04  0.13425945816E+04  0.25500000920E-02 0.  1.
    10030    2    1    2    0    0  0.00000000000E+00  0.00000000000E+00 -0.52078785481E+03  0.21644013083E+04  0.21008124699E+04 0.  0.
        2    1    3    3  502    0  0.65005454659E+03  0.62644908920E+03  0.29283626403E+03  0.94908506070E+03  0.25500000920E-02 0. -1.
       -2    1    3    3    0  502 -0.65005454659E+03 -0.62644908920E+03 -0.81362411885E+03  0.12153162476E+04  0.25500000920E-02 0.  1.
</event>
<event>
 5   0  0.6589193E-06  0.2100975E+04  0.7818609E-02  0.8560814E-01
        1   -1    0    0  501    0  0.00000000000E+00  0.00000000000E+00  0.10860147718E+04  0.10860147718E+04  0.50400001928E-02 0. -1.
       -1   -1    0    0    0  501  0.00000000000E+00  0.00000000000E+00 -0.10161221518E+04  0.10161221518E+04  0.50400001928E-02 0.  1.
    10030    2    1    2    0    0  0.00000000000E+00  0.00000000000E+00  0.69892620022E+02  0.21021369236E+04  0.21009746945E+04 0.  0.
        3    1    3    3  502    0  0.54999423058E+03 -0.89390682282E+03 -0.93567911724E+01  0.10495954560E+04  0.10100000352E+00 0. -1.
       -3    1    3    3    0  502 -0.54999423058E+03  0.89390682282E+03  0.79249411195E+02  0.10525414676E+04  0.10100000352E+00 0.  1.
</event>
<event>
 5   0  0.6283269E-06  0.2081339E+04  0.7818609E-02  0.8569509E-01
        1   -1    0    0  501    0  0.00000000000E+00  0.00000000000E+00  0.16805717703E+04  0.16805717703E+04  0.50400001928E-02 0. -1.
       -1   -1    0    0    0  501  0.00000000000E+00  0.00000000000E+00 -0.64441929237E+03  0.64441929239E+03  0.50400001928E-02 0.  1.
    10030    2    1    2    0    0  0.00000000000E+00  0.00000000000E+00  0.10361524780E+04  0.23249910627E+04  0.20813388682E+04 0.  0.
        1    1    3    3  502    0  0.23837371667E+03  0.12341769735E+03 -0.60508200798E+03  0.66195029513E+03  0.50400001928E-02 0.  1.
       -1    1    3    3    0  502 -0.23837371667E+03 -0.12341769735E+03  0.16412344859E+04  0.16630407676E+04  0.50400001928E-02 0. -1.
</event>
<event>
 5   0  0.6589193E-06  0.2102307E+04  0.7818609E-02  0.8560228E-01
       -1   -1    0    0    0  501  0.00000000000E+00  0.00000000000E+00  0.97199093121E+03  0.97199093122E+03  0.50400001928E-02 0. -1.
        1   -1    0    0  501    0  0.00000000000E+00  0.00000000000E+00 -0.11367636242E+04  0.11367636242E+04  0.50400001928E-02 0.  1.
    10030    2    1    2    0    0  0.00000000000E+00  0.00000000000E+00 -0.16477269301E+03  0.21087545554E+04  0.21023072408E+04 0.  0.
        3    1    3    3  502    0  0.37633287860E+03 -0.17230915042E+03  0.88681031101E+03  0.97864672724E+03  0.10100000352E+00 0. -1.
       -3    1    3    3    0  502 -0.37633287860E+03  0.17230915042E+03 -0.10515830040E+04  0.11301078282E+04  0.10100000352E+00 0.  1.
</event>
<event>
 5   0  0.6917078E-06  0.2102201E+04  0.7818609E-02  0.8560275E-01
        1   -1    0    0  501    0  0.00000000000E+00  0.00000000000E+00  0.14928248462E+04  0.14928248462E+04  0.50400001928E-02 0. -1.
       -1   -1    0    0    0  501  0.00000000000E+00  0.00000000000E+00 -0.74008141704E+03  0.74008141706E+03  0.50400001928E-02 0.  1.
    10030    2    1    2    0    0  0.00000000000E+00  0.00000000000E+00  0.75274342919E+03  0.22329062633E+04  0.21022006827E+04 0.  0.
        5    1    3    3  502    0  0.84976954604E+03 -0.13735298686E+03 -0.26430220515E+03  0.90047313676E+03  0.46999998093E+01 0.  1.
       -5    1    3    3    0  502 -0.84976954604E+03  0.13735298686E+03  0.10170456343E+04  0.13324331265E+04  0.46999998093E+01 0. -1.
</event>
<event>
 5   0  0.6238363E-06  0.2115560E+04  0.7818609E-02  0.8554420E-01
        1   -1    0    0  501    0  0.00000000000E+00  0.00000000000E+00  0.14345080578E+04  0.14345080578E+04  0.50400001928E-02 0. -1.
       -1   -1    0    0    0  501  0.00000000000E+00  0.00000000000E+00 -0.77998759159E+03  0.77998759160E+03  0.50400001928E-02 0.  1.
    10030    2    1    2    0    0  0.00000000000E+00  0.00000000000E+00  0.65452046619E+03  0.22144956494E+04  0.21155599591E+04 0.  0.
        4    1    3    3  502    0 -0.14098155384E+03 -0.33544647758E+03  0.13669345573E+04  0.14145359079E+04  0.12699999809E+01 0. -1.
       -4    1    3    3    0  502  0.14098155384E+03  0.33544647758E+03 -0.71241409114E+03  0.79995974148E+03  0.12699999809E+01 0.  1.
</event>
<event>
 5   0  0.6238363E-06  0.2103030E+04  0.7818609E-02  0.8559910E-01
        1   -1    0    0  501    0  0.00000000000E+00  0.00000000000E+00  0.12737661334E+04  0.12737661334E+04  0.50400001928E-02 0.  1.
       -1   -1    0    0    0  501  0.00000000000E+00  0.00000000000E+00 -0.86804321359E+03  0.86804321361E+03  0.50400001928E-02 0. -1.
    10030    2    1    2    0    0  0.00000000000E+00  0.00000000000E+00  0.40572291976E+03  0.21418093470E+04  0.21030302402E+04 0.  0.
        4    1    3    3  502    0  0.63343727986E+03 -0.26928486972E+03  0.10124571094E+04  0.12242663680E+04  0.12699999809E+01 0.  1.
       -4    1    3    3    0  502 -0.63343727986E+03  0.26928486972E+03 -0.60673418959E+03  0.91754297899E+03  0.12699999809E+01 0. -1.
</event>
<event>
 5   0  0.1395356E-05  0.2100555E+04  0.7818609E-02  0.8560999E-01
       -2   -1    0    0    0  501  0.00000000000E+00  0.00000000000E+00  0.90025465738E+03  0.90025465739E+03  0.25500000920E-02 0.  1.
        2   -1    0    0  501    0  0.00000000000E+00  0.00000000000E+00 -0.12253004622E+04  0.12253004622E+04  0.25500000920E-02 0. -1.
    10030    2    1    2    0    0  0.00000000000E+00  0.00000000000E+00 -0.32504580486E+03  0.21255551196E+04  0.21005546390E+04 0.  0.
        1    1    3    3  502    0 -0.35576864534E+03 -0.94571298034E+03  0.12748555010E+03  0.10184286601E+04  0.50400001928E-02 0.  1.
       -1    1    3    3    0  502  0.35576864534E+03  0.94571298034E+03 -0.45253135496E+03  0.11071264595E+04  0.50400001928E-02 0. -1.
</event>
<event>
 5   0  0.1344501E-05  0.2128220E+04  0.7818609E-02  0.8548913E-01
        2   -1    0    0  501    0  0.00000000000E+00  0.00000000000E+00  0.19533546916E+04  0.19533546916E+04  0.25500000920E-02 0.  1.
       -2   -1    0    0    0  501  0.00000000000E+00  0.00000000000E+00 -0.57968498054E+03  0.57968498055E+03  0.25500000920E-02 0. -1.
    10030    2    1    2    0    0  0.00000000000E+00  0.00000000000E+00  0.13736697111E+04  0.25330396722E+04  0.21282202672E+04 0.  0.
        3    1    3    3  502    0 -0.87816970545E+03 -0.16394142951E+03  0.13749721881E+04  0.16396973355E+04  0.10100000352E+00 0.  1.
       -3    1    3    3    0  502  0.87816970545E+03  0.16394142951E+03 -0.13024769590E+01  0.89334233670E+03  0.10100000352E+00 0. -1.
</event>
<event>
 5   0  0.6917078E-06  0.2094994E+04  0.7818609E-02  0.8563452E-01
       -1   -1    0    0    0  501  0.00000000000E+00  0.00000000000E+00  0.14332676374E+04  0.14332676374E+04  0.50400001928E-02 0. -1.
        1   -1    0    0  501    0  0.00000000000E+00  0.00000000000E+00 -0.76555862145E+03  0.76555862147E+03  0.50400001928E-02 0.  1.
    10030    2    1    2    0    0  0.00000000000E+00  0.00000000000E+00  0.66770901591E+03  0.21988262588E+04  0.20949944121E+04 0.  0.
        5    1    3    3  502    0 -0.97936880724E+03 -0.31114291398E+02  0.72247163568E+03  0.12174229808E+04  0.46999998093E+01 0. -1.
       -5    1    3    3    0  502  0.97936880724E+03  0.31114291398E+02 -0.54762619767E+02  0.98140327809E+03  0.46999998093E+01 0.  1.
</event>
<event>
 5   0  0.1398469E-05  0.2102352E+04  0.7818609E-02  0.8560208E-01
        2   -1    0    0  501    0  0.00000000000E+00  0.00000000000E+00  0.12754509754E+04  0.12754509754E+04  0.25500000920E-02 0.  1.
       -2   -1    0    0    0  501  0.00000000000E+00  0.00000000000E+00 -0.86633751884E+03  0.86633751884E+03  0.25500000920E-02 0. -1.
    10030    2    1    2    0    0  0.00000000000E+00  0.00000000000E+00  0.40911345652E+03  0.21417884942E+04  0.21023520480E+04 0.  0.
        2    1    3    3  502    0 -0.26078948485E+03 -0.34509394080E+03  0.11805835185E+04  0.12573298802E+04  0.25500000920E-02 0.  1.
       -2    1    3    3    0  502  0.26078948485E+03  0.34509394080E+03 -0.77147006199E+03  0.88445861403E+03  0.25500000920E-02 0. -1.
</event>
<event>
 5   0  0.1441136E-05  0.2101951E+04  0.7818609E-02  0.8560384E-01
        2   -1    0    0  501    0  0.00000000000E+00  0.00000000000E+00  0.25062487846E+04  0.25062487846E+04  0.25500000920E-02 0. -1.
       -2   -1    0    0    0  501  0.00000000000E+00  0.00000000000E+00 -0.44071841157E+03  0.44071841158E+03  0.25500000920E-02 0.  1.
    10030    2    1    2    0    0  0.00000000000E+00  0.00000000000E+00  0.20655303730E+04  0.29469671961E+04  0.21019514584E+04 0.  0.
        4    1    3    3  502    0 -0.33660178375E+03 -0.99357465697E+03  0.94346431578E+03  0.14108925855E+04  0.12699999809E+01 0.  1.
       -4    1    3    3    0  502  0.33660178375E+03  0.99357465697E+03  0.11220660572E+04  0.15360746106E+04  0.12699999809E+01 0. -1.
</event>
<event>
 5   0  0.6238363E-06  0.2101647E+04  0.7818609E-02  0.8560518E-01
       -1   -1    0    0    0  501  0.00000000000E+00  0.00000000000E+00  0.50442786190E+03  0.50442786193E+03  0.50400001928E-02 0.  1.
        1   -1    0    0  501    0  0.00000000000E+00  0.00000000000E+00 -0.21890736698E+04  0.21890736698E+04  0.50400001928E-02 0. -1.
    10030    2    1    2    0    0  0.00000000000E+00  0.00000000000E+00 -0.16846458079E+04  0.26935015318E+04  0.21016467361E+04 0.  0.
        4    1    3    3  502    0  0.97902588424E+02 -0.59438107081E+03  0.26117225774E+03  0.65657165281E+03  0.12699999809E+01 0.  1.
       -4    1    3    3    0  502 -0.97902588424E+02  0.59438107081E+03 -0.19458180657E+04  0.20369298790E+04  0.12699999809E+01 0. -1.
</event>
<event>
 5   0  0.1390735E-05  0.2100922E+04  0.7818609E-02  0.8560837E-01
       -2   -1    0    0    0  501  0.00000000000E+00  0.00000000000E+00  0.65206902135E+03  0.65206902135E+03  0.25500000920E-02 0.  1.
        2   -1    0    0  501    0  0.00000000000E+00  0.00000000000E+00 -0.16922575614E+04  0.16922575614E+04  0.25500000920E-02 0. -1.
    10030    2    1    2    0    0  0.00000000000E+00  0.00000000000E+00 -0.10401885401E+04  0.23443265828E+04  0.21009223993E+04 0.  0.
        5    1    3    3  502    0 -0.12150885762E+03 -0.61646377365E+03  0.41925136787E+03  0.75537129026E+03  0.46999998093E+01 0.  1.
       -5    1    3    3    0  502  0.12150885762E+03  0.61646377365E+03 -0.14594399080E+04  0.15889552925E+04  0.46999998093E+01 0. -1.
</event>
<event>
 5   0  0.1395356E-05  0.2102107E+04  0.7818609E-02  0.8560316E-01
        2   -1    0    0  501    0  0.00000000000E+00  0.00000000000E+00  0.23521209579E+04  0.23521209579E+04  0.25500000920E-02 0. -1.
       -2   -1    0    0    0  501  0.00000000000E+00  0.00000000000E+00 -0.46966691918E+03  0.46966691918E+03  0.25500000920E-02 0.  1.
    10030    2    1    2    0    0  0.00000000000E+00  0.00000000000E+00  0.18824540387E+04  0.28217878771E+04  0.21021069467E+04 0.  0.
        1    1    3    3  502    0  0.87306219659E+02  0.17890641425E+03  0.23265830160E+04  0.23350842408E+04  0.50400001928E-02 0. -1.
       -1    1    3    3    0  502 -0.87306219659E+02 -0.17890641425E+03 -0.44412897732E+03  0.48670363628E+03  0.50400001928E-02 0.  1.
</event>
<event>
 5   0  0.6238363E-06  0.2099689E+04  0.7818609E-02  0.8561380E-01
       -1   -1    0    0    0  501  0.00000000000E+00  0.00000000000E+00  0.61011589996E+03  0.61011589998E+03  0.50400001928E-02 0. -1.
        1   -1    0    0  501    0  0.00000000000E+00  0.00000000000E+00 -0.18064992511E+04  0.18064992511E+04  0.50400001928E-02 0.  1.
    10030    2    1    2    0    0  0.00000000000E+00  0.00000000000E+00 -0.11963833511E+04  0.24166151511E+04  0.20996894212E+04 0.  0.
        4    1    3    3  502    0 -0.10325465059E+04 -0.72474361026E+02 -0.39630929210E+03  0.11083625254E+04  0.12699999809E+01 0. -1.
       -4    1    3    3    0  502  0.10325465059E+04  0.72474361026E+02 -0.80007405903E+03  0.13082526257E+04  0.12699999809E+01 0.  1.
</event>
<event>
 5   0  0.6283269E-06  0.2096691E+04  0.7818609E-02  0.8562702E-01
        1   -1    0    0  501    0  0.00000000000E+00  0.00000000000E+00  0.10541571948E+04  0.10541571948E+04  0.50400001928E-02 0. -1.
       -1   -1    0    0    0  501  0.00000000000E+00  0.00000000000E+00 -0.10425661914E+04  0.10425661914E+04  0.50400001928E-02 0.  1.
    10030    2    1    2    0    0  0.00000000000E+00  0.00000000000E+00  0.11591003445E+02  0.20967233862E+04  0.20966913476E+04 0.  0.
        1    1    3    3  502    0 -0.10330803532E+04  0.11831592606E+03 -0.12752936629E+03  0.10476246531E+04  0.50400001928E-02 0.  1.
       -1    1    3    3    0  502  0.10330803532E+04 -0.11831592606E+03  0.13912036974E+03  0.10490987331E+04  0.50400001928E-02 0. -1.
</event>
<event>
 5   0  0.1441136E-05  0.2093139E+04  0.7818609E-02  0.8564272E-01
       -2   -1    0    0    0  501  0.00000000000E+00  0.00000000000E+00  0.11051482151E+04  0.11051482151E+04  0.25500000920E-02 0. -1.
        2   -1    0    0  501    0  0.00000000000E+00  0.00000000000E+00 -0.99109619038E+03  0.99109619039E+03  0.25500000920E-02 0.  1.
    10030    2    1    2    0    0  0.00000000000E+00  0.00000000000E+00  0.11405202468E+03  0.20962444055E+04  0.20931394466E+04 0.  0.
        4    1    3    3  502    0 -0.15984280615E+03  0.10157654056E+04  0.25219323796E+03  0.10587408201E+04  0.12699999809E+01 0.  1.
       -4    1    3    3    0  502  0.15984280615E+03 -0.10157654056E+04 -0.13814121328E+03  0.10375035854E+04  0.12699999809E+01 0. -1.
</event>
<event>
 5   0  0.1344501E-05  0.2099462E+04  0.7818609E-02  0.8561480E-01
       -2   -1    0    0    0  501  0.00000000000E+00  0.00000000000E+00  0.90233819749E+03  0.90233819749E+03  0.25500000920E-02 0. -1.
        2   -1    0    0  501    0  0.00000000000E+00  0.00000000000E+00 -0.12211995239E+04  0.12211995239E+04  0.25500000920E-02 0.  1.
    10030    2    1    2    0    0  0.00000000000E+00  0.00000000000E+00 -0.31886132639E+03  0.21235377214E+04  0.20994618140E+04 0.  0.
        3    1    3    3  502    0 -0.59746473958E+03  0.51365108632E+02  0.71203690796E+03  0.93091302382E+03  0.10100000352E+00 0. -1.
       -3    1    3    3    0  502  0.59746473958E+03 -0.51365108632E+02 -0.10308982343E+04  0.11926246975E+04  0.10100000352E+00 0.  1.
</event>
<event>
 5   0  0.1398469E-05  0.2097572E+04  0.7818609E-02  0.8562314E-01
       -2   -1    0    0    0  501  0.00000000000E+00  0.00000000000E+00  0.10418972510E+04  0.10418972510E+04  0.25500000920E-02 0.  1.
        2   -1    0    0  501    0  0.00000000000E+00  0.00000000000E+00 -0.10557199666E+04  0.10557199666E+04  0.25500000920E-02 0. -1.
    10030    2    1    2    0    0  0.00000000000E+00  0.00000000000E+00 -0.13822715606E+02  0.20976172177E+04  0.20975716733E+04 0.  0.
        2    1    3    3  502    0 -0.87582670079E+03  0.34304065621E+03 -0.47082058916E+03  0.10518656420E+04  0.25500000920E-02 0. -1.
       -2    1    3    3    0  502  0.87582670079E+03 -0.34304065621E+03  0.45699787355E+03  0.10457515757E+04  0.25500000920E-02 0.  1.
</event>
<event>
 5   0  0.1398469E-05  0.2080097E+04  0.7818609E-02  0.8570062E-01
        2   -1    0    0  501    0  0.00000000000E+00  0.00000000000E+00  0.79968091047E+03  0.79968091048E+03  0.25500000920E-02 0.  1.
       -2   -1    0    0    0  501  0.00000000000E+00  0.00000000000E+00 -0.13526652679E+04  0.13526652679E+04  0.25500000920E-02 0. -1.
    10030    2    1    2    0    0  0.00000000000E+00  0.00000000000E+00 -0.55298435744E+03  0.21523461784E+04  0.20800967218E+04 0.  0.
        2    1    3    3  502    0 -0.80057328200E+03 -0.39090568318E+03 -0.83176518383E+03  0.12188347526E+04  0.25500000920E-02 0.  1.
       -2    1    3    3    0  502  0.80057328200E+03  0.39090568318E+03  0.27878082639E+03  0.93351142584E+03  0.25500000920E-02 0. -1.
</event>
<event>
 5   0  0.1441136E-05  0.2098407E+04  0.7818609E-02  0.8561946E-01
       -2   -1    0    0    0  501  0.00000000000E+00  0.00000000000E+00  0.77556258218E+03  0.77556258219E+03  0.25500000920E-02 0. -1.
        2   -1    0    0  501    0  0.00000000000E+00  0.00000000000E+00 -0.14193923814E+04  0.14193923814E+04  0.25500000920E-02 0.  1.
    10030    2    1    2    0    0  0.00000000000E+00  0.00000000000E+00 -0.64382979919E+03  0.21949549636E+04  0.20984066531E+04 0.  0.
        4    1    3    3  502    0 -0.49142969007E+03  0.49727644901E+03 -0.11402393130E+04  0.13375104900E+04  0.12699999809E+01 0.  1.
       -4    1    3    3    0  502  0.49142969007E+03 -0.49727644901E+03  0.49640951378E+03  0.85744447360E+03  0.12699999809E+01 0. -1.
</event>
<event>
 5   0  0.1390735E-05  0.2100817E+04  0.7818609E-02  0.8560884E-01
       -2   -1    0    0    0  501  0.00000000000E+00  0.00000000000E+00  0.10473256381E+04  0.10473256381E+04  0.25500000920E-02 0. -1.
        2   -1    0    0  501    0  0.00000000000E+00  0.00000000000E+00 -0.10535001011E+04  0.10535001011E+04  0.25500000920E-02 0.  1.
    10030    2    1    2    0    0  0.00000000000E+00  0.00000000000E+00 -0.61744630048E+01  0.21008257392E+04  0.21008166656E+04 0.  0.
        5    1    3    3  502    0 -0.84533746783E+03  0.64367773135E+02  0.61707424188E+03  0.10485901748E+04  0.46999998093E+01 0. -1.
       -5    1    3    3    0  502  0.84533746783E+03 -0.64367773135E+02 -0.62324870488E+03  0.10522355643E+04  0.46999998093E+01 0.  1.
</event>
<event>
 5   0  0.1390735E-05  0.2100553E+04  0.7818609E-02  0.8561000E-01
       -2   -1    0    0    0  501  0.00000000000E+00  0.00000000000E+00  0.10024698090E+04  0.10024698090E+04  0.25500000920E-02 0. -1.
        2   -1    0    0  501    0  0.00000000000E+00  0.00000000000E+00 -0.11003627381E+04  0.11003627381E+04  0.25500000920E-02 0.  1.
    10030    2    1    2    0    0  0.00000000000E+00  0.00000000000E+00 -0.97892929109E+02  0.21028325471E+04  0.21005527119E+04 0.  0.
        5    1    3    3  502    0 -0.46664642424E+03  0.27273939546E+03 -0.95043072642E+03  0.10933829699E+04  0.46999998093E+01 0.  1.
       -5    1    3    3    0  502  0.46664642424E+03 -0.27273939546E+03  0.85253779731E+03  0.10094495772E+04  0.46999998093E+01 0. -1.
</event>
<event>
 5   0  0.1344501E-05  0.2099101E+04  0.7818609E-02  0.8561640E-01
        2   -1    0    0  501    0  0.00000000000E+00  0.00000000000E+00  0.24961815464E+04  0.24961815464E+04  0.25500000920E-02 0.  1.
       -2   -1    0    0    0  501  0.00000000000E+00  0.00000000000E+00 -0.44129650635E+03  0.44129650636E+03  0.25500000920E-02 0. -1.
    10030    2    1    2    0    0  0.00000000000E+00  0.00000000000E+00  0.20548850400E+04  0.29374780527E+04  0.20991009463E+04 0.  0.
        3    1    3    3  502    0 -0.20178218832E+02 -0.69723403442E+03 -0.70004871073E+02  0.70103006458E+03  0.10100000352E+00 0. -1.
       -3    1    3    3    0  502  0.20178218832E+02  0.69723403442E+03  0.21248899111E+04  0.22364479882E+04  0.10100000352E+00 0.  1.
</event>
<event>
 5   0  0.6283269E-06  0.2100069E+04  0.7818609E-02  0.8561213E-01
       -1   -1    0    0    0  501  0.00000000000E+00  0.00000000000E+00  0.14214596066E+04  0.14214596066E+04  0.50400001928E-02 0.  1.
        1   -1    0    0  501    0  0.00000000000E+00  0.00000000000E+00 -0.77566246862E+03  0.77566246863E+03  0.50400001928E-02 0. -1.
    10030    2    1    2    0    0  0.00000000000E+00  0.00000000000E+00  0.64579713800E+03  0.21971220753E+04  0.21000693965E+04 0.  0.
        1    1    3    3  502    0 -0.17162859037E+03 -0.88921329990E+03 -0.23308933774E+03  0.93514025961E+03  0.50400001928E-02 0.  1.
       -1    1    3    3    0  502  0.17162859037E+03  0.88921329990E+03  0.87888647574E+03  0.12619818156E+04  0.50400001928E-02 0. -1.
</event>
<event>
 5   0  0.6283269E-06  0.2097933E+04  0.7818609E-02  0.8562154E-01
        1   -1    0    0  501    0  0.00000000000E+00  0.00000000000E+00  0.11545329185E+04  0.11545329185E+04  0.50400001928E-02 0. -1.
       -1   -1    0    0    0  501  0.00000000000E+00  0.00000000000E+00 -0.95305277696E+03  0.95305277697E+03  0.50400001928E-02 0.  1.
    10030    2    1    2    0    0  0.00000000000E+00  0.00000000000E+00  0.20148014153E+03  0.21075856955E+04  0.20979330819E+04 0.  0.
        1    1    3    3  502    0 -0.91932329797E+01 -0.88789210368E+03  0.66178423833E+03  0.11074273256E+04  0.50400001928E-02 0. -1.
       -1    1    3    3    0  502  0.91932329797E+01  0.88789210368E+03 -0.46030409680E+03  0.10001583699E+04  0.50400001928E-02 0.  1.
</event>
<event>
 5   0  0.1398469E-05  0.2100413E+04  0.7818609E-02  0.8561062E-01
       -2   -1    0    0    0  501  0.00000000000E+00  0.00000000000E+00  0.11155946661E+04  0.11155946661E+04  0.25500000920E-02 0. -1.
        2   -1    0    0  501    0  0.00000000000E+00  0.00000000000E+00 -0.98865049896E+03  0.98865049896E+03  0.25500000920E-02 0.  1.
    10030    2    1    2    0    0  0.00000000000E+00  0.00000000000E+00  0.12694416715E+03  0.21042451651E+04  0.21004125531E+04 0.  0.
        2    1    3    3  502    0  0.23566407496E+03 -0.21353785855E+03 -0.93925247187E+03  0.99163056588E+03  0.25500000920E-02 0.  1.
       -2    1    3    3    0  502 -0.23566407496E+03  0.21353785855E+03  0.10661966390E+04  0.11126145992E+04  0.25500000920E-02 0. -1.
</event>
<event>
 5   0  0.1441136E-05  0.2101005E+04  0.7818609E-02  0.8560801E-01
       -2   -1    0    0    0  501  0.00000000000E+00  0.00000000000E+00  0.70420942795E+03  0.70420942796E+03  0.25500000920E-02 0.  1.
        2   -1    0    0  501    0  0.00000000000E+00  0.00000000000E+00 -0.15670848810E+04  0.15670848810E+04  0.25500000920E-02 0. -1.
    10030    2    1    2    0    0  0.00000000000E+00  0.00000000000E+00 -0.86287545303E+03  0.22712943089E+04  0.21010054237E+04 0.  0.
        4    1    3    3  502    0  0.10492528952E+04  0.40346347967E+00 -0.48679909117E+03  0.11566791988E+04  0.12699999809E+01 0. -1.
       -4    1    3    3    0  502 -0.10492528952E+04 -0.40346347967E+00 -0.37607636187E+03  0.11146151101E+04  0.12699999809E+01 0.  1.
</event>
<event>
 5   0  0.6917078E-06  0.2101207E+04  0.7818609E-02  0.8560712E-01
       -1   -1    0    0    0  501  0.00000000000E+00  0.00000000000E+00  0.11379072360E+04  0.11379072360E+04  0.50400001928E-02 0.  1.
        1   -1    0    0  501    0  0.00000000000E+00  0.00000000000E+00 -0.96999758999E+03  0.96999759000E+03  0.50400001928E-02 0. -1.
    10030    2    1    2    0    0  0.00000000000E+00  0.00000000000E+00  0.16790964604E+03  0.21079048261E+04  0.21012065835E+04 0.  0.
        5    1    3    3  502    0  0.53168102365E+02 -0.83635036261E+03  0.71956468299E+03  0.11045832695E+04  0.46999998093E+01 0.  1.
       -5    1    3    3    0  502 -0.53168102365E+02  0.83635036261E+03 -0.55165503695E+03  0.10033215566E+04  0.46999998093E+01 0. -1.
</event>
<event>
 5   0  0.5009125E-06  0.2096035E+04  0.7818609E-02  0.8562992E-01
        3   -1    0    0  501    0  0.00000000000E+00  0.00000000000E+00  0.13393156093E+04  0.13393156131E+04  0.10100000352E+00 0. -1.
       -3   -1    0    0    0  501  0.00000000000E+00  0.00000000000E+00 -0.82007598533E+03  0.82007599155E+03  0.10100000352E+00 0.  1.
    10030    2    1    2    0    0  0.00000000000E+00  0.00000000000E+00  0.51923962400E+03  0.21593916047E+04  0.20960349032E+04 0.  0.
        3    1    3    3  502    0 -0.95747294451E+03 -0.26376347231E+03  0.60442271375E+03  0.11626058816E+04  0.10100000352E+00 0. -1.
       -3    1    3    3    0  502  0.95747294451E+03  0.26376347231E+03 -0.85183089755E+02  0.99678572310E+03  0.10100000352E+00 0.  1.
</event>
<event>
 5   0  0.1395356E-05  0.2105663E+04  0.7818609E-02  0.8558753E-01
        2   -1    0    0  501    0  0.00000000000E+00  0.00000000000E+00  0.24828133390E+04  0.24828133390E+04  0.25500000920E-02 0.  1.
       -2   -1    0    0    0  501  0.00000000000E+00  0.00000000000E+00 -0.44645104195E+03  0.44645104196E+03  0.25500000920E-02 0. -1.
    10030    2    1    2    0    0  0.00000000000E+00  0.00000000000E+00  0.20363622970E+04  0.29292643809E+04  0.21056634130E+04 0.  0.
        1    1    3    3  502    0  0.15687116666E+03 -0.70526454046E+03  0.20835116518E+04  0.22052272986E+04  0.50400001928E-02 0.  1.
       -1    1    3    3    0  502 -0.15687116666E+03  0.70526454046E+03 -0.47149354816E+02  0.72403708237E+03  0.50400001928E-02 0. -1.
</event>
<event>
 5   0  0.6917078E-06  0.2111018E+04  0.7818609E-02  0.8556406E-01
        1   -1    0    0  501    0  0.00000000000E+00  0.00000000000E+00  0.11355845801E+04  0.11355845801E+04  0.50400001928E-02 0. -1.
       -1   -1    0    0    0  501  0.00000000000E+00  0.00000000000E+00 -0.98107954809E+03  0.98107954810E+03  0.50400001928E-02 0.  1.
    10030    2    1    2    0    0  0.00000000000E+00  0.00000000000E+00  0.15450503200E+03  0.21166641282E+04  0.21110175809E+04 0.  0.
        5    1    3    3  502    0  0.89946809896E+03  0.36120354253E+03  0.49618086613E+03  0.10889115676E+04  0.46999998093E+01 0. -1.
       -5    1    3    3    0  502 -0.89946809896E+03 -0.36120354253E+03 -0.34167583413E+03  0.10277525606E+04  0.46999998093E+01 0.  1.
</event>
<event>
 5   0  0.6238363E-06  0.2093983E+04  0.7818609E-02  0.8563898E-01
       -1   -1    0    0    0  501  0.00000000000E+00  0.00000000000E+00  0.82886990047E+03  0.82886990049E+03  0.50400001928E-02 0.  1.
        1   -1    0    0  501    0  0.00000000000E+00  0.00000000000E+00 -0.13225131612E+04  0.13225131612E+04  0.50400001928E-02 0. -1.
    10030    2    1    2    0    0  0.00000000000E+00  0.00000000000E+00 -0.49364326074E+03  0.21513830617E+04  0.20939831445E+04 0.  0.
        4    1    3    3  502    0 -0.47292154976E+02 -0.18397497343E+02  0.82760493505E+03  0.82916015175E+03  0.12699999809E+01 0.  1.
       -4    1    3    3    0  502  0.47292154976E+02  0.18397497343E+02 -0.13212481958E+04  0.13222229100E+04  0.12699999809E+01 0. -1.
</event>
<event>
 5   0  0.6238363E-06  0.2101961E+04  0.7818609E-02  0.8560380E-01
       -1   -1    0    0    0  501  0.00000000000E+00  0.00000000000E+00  0.10607474226E+04  0.10607474226E+04  0.50400001928E-02 0.  1.
        1   -1    0    0  501    0  0.00000000000E+00  0.00000000000E+00 -0.10413039495E+04  0.10413039495E+04  0.50400001928E-02 0. -1.
    10030    2    1    2    0    0  0.00000000000E+00  0.00000000000E+00  0.19443473153E+02  0.21020513721E+04  0.21019614464E+04 0.  0.
        4    1    3    3  502    0  0.42128867944E+03 -0.13172975454E+03  0.96355601398E+03  0.10598484253E+04  0.12699999809E+01 0.  1.
       -4    1    3    3    0  502 -0.42128867944E+03  0.13172975454E+03 -0.94411254083E+03  0.10422029468E+04  0.12699999809E+01 0. -1.
</event>
<event>
 5   0  0.6283269E-06  0.2099410E+04  0.7818609E-02  0.8561503E-01
       -1   -1    0    0    0  501  0.00000000000E+00  0.00000000000E+00  0.73734962807E+03  0.73734962808E+03  0.50400001928E-02 0.  1.
        1   -1    0    0  501    0  0.00000000000E+00  0.00000000000E+00 -0.14943805664E+04  0.14943805664E+04  0.50400001928E-02 0. -1.
    10030    2    1    2    0    0  0.00000000000E+00  0.00000000000E+00 -0.75703093832E+03  0.22317301945E+04  0.20994103504E+04 0.  0.
        1    1    3    3  502    0  0.23979194842E+03  0.10192503742E+04 -0.45741937791E+03  0.11426302950E+04  0.50400001928E-02 0. -1.
       -1    1    3    3    0  502 -0.23979194842E+03 -0.10192503742E+04 -0.29961156042E+03  0.10890998994E+04  0.50400001928E-02 0.  1.
</event>
<event>
 5   0  0.6283269E-06  0.2100006E+04  0.7818609E-02  0.8561241E-01
        1   -1    0    0  501    0  0.00000000000E+00  0.00000000000E+00  0.12959859353E+04  0.12959859353E+04  0.50400001928E-02 0. -1.
       -1   -1    0    0    0  501  0.00000000000E+00  0.00000000000E+00 -0.85070861160E+03  0.85070861161E+03  0.50400001928E-02 0.  1.
    10030    2    1    2    0    0  0.00000000000E+00  0.00000000000E+00  0.44527732370E+03  0.21466945469E+04  0.21000060911E+04 0.  0.
        1    1    3    3  502    0 -0.78178371117E+02 -0.85103386423E+03 -0.40095326323E+03  0.94399894867E+03  0.50400001928E-02 0.  1.
       -1    1    3    3    0  502  0.78178371117E+02  0.85103386423E+03  0.84623058692E+03  0.12026955982E+04  0.50400001928E-02 0. -1.
</event>
<event>
 5   0  0.5009125E-06  0.2099079E+04  0.7818609E-02  0.8561649E-01
        4   -1    0    0  501    0  0.00000000000E+00  0.00000000000E+00  0.13930264776E+04  0.13930270565E+04  0.12699999809E+01 0.  1.
       -4   -1    0    0    0  501  0.00000000000E+00  0.00000000000E+00 -0.79074707517E+03  0.79074809502E+03  0.12699999809E+01 0. -1.
    10030    2    1    2    0    0  0.00000000000E+00  0.00000000000E+00  0.60227940245E+03  0.21837751516E+04  0.20990791872E+04 0.  0.
        5    1    3    3  502    0 -0.85497649354E+03 -0.12895948318E+03 -0.31775515431E+03  0.92119801394E+03  0.46999998093E+01 0. -1.
       -5    1    3    3    0  502  0.85497649354E+03  0.12895948318E+03  0.92003455675E+03  0.12625771376E+04  0.46999998093E+01 0.  1.
</event>
<event>
 5   0  0.6917078E-06  0.2102356E+04  0.7818609E-02  0.8560206E-01
        1   -1    0    0  501    0  0.00000000000E+00  0.00000000000E+00  0.16888100696E+04  0.16888100696E+04  0.50400001928E-02 0. -1.
       -1   -1    0    0    0  501  0.00000000000E+00  0.00000000000E+00 -0.65429207745E+03  0.65429207747E+03  0.50400001928E-02 0.  1.
    10030    2    1    2    0    0  0.00000000000E+00  0.00000000000E+00  0.10345179922E+04  0.23431021471E+04  0.21023558680E+04 0.  0.
        5    1    3    3  502    0  0.40188108770E+03  0.22695558949E+03  0.15698308840E+04  0.16362788096E+04  0.46999998093E+01 0. -1.
       -5    1    3    3    0  502 -0.40188108770E+03 -0.22695558949E+03 -0.53531289187E+03  0.70682333751E+03  0.46999998093E+01 0.  1.
</event>
<event>
 5   0  0.1344501E-05  0.2100751E+04  0.7818609E-02  0.8560913E-01
       -2   -1    0    0    0  501  0.00000000000E+00  0.00000000000E+00  0.12858001211E+04  0.12858001211E+04  0.25500000920E-02 0.  1.
        2   -1    0    0  501    0  0.00000000000E+00  0.00000000000E+00 -0.85805623958E+03  0.85805623958E+03  0.25500000920E-02 0. -1.
    10030    2    1    2    0    0  0.00000000000E+00  0.00000000000E+00  0.42774388156E+03  0.21438563607E+04  0.21007511198E+04 0.  0.
        3    1    3    3  502    0 -0.44201508548E+03 -0.53350761225E+03  0.10195528234E+04  0.12326782541E+04  0.10100000352E+00 0.  1.
       -3    1    3    3    0  502  0.44201508548E+03  0.53350761225E+03 -0.59180894188E+03  0.91117810664E+03  0.10100000352E+00 0. -1.
</event>
<event>
 5   0  0.6589193E-06  0.2096097E+04  0.7818609E-02  0.8562964E-01
        1   -1    0    0  501    0  0.00000000000E+00  0.00000000000E+00  0.79357893572E+03  0.79357893574E+03  0.50400001928E-02 0.  1.
       -1   -1    0    0    0  501  0.00000000000E+00  0.00000000000E+00 -0.13841169669E+04  0.13841169669E+04  0.50400001928E-02 0. -1.
    10030    2    1    2    0    0  0.00000000000E+00  0.00000000000E+00 -0.59053803114E+03  0.21776959026E+04  0.20960973923E+04 0.  0.
        3    1    3    3  502    0  0.80416276506E+03 -0.51443949171E+03  0.15409658504E+03  0.96699095707E+03  0.10100000352E+00 0.  1.
       -3    1    3    3    0  502 -0.80416276506E+03  0.51443949171E+03 -0.74463461619E+03  0.12107049455E+04  0.10100000352E+00 0. -1.
</event>
<event>
 5   0  0.6599245E-06  0.2099784E+04  0.7818609E-02  0.8561339E-01
       -1   -1    0    0    0  501  0.00000000000E+00  0.00000000000E+00  0.57146705611E+03  0.57146705613E+03  0.50400001928E-02 0.  1.
        1   -1    0    0  501    0  0.00000000000E+00  0.00000000000E+00 -0.19288478712E+04  0.19288478712E+04  0.50400001928E-02 0. -1.
    10030    2    1    2    0    0  0.00000000000E+00  0.00000000000E+00 -0.13573808151E+04  0.25003149273E+04  0.20997838123E+04 0.  0.
        2    1    3    3  502    0  0.49867444427E+03  0.37196656417E+02  0.42055399886E+03  0.65339533101E+03  0.25500000920E-02 0.  1.
       -2    1    3    3    0  502 -0.49867444427E+03 -0.37196656417E+02 -0.17779348139E+04  0.18469195963E+04  0.25500000920E-02 0. -1.
</event>
<event>
 5   0  0.1390735E-05  0.2092788E+04  0.7818609E-02  0.8564427E-01
       -2   -1    0    0    0  501  0.00000000000E+00  0.00000000000E+00  0.41838052073E+03  0.41838052074E+03  0.25500000920E-02 0.  1.
        2   -1    0    0  501    0  0.00000000000E+00  0.00000000000E+00 -0.26170933728E+04  0.26170933728E+04  0.25500000920E-02 0. -1.
    10030    2    1    2    0    0  0.00000000000E+00  0.00000000000E+00 -0.21987128520E+04  0.30354738935E+04  0.20927884634E+04 0.  0.
        5    1    3    3  502    0 -0.44652356364E+03  0.23855544610E+03  0.22891105162E+03  0.55562069193E+03  0.46999998093E+01 0.  1.
       -5    1    3    3    0  502  0.44652356364E+03 -0.23855544610E+03 -0.24276239037E+04  0.24798532016E+04  0.46999998093E+01 0. -1.
</event>
<event>
 5   0  0.1344501E-05  0.2100699E+04  0.7818609E-02  0.8560935E-01
        2   -1    0    0  501    0  0.00000000000E+00  0.00000000000E+00  0.15915196076E+04  0.15915196076E+04  0.25500000920E-02 0.  1.
       -2   -1    0    0    0  501  0.00000000000E+00  0.00000000000E+00 -0.69319543320E+03  0.69319543320E+03  0.25500000920E-02 0. -1.
    10030    2    1    2    0    0  0.00000000000E+00  0.00000000000E+00  0.89832417438E+03  0.22847150408E+04  0.21006990492E+04 0.  0.
        3    1    3    3  502    0 -0.99256697231E+03  0.20819823634E+02  0.82214849995E+03  0.12890115693E+04  0.10100000352E+00 0.  1.
       -3    1    3    3    0  502  0.99256697231E+03 -0.20819823634E+02  0.76175674424E+02  0.99570347149E+03  0.10100000352E+00 0. -1.
</event>
<event>
 5   0  0.6283269E-06  0.2095354E+04  0.7818609E-02  0.8563293E-01
       -1   -1    0    0    0  501  0.00000000000E+00  0.00000000000E+00  0.93163998888E+03  0.93163998890E+03  0.50400001928E-02 0.  1.
        1   -1    0    0  501    0  0.00000000000E+00  0.00000000000E+00 -0.11781660667E+04  0.11781660667E+04  0.50400001928E-02 0. -1.
    10030    2    1    2    0    0  0.00000000000E+00  0.00000000000E+00 -0.24652607780E+03  0.21098060556E+04  0.20953535466E+04 0.  0.
        1    1    3    3  502    0  0.66288990561E+03  0.42055933506E+03  0.57530424178E+03  0.97327701704E+03  0.50400001928E-02 0.  1.
       -1    1    3    3    0  502 -0.66288990561E+03 -0.42055933506E+03 -0.82183031958E+03  0.11365290386E+04  0.50400001928E-02 0. -1.
</event>
<event>
 5   0  0.1441136E-05  0.2097360E+04  0.7818609E-02  0.8562407E-01
       -2   -1    0    0    0  501  0.00000000000E+00  0.00000000000E+00  0.19198851331E+04  0.19198851332E+04  0.25500000920E-02 0. -1.
        2   -1    0    0  501    0  0.00000000000E+00  0.00000000000E+00 -0.57281039180E+03  0.57281039180E+03  0.25500000920E-02 0.  1.
    10030    2    1    2    0    0  0.00000000000E+00  0.00000000000E+00  0.13470747413E+04  0.24926955250E+04  0.20973603938E+04 0.  0.
        4    1    3    3  502    0 -0.22360742085E+03  0.10056739946E+04  0.90627573937E+03  0.13721216385E+04  0.12699999809E+01 0. -1.
       -4    1    3    3    0  502  0.22360742085E+03 -0.10056739946E+04  0.44079900198E+03  0.11205738865E+04  0.12699999809E+01 0.  1.
</event>
<event>
 5   0  0.1395356E-05  0.2100874E+04  0.7818609E-02  0.8560859E-01
       -2   -1    0    0    0  501  0.00000000000E+00  0.00000000000E+00  0.70570473138E+03  0.70570473138E+03  0.25500000920E-02 0. -1.
        2   -1    0    0  501    0  0.00000000000E+00  0.00000000000E+00 -0.15635684348E+04  0.15635684348E+04  0.25500000920E-02 0.  1.
    10030    2    1    2    0    0  0.00000000000E+00  0.00000000000E+00 -0.85786370345E+03  0.22692731662E+04  0.21008737633E+04 0.  0.
        1    1    3    3  502    0  0.33806403890E+03  0.48395814677E+03 -0.13674351590E+04  0.14894232764E+04  0.50400001928E-02 0.  1.
       -1    1    3    3    0  502 -0.33806403890E+03 -0.48395814677E+03  0.50957145558E+03  0.77984988978E+03  0.50400001928E-02 0. -1.
</event>
<event>
 5   0  0.1344501E-05  0.2099102E+04  0.7818609E-02  0.8561639E-01
       -2   -1    0    0    0  501  0.00000000000E+00  0.00000000000E+00  0.83723132148E+03  0.83723132149E+03  0.25500000920E-02 0.  1.
        2   -1    0    0  501    0  0.00000000000E+00  0.00000000000E+00 -0.13157144387E+04  0.13157144387E+04  0.25500000920E-02 0. -1.
    10030    2    1    2    0    0  0.00000000000E+00  0.00000000000E+00 -0.47848311721E+03  0.21529457602E+04  0.20991020349E+04 0.  0.
        3    1    3    3  502    0 -0.98093398188E+03  0.21092992217E+03  0.76609642840E+02  0.10062762824E+04  0.10100000352E+00 0.  1.
       -3    1    3    3    0  502  0.98093398188E+03 -0.21092992217E+03 -0.55509276005E+03  0.11466694778E+04  0.10100000352E+00 0. -1.
</event>
<event>
 5   0  0.6917078E-06  0.2101115E+04  0.7818609E-02  0.8560752E-01
        1   -1    0    0  501    0  0.00000000000E+00  0.00000000000E+00  0.13523722962E+04  0.13523722962E+04  0.50400001928E-02 0.  1.
       -1   -1    0    0    0  501  0.00000000000E+00  0.00000000000E+00 -0.81609985226E+03  0.81609985228E+03  0.50400001928E-02 0. -1.
    10030    2    1    2    0    0  0.00000000000E+00  0.00000000000E+00  0.53627244389E+03  0.21684721484E+04  0.21011147814E+04 0.  0.
        5    1    3    3  502    0 -0.71946850295E+03 -0.27128714702E+03  0.10069174927E+04  0.12669398446E+04  0.46999998093E+01 0. -1.
       -5    1    3    3    0  502  0.71946850295E+03  0.27128714702E+03 -0.47064504878E+03  0.90153230381E+03  0.46999998093E+01 0.  1.
</event>
<event>
 5   0  0.6599245E-06  0.2102126E+04  0.7818609E-02  0.8560307E-01
        1   -1    0    0  501    0  0.00000000000E+00  0.00000000000E+00  0.79615175914E+03  0.79615175915E+03  0.50400001928E-02 0. -1.
       -1   -1    0    0    0  501  0.00000000000E+00  0.00000000000E+00 -0.13875916989E+04  0.13875916990E+04  0.50400001928E-02 0.  1.
    10030    2    1    2    0    0  0.00000000000E+00  0.00000000000E+00 -0.59143993981E+03  0.21837434581E+04  0.21021261352E+04 0.  0.
        2    1    3    3  502    0 -0.15060390404E+02 -0.91350772954E+02  0.79190751906E+03  0.79730125915E+03  0.25500000920E-02 0. -1.
       -2    1    3    3    0  502  0.15060390404E+02  0.91350772954E+02 -0.13833474589E+04  0.13864421990E+04  0.25500000920E-02 0.  1.
</event>
<event>
 5   0  0.6283269E-06  0.2101984E+04  0.7818609E-02  0.8560370E-01
       -1   -1    0    0    0  501  0.00000000000E+00  0.00000000000E+00  0.66529178638E+03  0.66529178640E+03  0.50400001928E-02 0. -1.
        1   -1    0    0  501    0  0.00000000000E+00  0.00000000000E+00 -0.16602995953E+04  0.16602995953E+04  0.50400001928E-02 0.  1.
    10030    2    1    2    0    0  0.00000000000E+00  0.00000000000E+00 -0.99500780895E+03  0.23255913817E+04  0.21019835239E+04 0.  0.
        1    1    3    3  502    0 -0.86538194128E+03 -0.56246123843E+03 -0.27807470307E+03  0.10689125734E+04  0.50400001928E-02 0. -1.
       -1    1    3    3    0  502  0.86538194128E+03  0.56246123843E+03 -0.71693310588E+03  0.12566788084E+04  0.50400001928E-02 0.  1.
</event>
<event>
 5   0  0.1398469E-05  0.2081992E+04  0.7818609E-02  0.8569218E-01
        2   -1    0    0  501    0  0.00000000000E+00  0.00000000000E+00  0.19089613820E+04  0.19089613820E+04  0.25500000920E-02 0. -1.
       -2   -1    0    0    0  501  0.00000000000E+00  0.00000000000E+00 -0.56767657991E+03  0.56767657992E+03  0.25500000920E-02 0.  1.
    10030    2    1    2    0    0  0.00000000000E+00  0.00000000000E+00  0.13412848021E+04  0.24766379619E+04  0.20819919967E+04 0.  0.
        2    1    3    3  502    0 -0.43899643422E+02 -0.93933643008E+03  0.12018177911E+04  0.15259902066E+04  0.25500000920E-02 0. -1.
       -2    1    3    3    0  502  0.43899643422E+02  0.93933643008E+03  0.13946701099E+03  0.95064775534E+03  0.25500000920E-02 0.  1.
</event>
<event>
 5   0  0.1441136E-05  0.2101381E+04  0.7818609E-02  0.8560635E-01
       -2   -1    0    0    0  501  0.00000000000E+00  0.00000000000E+00  0.12508602931E+04  0.12508602931E+04  0.25500000920E-02 0. -1.
        2   -1    0    0  501    0  0.00000000000E+00  0.00000000000E+00 -0.88255285188E+03  0.88255285189E+03  0.25500000920E-02 0.  1.
    10030    2    1    2    0    0  0.00000000000E+00  0.00000000000E+00  0.36830744126E+03  0.21334131450E+04  0.21013808023E+04 0.  0.
        4    1    3    3  502    0  0.31100186260E+03 -0.94300179978E+03 -0.16455566822E+03  0.10065062016E+04  0.12699999809E+01 0. -1.
       -4    1    3    3    0  502 -0.31100186260E+03  0.94300179978E+03  0.53286310948E+03  0.11269069435E+04  0.12699999809E+01 0.  1.
</event>
<event>
 5   0  0.6599245E-06  0.2101609E+04  0.7818609E-02  0.8560535E-01
       -1   -1    0    0    0  501  0.00000000000E+00  0.00000000000E+00  0.24494973678E+04  0.24494973678E+04  0.50400001928E-02 0. -1.
        1   -1    0    0  501    0  0.00000000000E+00  0.00000000000E+00 -0.45078219903E+03  0.45078219906E+03  0.50400001928E-02 0.  1.
    10030    2    1    2    0    0  0.00000000000E+00  0.00000000000E+00  0.19987151688E+04  0.29002795668E+04  0.21016087267E+04 0.  0.
        2    1    3    3  502    0 -0.47764347004E+03 -0.55477374122E+03  0.20396761913E+04  0.21670708695E+04  0.25500000920E-02 0. -1.
       -2    1    3    3    0  502  0.47764347004E+03  0.55477374122E+03 -0.40961022512E+02  0.73320869729E+03  0.25500000920E-02 0.  1.
</event>
<event>
 5   0  0.6917078E-06  0.2096169E+04  0.7818609E-02  0.8562933E-01
       -1   -1    0    0    0  501  0.00000000000E+00  0.00000000000E+00  0.10841056493E+04  0.10841056493E+04  0.50400001928E-02 0.  1.
        1   -1    0    0  501    0  0.00000000000E+00  0.00000000000E+00 -0.10132605686E+04  0.10132605686E+04  0.50400001928E-02 0. -1.
    10030    2    1    2    0    0  0.00000000000E+00  0.00000000000E+00  0.70845080655E+02  0.20973662179E+04  0.20961693697E+04 0.  0.
        5    1    3    3  502    0 -0.44729058680E+01 -0.10435661768E+04 -0.61633072733E+02  0.10454047531E+04  0.46999998093E+01 0.  1.
       -5    1    3    3    0  502  0.44729058680E+01  0.10435661768E+04  0.13247815339E+03  0.10519614648E+04  0.46999998093E+01 0. -1.
</event>
<event>
 5   0  0.6599245E-06  0.2100374E+04  0.7818609E-02  0.8561079E-01
        1   -1    0    0  501    0  0.00000000000E+00  0.00000000000E+00  0.14855812771E+04  0.14855812771E+04  0.50400001928E-02 0. -1.
       -1   -1    0    0    0  501  0.00000000000E+00  0.00000000000E+00 -0.74239809560E+03  0.74239809562E+03  0.50400001928E-02 0.  1.
    10030    2    1    2    0    0  0.00000000000E+00  0.00000000000E+00  0.74318318148E+03  0.22279793727E+04  0.21003739772E+04 0.  0.
        2    1    3    3  502    0  0.85367233927E+03 -0.56600215919E+03  0.12560237461E+03  0.10319354939E+04  0.25500000920E-02 0.  1.
       -2    1    3    3    0  502 -0.85367233927E+03  0.56600215919E+03  0.61758080687E+03  0.11960438788E+04  0.25500000920E-02 0. -1.
</event>
<event>
 5   0  0.5009125E-06  0.2098596E+04  0.7818609E-02  0.8561862E-01
        3   -1    0    0  501    0  0.00000000000E+00  0.00000000000E+00  0.79471415679E+03  0.79471416321E+03  0.10100000352E+00 0. -1.
       -3   -1    0    0    0  501  0.00000000000E+00  0.00000000000E+00 -0.13854367711E+04  0.13854367747E+04  0.10100000352E+00 0.  1.
    10030    2    1    2    0    0  0.00000000000E+00  0.00000000000E+00 -0.59072261427E+03  0.21801509379E+04  0.20985959366E+04 0.  0.
        1    1    3    3  502    0  0.88814783076E+03  0.44171245399E+03  0.60150712990E+02  0.99374773942E+03  0.50400001928E-02 0.  1.
       -1    1    3    3    0  502 -0.88814783076E+03 -0.44171245399E+03 -0.65087332726E+03  0.11864031985E+04  0.50400001928E-02 0. -1.
</event>
<event>
 5   0  0.1398469E-05  0.2104022E+04  0.7818609E-02  0.8559474E-01
        2   -1    0    0  501    0  0.00000000000E+00  0.00000000000E+00  0.16775965388E+04  0.16775965388E+04  0.25500000920E-02 0. -1.
       -2   -1    0    0    0  501  0.00000000000E+00  0.00000000000E+00 -0.65970969001E+03  0.65970969002E+03  0.25500000920E-02 0.  1.
    10030    2    1    2    0    0  0.00000000000E+00  0.00000000000E+00  0.10178868488E+04  0.23373062289E+04  0.21040215708E+04 0.  0.
        2    1    3    3  502    0 -0.38367244456E+03 -0.52657108305E+03  0.14265058541E+04  0.15682476214E+04  0.25500000920E-02 0. -1.
       -2    1    3    3    0  502  0.38367244456E+03  0.52657108305E+03 -0.40861900528E+03  0.76905860746E+03  0.25500000920E-02 0.  1.
</event>
<event>
 5   0  0.1344501E-05  0.2091896E+04  0.7818609E-02  0.8564821E-01
       -2   -1    0    0    0  501  0.00000000000E+00  0.00000000000E+00  0.14497031494E+04  0.14497031494E+04  0.25500000920E-02 0. -1.
        2   -1    0    0  501    0  0.00000000000E+00  0.00000000000E+00 -0.75464257505E+03  0.75464257506E+03  0.25500000920E-02 0.  1.
    10030    2    1    2    0    0  0.00000000000E+00  0.00000000000E+00  0.69506057432E+03  0.22043457244E+04  0.20918964771E+04 0.  0.
        3    1    3    3  502    0 -0.52359829037E+03 -0.90071149272E+03  0.44508853722E+03  0.11329343224E+04  0.10100000352E+00 0. -1.
       -3    1    3    3    0  502  0.52359829037E+03  0.90071149272E+03  0.24997203710E+03  0.10714114020E+04  0.10100000352E+00 0.  1.
</event>
<event>
 5   0  0.1398469E-05  0.2078762E+04  0.7818609E-02  0.8570657E-01
       -2   -1    0    0    0  501  0.00000000000E+00  0.00000000000E+00  0.51283087974E+03  0.51283087974E+03  0.25500000920E-02 0. -1.
        2   -1    0    0  501    0  0.00000000000E+00  0.00000000000E+00 -0.21065685011E+04  0.21065685011E+04  0.25500000920E-02 0.  1.
    10030    2    1    2    0    0  0.00000000000E+00  0.00000000000E+00 -0.15937376214E+04  0.26193993809E+04  0.20787624950E+04 0.  0.
        2    1    3    3  502    0 -0.30190049477E+03  0.62150704440E+03  0.18153680352E+03  0.71440221586E+03  0.25500000920E-02 0. -1.
       -2    1    3    3    0  502  0.30190049477E+03 -0.62150704440E+03 -0.17752744249E+04  0.19049971650E+04  0.25500000920E-02 0.  1.
</event>
<event>
 5   0  0.6589193E-06  0.2098780E+04  0.7818609E-02  0.8561781E-01
       -1   -1    0    0    0  501  0.00000000000E+00  0.00000000000E+00  0.11717623002E+04  0.11717623002E+04  0.50400001928E-02 0. -1.
        1   -1    0    0  501    0  0.00000000000E+00  0.00000000000E+00 -0.93979716110E+03  0.93979716111E+03  0.50400001928E-02 0.  1.
    10030    2    1    2    0    0  0.00000000000E+00  0.00000000000E+00  0.23196513906E+03  0.21115594613E+04  0.20987795341E+04 0.  0.
        3    1    3    3  502    0  0.56174219222E+03  0.35748749633E+03  0.93201165012E+03  0.11454245181E+04  0.10100000352E+00 0. -1.
       -3    1    3    3    0  502 -0.56174219222E+03 -0.35748749633E+03 -0.70004651105E+03  0.96613494316E+03  0.10100000352E+00 0.  1.
</event>
<event>
 5   0  0.6917078E-06  0.2092753E+04  0.7818609E-02  0.8564443E-01
        1   -1    0    0  501    0  0.00000000000E+00  0.00000000000E+00  0.10515649675E+04  0.10515649675E+04  0.50400001928E-02 0. -1.
       -1   -1    0    0    0  501  0.00000000000E+00  0.00000000000E+00 -0.10412133915E+04  0.10412133915E+04  0.50400001928E-02 0.  1.
    10030    2    1    2    0    0  0.00000000000E+00  0.00000000000E+00  0.10351575981E+02  0.20927783591E+04  0.20927527578E+04 0.  0.
        5    1    3    3  502    0 -0.21855210836E+03 -0.58594243759E+03 -0.83375513376E+03  0.10422395489E+04  0.46999998093E+01 0.  1.
       -5    1    3    3    0  502  0.21855210836E+03  0.58594243759E+03  0.84410670975E+03  0.10505388102E+04  0.46999998093E+01 0. -1.
</event>
<event>
 5   0  0.1390735E-05  0.2100585E+04  0.7818609E-02  0.8560986E-01
       -2   -1    0    0    0  501  0.00000000000E+00  0.00000000000E+00  0.70854018512E+03  0.70854018513E+03  0.25500000920E-02 0. -1.
        2   -1    0    0  501    0  0.00000000000E+00  0.00000000000E+00 -0.15568837237E+04  0.15568837237E+04  0.25500000920E-02 0.  1.
    10030    2    1    2    0    0  0.00000000000E+00  0.00000000000E+00 -0.84834353858E+03  0.22654239088E+04  0.21005853297E+04 0.  0.
        5    1    3    3  502    0 -0.26239995523E+03 -0.31568157765E+02 -0.15204233731E+04  0.15432302513E+04  0.46999998093E+01 0.  1.
       -5    1    3    3    0  502  0.26239995523E+03  0.31568157765E+02  0.67207983449E+03  0.72219365755E+03  0.46999998093E+01 0. -1.
</event>
<event>
 5   0  0.6917078E-06  0.2095514E+04  0.7818609E-02  0.8563222E-01
        1   -1    0    0  501    0  0.00000000000E+00  0.00000000000E+00  0.18876374423E+04  0.18876374423E+04  0.50400001928E-02 0. -1.
       -1   -1    0    0    0  501  0.00000000000E+00  0.00000000000E+00 -0.58157076223E+03  0.58157076225E+03  0.50400001928E-02 0.  1.
    10030    2    1    2    0    0  0.00000000000E+00  0.00000000000E+00  0.13060666801E+04  0.24692082046E+04  0.20955140144E+04 0.  0.
        5    1    3    3  502    0  0.55783905411E+03 -0.37495317542E+03  0.16001050198E+04  0.17355496128E+04  0.46999998093E+01 0. -1.
       -5    1    3    3    0  502 -0.55783905411E+03  0.37495317542E+03 -0.29403833974E+03  0.73365859177E+03  0.46999998093E+01 0.  1.
</event>
<event>
 5   0  0.6599245E-06  0.2090721E+04  0.7818609E-02  0.8565342E-01
        1   -1    0    0  501    0  0.00000000000E+00  0.00000000000E+00  0.16628916168E+04  0.16628916168E+04  0.50400001928E-02 0.  1.
       -1   -1    0    0    0  501  0.00000000000E+00  0.00000000000E+00 -0.65715578123E+03  0.65715578125E+03  0.50400001928E-02 0. -1.
    10030    2    1    2    0    0  0.00000000000E+00  0.00000000000E+00  0.10057358356E+04  0.23200473981E+04  0.20907212531E+04 0.  0.
        2    1    3    3  502    0  0.43131092528E+03 -0.92745309064E+03  0.26336944427E+03  0.10562015971E+04  0.25500000920E-02 0. -1.
       -2    1    3    3    0  502 -0.43131092528E+03  0.92745309064E+03  0.74236639131E+03  0.12638458009E+04  0.25500000920E-02 0.  1.
</event>
<event>
 5   0  0.1390735E-05  0.2101135E+04  0.7818609E-02  0.8560744E-01
        2   -1    0    0  501    0  0.00000000000E+00  0.00000000000E+00  0.77383085273E+03  0.77383085273E+03  0.25500000920E-02 0.  1.
       -2   -1    0    0    0  501  0.00000000000E+00  0.00000000000E+00 -0.14262705656E+04  0.14262705656E+04  0.25500000920E-02 0. -1.
    10030    2    1    2    0    0  0.00000000000E+00  0.00000000000E+00 -0.65243971288E+03  0.22001014183E+04  0.21011350913E+04 0.  0.
        5    1    3    3  502    0  0.69488907217E+03 -0.24280583840E+03 -0.11110882182E+04  0.13328032924E+04  0.46999998093E+01 0. -1.
       -5    1    3    3    0  502 -0.69488907217E+03  0.24280583840E+03  0.45864850529E+03  0.86729812590E+03  0.46999998093E+01 0.  1.
</event>
<event>
 5   0  0.6283269E-06  0.2100118E+04  0.7818609E-02  0.8561192E-01
       -1   -1    0    0    0  501  0.00000000000E+00  0.00000000000E+00  0.57451102488E+03  0.57451102490E+03  0.50400001928E-02 0. -1.
        1   -1    0    0  501    0  0.00000000000E+00  0.00000000000E+00 -0.19192384430E+04  0.19192384430E+04  0.50400001928E-02 0.  1.
    10030    2    1    2    0    0  0.00000000000E+00  0.00000000000E+00 -0.13447274181E+04  0.24937494679E+04  0.21001177537E+04 0.  0.
        1    1    3    3  502    0  0.88462740825E+02  0.90576006420E+03 -0.12943754919E+04  0.15822878577E+04  0.50400001928E-02 0. -1.
       -1    1    3    3    0  502 -0.88462740825E+02 -0.90576006420E+03 -0.50351926184E+02  0.91146161022E+03  0.50400001928E-02 0.  1.
</event>
<event>
 5   0  0.1344501E-05  0.2126609E+04  0.7818609E-02  0.8549612E-01
       -2   -1    0    0    0  501  0.00000000000E+00  0.00000000000E+00  0.18959336584E+04  0.18959336584E+04  0.25500000920E-02 0.  1.
        2   -1    0    0  501    0  0.00000000000E+00  0.00000000000E+00 -0.59633729210E+03  0.59633729211E+03  0.25500000920E-02 0. -1.
    10030    2    1    2    0    0  0.00000000000E+00  0.00000000000E+00  0.12995963663E+04  0.24922709505E+04  0.21266085149E+04 0.  0.
        3    1    3    3  502    0  0.67893709278E+03  0.77540958434E+03  0.95630265767E+03  0.14059624400E+04  0.10100000352E+00 0.  1.
       -3    1    3    3    0  502 -0.67893709278E+03 -0.77540958434E+03  0.34329370865E+03  0.10863085105E+04  0.10100000352E+00 0. -1.
</event>
<event>
 5   0  0.1395356E-05  0.2100831E+04  0.7818609E-02  0.8560878E-01
       -2   -1    0    0    0  501  0.00000000000E+00  0.00000000000E+00  0.16899528405E+04  0.16899528405E+04  0.25500000920E-02 0. -1.
        2   -1    0    0  501    0  0.00000000000E+00  0.00000000000E+00 -0.65290127451E+03  0.65290127451E+03  0.25500000920E-02 0.  1.
    10030    2    1    2    0    0  0.00000000000E+00  0.00000000000E+00  0.10370515660E+04  0.23428541150E+04  0.21008306580E+04 0.  0.
        1    1    3    3  502    0 -0.87200423357E+03  0.30342264403E+03 -0.40096300529E+02  0.92415604614E+03  0.50400001928E-02 0.  1.
       -1    1    3    3    0  502  0.87200423357E+03 -0.30342264403E+03  0.10771478665E+04  0.14186980689E+04  0.50400001928E-02 0. -1.
</event>
<event>
 5   0  0.1344501E-05  0.2099395E+04  0.7818609E-02  0.8561510E-01
       -2   -1    0    0    0  501  0.00000000000E+00  0.00000000000E+00  0.86528274010E+03  0.86528274010E+03  0.25500000920E-02 0. -1.
        2   -1    0    0  501    0  0.00000000000E+00  0.00000000000E+00 -0.12734159610E+04  0.12734159610E+04  0.25500000920E-02 0.  1.
    10030    2    1    2    0    0  0.00000000000E+00  0.00000000000E+00 -0.40813322088E+03  0.21386987011E+04  0.20993950100E+04 0.  0.
        3    1    3    3  502    0 -0.44160254874E+03  0.78050086211E+03 -0.75987269413E+03  0.11754152153E+04  0.10100000352E+00 0.  1.
       -3    1    3    3    0  502  0.44160254874E+03 -0.78050086211E+03  0.35173947325E+03  0.96328348582E+03  0.10100000352E+00 0. -1.
</event>
<event>
 5   0  0.6599245E-06  0.2108229E+04  0.7818609E-02  0.8557627E-01
        1   -1    0    0  501    0  0.00000000000E+00  0.00000000000E+00  0.20503501515E+04  0.20503501515E+04  0.50400001928E-02 0. -1.
       -1   -1    0    0    0  501  0.00000000000E+00  0.00000000000E+00 -0.54193556636E+03  0.54193556638E+03  0.50400001928E-02 0.  1.
    10030    2    1    2    0    0  0.00000000000E+00  0.00000000000E+00  0.15084145851E+04  0.25922857178E+04  0.21082292765E+04 0.  0.
        2    1    3    3  502    0  0.26190918061E+03  0.10210081132E+04  0.76672780473E+03  0.13034283688E+04  0.25500000920E-02 0. -1.
       -2    1    3    3    0  502 -0.26190918061E+03 -0.10210081132E+04  0.74168678037E+03  0.12888573491E+04  0.25500000920E-02 0.  1.
</event>
<event>
 5   0  0.1441136E-05  0.2098214E+04  0.7818609E-02  0.8562031E-01
       -2   -1    0    0    0  501  0.00000000000E+00  0.00000000000E+00  0.77009418775E+03  0.77009418775E+03  0.25500000920E-02 0. -1.
        2   -1    0    0  501    0  0.00000000000E+00  0.00000000000E+00 -0.14292088323E+04  0.14292088323E+04  0.25500000920E-02 0.  1.
    10030    2    1    2    0    0  0.00000000000E+00  0.00000000000E+00 -0.65911464458E+03  0.21993030201E+04  0.20982139213E+04 0.  0.
        4    1    3    3  502    0 -0.80962182686E+03  0.66473855752E+03 -0.38939491681E+03  0.11175843890E+04  0.12699999809E+01 0.  1.
       -4    1    3    3    0  502  0.80962182686E+03 -0.66473855752E+03 -0.26971972777E+03  0.10817186311E+04  0.12699999809E+01 0. -1.
</event>
<event>
 5   0  0.6917078E-06  0.2107029E+04  0.7818609E-02  0.8558153E-01
       -1   -1    0    0    0  501  0.00000000000E+00  0.00000000000E+00  0.82897824862E+03  0.82897824864E+03  0.50400001928E-02 0.  1.
        1   -1    0    0  501    0  0.00000000000E+00  0.00000000000E+00 -0.13388682822E+04  0.13388682822E+04  0.50400001928E-02 0. -1.
    10030    2    1    2    0    0  0.00000000000E+00  0.00000000000E+00 -0.50989003359E+03  0.21678465309E+04  0.21070288880E+04 0.  0.
        5    1    3    3  502    0  0.37402381171E+03  0.88111017790E+03 -0.70767054801E+03  0.11904069270E+04  0.46999998093E+01 0. -1.
       -5    1    3    3    0  502 -0.37402381171E+03 -0.88111017790E+03  0.19778051442E+03  0.97743960387E+03  0.46999998093E+01 0.  1.
</event>
<event>
 5   0  0.5009125E-06  0.2097652E+04  0.7818609E-02  0.8562278E-01
       -4   -1    0    0    0  501  0.00000000000E+00  0.00000000000E+00  0.77154605277E+03  0.77154709801E+03  0.12699999809E+01 0.  1.
        4   -1    0    0  501    0  0.00000000000E+00  0.00000000000E+00 -0.14257537739E+04  0.14257543395E+04  0.12699999809E+01 0. -1.
    10030    2    1    2    0    0  0.00000000000E+00  0.00000000000E+00 -0.65420772108E+03  0.21973014375E+04  0.20976524652E+04 0.  0.
        4    1    3    3  502    0 -0.57399026034E+03 -0.81594245270E+03 -0.66622371142E+03  0.11996176689E+04  0.12699999809E+01 0. -1.
       -4    1    3    3    0  502  0.57399026034E+03  0.81594245270E+03  0.12015990340E+02  0.99768376854E+03  0.12699999809E+01 0.  1.
</event>
<event>
 5   0  0.5009125E-06  0.2098161E+04  0.7818609E-02  0.8562054E-01
        3   -1    0    0  501    0  0.00000000000E+00  0.00000000000E+00  0.15725455397E+04  0.15725455429E+04  0.10100000352E+00 0.  1.
       -3   -1    0    0    0  501  0.00000000000E+00  0.00000000000E+00 -0.69986517639E+03  0.69986518368E+03  0.10100000352E+00 0. -1.
    10030    2    1    2    0    0  0.00000000000E+00  0.00000000000E+00  0.87268036329E+03  0.22724107266E+04  0.20981609790E+04 0.  0.
        4    1    3    3  502    0  0.92284673308E+03 -0.21470812225E+03 -0.51419823905E+02  0.94888949920E+03  0.12699999809E+01 0. -1.
       -4    1    3    3    0  502 -0.92284673308E+03  0.21470812225E+03  0.92410018720E+03  0.13235212274E+04  0.12699999809E+01 0.  1.
</event>
<event>
 5   0  0.6599245E-06  0.2103875E+04  0.7818609E-02  0.8559538E-01
        1   -1    0    0  501    0  0.00000000000E+00  0.00000000000E+00  0.12131769637E+04  0.12131769637E+04  0.50400001928E-02 0.  1.
       -1   -1    0    0    0  501  0.00000000000E+00  0.00000000000E+00 -0.91212820928E+03  0.91212820930E+03  0.50400001928E-02 0. -1.
    10030    2    1    2    0    0  0.00000000000E+00  0.00000000000E+00  0.30104875440E+03  0.21253051730E+04  0.21038754064E+04 0.  0.
        2    1    3    3  502    0 -0.50002986538E+03  0.87534990442E+03  0.45409423535E+03  0.11056531536E+04  0.25500000920E-02 0.  1.
       -2    1    3    3    0  502  0.50002986538E+03 -0.87534990442E+03 -0.15304548095E+03  0.10196520194E+04  0.25500000920E-02 0. -1.
</event>
<event>
 5   0  0.6589193E-06  0.2101976E+04  0.7818609E-02  0.8560373E-01
        1   -1    0    0  501    0  0.00000000000E+00  0.00000000000E+00  0.10179594666E+04  0.10179594666E+04  0.50400001928E-02 0. -1.
       -1   -1    0    0    0  501  0.00000000000E+00  0.00000000000E+00 -0.10850885058E+04  0.10850885058E+04  0.50400001928E-02 0.  1.
    10030    2    1    2    0    0  0.00000000000E+00  0.00000000000E+00 -0.67129039211E+02  0.21030479724E+04  0.21019763239E+04 0.  0.
        3    1    3    3  502    0 -0.61922021577E+03 -0.84715990778E+03  0.25308673435E+02  0.10496447609E+04  0.10100000352E+00 0. -1.
       -3    1    3    3    0  502  0.61922021577E+03  0.84715990778E+03 -0.92437712646E+02  0.10534032115E+04  0.10100000352E+00 0.  1.
</event>
<event>
 5   0  0.6917078E-06  0.2099045E+04  0.7818609E-02  0.8561664E-01
        1   -1    0    0  501    0  0.00000000000E+00  0.00000000000E+00  0.97287281745E+03  0.97287281747E+03  0.50400001928E-02 0.  1.
       -1   -1    0    0    0  501  0.00000000000E+00  0.00000000000E+00 -0.11322114635E+04  0.11322114635E+04  0.50400001928E-02 0. -1.
    10030    2    1    2    0    0  0.00000000000E+00  0.00000000000E+00 -0.15933864604E+03  0.21050842810E+04  0.20990452653E+04 0.  0.
        5    1    3    3  502    0  0.44495816110E+03 -0.53082230840E+03  0.71108861262E+03  0.99268786294E+03  0.46999998093E+01 0.  1.
       -5    1    3    3    0  502 -0.44495816110E+03  0.53082230840E+03 -0.87042725866E+03  0.11123964180E+04  0.46999998093E+01 0. -1.
</event>
<event>
 5   0  0.1390735E-05  0.2153412E+04  0.7818609E-02  0.8538073E-01
       -2   -1    0    0    0  501  0.00000000000E+00  0.00000000000E+00  0.77623341587E+03  0.77623341588E+03  0.25500000920E-02 0. -1.
        2   -1    0    0  501    0  0.00000000000E+00  0.00000000000E+00 -0.14934892701E+04  0.14934892701E+04  0.25500000920E-02 0.  1.
    10030    2    1    2    0    0  0.00000000000E+00  0.00000000000E+00 -0.71725585425E+03  0.22697226860E+04  0.21534124340E+04 0.  0.
        5    1    3    3  502    0 -0.25294104708E+03  0.20041406834E+03  0.72404781502E+03  0.79272460573E+03  0.46999998093E+01 0. -1.
       -5    1    3    3    0  502  0.25294104708E+03 -0.20041406834E+03 -0.14413036693E+04  0.14769980803E+04  0.46999998093E+01 0.  1.
</event>
<event>
 5   0  0.6283269E-06  0.2097243E+04  0.7818609E-02  0.8562459E-01
        1   -1    0    0  501    0  0.00000000000E+00  0.00000000000E+00  0.10016358884E+04  0.10016358884E+04  0.50400001928E-02 0.  1.
       -1   -1    0    0    0  501  0.00000000000E+00  0.00000000000E+00 -0.10978113796E+04  0.10978113796E+04  0.50400001928E-02 0. -1.
    10030    2    1    2    0    0  0.00000000000E+00  0.00000000000E+00 -0.96175491204E+02  0.20994472681E+04  0.20972432158E+04 0.  0.
        1    1    3    3  502    0 -0.50948953333E+02  0.29689233139E+03 -0.10535667514E+04  0.10957845372E+04  0.50400001928E-02 0. -1.
       -1    1    3    3    0  502  0.50948953333E+02 -0.29689233139E+03  0.95739126019E+03  0.10036627309E+04  0.50400001928E-02 0.  1.
</event>
<event>
 5   0  0.6917078E-06  0.2093551E+04  0.7818609E-02  0.8564089E-01
        1   -1    0    0  501    0  0.00000000000E+00  0.00000000000E+00  0.23437359673E+04  0.23437359673E+04  0.50400001928E-02 0. -1.
       -1   -1    0    0    0  501  0.00000000000E+00  0.00000000000E+00 -0.46751814524E+03  0.46751814527E+03  0.50400001928E-02 0.  1.
    10030    2    1    2    0    0  0.00000000000E+00  0.00000000000E+00  0.18762178220E+04  0.28112541125E+04  0.20935511385E+04 0.  0.
        5    1    3    3  502    0  0.84123586915E+03  0.57169258444E+03  0.60589609654E+03  0.11839097805E+04  0.46999998093E+01 0.  1.
       -5    1    3    3    0  502 -0.84123586915E+03 -0.57169258444E+03  0.12703217255E+04  0.16273443320E+04  0.46999998093E+01 0. -1.
</event>
<event>
 5   0  0.6238363E-06  0.2117072E+04  0.7818609E-02  0.8553760E-01
        1   -1    0    0  501    0  0.00000000000E+00  0.00000000000E+00  0.91875092493E+03  0.91875092495E+03  0.50400001928E-02 0.  1.
       -1   -1    0    0    0  501  0.00000000000E+00  0.00000000000E+00 -0.12195884204E+04  0.12195884204E+04  0.50400001928E-02 0. -1.
    10030    2    1    2    0    0  0.00000000000E+00  0.00000000000E+00 -0.30083749548E+03  0.21383393454E+04  0.21170715522E+04 0.  0.
        4    1    3    3  502    0  0.88146418979E+03  0.57325077998E+03 -0.27371387388E+03  0.10865157488E+04  0.12699999809E+01 0.  1.
       -4    1    3    3    0  502 -0.88146418979E+03 -0.57325077998E+03 -0.27123621592E+02  0.10518235966E+04  0.12699999809E+01 0. -1.
</event>
<event>
 5   0  0.6599245E-06  0.2101525E+04  0.7818609E-02  0.8560572E-01
        1   -1    0    0  501    0  0.00000000000E+00  0.00000000000E+00  0.13924911521E+04  0.13924911521E+04  0.50400001928E-02 0.  1.
       -1   -1    0    0    0  501  0.00000000000E+00  0.00000000000E+00 -0.79289651006E+03  0.79289651007E+03  0.50400001928E-02 0. -1.
    10030    2    1    2    0    0  0.00000000000E+00  0.00000000000E+00  0.59959464208E+03  0.21853876622E+04  0.21015245655E+04 0.  0.
        2    1    3    3  502    0 -0.14820921619E+03  0.26671793895E+03 -0.74581077514E+03  0.80581520402E+03  0.25500000920E-02 0. -1.
       -2    1    3    3    0  502  0.14820921619E+03 -0.26671793895E+03  0.13454054172E+04  0.13795724582E+04  0.25500000920E-02 0.  1.
</event>
<event>
 5   0  0.1398469E-05  0.2100388E+04  0.7818609E-02  0.8561072E-01
       -2   -1    0    0    0  501  0.00000000000E+00  0.00000000000E+00  0.10606610444E+04  0.10606610445E+04  0.25500000920E-02 0.  1.
        2   -1    0    0  501    0  0.00000000000E+00  0.00000000000E+00 -0.10398306300E+04  0.10398306300E+04  0.25500000920E-02 0. -1.
    10030    2    1    2    0    0  0.00000000000E+00  0.00000000000E+00  0.20830414492E+02  0.21004916744E+04  0.21003883851E+04 0.  0.
        2    1    3    3  502    0  0.65752424119E+03 -0.52127721171E+03  0.64198389767E+03  0.10565090554E+04  0.25500000920E-02 0.  1.
       -2    1    3    3    0  502 -0.65752424119E+03  0.52127721171E+03 -0.62115348318E+03  0.10439826190E+04  0.25500000920E-02 0. -1.
</event>
<event>
 5   0  0.1344501E-05  0.2104386E+04  0.7818609E-02  0.8559314E-01
        2   -1    0    0  501    0  0.00000000000E+00  0.00000000000E+00  0.52991868131E+03  0.52991868131E+03  0.25500000920E-02 0. -1.
       -2   -1    0    0    0  501  0.00000000000E+00  0.00000000000E+00 -0.20892071905E+04  0.20892071905E+04  0.25500000920E-02 0.  1.
    10030    2    1    2    0    0  0.00000000000E+00  0.00000000000E+00 -0.15592885092E+04  0.26191258718E+04  0.21043858195E+04 0.  0.
        3    1    3    3  502    0 -0.14252766511E+03 -0.36781984572E+03  0.43440523173E+03  0.58678231891E+03  0.10100000352E+00 0. -1.
       -3    1    3    3    0  502  0.14252766511E+03  0.36781984572E+03 -0.19936937409E+04  0.20323435529E+04  0.10100000352E+00 0.  1.
</event>
<event>
 5   0  0.1441136E-05  0.2097836E+04  0.7818609E-02  0.8562197E-01
        2   -1    0    0  501    0  0.00000000000E+00  0.00000000000E+00  0.16795688349E+04  0.16795688349E+04  0.25500000920E-02 0.  1.
       -2   -1    0    0    0  501  0.00000000000E+00  0.00000000000E+00 -0.65506646548E+03  0.65506646549E+03  0.25500000920E-02 0. -1.
    10030    2    1    2    0    0  0.00000000000E+00  0.00000000000E+00  0.10245023694E+04  0.23346353003E+04  0.20978362378E+04 0.  0.
        4    1    3    3  502    0  0.43776363247E+03 -0.75811041985E+03  0.11552780819E+04  0.14494955902E+04  0.12699999809E+01 0.  1.
       -4    1    3    3    0  502 -0.43776363247E+03  0.75811041985E+03 -0.13077571252E+03  0.88513971015E+03  0.12699999809E+01 0. -1.
</event>
<event>
 5   0  0.6589193E-06  0.2096338E+04  0.7818609E-02  0.8562858E-01
        1   -1    0    0  501    0  0.00000000000E+00  0.00000000000E+00  0.12392649526E+04  0.12392649526E+04  0.50400001928E-02 0. -1.
       -1   -1    0    0    0  501  0.00000000000E+00  0.00000000000E+00 -0.88654047334E+03  0.88654047335E+03  0.50400001928E-02 0.  1.
    10030    2    1    2    0    0  0.00000000000E+00  0.00000000000E+00  0.35272447925E+03  0.21258054259E+04  0.20963382720E+04 0.  0.
        3    1    3    3  502    0 -0.24773702825E+03  0.10183540884E+04  0.16065768723E+03  0.10602969335E+04  0.10100000352E+00 0. -1.
       -3    1    3    3    0  502  0.24773702825E+03 -0.10183540884E+04  0.19206679202E+03  0.10655084924E+04  0.10100000352E+00 0.  1.
</event>
<event>
 5   0  0.1395356E-05  0.2098752E+04  0.7818609E-02  0.8561793E-01
       -2   -1    0    0    0  501  0.00000000000E+00  0.00000000000E+00  0.79510088007E+03  0.79510088008E+03  0.25500000920E-02 0.  1.
        2   -1    0    0  501    0  0.00000000000E+00  0.00000000000E+00 -0.13849691374E+04  0.13849691374E+04  0.25500000920E-02 0. -1.
    10030    2    1    2    0    0  0.00000000000E+00  0.00000000000E+00 -0.58986825734E+03  0.21800700175E+04  0.20987521817E+04 0.  0.
        1    1    3    3  502    0  0.56969100479E+03 -0.15232633291E+03  0.60670621886E+03  0.84607540365E+03  0.50400001928E-02 0.  1.
       -1    1    3    3    0  502 -0.56969100479E+03  0.15232633291E+03 -0.11965744762E+04  0.13339946138E+04  0.50400001928E-02 0. -1.
</event>
<event>
 5   0  0.1390735E-05  0.2100918E+04  0.7818609E-02  0.8560839E-01
       -2   -1    0    0    0  501  0.00000000000E+00  0.00000000000E+00  0.71005380260E+03  0.71005380260E+03  0.25500000920E-02 0. -1.
        2   -1    0    0  501    0  0.00000000000E+00  0.00000000000E+00 -0.15540564825E+04  0.15540564825E+04  0.25500000920E-02 0.  1.
    10030    2    1    2    0    0  0.00000000000E+00  0.00000000000E+00 -0.84400267995E+03  0.22641102852E+04  0.21009176232E+04 0.  0.
        5    1    3    3  502    0 -0.22347769378E+03 -0.85318248810E+03  0.19291599665E+03  0.90282961259E+03  0.46999998093E+01 0. -1.
       -5    1    3    3    0  502  0.22347769378E+03  0.85318248810E+03 -0.10369186766E+04  0.13612806726E+04  0.46999998093E+01 0.  1.
</event>
<event>
 5   0  0.6238363E-06  0.2105842E+04  0.7818609E-02  0.8558674E-01
       -1   -1    0    0    0  501  0.00000000000E+00  0.00000000000E+00  0.49563292307E+03  0.49563292310E+03  0.50400001928E-02 0.  1.
        1   -1    0    0  501    0  0.00000000000E+00  0.00000000000E+00 -0.22368212376E+04  0.22368212376E+04  0.50400001928E-02 0. -1.
    10030    2    1    2    0    0  0.00000000000E+00  0.00000000000E+00 -0.17411883145E+04  0.27324541607E+04  0.21058416355E+04 0.  0.
        4    1    3    3  502    0  0.78953937370E+03  0.18874622296E+03 -0.51025809455E+00  0.81178780021E+03  0.12699999809E+01 0.  1.
       -4    1    3    3    0  502 -0.78953937370E+03 -0.18874622296E+03 -0.17406780564E+04  0.19206663605E+04  0.12699999809E+01 0. -1.
</event>
<event>
 5   0  0.6599245E-06  0.2097110E+04  0.7818609E-02  0.8562517E-01
       -1   -1    0    0    0  501  0.00000000000E+00  0.00000000000E+00  0.14859070463E+04  0.14859070463E+04  0.50400001928E-02 0.  1.
        1   -1    0    0  501    0  0.00000000000E+00  0.00000000000E+00 -0.73993057938E+03  0.73993057940E+03  0.50400001928E-02 0. -1.
    10030    2    1    2    0    0  0.00000000000E+00  0.00000000000E+00  0.74597646692E+03  0.22258376257E+04  0.20971104517E+04 0.  0.
        2    1    3    3  502    0  0.16078717706E+03 -0.29011640199E+03  0.14287566512E+04  0.14667534255E+04  0.25500000920E-02 0.  1.
       -2    1    3    3    0  502 -0.16078717706E+03  0.29011640199E+03 -0.68278018423E+03  0.75908420020E+03  0.25500000920E-02 0. -1.
</event>
<event>
 5   0  0.6599245E-06  0.2102147E+04  0.7818609E-02  0.8560298E-01
        1   -1    0    0  501    0  0.00000000000E+00  0.00000000000E+00  0.12214952072E+04  0.12214952072E+04  0.50400001928E-02 0. -1.
       -1   -1    0    0    0  501  0.00000000000E+00  0.00000000000E+00 -0.90442875770E+03  0.90442875771E+03  0.50400001928E-02 0.  1.
    10030    2    1    2    0    0  0.00000000000E+00  0.00000000000E+00  0.31706644951E+03  0.21259239649E+04  0.21021468957E+04 0.  0.
        2    1    3    3  502    0  0.48770968677E+03 -0.64239648930E+03 -0.52304932822E+03  0.96130878899E+03  0.25500000920E-02 0.  1.
       -2    1    3    3    0  502 -0.48770968677E+03  0.64239648930E+03  0.84011577773E+03  0.11646151759E+04  0.25500000920E-02 0. -1.
</event>
<event>
 5   0  0.6589193E-06  0.2099203E+04  0.7818609E-02  0.8561594E-01
       -1   -1    0    0    0  501  0.00000000000E+00  0.00000000000E+00  0.10453861662E+04  0.10453861662E+04  0.50400001928E-02 0. -1.
        1   -1    0    0  501    0  0.00000000000E+00  0.00000000000E+00 -0.10538340782E+04  0.10538340782E+04  0.50400001928E-02 0.  1.
    10030    2    1    2    0    0  0.00000000000E+00  0.00000000000E+00 -0.84479120258E+01  0.20992202444E+04  0.20992032459E+04 0.  0.
        3    1    3    3  502    0 -0.16654067574E+02  0.21157769126E+03  0.10237051230E+04  0.10454734174E+04  0.10100000352E+00 0. -1.
       -3    1    3    3    0  502  0.16654067574E+02 -0.21157769126E+03 -0.10321530351E+04  0.10537468270E+04  0.10100000352E+00 0.  1.
</event>
<event>
 5   0  0.6599245E-06  0.2098976E+04  0.7818609E-02  0.8561695E-01
        1   -1    0    0  501    0  0.00000000000E+00  0.00000000000E+00  0.10852294093E+04  0.10852294093E+04  0.50400001928E-02 0.  1.
       -1   -1    0    0    0  501  0.00000000000E+00  0.00000000000E+00 -0.10149234798E+04  0.10149234799E+04  0.50400001928E-02 0. -1.
    10030    2    1    2    0    0  0.00000000000E+00  0.00000000000E+00  0.70305929440E+02  0.21001528891E+04  0.20989757583E+04 0.  0.
        2    1    3    3  502    0 -0.24580006864E+03  0.57026857465E+03  0.88167760826E+03  0.10784151918E+04  0.25500000920E-02 0.  1.
       -2    1    3    3    0  502  0.24580006864E+03 -0.57026857465E+03 -0.81137167882E+03  0.10217376974E+04  0.25500000920E-02 0. -1.
</event>
<event>
 5   0  0.1398469E-05  0.2099946E+04  0.7818609E-02  0.8561267E-01
        2   -1    0    0  501    0  0.00000000000E+00  0.00000000000E+00  0.96187453191E+03  0.96187453192E+03  0.25500000920E-02 0.  1.
       -2   -1    0    0    0  501  0.00000000000E+00  0.00000000000E+00 -0.11461407693E+04  0.11461407693E+04  0.25500000920E-02 0. -1.
    10030    2    1    2    0    0  0.00000000000E+00  0.00000000000E+00 -0.18426623738E+03  0.21080153012E+04  0.20999463002E+04 0.  0.
        2    1    3    3  502    0 -0.36403298944E+03  0.97925943184E+03 -0.19729520706E+03  0.10632000992E+04  0.25500000920E-02 0. -1.
       -2    1    3    3    0  502  0.36403298944E+03 -0.97925943184E+03  0.13028969688E+02  0.10448152020E+04  0.25500000920E-02 0.  1.
</event>
<event>
 5   0  0.1398469E-05  0.2101178E+04  0.7818609E-02  0.8560725E-01
        2   -1    0    0  501    0  0.00000000000E+00  0.00000000000E+00  0.15652748772E+04  0.15652748772E+04  0.25500000920E-02 0.  1.
       -2   -1    0    0    0  501  0.00000000000E+00  0.00000000000E+00 -0.70513960657E+03  0.70513960658E+03  0.25500000920E-02 0. -1.
    10030    2    1    2    0    0  0.00000000000E+00  0.00000000000E+00  0.86013527066E+03  0.22704144838E+04  0.21011780611E+04 0.  0.
        2    1    3    3  502    0 -0.99044355028E+03 -0.27260525044E+03  0.66789835314E+03  0.12253082302E+04  0.25500000920E-02 0.  1.
       -2    1    3    3    0  502  0.99044355028E+03  0.27260525044E+03  0.19223691751E+03  0.10451062536E+04  0.25500000920E-02 0. -1.
</event>
<event>
 5   0  0.1344501E-05  0.2098840E+04  0.7818609E-02  0.8561755E-01
        2   -1    0    0  501    0  0.00000000000E+00  0.00000000000E+00  0.16213332335E+04  0.16213332335E+04  0.25500000920E-02 0. -1.
       -2   -1    0    0    0  501  0.00000000000E+00  0.00000000000E+00 -0.67924485455E+03  0.67924485456E+03  0.25500000920E-02 0.  1.
    10030    2    1    2    0    0  0.00000000000E+00  0.00000000000E+00  0.94208837897E+03  0.23005780881E+04  0.20988399238E+04 0.  0.
        3    1    3    3  502    0 -0.23133667855E+03  0.76854283177E+03  0.12121271663E+04  0.14537630552E+04  0.10100000352E+00 0. -1.
       -3    1    3    3    0  502  0.23133667855E+03 -0.76854283177E+03 -0.27003878732E+03  0.84681503291E+03  0.10100000352E+00 0.  1.
</event>
<event>
 5   0  0.6283269E-06  0.2102417E+04  0.7818609E-02  0.8560180E-01
        1   -1    0    0  501    0  0.00000000000E+00  0.00000000000E+00  0.68858193801E+03  0.68858193802E+03  0.50400001928E-02 0.  1.
       -1   -1    0    0    0  501  0.00000000000E+00  0.00000000000E+00 -0.16048038582E+04  0.16048038582E+04  0.50400001928E-02 0. -1.
    10030    2    1    2    0    0  0.00000000000E+00  0.00000000000E+00 -0.91622192022E+03  0.22933857963E+04  0.21024166579E+04 0.  0.
        1    1    3    3  502    0  0.64655497574E+03  0.35787266032E+03 -0.12736375343E+04  0.14725008477E+04  0.50400001928E-02 0. -1.
       -1    1    3    3    0  502 -0.64655497574E+03 -0.35787266032E+03  0.35741561403E+03  0.82088494860E+03  0.50400001928E-02 0.  1.
</event>
<event>
 5   0  0.6599245E-06  0.2105108E+04  0.7818609E-02  0.8558997E-01
       -1   -1    0    0    0  501  0.00000000000E+00  0.00000000000E+00  0.10209784203E+04  0.10209784203E+04  0.50400001928E-02 0.  1.
        1   -1    0    0  501    0  0.00000000000E+00  0.00000000000E+00 -0.10851059553E+04  0.10851059553E+04  0.50400001928E-02 0. -1.
    10030    2    1    2    0    0  0.00000000000E+00  0.00000000000E+00 -0.64127535030E+02  0.21060843756E+04  0.21051078491E+04 0.  0.
        2    1    3    3  502    0 -0.95854830508E+03 -0.42856755480E+03  0.41351209314E+02  0.10508067970E+04  0.25500000920E-02 0. -1.
       -2    1    3    3    0  502  0.95854830508E+03  0.42856755480E+03 -0.10547874434E+03  0.10552775785E+04  0.25500000920E-02 0.  1.
</event>
<event>
 5   0  0.6599245E-06  0.2103477E+04  0.7818609E-02  0.8559713E-01
       -1   -1    0    0    0  501  0.00000000000E+00  0.00000000000E+00  0.10727268732E+04  0.10727268732E+04  0.50400001928E-02 0.  1.
        1   -1    0    0  501    0  0.00000000000E+00  0.00000000000E+00 -0.10311612603E+04  0.10311612603E+04  0.50400001928E-02 0. -1.
    10030    2    1    2    0    0  0.00000000000E+00  0.00000000000E+00  0.41565612933E+02  0.21038881335E+04  0.21034774965E+04 0.  0.
        2    1    3    3  502    0 -0.73419305185E+03 -0.65406955002E+03 -0.35252990041E+03  0.10445686882E+04  0.25500000920E-02 0. -1.
       -2    1    3    3    0  502  0.73419305185E+03  0.65406955002E+03  0.39409551335E+03  0.10593194453E+04  0.25500000920E-02 0.  1.
</event>
<event>
 5   0  0.1344501E-05  0.2107358E+04  0.7818609E-02  0.8558009E-01
       -2   -1    0    0    0  501  0.00000000000E+00  0.00000000000E+00  0.55888220340E+03  0.55888220341E+03  0.25500000920E-02 0. -1.
        2   -1    0    0  501    0  0.00000000000E+00  0.00000000000E+00 -0.19865354643E+04  0.19865354643E+04  0.25500000920E-02 0.  1.
    10030    2    1    2    0    0  0.00000000000E+00  0.00000000000E+00 -0.14276532609E+04  0.25454176677E+04  0.21073578884E+04 0.  0.
        3    1    3    3  502    0 -0.55982918287E+03  0.36728268173E+03  0.26888955656E+03  0.72153093220E+03  0.10100000352E+00 0. -1.
       -3    1    3    3    0  502  0.55982918287E+03 -0.36728268173E+03 -0.16965428175E+04  0.18238867355E+04  0.10100000352E+00 0.  1.
</event>
<event>
 5   0  0.1398469E-05  0.2103991E+04  0.7818609E-02  0.8559487E-01
       -2   -1    0    0    0  501  0.00000000000E+00  0.00000000000E+00  0.84946295700E+03  0.84946295701E+03  0.25500000920E-02 0.  1.
        2   -1    0    0  501    0  0.00000000000E+00  0.00000000000E+00 -0.13028172974E+04  0.13028172974E+04  0.25500000920E-02 0. -1.
    10030    2    1    2    0    0  0.00000000000E+00  0.00000000000E+00 -0.45335434036E+03  0.21522802544E+04  0.21039914770E+04 0.  0.
        2    1    3    3  502    0  0.90415337860E+03 -0.54745120053E+02  0.32058219944E+03  0.96086591510E+03  0.25500000920E-02 0.  1.
       -2    1    3    3    0  502 -0.90415337860E+03  0.54745120053E+02 -0.77393653980E+03  0.11914143393E+04  0.25500000920E-02 0. -1.
</event>
<event>
 5   0  0.1398469E-05  0.2101097E+04  0.7818609E-02  0.8560760E-01
       -2   -1    0    0    0  501  0.00000000000E+00  0.00000000000E+00  0.12262091114E+04  0.12262091114E+04  0.25500000920E-02 0.  1.
        2   -1    0    0  501    0  0.00000000000E+00  0.00000000000E+00 -0.90005225202E+03  0.90005225202E+03  0.25500000920E-02 0. -1.
    10030    2    1    2    0    0  0.00000000000E+00  0.00000000000E+00  0.32615685934E+03  0.21262613634E+04  0.21010971154E+04 0.  0.
        2    1    3    3  502    0  0.95456741489E+02  0.57947441453E+03  0.10445732874E+04  0.11983471698E+04  0.25500000920E-02 0.  1.
       -2    1    3    3    0  502 -0.95456741489E+02 -0.57947441453E+03 -0.71841642805E+03  0.92791419360E+03  0.25500000920E-02 0. -1.
</event>
<event>
 5   0  0.6238363E-06  0.2100735E+04  0.7818609E-02  0.8560919E-01
        1   -1    0    0  501    0  0.00000000000E+00  0.00000000000E+00  0.96797526404E+03  0.96797526406E+03  0.50400001928E-02 0. -1.
       -1   -1    0    0    0  501  0.00000000000E+00  0.00000000000E+00 -0.11397732746E+04  0.11397732746E+04  0.50400001928E-02 0.  1.
    10030    2    1    2    0    0  0.00000000000E+00  0.00000000000E+00 -0.17179801051E+03  0.21077485386E+04  0.21007354297E+04 0.  0.
        4    1    3    3  502    0  0.96373907944E+03  0.28501737818E+03 -0.39227525820E+03  0.10788463330E+04  0.12699999809E+01 0.  1.
       -4    1    3    3    0  502 -0.96373907944E+03 -0.28501737818E+03  0.22047724769E+03  0.10289022056E+04  0.12699999809E+01 0. -1.
</event>
<event>
 5   0  0.6917078E-06  0.2095979E+04  0.7818609E-02  0.8563017E-01
        1   -1    0    0  501    0  0.00000000000E+00  0.00000000000E+00  0.12732742146E+04  0.12732742147E+04  0.50400001928E-02 0.  1.
       -1   -1    0    0    0  501  0.00000000000E+00  0.00000000000E+00 -0.86256549300E+03  0.86256549301E+03  0.50400001928E-02 0. -1.
    10030    2    1    2    0    0  0.00000000000E+00  0.00000000000E+00  0.41070872165E+03  0.21358397077E+04  0.20959793899E+04 0.  0.
        5    1    3    3  502    0  0.50813204897E+03 -0.84600575799E+03 -0.15396512829E+03  0.99882494586E+03  0.46999998093E+01 0. -1.
       -5    1    3    3    0  502 -0.50813204897E+03  0.84600575799E+03  0.56467384995E+03  0.11370147618E+04  0.46999998093E+01 0.  1.
</event>
<event>
 5   0  0.1395356E-05  0.2098394E+04  0.7818609E-02  0.8561951E-01
        2   -1    0    0  501    0  0.00000000000E+00  0.00000000000E+00  0.29167809211E+04  0.29167809211E+04  0.25500000920E-02 0. -1.
       -2   -1    0    0    0  501  0.00000000000E+00  0.00000000000E+00 -0.37740713450E+03  0.37740713451E+03  0.25500000920E-02 0.  1.
    10030    2    1    2    0    0  0.00000000000E+00  0.00000000000E+00  0.25393737866E+04  0.32941880556E+04  0.20983936041E+04 0.  0.
        1    1    3    3  502    0 -0.71172261710E+03  0.42871858526E+03  0.26391471860E+03  0.87177960962E+03  0.50400001928E-02 0.  1.
       -1    1    3    3    0  502  0.71172261710E+03 -0.42871858526E+03  0.22754590680E+04  0.24224084460E+04  0.50400001928E-02 0. -1.
</event>
<event>
 5   0  0.1344501E-05  0.2096771E+04  0.7818609E-02  0.8562667E-01
       -2   -1    0    0    0  501  0.00000000000E+00  0.00000000000E+00  0.79066781199E+03  0.79066781199E+03  0.25500000920E-02 0. -1.
        2   -1    0    0  501    0  0.00000000000E+00  0.00000000000E+00 -0.13901054716E+04  0.13901054716E+04  0.25500000920E-02 0.  1.
    10030    2    1    2    0    0  0.00000000000E+00  0.00000000000E+00 -0.59943765963E+03  0.21807732836E+04  0.20967705184E+04 0.  0.
        3    1    3    3  502    0  0.36088924731E+03 -0.38420292334E+03 -0.12422584385E+04  0.13494661809E+04  0.10100000352E+00 0.  1.
       -3    1    3    3    0  502 -0.36088924731E+03  0.38420292334E+03  0.64282077886E+03  0.83130710274E+03  0.10100000352E+00 0. -1.
</event>
<event>
 5   0  0.5009125E-06  0.2102957E+04  0.7818609E-02  0.8559942E-01
        4   -1    0    0  501    0  0.00000000000E+00  0.00000000000E+00  0.13112604342E+04  0.13112610492E+04  0.12699999809E+01 0.  1.
       -4   -1    0    0    0  501  0.00000000000E+00  0.00000000000E+00 -0.84316229643E+03  0.84316325289E+03  0.12699999809E+01 0. -1.
    10030    2    1    2    0    0  0.00000000000E+00  0.00000000000E+00  0.46809813778E+03  0.21544243021E+04  0.21029570150E+04 0.  0.
        5    1    3    3  502    0  0.10381249390E+03 -0.40099782597E+02 -0.83710179475E+03  0.84448003601E+03  0.46999998093E+01 0. -1.
       -5    1    3    3    0  502 -0.10381249390E+03  0.40099782597E+02  0.13051999325E+04  0.13099442661E+04  0.46999998093E+01 0.  1.
</event>
<event>
 5   0  0.1344501E-05  0.2092419E+04  0.7818609E-02  0.8564590E-01
       -2   -1    0    0    0  501  0.00000000000E+00  0.00000000000E+00  0.47004763576E+03  0.47004763576E+03  0.25500000920E-02 0. -1.
        2   -1    0    0  501    0  0.00000000000E+00  0.00000000000E+00 -0.23286035436E+04  0.23286035436E+04  0.25500000920E-02 0.  1.
    10030    2    1    2    0    0  0.00000000000E+00  0.00000000000E+00 -0.18585559079E+04  0.27986511794E+04  0.20924192604E+04 0.  0.
        3    1    3    3  502    0 -0.60084562564E+02 -0.78841089652E+03 -0.18456033339E+04  0.20078479954E+04  0.10100000352E+00 0.  1.
       -3    1    3    3    0  502  0.60084562564E+02  0.78841089652E+03 -0.12952573973E+02  0.79080318398E+03  0.10100000352E+00 0. -1.
</event>
<event>
 5   0  0.1398469E-05  0.2140221E+04  0.7818609E-02  0.8543730E-01
       -2   -1    0    0    0  501  0.00000000000E+00  0.00000000000E+00  0.75388736697E+03  0.75388736698E+03  0.25500000920E-02 0.  1.
        2   -1    0    0  501    0  0.00000000000E+00  0.00000000000E+00 -0.15189749439E+04  0.15189749439E+04  0.25500000920E-02 0. -1.
    10030    2    1    2    0    0  0.00000000000E+00  0.00000000000E+00 -0.76508757694E+03  0.22728623109E+04  0.21402205690E+04 0.  0.
        2    1    3    3  502    0  0.23274986645E+03  0.43054356493E+03  0.62806200506E+03  0.79624251572E+03  0.25500000920E-02 0.  1.
       -2    1    3    3    0  502 -0.23274986645E+03 -0.43054356493E+03 -0.13931495820E+04  0.14766197952E+04  0.25500000920E-02 0. -1.
</event>
<event>
 5   0  0.1344501E-05  0.2081544E+04  0.7818609E-02  0.8569417E-01
       -2   -1    0    0    0  501  0.00000000000E+00  0.00000000000E+00  0.11125365845E+04  0.11125365845E+04  0.25500000920E-02 0.  1.
        2   -1    0    0  501    0  0.00000000000E+00  0.00000000000E+00 -0.97363622548E+03  0.97363622548E+03  0.25500000920E-02 0. -1.
    10030    2    1    2    0    0  0.00000000000E+00  0.00000000000E+00  0.13890035899E+03  0.20861728100E+04  0.20815435819E+04 0.  0.
        3    1    3    3  502    0  0.10124359617E+04 -0.23222925922E+03  0.41215876782E+01  0.10387367342E+04  0.10100000352E+00 0.  1.
       -3    1    3    3    0  502 -0.10124359617E+04  0.23222925922E+03  0.13477877131E+03  0.10474360757E+04  0.10100000352E+00 0. -1.
</event>
<event>
 5   0  0.6589193E-06  0.2100148E+04  0.7818609E-02  0.8561178E-01
       -1   -1    0    0    0  501  0.00000000000E+00  0.00000000000E+00  0.10545078038E+04  0.10545078038E+04  0.50400001928E-02 0.  1.
        1   -1    0    0  501    0  0.00000000000E+00  0.00000000000E+00 -0.10456590485E+04  0.10456590485E+04  0.50400001928E-02 0. -1.
    10030    2    1    2    0    0  0.00000000000E+00  0.00000000000E+00  0.88487552977E+01  0.21001668524E+04  0.21001482108E+04 0.  0.
        3    1    3    3  502    0  0.77938608922E+02  0.20391882320E+03  0.10315645981E+04  0.10544111359E+04  0.10100000352E+00 0.  1.
       -3    1    3    3    0  502 -0.77938608922E+02 -0.20391882320E+03 -0.10227158428E+04  0.10457557165E+04  0.10100000352E+00 0. -1.
</event>
<event>
 5   0  0.6917078E-06  0.2155832E+04  0.7818609E-02  0.8537040E-01
       -1   -1    0    0    0  501  0.00000000000E+00  0.00000000000E+00  0.57490410404E+03  0.57490410406E+03  0.50400001928E-02 0.  1.
        1   -1    0    0  501    0  0.00000000000E+00  0.00000000000E+00 -0.20210376230E+04  0.20210376230E+04  0.50400001928E-02 0. -1.
    10030    2    1    2    0    0  0.00000000000E+00  0.00000000000E+00 -0.14461335189E+04  0.25959417270E+04  0.21558319266E+04 0.  0.
        5    1    3    3  502    0 -0.79243321044E+03  0.24477026485E+03  0.10597688047E+03  0.83613160732E+03  0.46999998093E+01 0.  1.
       -5    1    3    3    0  502  0.79243321044E+03 -0.24477026485E+03 -0.15521103994E+04  0.17598101197E+04  0.46999998093E+01 0. -1.
</event>
<event>
 5   0  0.1395356E-05  0.2082748E+04  0.7818609E-02  0.8568881E-01
        2   -1    0    0  501    0  0.00000000000E+00  0.00000000000E+00  0.14303512149E+04  0.14303512149E+04  0.25500000920E-02 0.  1.
       -2   -1    0    0    0  501  0.00000000000E+00  0.00000000000E+00 -0.75817708202E+03  0.75817708203E+03  0.25500000920E-02 0. -1.
    10030    2    1    2    0    0  0.00000000000E+00  0.00000000000E+00  0.67217413287E+03  0.21885282969E+04  0.20827477143E+04 0.  0.
        1    1    3    3  502    0  0.13084197914E+03 -0.67777599094E+02  0.14193409542E+04  0.14269695760E+04  0.50400001928E-02 0.  1.
       -1    1    3    3    0  502 -0.13084197914E+03  0.67777599094E+02 -0.74716682136E+03  0.76155872092E+03  0.50400001928E-02 0. -1.
</event>
<event>
 5   0  0.6599245E-06  0.2100928E+04  0.7818609E-02  0.8560835E-01
       -1   -1    0    0    0  501  0.00000000000E+00  0.00000000000E+00  0.13135547365E+04  0.13135547365E+04  0.50400001928E-02 0. -1.
        1   -1    0    0  501    0  0.00000000000E+00  0.00000000000E+00 -0.84006740324E+03  0.84006740326E+03  0.50400001928E-02 0.  1.
    10030    2    1    2    0    0  0.00000000000E+00  0.00000000000E+00  0.47348733326E+03  0.21536221398E+04  0.21009279060E+04 0.  0.
        2    1    3    3  502    0 -0.58286767879E+03  0.29060564726E+03 -0.60811755070E+03  0.89106303295E+03  0.25500000920E-02 0.  1.
       -2    1    3    3    0  502  0.58286767879E+03 -0.29060564726E+03  0.10816048840E+04  0.12625591068E+04  0.25500000920E-02 0. -1.
</event>
<event>
 5   0  0.1398469E-05  0.2100459E+04  0.7818609E-02  0.8561041E-01
        2   -1    0    0  501    0  0.00000000000E+00  0.00000000000E+00  0.22371974741E+04  0.22371974741E+04  0.25500000920E-02 0. -1.
       -2   -1    0    0    0  501  0.00000000000E+00  0.00000000000E+00 -0.49301937292E+03  0.49301937293E+03  0.25500000920E-02 0.  1.
    10030    2    1    2    0    0  0.00000000000E+00  0.00000000000E+00  0.17441781012E+04  0.27302168470E+04  0.21004587078E+04 0.  0.
        2    1    3    3  502    0 -0.35492772603E+03  0.31563455554E+03  0.20896131325E+04  0.21429143490E+04  0.25500000920E-02 0. -1.
       -2    1    3    3    0  502  0.35492772603E+03 -0.31563455554E+03 -0.34543503134E+03  0.58730249807E+03  0.25500000920E-02 0.  1.
</event>
<event>
 5   0  0.6283269E-06  0.2103146E+04  0.7818609E-02  0.8559859E-01
        1   -1    0    0  501    0  0.00000000000E+00  0.00000000000E+00  0.11455306581E+04  0.11455306581E+04  0.50400001928E-02 0. -1.
       -1   -1    0    0    0  501  0.00000000000E+00  0.00000000000E+00 -0.96532170051E+03  0.96532170053E+03  0.50400001928E-02 0.  1.
    10030    2    1    2    0    0  0.00000000000E+00  0.00000000000E+00  0.18020895761E+03  0.21108523587E+04  0.21031458370E+04 0.  0.
        1    1    3    3  502    0  0.46794412362E+03  0.72821838122E+02  0.10324436288E+04  0.11358761242E+04  0.50400001928E-02 0. -1.
       -1    1    3    3    0  502 -0.46794412362E+03 -0.72821838122E+02 -0.85223467118E+03  0.97497623444E+03  0.50400001928E-02 0.  1.
</event>
<event>
 5   0  0.1441136E-05  0.2099869E+04  0.7818609E-02  0.8561301E-01
        2   -1    0    0  501    0  0.00000000000E+00  0.00000000000E+00  0.23614304989E+04  0.23614304989E+04  0.25500000920E-02 0.  1.
       -2   -1    0    0    0  501  0.00000000000E+00  0.00000000000E+00 -0.46681978928E+03  0.46681978929E+03  0.25500000920E-02 0. -1.
    10030    2    1    2    0    0  0.00000000000E+00  0.00000000000E+00  0.18946107096E+04  0.28282502881E+04  0.20998690320E+04 0.  0.
        4    1    3    3  502    0  0.73897996226E+03  0.68098168631E+03  0.53759685932E+03  0.11396663713E+04  0.12699999809E+01 0.  1.
       -4    1    3    3    0  502 -0.73897996226E+03 -0.68098168631E+03  0.13570138502E+04  0.16885839169E+04  0.12699999809E+01 0. -1.
</event>
<event>
 5   0  0.6238363E-06  0.2102021E+04  0.7818609E-02  0.8560354E-01
       -1   -1    0    0    0  501  0.00000000000E+00  0.00000000000E+00  0.11863715408E+04  0.11863715408E+04  0.50400001928E-02 0. -1.
        1   -1    0    0  501    0  0.00000000000E+00  0.00000000000E+00 -0.93109394839E+03  0.93109394841E+03  0.50400001928E-02 0.  1.
    10030    2    1    2    0    0  0.00000000000E+00  0.00000000000E+00  0.25527759240E+03  0.21174654892E+04  0.21020212770E+04 0.  0.
        4    1    3    3  502    0  0.45391921539E+03  0.90802979837E+03 -0.14650218432E+03  0.10256828319E+04  0.12699999809E+01 0.  1.
       -4    1    3    3    0  502 -0.45391921539E+03 -0.90802979837E+03  0.40177977672E+03  0.10917826573E+04  0.12699999809E+01 0. -1.
</event>
<event>
 5   0  0.1390735E-05  0.2101858E+04  0.7818609E-02  0.8560425E-01
       -2   -1    0    0    0  501  0.00000000000E+00  0.00000000000E+00  0.12575350320E+04  0.12575350320E+04  0.25500000920E-02 0. -1.
        2   -1    0    0  501    0  0.00000000000E+00  0.00000000000E+00 -0.87826717605E+03  0.87826717606E+03  0.25500000920E-02 0.  1.
    10030    2    1    2    0    0  0.00000000000E+00  0.00000000000E+00  0.37926785598E+03  0.21358022081E+04  0.21018579794E+04 0.  0.
        5    1    3    3  502    0  0.84636812398E+02  0.20876767568E+03  0.12327016581E+04  0.12531252134E+04  0.46999998093E+01 0. -1.
       -5    1    3    3    0  502 -0.84636812398E+02 -0.20876767568E+03 -0.85343380214E+03  0.88267699474E+03  0.46999998093E+01 0.  1.
</event>
<event>
 5   0  0.6599245E-06  0.2102345E+04  0.7818609E-02  0.8560211E-01
       -1   -1    0    0    0  501  0.00000000000E+00  0.00000000000E+00  0.34764891680E+03  0.34764891684E+03  0.50400001928E-02 0. -1.
        1   -1    0    0  501    0  0.00000000000E+00  0.00000000000E+00 -0.31783888606E+04  0.31783888606E+04  0.50400001928E-02 0.  1.
    10030    2    1    2    0    0  0.00000000000E+00  0.00000000000E+00 -0.28307399438E+04  0.35260377775E+04  0.21023448287E+04 0.  0.
        2    1    3    3  502    0 -0.44023426417E+03 -0.65096161078E+03 -0.24444641607E+03  0.82298923225E+03  0.25500000920E-02 0. -1.
       -2    1    3    3    0  502  0.44023426417E+03  0.65096161078E+03 -0.25862935278E+04  0.27030485452E+04  0.25500000920E-02 0.  1.
</event>
<event>
 5   0  0.6589193E-06  0.2099390E+04  0.7818609E-02  0.8561512E-01
       -1   -1    0    0    0  501  0.00000000000E+00  0.00000000000E+00  0.61426077589E+03  0.61426077591E+03  0.50400001928E-02 0.  1.
        1   -1    0    0  501    0  0.00000000000E+00  0.00000000000E+00 -0.17937979954E+04  0.17937979954E+04  0.50400001928E-02 0. -1.
    10030    2    1    2    0    0  0.00000000000E+00  0.00000000000E+00 -0.11795372195E+04  0.24080587713E+04  0.20993901481E+04 0.  0.
        3    1    3    3  502    0 -0.97595303026E+03  0.35671368638E+03 -0.41913202127E+03  0.11204466220E+04  0.10100000352E+00 0.  1.
       -3    1    3    3    0  502  0.97595303026E+03 -0.35671368638E+03 -0.76040519824E+03  0.12876121493E+04  0.10100000352E+00 0. -1.
</event>
<event>
 5   0  0.1395356E-05  0.2098757E+04  0.7818609E-02  0.8561791E-01
       -2   -1    0    0    0  501  0.00000000000E+00  0.00000000000E+00  0.15511652342E+04  0.15511652342E+04  0.25500000920E-02 0. -1.
        2   -1    0    0  501    0  0.00000000000E+00  0.00000000000E+00 -0.70991484992E+03  0.70991484992E+03  0.25500000920E-02 0.  1.
    10030    2    1    2    0    0  0.00000000000E+00  0.00000000000E+00  0.84125038431E+03  0.22610800842E+04  0.20987569983E+04 0.  0.
        1    1    3    3  502    0 -0.99549173001E+03  0.17892768765E+03  0.72185048389E+03  0.12426129820E+04  0.50400001928E-02 0. -1.
       -1    1    3    3    0  502  0.99549173001E+03 -0.17892768765E+03  0.11939990042E+03  0.10184671022E+04  0.50400001928E-02 0.  1.
</event>
<event>
 5   0  0.6589193E-06  0.2064574E+04  0.7818609E-02  0.8577012E-01
        1   -1    0    0  501    0  0.00000000000E+00  0.00000000000E+00  0.22268953984E+04  0.22268953984E+04  0.50400001928E-02 0.  1.
       -1   -1    0    0    0  501  0.00000000000E+00  0.00000000000E+00 -0.47852094574E+03  0.47852094576E+03  0.50400001928E-02 0. -1.
    10030    2    1    2    0    0  0.00000000000E+00  0.00000000000E+00  0.17483744527E+04  0.27054163442E+04  0.20645736530E+04 0.  0.
        3    1    3    3  502    0  0.64119724909E+02 -0.10090338195E+04  0.60133607073E+03  0.11763781995E+04  0.10100000352E+00 0. -1.
       -3    1    3    3    0  502 -0.64119724909E+02  0.10090338195E+04  0.11470383820E+04  0.15290381447E+04  0.10100000352E+00 0.  1.
</event>
<event>
 5   0  0.1395356E-05  0.2103540E+04  0.7818609E-02  0.8559685E-01
       -2   -1    0    0    0  501  0.00000000000E+00  0.00000000000E+00  0.66677962072E+03  0.66677962073E+03  0.25500000920E-02 0.  1.
        2   -1    0    0  501    0  0.00000000000E+00  0.00000000000E+00 -0.16590496859E+04  0.16590496859E+04  0.25500000920E-02 0. -1.
    10030    2    1    2    0    0  0.00000000000E+00  0.00000000000E+00 -0.99227006516E+03  0.23258293066E+04  0.21035403684E+04 0.  0.
        1    1    3    3  502    0 -0.59204380240E+03  0.82167813928E+03 -0.18233070454E+03  0.10290361094E+04  0.50400001928E-02 0.  1.
       -1    1    3    3    0  502  0.59204380240E+03 -0.82167813928E+03 -0.80993936062E+03  0.12967931972E+04  0.50400001928E-02 0. -1.
</event>
<event>
 5   0  0.6589193E-06  0.2099605E+04  0.7818609E-02  0.8561417E-01
        1   -1    0    0  501    0  0.00000000000E+00  0.00000000000E+00  0.18291947715E+04  0.18291947715E+04  0.50400001928E-02 0.  1.
       -1   -1    0    0    0  501  0.00000000000E+00  0.00000000000E+00 -0.60249759627E+03  0.60249759629E+03  0.50400001928E-02 0. -1.
    10030    2    1    2    0    0  0.00000000000E+00  0.00000000000E+00  0.12266971753E+04  0.24316923678E+04  0.20996051562E+04 0.  0.
        3    1    3    3  502    0  0.18415961472E+03  0.22335846624E+03  0.17820537573E+04  0.18054139061E+04  0.10100000352E+00 0.  1.
       -3    1    3    3    0  502 -0.18415961472E+03 -0.22335846624E+03 -0.55535658209E+03  0.62627846171E+03  0.10100000352E+00 0. -1.
</event>
<event>
 5   0  0.6917078E-06  0.2102782E+04  0.7818609E-02  0.8560019E-01
       -1   -1    0    0    0  501  0.00000000000E+00  0.00000000000E+00  0.86071684827E+03  0.86071684828E+03  0.50400001928E-02 0.  1.
        1   -1    0    0  501    0  0.00000000000E+00  0.00000000000E+00 -0.12843052455E+04  0.12843052455E+04  0.50400001928E-02 0. -1.
    10030    2    1    2    0    0  0.00000000000E+00  0.00000000000E+00 -0.42358839724E+03  0.21450220938E+04  0.21027821220E+04 0.  0.
        5    1    3    3  502    0  0.16703930548E+03 -0.13351862010E+03  0.83828768585E+03  0.86514604879E+03  0.46999998093E+01 0.  1.
       -5    1    3    3    0  502 -0.16703930548E+03  0.13351862010E+03 -0.12618760831E+04  0.12798760450E+04  0.46999998093E+01 0. -1.
</event>
<event>
 5   0  0.1441136E-05  0.2102694E+04  0.7818609E-02  0.8560058E-01
        2   -1    0    0  501    0  0.00000000000E+00  0.00000000000E+00  0.14737584117E+04  0.14737584117E+04  0.25500000920E-02 0. -1.
       -2   -1    0    0    0  501  0.00000000000E+00  0.00000000000E+00 -0.75000780979E+03  0.75000780979E+03  0.25500000920E-02 0.  1.
    10030    2    1    2    0    0  0.00000000000E+00  0.00000000000E+00  0.72375060188E+03  0.22237662215E+04  0.21026938137E+04 0.  0.
        4    1    3    3  502    0 -0.10412639171E+04 -0.94888478735E+02  0.47818183870E+03  0.11497364273E+04  0.12699999809E+01 0. -1.
       -4    1    3    3    0  502  0.10412639171E+04  0.94888478735E+02  0.24556876318E+03  0.10740297942E+04  0.12699999809E+01 0.  1.
</event>
<event>
 5   0  0.1398469E-05  0.2098123E+04  0.7818609E-02  0.8562070E-01
       -2   -1    0    0    0  501  0.00000000000E+00  0.00000000000E+00  0.12788052615E+04  0.12788052615E+04  0.25500000920E-02 0. -1.
        2   -1    0    0  501    0  0.00000000000E+00  0.00000000000E+00 -0.86059265881E+03  0.86059265882E+03  0.25500000920E-02 0.  1.
    10030    2    1    2    0    0  0.00000000000E+00  0.00000000000E+00  0.41821260271E+03  0.21393979203E+04  0.20981233711E+04 0.  0.
        2    1    3    3  502    0 -0.20966487656E+03 -0.97052984648E+03 -0.13614401526E+03  0.10022089285E+04  0.25500000920E-02 0.  1.
       -2    1    3    3    0  502  0.20966487656E+03  0.97052984648E+03  0.55435661797E+03  0.11371889919E+04  0.25500000920E-02 0. -1.
</event>
<event>
 5   0  0.6238363E-06  0.2097213E+04  0.7818609E-02  0.8562472E-01
       -1   -1    0    0    0  501  0.00000000000E+00  0.00000000000E+00  0.76859184198E+03  0.76859184199E+03  0.50400001928E-02 0.  1.
        1   -1    0    0  501    0  0.00000000000E+00  0.00000000000E+00 -0.14306366292E+04  0.14306366292E+04  0.50400001928E-02 0. -1.
    10030    2    1    2    0    0  0.00000000000E+00  0.00000000000E+00 -0.66204478724E+03  0.21992284712E+04  0.20972130479E+04 0.  0.
        4    1    3    3  502    0  0.47842670637E+03  0.93299286097E+03 -0.31596286814E+03  0.10950807911E+04  0.12699999809E+01 0. -1.
       -4    1    3    3    0  502 -0.47842670637E+03 -0.93299286097E+03 -0.34608191909E+03  0.11041476802E+04  0.12699999809E+01 0.  1.
</event>
<event>
 5   0  0.1390735E-05  0.2101229E+04  0.7818609E-02  0.8560702E-01
       -2   -1    0    0    0  501  0.00000000000E+00  0.00000000000E+00  0.36703732255E+03  0.36703732256E+03  0.25500000920E-02 0. -1.
        2   -1    0    0  501    0  0.00000000000E+00  0.00000000000E+00 -0.30072993816E+04  0.30072993816E+04  0.25500000920E-02 0.  1.
    10030    2    1    2    0    0  0.00000000000E+00  0.00000000000E+00 -0.26402620590E+04  0.33743367041E+04  0.21012292718E+04 0.  0.
        5    1    3    3  502    0 -0.87225397694E+03  0.64140457268E+02 -0.38536130997E+03  0.95575437627E+03  0.46999998093E+01 0. -1.
       -5    1    3    3    0  502  0.87225397694E+03 -0.64140457268E+02 -0.22549007490E+04  0.24185823278E+04  0.46999998093E+01 0.  1.
</event>
<event>
 5   0  0.6283269E-06  0.2103925E+04  0.7818609E-02  0.8559516E-01
       -1   -1    0    0    0  501  0.00000000000E+00  0.00000000000E+00  0.96655463548E+03  0.96655463549E+03  0.50400001928E-02 0. -1.
        1   -1    0    0  501    0  0.00000000000E+00  0.00000000000E+00 -0.11449178179E+04  0.11449178179E+04  0.50400001928E-02 0.  1.
    10030    2    1    2    0    0  0.00000000000E+00  0.00000000000E+00 -0.17836318243E+03  0.21114724534E+04  0.21039254969E+04 0.  0.
        1    1    3    3  502    0  0.82558939855E+03 -0.38442187220E+03 -0.61761340446E+03  0.11003746399E+04  0.50400001928E-02 0.  1.
       -1    1    3    3    0  502 -0.82558939855E+03  0.38442187220E+03  0.43925022203E+03  0.10110978135E+04  0.50400001928E-02 0. -1.
</event>
<event>
 5   0  0.1441136E-05  0.2097007E+04  0.7818609E-02  0.8562563E-01
       -2   -1    0    0    0  501  0.00000000000E+00  0.00000000000E+00  0.13024460018E+04  0.13024460018E+04  0.25500000920E-02 0. -1.
        2   -1    0    0  501    0  0.00000000000E+00  0.00000000000E+00 -0.84407335336E+03  0.84407335336E+03  0.25500000920E-02 0.  1.
    10030    2    1    2    0    0  0.00000000000E+00  0.00000000000E+00  0.45837264846E+03  0.21465193552E+04  0.20970073575E+04 0.  0.
        4    1    3    3  502    0  0.17470332721E+03  0.26468221074E+03  0.12521727381E+04  0.12917105342E+04  0.12699999809E+01 0. -1.
       -4    1    3    3    0  502 -0.17470332721E+03 -0.26468221074E+03 -0.79380008964E+03  0.85480882098E+03  0.12699999809E+01 0.  1.
</event>
<event>
 5   0  0.6599245E-06  0.2101199E+04  0.7818609E-02  0.8560715E-01
        1   -1    0    0  501    0  0.00000000000E+00  0.00000000000E+00  0.13160723937E+04  0.13160723937E+04  0.50400001928E-02 0.  1.
       -1   -1    0    0    0  501  0.00000000000E+00  0.00000000000E+00 -0.83867696065E+03  0.83867696067E+03  0.50400001928E-02 0. -1.
    10030    2    1    2    0    0  0.00000000000E+00  0.00000000000E+00  0.47739543307E+03  0.21547493544E+04  0.21011992720E+04 0.  0.
        2    1    3    3  502    0  0.71546635100E+02  0.10030473717E+04 -0.73253289829E+02  0.10082603807E+04  0.25500000920E-02 0. -1.
       -2    1    3    3    0  502 -0.71546635100E+02 -0.10030473717E+04  0.55064872290E+03  0.11464889737E+04  0.25500000920E-02 0.  1.
</event>
<event>
 5   0  0.6599245E-06  0.2096380E+04  0.7818609E-02  0.8562840E-01
        1   -1    0    0  501    0  0.00000000000E+00  0.00000000000E+00  0.91732656537E+03  0.91732656538E+03  0.50400001928E-02 0.  1.
       -1   -1    0    0    0  501  0.00000000000E+00  0.00000000000E+00 -0.11977215524E+04  0.11977215524E+04  0.50400001928E-02 0. -1.
    10030    2    1    2    0    0  0.00000000000E+00  0.00000000000E+00 -0.28039498703E+03  0.21150481178E+04  0.20963795438E+04 0.  0.
        2    1    3    3  502    0 -0.26749432766E+03  0.10100607914E+04 -0.22415986421E+03  0.10686550718E+04  0.25500000920E-02 0. -1.
       -2    1    3    3    0  502  0.26749432766E+03 -0.10100607914E+04 -0.56235122823E+02  0.10463930460E+04  0.25500000920E-02 0.  1.
</event>
<event>
 5   0  0.1398469E-05  0.2099401E+04  0.7818609E-02  0.8561507E-01
       -2   -1    0    0    0  501  0.00000000000E+00  0.00000000000E+00  0.71592399592E+03  0.71592399593E+03  0.25500000920E-02 0. -1.
        2   -1    0    0  501    0  0.00000000000E+00  0.00000000000E+00 -0.15390894449E+04  0.15390894449E+04  0.25500000920E-02 0.  1.
    10030    2    1    2    0    0  0.00000000000E+00  0.00000000000E+00 -0.82316544900E+03  0.22550134409E+04  0.20994009293E+04 0.  0.
        2    1    3    3  502    0  0.10136077087E+04  0.32835778845E+02 -0.70257333067E+03  0.12337293303E+04  0.25500000920E-02 0.  1.
       -2    1    3    3    0  502 -0.10136077087E+04 -0.32835778845E+02 -0.12059211833E+03  0.10212841106E+04  0.25500000920E-02 0. -1.
</event>
<event>
 5   0  0.6917078E-06  0.2099381E+04  0.7818609E-02  0.8561516E-01
        1   -1    0    0  501    0  0.00000000000E+00  0.00000000000E+00  0.10815677866E+04  0.10815677867E+04  0.50400001928E-02 0. -1.
       -1   -1    0    0    0  501  0.00000000000E+00  0.00000000000E+00 -0.10187531786E+04  0.10187531786E+04  0.50400001928E-02 0.  1.
    10030    2    1    2    0    0  0.00000000000E+00  0.00000000000E+00  0.62814608033E+02  0.21003209653E+04  0.20993814523E+04 0.  0.
        5    1    3    3  502    0 -0.10232306734E+04  0.14232774741E+03 -0.15460689063E+03  0.10445973288E+04  0.46999998093E+01 0.  1.
       -5    1    3    3    0  502  0.10232306734E+04 -0.14232774741E+03  0.21742149866E+03  0.10557236365E+04  0.46999998093E+01 0. -1.
</event>
<event>
 5   0  0.6238363E-06  0.2099391E+04  0.7818609E-02  0.8561512E-01
       -1   -1    0    0    0  501  0.00000000000E+00  0.00000000000E+00  0.10415348737E+04  0.10415348737E+04  0.50400001928E-02 0. -1.
        1   -1    0    0  501    0  0.00000000000E+00  0.00000000000E+00 -0.10579200473E+04  0.10579200473E+04  0.50400001928E-02 0.  1.
    10030    2    1    2    0    0  0.00000000000E+00  0.00000000000E+00 -0.16385173604E+02  0.20994549209E+04  0.20993909810E+04 0.  0.
        4    1    3    3  502    0  0.31274853981E+03 -0.95923084145E+03  0.28151185853E+03  0.10474664652E+04  0.12699999809E+01 0. -1.
       -4    1    3    3    0  502 -0.31274853981E+03  0.95923084145E+03 -0.29789703213E+03  0.10519884557E+04  0.12699999809E+01 0.  1.
</event>
<event>
 5   0  0.6917078E-06  0.2093972E+04  0.7818609E-02  0.8563903E-01
       -1   -1    0    0    0  501  0.00000000000E+00  0.00000000000E+00  0.43402153633E+03  0.43402153635E+03  0.50400001928E-02 0. -1.
        1   -1    0    0  501    0  0.00000000000E+00  0.00000000000E+00 -0.25256348641E+04  0.25256348641E+04  0.50400001928E-02 0.  1.
    10030    2    1    2    0    0  0.00000000000E+00  0.00000000000E+00 -0.20916133278E+04  0.29596564004E+04  0.20939722290E+04 0.  0.
        5    1    3    3  502    0  0.65956184451E+03  0.71663291232E+03 -0.15887746659E+04  0.18635481177E+04  0.46999998093E+01 0.  1.
       -5    1    3    3    0  502 -0.65956184451E+03 -0.71663291232E+03 -0.50283866183E+03  0.10961082828E+04  0.46999998093E+01 0. -1.
</event>
<event>
 5   0  0.1398469E-05  0.2102835E+04  0.7818609E-02  0.8559995E-01
       -2   -1    0    0    0  501  0.00000000000E+00  0.00000000000E+00  0.44306194936E+03  0.44306194936E+03  0.25500000920E-02 0. -1.
        2   -1    0    0  501    0  0.00000000000E+00  0.00000000000E+00 -0.24950891654E+04  0.24950891654E+04  0.25500000920E-02 0.  1.
    10030    2    1    2    0    0  0.00000000000E+00  0.00000000000E+00 -0.20520272160E+04  0.29381511147E+04  0.21028352950E+04 0.  0.
        2    1    3    3  502    0  0.38430562857E+03  0.79987775336E+03 -0.23811308128E+03  0.91879980189E+03  0.25500000920E-02 0. -1.
       -2    1    3    3    0  502 -0.38430562857E+03 -0.79987775336E+03 -0.18139141347E+04  0.20193513128E+04  0.25500000920E-02 0.  1.
</event>
<event>
 5   0  0.1398469E-05  0.2102817E+04  0.7818609E-02  0.8560004E-01
        2   -1    0    0  501    0  0.00000000000E+00  0.00000000000E+00  0.18352197820E+04  0.18352197820E+04  0.25500000920E-02 0. -1.
       -2   -1    0    0    0  501  0.00000000000E+00  0.00000000000E+00 -0.60235817348E+03  0.60235817349E+03  0.25500000920E-02 0.  1.
    10030    2    1    2    0    0  0.00000000000E+00  0.00000000000E+00  0.12328616086E+04  0.24375779555E+04  0.21028168117E+04 0.  0.
        2    1    3    3  502    0 -0.42645800119E+03 -0.49834079838E+02  0.17289634623E+04  0.17814781829E+04  0.25500000920E-02 0. -1.
       -2    1    3    3    0  502  0.42645800119E+03  0.49834079838E+02 -0.49610185375E+03  0.65609977259E+03  0.25500000920E-02 0.  1.
</event>
<event>
 5   0  0.6283269E-06  0.2101411E+04  0.7818609E-02  0.8560622E-01
        1   -1    0    0  501    0  0.00000000000E+00  0.00000000000E+00  0.15087140621E+04  0.15087140621E+04  0.50400001928E-02 0.  1.
       -1   -1    0    0    0  501  0.00000000000E+00  0.00000000000E+00 -0.73173730511E+03  0.73173730513E+03  0.50400001928E-02 0. -1.
    10030    2    1    2    0    0  0.00000000000E+00  0.00000000000E+00  0.77697675701E+03  0.22404513673E+04  0.21014112991E+04 0.  0.
        1    1    3    3  502    0  0.11197258410E+03 -0.24261914307E+03 -0.69490557663E+03  0.74451035496E+03  0.50400001928E-02 0. -1.
       -1    1    3    3    0  502 -0.11197258410E+03  0.24261914307E+03  0.14718823336E+04  0.14959410123E+04  0.50400001928E-02 0.  1.
</event>
<event>
 5   0  0.1344501E-05  0.2103337E+04  0.7818609E-02  0.8559775E-01
       -2   -1    0    0    0  501  0.00000000000E+00  0.00000000000E+00  0.39054177732E+03  0.39054177733E+03  0.25500000920E-02 0. -1.
        2   -1    0    0  501    0  0.00000000000E+00  0.00000000000E+00 -0.28319798082E+04  0.28319798082E+04  0.25500000920E-02 0.  1.
    10030    2    1    2    0    0  0.00000000000E+00  0.00000000000E+00 -0.24414380309E+04  0.32225215855E+04  0.21033368039E+04 0.  0.
        3    1    3    3  502    0  0.29144777643E+03  0.27716155225E+03 -0.27094958769E+04  0.27391838656E+04  0.10100000352E+00 0.  1.
       -3    1    3    3    0  502 -0.29144777643E+03 -0.27716155225E+03  0.26805784606E+03  0.48333771989E+03  0.10100000352E+00 0. -1.
</event>
<event>
 5   0  0.1344501E-05  0.2102593E+04  0.7818609E-02  0.8560102E-01
       -2   -1    0    0    0  501  0.00000000000E+00  0.00000000000E+00  0.56599181890E+03  0.56599181890E+03  0.25500000920E-02 0. -1.
        2   -1    0    0  501    0  0.00000000000E+00  0.00000000000E+00 -0.19527218666E+04  0.19527218666E+04  0.25500000920E-02 0.  1.
    10030    2    1    2    0    0  0.00000000000E+00  0.00000000000E+00 -0.13867300477E+04  0.25187136855E+04  0.21025932570E+04 0.  0.
        3    1    3    3  502    0  0.93862227289E+03 -0.47227458047E+03 -0.65239830883E+03  0.12368017683E+04  0.10100000352E+00 0. -1.
       -3    1    3    3    0  502 -0.93862227289E+03  0.47227458047E+03 -0.73433173884E+03  0.12819119172E+04  0.10100000352E+00 0.  1.
</event>
<event>
 5   0  0.1441136E-05  0.2106268E+04  0.7818609E-02  0.8558487E-01
       -2   -1    0    0    0  501  0.00000000000E+00  0.00000000000E+00  0.10535987183E+04  0.10535987183E+04  0.25500000920E-02 0.  1.
        2   -1    0    0  501    0  0.00000000000E+00  0.00000000000E+00 -0.10526693239E+04  0.10526693239E+04  0.25500000920E-02 0. -1.
    10030    2    1    2    0    0  0.00000000000E+00  0.00000000000E+00  0.92939437736E+00  0.21062680422E+04  0.21062678371E+04 0.  0.
        4    1    3    3  502    0 -0.62800481339E+03  0.26914314639E+03  0.80187687807E+03  0.10534876456E+04  0.12699999809E+01 0.  1.
       -4    1    3    3    0  502  0.62800481339E+03 -0.26914314639E+03 -0.80094748369E+03  0.10527803966E+04  0.12699999809E+01 0. -1.
</event>
<event>
 5   0  0.6238363E-06  0.2097867E+04  0.7818609E-02  0.8562184E-01
        1   -1    0    0  501    0  0.00000000000E+00  0.00000000000E+00  0.17302472867E+04  0.17302472867E+04  0.50400001928E-02 0. -1.
       -1   -1    0    0    0  501  0.00000000000E+00  0.00000000000E+00 -0.63589825181E+03  0.63589825183E+03  0.50400001928E-02 0.  1.
    10030    2    1    2    0    0  0.00000000000E+00  0.00000000000E+00  0.10943490349E+04  0.23661455385E+04  0.20978667496E+04 0.  0.
        4    1    3    3  502    0 -0.56199295337E+03  0.86506961214E+03  0.33294200851E+03  0.10839896251E+04  0.12699999809E+01 0.  1.
       -4    1    3    3    0  502  0.56199295337E+03 -0.86506961214E+03  0.76140702635E+03  0.12821559134E+04  0.12699999809E+01 0. -1.
</event>
<event>
 5   0  0.6238363E-06  0.2035896E+04  0.7818609E-02  0.8590019E-01
       -1   -1    0    0    0  501  0.00000000000E+00  0.00000000000E+00  0.18804997743E+04  0.18804997743E+04  0.50400001928E-02 0.  1.
        1   -1    0    0  501    0  0.00000000000E+00  0.00000000000E+00 -0.55103362608E+03  0.55103362610E+03  0.50400001928E-02 0. -1.
    10030    2    1    2    0    0  0.00000000000E+00  0.00000000000E+00  0.13294661482E+04  0.24315334004E+04  0.20358964703E+04 0.  0.
        4    1    3    3  502    0 -0.52303827637E+03  0.82774981841E+03  0.99717386019E+03  0.13975321538E+04  0.12699999809E+01 0.  1.
       -4    1    3    3    0  502  0.52303827637E+03 -0.82774981841E+03  0.33229228799E+03  0.10340012466E+04  0.12699999809E+01 0. -1.
</event>
<event>
 5   0  0.1390735E-05  0.2102453E+04  0.7818609E-02  0.8560164E-01
       -2   -1    0    0    0  501  0.00000000000E+00  0.00000000000E+00  0.54041141333E+03  0.54041141333E+03  0.25500000920E-02 0.  1.
        2   -1    0    0  501    0  0.00000000000E+00  0.00000000000E+00 -0.20448811723E+04  0.20448811723E+04  0.25500000920E-02 0. -1.
    10030    2    1    2    0    0  0.00000000000E+00  0.00000000000E+00 -0.15044697590E+04  0.25852925857E+04  0.21024529716E+04 0.  0.
        5    1    3    3  502    0  0.80958308046E+03 -0.29663860759E+03 -0.14917024335E+04  0.17229676340E+04  0.46999998093E+01 0. -1.
       -5    1    3    3    0  502 -0.80958308046E+03  0.29663860759E+03 -0.12767325498E+02  0.86232495167E+03  0.46999998093E+01 0.  1.
</event>
<event>
 5   0  0.6238363E-06  0.2098019E+04  0.7818609E-02  0.8562116E-01
        1   -1    0    0  501    0  0.00000000000E+00  0.00000000000E+00  0.17692386094E+04  0.17692386094E+04  0.50400001928E-02 0. -1.
       -1   -1    0    0    0  501  0.00000000000E+00  0.00000000000E+00 -0.62197455639E+03  0.62197455641E+03  0.50400001928E-02 0.  1.
    10030    2    1    2    0    0  0.00000000000E+00  0.00000000000E+00  0.11472640530E+04  0.23912131658E+04  0.20980194463E+04 0.  0.
        4    1    3    3  502    0  0.50206166483E+03  0.91108366686E+03  0.72773176596E+03  0.12695410586E+04  0.12699999809E+01 0. -1.
       -4    1    3    3    0  502 -0.50206166483E+03 -0.91108366686E+03  0.41953228701E+03  0.11216721072E+04  0.12699999809E+01 0.  1.
</event>
<event>
 5   0  0.1344501E-05  0.2110214E+04  0.7818609E-02  0.8556757E-01
       -2   -1    0    0    0  501  0.00000000000E+00  0.00000000000E+00  0.10145630966E+04  0.10145630966E+04  0.25500000920E-02 0. -1.
        2   -1    0    0  501    0  0.00000000000E+00  0.00000000000E+00 -0.10972716092E+04  0.10972716092E+04  0.25500000920E-02 0.  1.
    10030    2    1    2    0    0  0.00000000000E+00  0.00000000000E+00 -0.82708512574E+02  0.21118347058E+04  0.21102144740E+04 0.  0.
        3    1    3    3  502    0 -0.55140294467E+03 -0.50306346714E+03  0.70496172427E+03  0.10266884154E+04  0.10100000352E+00 0. -1.
       -3    1    3    3    0  502  0.55140294467E+03  0.50306346714E+03 -0.78767023685E+03  0.10851462904E+04  0.10100000352E+00 0.  1.
</event>
<event>
 5   0  0.1344501E-05  0.2103902E+04  0.7818609E-02  0.8559526E-01
        2   -1    0    0  501    0  0.00000000000E+00  0.00000000000E+00  0.11715754284E+04  0.11715754284E+04  0.25500000920E-02 0.  1.
       -2   -1    0    0    0  501  0.00000000000E+00  0.00000000000E+00 -0.94454103251E+03  0.94454103251E+03  0.25500000920E-02 0. -1.
    10030    2    1    2    0    0  0.00000000000E+00  0.00000000000E+00  0.22703439586E+03  0.21161164609E+04  0.21039021506E+04 0.  0.
        3    1    3    3  502    0  0.66998353712E+03 -0.77820448074E+03  0.34314262877E+03  0.10826943372E+04  0.10100000352E+00 0.  1.
       -3    1    3    3    0  502 -0.66998353712E+03  0.77820448074E+03 -0.11610823290E+03  0.10334221237E+04  0.10100000352E+00 0. -1.
</event>
<event>
 5   0  0.6238363E-06  0.2100953E+04  0.7818609E-02  0.8560824E-01
        1   -1    0    0  501    0  0.00000000000E+00  0.00000000000E+00  0.81654801631E+03  0.81654801632E+03  0.50400001928E-02 0.  1.
       -1   -1    0    0    0  501  0.00000000000E+00  0.00000000000E+00 -0.13514220951E+04  0.13514220951E+04  0.50400001928E-02 0. -1.
    10030    2    1    2    0    0  0.00000000000E+00  0.00000000000E+00 -0.53487407878E+03  0.21679701114E+04  0.21009531465E+04 0.  0.
        4    1    3    3  502    0 -0.61029286648E+03 -0.23606848729E+03  0.58055095728E+03  0.87477239353E+03  0.12699999809E+01 0.  1.
       -4    1    3    3    0  502  0.61029286648E+03  0.23606848729E+03 -0.11154250361E+04  0.12931977179E+04  0.12699999809E+01 0. -1.
</event>
<event>
 5   0  0.6589193E-06  0.2099594E+04  0.7818609E-02  0.8561422E-01
        1   -1    0    0  501    0  0.00000000000E+00  0.00000000000E+00  0.21449587357E+04  0.21449587357E+04  0.50400001928E-02 0.  1.
       -1   -1    0    0    0  501  0.00000000000E+00  0.00000000000E+00 -0.51379711882E+03  0.51379711885E+03  0.50400001928E-02 0. -1.
    10030    2    1    2    0    0  0.00000000000E+00  0.00000000000E+00  0.16311616169E+04  0.26587558545E+04  0.20995938830E+04 0.  0.
        3    1    3    3  502    0  0.25166344025E+03 -0.98994524157E+03  0.11225098634E+04  0.15176806226E+04  0.10100000352E+00 0.  1.
       -3    1    3    3    0  502 -0.25166344025E+03  0.98994524157E+03  0.50865175341E+03  0.11410752319E+04  0.10100000352E+00 0. -1.
</event>
<event>
 5   0  0.6238363E-06  0.2099852E+04  0.7818609E-02  0.8561308E-01
       -1   -1    0    0    0  501  0.00000000000E+00  0.00000000000E+00  0.13712927803E+04  0.13712927803E+04  0.50400001928E-02 0.  1.
        1   -1    0    0  501    0  0.00000000000E+00  0.00000000000E+00 -0.80387283677E+03  0.80387283678E+03  0.50400001928E-02 0. -1.
    10030    2    1    2    0    0  0.00000000000E+00  0.00000000000E+00  0.56741994350E+03  0.21751656171E+04  0.20998523923E+04 0.  0.
        4    1    3    3  502    0 -0.70413327352E+02  0.89654441748E+03 -0.27756640290E+03  0.94116664311E+03  0.12699999809E+01 0. -1.
       -4    1    3    3    0  502  0.70413327352E+02 -0.89654441748E+03  0.84498634640E+03  0.12339989739E+04  0.12699999809E+01 0.  1.
</event>
<event>
 5   0  0.1390735E-05  0.2093751E+04  0.7818609E-02  0.8564001E-01
        2   -1    0    0  501    0  0.00000000000E+00  0.00000000000E+00  0.16849796629E+04  0.16849796629E+04  0.25500000920E-02 0. -1.
       -2   -1    0    0    0  501  0.00000000000E+00  0.00000000000E+00 -0.65042227260E+03  0.65042227260E+03  0.25500000920E-02 0.  1.
    10030    2    1    2    0    0  0.00000000000E+00  0.00000000000E+00  0.10345573903E+04  0.23354019355E+04  0.20937509896E+04 0.  0.
        5    1    3    3  502    0  0.10250630052E+04 -0.20862223327E+03  0.47198664168E+03  0.11476370859E+04  0.46999998093E+01 0.  1.
       -5    1    3    3    0  502 -0.10250630052E+04  0.20862223327E+03  0.56257074863E+03  0.11877648497E+04  0.46999998093E+01 0. -1.
</event>
<event>
 5   0  0.6238363E-06  0.2097186E+04  0.7818609E-02  0.8562484E-01
       -1   -1    0    0    0  501  0.00000000000E+00  0.00000000000E+00  0.76771142878E+03  0.76771142880E+03  0.50400001928E-02 0.  1.
        1   -1    0    0  501    0  0.00000000000E+00  0.00000000000E+00 -0.14322400390E+04  0.14322400390E+04  0.50400001928E-02 0. -1.
    10030    2    1    2    0    0  0.00000000000E+00  0.00000000000E+00 -0.66452861025E+03  0.21999514678E+04  0.20971857779E+04 0.  0.
        4    1    3    3  502    0 -0.65170612260E+03  0.20282611023E+03 -0.11673158771E+04  0.13522156895E+04  0.12699999809E+01 0. -1.
       -4    1    3    3    0  502  0.65170612260E+03 -0.20282611023E+03  0.50278726684E+03  0.84773577831E+03  0.12699999809E+01 0.  1.
</event>
<event>
 5   0  0.5009125E-06  0.2100332E+04  0.7818609E-02  0.8561097E-01
        3   -1    0    0  501    0  0.00000000000E+00  0.00000000000E+00  0.10989875968E+04  0.10989876014E+04  0.10100000352E+00 0. -1.
       -3   -1    0    0    0  501  0.00000000000E+00  0.00000000000E+00 -0.10035130615E+04  0.10035130666E+04  0.10100000352E+00 0.  1.
    10030    2    1    2    0    0  0.00000000000E+00  0.00000000000E+00  0.95474535277E+02  0.21025006680E+04  0.21003318004E+04 0.  0.
        3    1    3    3  502    0  0.69954457433E+03  0.54612467266E+03 -0.51429922082E+03  0.10257282624E+04  0.10100000352E+00 0.  1.
       -3    1    3    3    0  502 -0.69954457433E+03 -0.54612467266E+03  0.60977375609E+03  0.10767724056E+04  0.10100000352E+00 0. -1.
</event>
<event>
 5   0  0.6599245E-06  0.2103629E+04  0.7818609E-02  0.8559646E-01
        1   -1    0    0  501    0  0.00000000000E+00  0.00000000000E+00  0.13089855676E+04  0.13089855676E+04  0.50400001928E-02 0. -1.
       -1   -1    0    0    0  501  0.00000000000E+00  0.00000000000E+00 -0.84516879739E+03  0.84516879741E+03  0.50400001928E-02 0.  1.
    10030    2    1    2    0    0  0.00000000000E+00  0.00000000000E+00  0.46381677017E+03  0.21541543650E+04  0.21036290148E+04 0.  0.
        2    1    3    3  502    0  0.37019019473E+03  0.31276392054E+03  0.11878455174E+04  0.12829025776E+04  0.25500000920E-02 0. -1.
       -2    1    3    3    0  502 -0.37019019473E+03 -0.31276392054E+03 -0.72402874723E+03  0.87125178743E+03  0.25500000920E-02 0.  1.
</event>
<event>
 5   0  0.6917078E-06  0.2098486E+04  0.7818609E-02  0.8561911E-01
       -1   -1    0    0    0  501  0.00000000000E+00  0.00000000000E+00  0.14826067044E+04  0.14826067044E+04  0.50400001928E-02 0.  1.
        1   -1    0    0  501    0  0.00000000000E+00  0.00000000000E+00 -0.74255094531E+03  0.74255094533E+03  0.50400001928E-02 0. -1.
    10030    2    1    2    0    0  0.00000000000E+00  0.00000000000E+00  0.74005575908E+03  0.22251576497E+04  0.20984861304E+04 0.  0.
        5    1    3    3  502    0 -0.69175677642E+03  0.19362846177E+03  0.11809593783E+04  0.13822830977E+04  0.46999998093E+01 0.  1.
       -5    1    3    3    0  502  0.69175677642E+03 -0.19362846177E+03 -0.44090361927E+03  0.84287455200E+03  0.46999998093E+01 0. -1.
</event>
<event>
 5   0  0.1398469E-05  0.2099869E+04  0.7818609E-02  0.8561301E-01
        2   -1    0    0  501    0  0.00000000000E+00  0.00000000000E+00  0.13242686724E+04  0.13242686724E+04  0.25500000920E-02 0.  1.
       -2   -1    0    0    0  501  0.00000000000E+00  0.00000000000E+00 -0.83243099855E+03  0.83243099856E+03  0.25500000920E-02 0. -1.
    10030    2    1    2    0    0  0.00000000000E+00  0.00000000000E+00  0.49183767386E+03  0.21566996710E+04  0.20998688467E+04 0.  0.
        2    1    3    3  502    0  0.53526616463E+03  0.48734851194E+03 -0.53515225417E+03  0.90022573516E+03  0.25500000920E-02 0. -1.
       -2    1    3    3    0  502 -0.53526616463E+03 -0.48734851194E+03  0.10269899280E+04  0.12564739358E+04  0.25500000920E-02 0.  1.
</event>
<event>
 5   0  0.1441136E-05  0.2100189E+04  0.7818609E-02  0.8561160E-01
        2   -1    0    0  501    0  0.00000000000E+00  0.00000000000E+00  0.11913986643E+04  0.11913986643E+04  0.25500000920E-02 0. -1.
       -2   -1    0    0    0  501  0.00000000000E+00  0.00000000000E+00 -0.92554946634E+03  0.92554946634E+03  0.25500000920E-02 0.  1.
    10030    2    1    2    0    0  0.00000000000E+00  0.00000000000E+00  0.26584919796E+03  0.21169481306E+04  0.21001889419E+04 0.  0.
        4    1    3    3  502    0 -0.29808379801E+03  0.76306069759E+03 -0.52926615401E+03  0.97531525853E+03  0.12699999809E+01 0.  1.
       -4    1    3    3    0  502  0.29808379801E+03 -0.76306069759E+03  0.79511535197E+03  0.11416328721E+04  0.12699999809E+01 0. -1.
</event>
<event>
 5   0  0.1344501E-05  0.2097832E+04  0.7818609E-02  0.8562199E-01
        2   -1    0    0  501    0  0.00000000000E+00  0.00000000000E+00  0.82324705670E+03  0.82324705671E+03  0.25500000920E-02 0. -1.
       -2   -1    0    0    0  501  0.00000000000E+00  0.00000000000E+00 -0.13364454829E+04  0.13364454829E+04  0.25500000920E-02 0.  1.
    10030    2    1    2    0    0  0.00000000000E+00  0.00000000000E+00 -0.51319842621E+03  0.21596925396E+04  0.20978320336E+04 0.  0.
        3    1    3    3  502    0  0.15917777069E+03 -0.89194829126E+03 -0.80068667810E+03  0.12091354282E+04  0.10100000352E+00 0. -1.
       -3    1    3    3    0  502 -0.15917777069E+03  0.89194829126E+03  0.28748825190E+03  0.95055711145E+03  0.10100000352E+00 0.  1.
</event>
<event>
 5   0  0.6238363E-06  0.2100746E+04  0.7818609E-02  0.8560915E-01
        1   -1    0    0  501    0  0.00000000000E+00  0.00000000000E+00  0.13187102708E+04  0.13187102708E+04  0.50400001928E-02 0.  1.
       -1   -1    0    0    0  501  0.00000000000E+00  0.00000000000E+00 -0.83663786175E+03  0.83663786177E+03  0.50400001928E-02 0. -1.
    10030    2    1    2    0    0  0.00000000000E+00  0.00000000000E+00  0.48207240900E+03  0.21553481325E+04  0.21007455260E+04 0.  0.
        4    1    3    3  502    0 -0.59573057968E+03 -0.75796333826E+03 -0.18678891135E+03  0.98198526263E+03  0.12699999809E+01 0. -1.
       -4    1    3    3    0  502  0.59573057968E+03  0.75796333826E+03  0.66886132034E+03  0.11733628699E+04  0.12699999809E+01 0.  1.
</event>
<event>
 5   0  0.6589193E-06  0.2100382E+04  0.7818609E-02  0.8561075E-01
       -1   -1    0    0    0  501  0.00000000000E+00  0.00000000000E+00  0.32833759218E+03  0.32833759222E+03  0.50400001928E-02 0.  1.
        1   -1    0    0  501    0  0.00000000000E+00  0.00000000000E+00 -0.33590463386E+04  0.33590463386E+04  0.50400001928E-02 0. -1.
    10030    2    1    2    0    0  0.00000000000E+00  0.00000000000E+00 -0.30307087464E+04  0.36873839308E+04  0.21003820480E+04 0.  0.
        3    1    3    3  502    0  0.10075138898E+04 -0.11681346776E+02 -0.20351965731E+04  0.22709570215E+04  0.10100000352E+00 0.  1.
       -3    1    3    3    0  502 -0.10075138898E+04  0.11681346776E+02 -0.99551217334E+03  0.14164269094E+04  0.10100000352E+00 0. -1.
</event>
<event>
 5   0  0.6917078E-06  0.2097369E+04  0.7818609E-02  0.8562403E-01
        1   -1    0    0  501    0  0.00000000000E+00  0.00000000000E+00  0.15129319405E+04  0.15129319405E+04  0.50400001928E-02 0. -1.
       -1   -1    0    0    0  501  0.00000000000E+00  0.00000000000E+00 -0.72689252207E+03  0.72689252209E+03  0.50400001928E-02 0.  1.
    10030    2    1    2    0    0  0.00000000000E+00  0.00000000000E+00  0.78603941844E+03  0.22398244626E+04  0.20973687458E+04 0.  0.
        5    1    3    3  502    0  0.15179987331E+03  0.99214238199E+03  0.71751158442E+03  0.12337887467E+04  0.46999998093E+01 0.  1.
       -5    1    3    3    0  502 -0.15179987331E+03 -0.99214238199E+03  0.68527834019E+02  0.10060357159E+04  0.46999998093E+01 0. -1.
</event>
<event>
 5   0  0.6917078E-06  0.2101797E+04  0.7818609E-02  0.8560452E-01
        1   -1    0    0  501    0  0.00000000000E+00  0.00000000000E+00  0.17714656168E+04  0.17714656168E+04  0.50400001928E-02 0. -1.
       -1   -1    0    0    0  501  0.00000000000E+00  0.00000000000E+00 -0.62343157943E+03  0.62343157945E+03  0.50400001928E-02 0.  1.
    10030    2    1    2    0    0  0.00000000000E+00  0.00000000000E+00  0.11480340374E+04  0.23948971963E+04  0.21017969525E+04 0.  0.
        5    1    3    3  502    0 -0.94896615887E+02  0.35756502822E+03 -0.54677044687E+03  0.66018037587E+03  0.46999998093E+01 0.  1.
       -5    1    3    3    0  502  0.94896615887E+02 -0.35756502822E+03  0.16948044842E+04  0.17347168204E+04  0.46999998093E+01 0. -1.
</event>
<event>
 5   0  0.1398469E-05  0.2099448E+04  0.7818609E-02  0.8561486E-01
       -2   -1    0    0    0  501  0.00000000000E+00  0.00000000000E+00  0.15825383431E+04  0.15825383431E+04  0.25500000920E-02 0.  1.
        2   -1    0    0  501    0  0.00000000000E+00  0.00000000000E+00 -0.69629952384E+03  0.69629952384E+03  0.25500000920E-02 0. -1.
    10030    2    1    2    0    0  0.00000000000E+00  0.00000000000E+00  0.88623881924E+03  0.22788378669E+04  0.20994482082E+04 0.  0.
        2    1    3    3  502    0  0.25398852141E+03 -0.65972766394E+03 -0.39918252127E+03  0.81184816614E+03  0.25500000920E-02 0. -1.
       -2    1    3    3    0  502 -0.25398852141E+03  0.65972766394E+03  0.12854213405E+04  0.14669897008E+04  0.25500000920E-02 0.  1.
</event>
<event>
 5   0  0.1398469E-05  0.2102323E+04  0.7818609E-02  0.8560221E-01
        2   -1    0    0  501    0  0.00000000000E+00  0.00000000000E+00  0.96256260318E+03  0.96256260318E+03  0.25500000920E-02 0. -1.
       -2   -1    0    0    0  501  0.00000000000E+00  0.00000000000E+00 -0.11479155221E+04  0.11479155221E+04  0.25500000920E-02 0.  1.
    10030    2    1    2    0    0  0.00000000000E+00  0.00000000000E+00 -0.18535291893E+03  0.21104781253E+04  0.21023230515E+04 0.  0.
        2    1    3    3  502    0  0.97648886595E+03  0.21239285565E+03  0.23462402763E+03  0.10264938698E+04  0.25500000920E-02 0. -1.
       -2    1    3    3    0  502 -0.97648886595E+03 -0.21239285565E+03 -0.41997694656E+03  0.10839842555E+04  0.25500000920E-02 0.  1.
</event>
<event>
 5   0  0.6589193E-06  0.2100037E+04  0.7818609E-02  0.8561227E-01
        1   -1    0    0  501    0  0.00000000000E+00  0.00000000000E+00  0.10352079801E+04  0.10352079801E+04  0.50400001928E-02 0. -1.
       -1   -1    0    0    0  501  0.00000000000E+00  0.00000000000E+00 -0.10650406553E+04  0.10650406553E+04  0.50400001928E-02 0.  1.
    10030    2    1    2    0    0  0.00000000000E+00  0.00000000000E+00 -0.29832675157E+02  0.21002486355E+04  0.21000367478E+04 0.  0.
        3    1    3    3  502    0 -0.72705048858E+03  0.24669589441E+03  0.70145007658E+03  0.10399487956E+04  0.10100000352E+00 0. -1.
       -3    1    3    3    0  502  0.72705048858E+03 -0.24669589441E+03 -0.73128275174E+03  0.10602998399E+04  0.10100000352E+00 0.  1.
</event>
<event>
 5   0  0.6283269E-06  0.2107432E+04  0.7818609E-02  0.8557977E-01
       -1   -1    0    0    0  501  0.00000000000E+00  0.00000000000E+00  0.10999660393E+04  0.10999660393E+04  0.50400001928E-02 0. -1.
        1   -1    0    0  501    0  0.00000000000E+00  0.00000000000E+00 -0.10094103471E+04  0.10094103471E+04  0.50400001928E-02 0.  1.
    10030    2    1    2    0    0  0.00000000000E+00  0.00000000000E+00  0.90555692236E+02  0.21093763865E+04  0.21074317086E+04 0.  0.
        1    1    3    3  502    0 -0.72821901150E+03  0.69084688272E+03  0.36611186059E+03  0.10684616224E+04  0.50400001928E-02 0. -1.
       -1    1    3    3    0  502  0.72821901150E+03 -0.69084688272E+03 -0.27555616835E+03  0.10409147640E+04  0.50400001928E-02 0.  1.
</event>
<event>
 5   0  0.1395356E-05  0.2095076E+04  0.7818609E-02  0.8563415E-01
       -2   -1    0    0    0  501  0.00000000000E+00  0.00000000000E+00  0.19182463359E+04  0.19182463359E+04  0.25500000920E-02 0. -1.
        2   -1    0    0  501    0  0.00000000000E+00  0.00000000000E+00 -0.57205170128E+03  0.57205170128E+03  0.25500000920E-02 0.  1.
    10030    2    1    2    0    0  0.00000000000E+00  0.00000000000E+00  0.13461946346E+04  0.24902980371E+04  0.20950762085E+04 0.  0.
        1    1    3    3  502    0  0.42926170613E+03 -0.63322662174E+03 -0.17750500179E+03  0.78533406428E+03  0.50400001928E-02 0.  1.
       -1    1    3    3    0  502 -0.42926170613E+03  0.63322662174E+03  0.15236996364E+04  0.17049639729E+04  0.50400001928E-02 0. -1.
</event>
<event>
 5   0  0.1390735E-05  0.2093442E+04  0.7818609E-02  0.8564138E-01
       -2   -1    0    0    0  501  0.00000000000E+00  0.00000000000E+00  0.75977624729E+03  0.75977624729E+03  0.25500000920E-02 0.  1.
        2   -1    0    0  501    0  0.00000000000E+00  0.00000000000E+00 -0.14420358618E+04  0.14420358618E+04  0.25500000920E-02 0. -1.
    10030    2    1    2    0    0  0.00000000000E+00  0.00000000000E+00 -0.68225961446E+03  0.22018121090E+04  0.20934417551E+04 0.  0.
        5    1    3    3  502    0 -0.80935764306E+03 -0.78246823941E+02  0.35209540927E+03  0.88610136388E+03  0.46999998093E+01 0.  1.
       -5    1    3    3    0  502  0.80935764306E+03  0.78246823941E+02 -0.10343550237E+04  0.13157107452E+04  0.46999998093E+01 0. -1.
</event>
<event>
 5   0  0.6599245E-06  0.2098402E+04  0.7818609E-02  0.8561948E-01
        1   -1    0    0  501    0  0.00000000000E+00  0.00000000000E+00  0.11188094123E+04  0.11188094123E+04  0.50400001928E-02 0. -1.
       -1   -1    0    0    0  501  0.00000000000E+00  0.00000000000E+00 -0.98392308714E+03  0.98392308715E+03  0.50400001928E-02 0.  1.
    10030    2    1    2    0    0  0.00000000000E+00  0.00000000000E+00  0.13488632514E+03  0.21027324994E+04  0.20984016878E+04 0.  0.
        2    1    3    3  502    0  0.10195904384E+04  0.18708792417E+03  0.22981417648E+03  0.10617820441E+04  0.25500000920E-02 0. -1.
       -2    1    3    3    0  502 -0.10195904384E+04 -0.18708792417E+03 -0.94927851345E+02  0.10409504553E+04  0.25500000920E-02 0.  1.
</event>
<event>
 5   0  0.6599245E-06  0.2101172E+04  0.7818609E-02  0.8560727E-01
       -1   -1    0    0    0  501  0.00000000000E+00  0.00000000000E+00  0.16026801857E+04  0.16026801857E+04  0.50400001928E-02 0. -1.
        1   -1    0    0  501    0  0.00000000000E+00  0.00000000000E+00 -0.68867827508E+03  0.68867827509E+03  0.50400001928E-02 0.  1.
    10030    2    1    2    0    0  0.00000000000E+00  0.00000000000E+00  0.91400191062E+03  0.22913584608E+04  0.21011720784E+04 0.  0.
        2    1    3    3  502    0 -0.80016593249E+03  0.10854190531E+03  0.11899079145E+04  0.14380291060E+04  0.25500000920E-02 0. -1.
       -2    1    3    3    0  502  0.80016593249E+03 -0.10854190531E+03 -0.27590600390E+03  0.85332935477E+03  0.25500000920E-02 0.  1.
</event>
<event>
 5   0  0.6589193E-06  0.2105950E+04  0.7818609E-02  0.8558627E-01
       -1   -1    0    0    0  501  0.00000000000E+00  0.00000000000E+00  0.94588532256E+03  0.94588532258E+03  0.50400001928E-02 0.  1.
        1   -1    0    0  501    0  0.00000000000E+00  0.00000000000E+00 -0.11721884821E+04  0.11721884822E+04  0.50400001928E-02 0. -1.
    10030    2    1    2    0    0  0.00000000000E+00  0.00000000000E+00 -0.22630315958E+03  0.21180738047E+04  0.21059495536E+04 0.  0.
        3    1    3    3  502    0 -0.66313778505E+03  0.32416445397E+03  0.64211883497E+03  0.97834090357E+03  0.10100000352E+00 0.  1.
       -3    1    3    3    0  502  0.66313778505E+03 -0.32416445397E+03 -0.86842199454E+03  0.11397329012E+04  0.10100000352E+00 0. -1.
</event>
<event>
 5   0  0.1344501E-05  0.2100589E+04  0.7818609E-02  0.8560984E-01
       -2   -1    0    0    0  501  0.00000000000E+00  0.00000000000E+00  0.54928703185E+03  0.54928703186E+03  0.25500000920E-02 0.  1.
        2   -1    0    0  501    0  0.00000000000E+00  0.00000000000E+00 -0.20082742631E+04  0.20082742631E+04  0.25500000920E-02 0. -1.
    10030    2    1    2    0    0  0.00000000000E+00  0.00000000000E+00 -0.14589872313E+04  0.25575612950E+04  0.21005894498E+04 0.  0.
        3    1    3    3  502    0  0.27283316712E+03 -0.24350701565E+03 -0.19282560007E+04  0.19626270197E+04  0.10100000352E+00 0. -1.
       -3    1    3    3    0  502 -0.27283316712E+03  0.24350701565E+03  0.46926876946E+03  0.59493427532E+03  0.10100000352E+00 0.  1.
</event>
<event>
 5   0  0.6917078E-06  0.2101935E+04  0.7818609E-02  0.8560391E-01
       -1   -1    0    0    0  501  0.00000000000E+00  0.00000000000E+00  0.69319896200E+03  0.69319896202E+03  0.50400001928E-02 0. -1.
        1   -1    0    0  501    0  0.00000000000E+00  0.00000000000E+00 -0.15933854422E+04  0.15933854422E+04  0.50400001928E-02 0.  1.
    10030    2    1    2    0    0  0.00000000000E+00  0.00000000000E+00 -0.90018648022E+03  0.22865844042E+04  0.21019354268E+04 0.  0.
        5    1    3    3  502    0  0.18043318179E+03 -0.10336299310E+04 -0.38514888229E+03  0.11177247957E+04  0.46999998093E+01 0. -1.
       -5    1    3    3    0  502 -0.18043318179E+03  0.10336299310E+04 -0.51503759793E+03  0.11688596086E+04  0.46999998093E+01 0.  1.
</event>
<event>
 5   0  0.6599245E-06  0.2102601E+04  0.7818609E-02  0.8560098E-01
        1   -1    0    0  501    0  0.00000000000E+00  0.00000000000E+00  0.80348688629E+03  0.80348688630E+03  0.50400001928E-02 0.  1.
       -1   -1    0    0    0  501  0.00000000000E+00  0.00000000000E+00 -0.13755458248E+04  0.13755458248E+04  0.50400001928E-02 0. -1.
    10030    2    1    2    0    0  0.00000000000E+00  0.00000000000E+00 -0.57205893855E+03  0.21790327111E+04  0.21026012763E+04 0.  0.
        2    1    3    3  502    0  0.23770247031E+03  0.30846028526E+03  0.72598339973E+03  0.82383378703E+03  0.25500000920E-02 0.  1.
       -2    1    3    3    0  502 -0.23770247031E+03 -0.30846028526E+03 -0.12980423383E+04  0.13551989241E+04  0.25500000920E-02 0. -1.
</event>
<event>
 5   0  0.1344501E-05  0.2101227E+04  0.7818609E-02  0.8560703E-01
        2   -1    0    0  501    0  0.00000000000E+00  0.00000000000E+00  0.83395590085E+03  0.83395590086E+03  0.25500000920E-02 0.  1.
       -2   -1    0    0    0  501  0.00000000000E+00  0.00000000000E+00 -0.13235579881E+04  0.13235579881E+04  0.25500000920E-02 0. -1.
    10030    2    1    2    0    0  0.00000000000E+00  0.00000000000E+00 -0.48960208722E+03  0.21575138889E+04  0.21012272550E+04 0.  0.
        3    1    3    3  502    0 -0.52243829072E+03  0.45257152635E+03  0.56761191076E+03  0.89439702902E+03  0.10100000352E+00 0.  1.
       -3    1    3    3    0  502  0.52243829072E+03 -0.45257152635E+03 -0.10572139980E+04  0.12631168599E+04  0.10100000352E+00 0. -1.
</event>
<event>
 5   0  0.1390735E-05  0.2096824E+04  0.7818609E-02  0.8562644E-01
        2   -1    0    0  501    0  0.00000000000E+00  0.00000000000E+00  0.10986662455E+04  0.10986662455E+04  0.25500000920E-02 0.  1.
       -2   -1    0    0    0  501  0.00000000000E+00  0.00000000000E+00 -0.10004568462E+04  0.10004568462E+04  0.25500000920E-02 0. -1.
    10030    2    1    2    0    0  0.00000000000E+00  0.00000000000E+00  0.98209399337E+02  0.20991230917E+04  0.20968244247E+04 0.  0.
        5    1    3    3  502    0 -0.28133466821E+03 -0.92140008475E+03 -0.36489280426E+03  0.10301922929E+04  0.46999998093E+01 0. -1.
       -5    1    3    3    0  502  0.28133466821E+03  0.92140008475E+03  0.46310220360E+03  0.10689307988E+04  0.46999998093E+01 0.  1.
</event>
<event>
 5   0  0.1390735E-05  0.2103670E+04  0.7818609E-02  0.8559628E-01
       -2   -1    0    0    0  501  0.00000000000E+00  0.00000000000E+00  0.72491936510E+03  0.72491936511E+03  0.25500000920E-02 0. -1.
        2   -1    0    0  501    0  0.00000000000E+00  0.00000000000E+00 -0.15261797744E+04  0.15261797744E+04  0.25500000920E-02 0.  1.
    10030    2    1    2    0    0  0.00000000000E+00  0.00000000000E+00 -0.80126040928E+03  0.22510991395E+04  0.21036703859E+04 0.  0.
        5    1    3    3  502    0  0.33665097958E+03  0.33850811349E+03 -0.14035505554E+04  0.14825309024E+04  0.46999998093E+01 0.  1.
       -5    1    3    3    0  502 -0.33665097958E+03 -0.33850811349E+03  0.60229014613E+03  0.76856823710E+03  0.46999998093E+01 0. -1.
</event>
<event>
 5   0  0.1390735E-05  0.2095116E+04  0.7818609E-02  0.8563398E-01
       -2   -1    0    0    0  501  0.00000000000E+00  0.00000000000E+00  0.65047834521E+03  0.65047834522E+03  0.25500000920E-02 0.  1.
        2   -1    0    0  501    0  0.00000000000E+00  0.00000000000E+00 -0.16870318867E+04  0.16870318867E+04  0.25500000920E-02 0. -1.
    10030    2    1    2    0    0  0.00000000000E+00  0.00000000000E+00 -0.10365535415E+04  0.23375102319E+04  0.20951159490E+04 0.  0.
        5    1    3    3  502    0  0.92269509905E+03 -0.20369983119E+03 -0.13746063233E+02  0.94502429137E+03  0.46999998093E+01 0.  1.
       -5    1    3    3    0  502 -0.92269509905E+03  0.20369983119E+03 -0.10228074782E+04  0.13924859405E+04  0.46999998093E+01 0. -1.
</event>
<event>
 5   0  0.1398469E-05  0.2099339E+04  0.7818609E-02  0.8561535E-01
       -2   -1    0    0    0  501  0.00000000000E+00  0.00000000000E+00  0.10972171900E+04  0.10972171900E+04  0.25500000920E-02 0. -1.
        2   -1    0    0  501    0  0.00000000000E+00  0.00000000000E+00 -0.10041820949E+04  0.10041820949E+04  0.25500000920E-02 0.  1.
    10030    2    1    2    0    0  0.00000000000E+00  0.00000000000E+00  0.93035095059E+02  0.21013992849E+04  0.20993388068E+04 0.  0.
        2    1    3    3  502    0  0.47034504543E+03  0.24417218219E+03 -0.86044091907E+03  0.10105459374E+04  0.25500000920E-02 0.  1.
       -2    1    3    3    0  502 -0.47034504543E+03 -0.24417218219E+03  0.95347601413E+03  0.10908533475E+04  0.25500000920E-02 0. -1.
</event>
<event>
 5   0  0.1441136E-05  0.2099375E+04  0.7818609E-02  0.8561519E-01
       -2   -1    0    0    0  501  0.00000000000E+00  0.00000000000E+00  0.11323610781E+04  0.11323610781E+04  0.25500000920E-02 0. -1.
        2   -1    0    0  501    0  0.00000000000E+00  0.00000000000E+00 -0.97304990670E+03  0.97304990671E+03  0.25500000920E-02 0.  1.
    10030    2    1    2    0    0  0.00000000000E+00  0.00000000000E+00  0.15931117138E+03  0.21054109848E+04  0.20993749940E+04 0.  0.
        4    1    3    3  502    0 -0.66916741324E+03  0.22321223847E+03  0.85921507745E+03  0.11116928049E+04  0.12699999809E+01 0. -1.
       -4    1    3    3    0  502  0.66916741324E+03 -0.22321223847E+03 -0.69990390607E+03  0.99371817985E+03  0.12699999809E+01 0.  1.
</event>
<event>
 5   0  0.1344501E-05  0.2099113E+04  0.7818609E-02  0.8561634E-01
        2   -1    0    0  501    0  0.00000000000E+00  0.00000000000E+00  0.14379343318E+04  0.14379343318E+04  0.25500000920E-02 0. -1.
       -2   -1    0    0    0  501  0.00000000000E+00  0.00000000000E+00 -0.76607705939E+03  0.76607705939E+03  0.25500000920E-02 0.  1.
    10030    2    1    2    0    0  0.00000000000E+00  0.00000000000E+00  0.67185727242E+03  0.22040113912E+04  0.20991126740E+04 0.  0.
        3    1    3    3  502    0  0.39763702861E+03  0.71348281022E+02  0.13530281683E+04  0.14120520593E+04  0.10100000352E+00 0. -1.
       -3    1    3    3    0  502 -0.39763702861E+03 -0.71348281022E+02 -0.68117089591E+03  0.79195933189E+03  0.10100000352E+00 0.  1.
</event>
<event>
 5   0  0.1390735E-05  0.2107034E+04  0.7818609E-02  0.8558151E-01
       -2   -1    0    0    0  501  0.00000000000E+00  0.00000000000E+00  0.60180993212E+03  0.60180993212E+03  0.25500000920E-02 0. -1.
        2   -1    0    0  501    0  0.00000000000E+00  0.00000000000E+00 -0.18442666417E+04  0.18442666417E+04  0.25500000920E-02 0.  1.
    10030    2    1    2    0    0  0.00000000000E+00  0.00000000000E+00 -0.12424567096E+04  0.24460765739E+04  0.21070339176E+04 0.  0.
        5    1    3    3  502    0  0.32803286760E+03  0.43894088051E+03  0.42333335599E+03  0.69246507428E+03  0.46999998093E+01 0. -1.
       -5    1    3    3    0  502 -0.32803286760E+03 -0.43894088051E+03 -0.16657900656E+04  0.17536114996E+04  0.46999998093E+01 0.  1.
</event>
<event>
 5   0  0.1395356E-05  0.2100146E+04  0.7818609E-02  0.8561179E-01
       -2   -1    0    0    0  501  0.00000000000E+00  0.00000000000E+00  0.80089005582E+03  0.80089005582E+03  0.25500000920E-02 0.  1.
        2   -1    0    0  501    0  0.00000000000E+00  0.00000000000E+00 -0.13767853720E+04  0.13767853720E+04  0.25500000920E-02 0. -1.
    10030    2    1    2    0    0  0.00000000000E+00  0.00000000000E+00 -0.57589531614E+03  0.21776754278E+04  0.21001463886E+04 0.  0.
        1    1    3    3  502    0 -0.14267173161E+03  0.10119674099E+04 -0.37751078387E+02  0.10226721887E+04  0.50400001928E-02 0.  1.
       -1    1    3    3    0  502  0.14267173161E+03 -0.10119674099E+04 -0.53814423776E+03  0.11550032391E+04  0.50400001928E-02 0. -1.
</event>
<event>
 5   0  0.5009125E-06  0.2089347E+04  0.7818609E-02  0.8565951E-01
        3   -1    0    0  501    0  0.00000000000E+00  0.00000000000E+00  0.41028370103E+03  0.41028371346E+03  0.10100000352E+00 0. -1.
       -3   -1    0    0    0  501  0.00000000000E+00  0.00000000000E+00 -0.26599702847E+04  0.26599702866E+04  0.10100000352E+00 0.  1.
    10030    2    1    2    0    0  0.00000000000E+00  0.00000000000E+00 -0.22496865837E+04  0.30702540001E+04  0.20893467640E+04 0.  0.
        4    1    3    3  502    0  0.36364549925E+03 -0.89813274197E+03 -0.16986191821E+04  0.19555534280E+04  0.12699999809E+01 0. -1.
       -4    1    3    3    0  502 -0.36364549925E+03  0.89813274197E+03 -0.55106740162E+03  0.11147005721E+04  0.12699999809E+01 0.  1.
</event>
<event>
 5   0  0.1395356E-05  0.2095985E+04  0.7818609E-02  0.8563014E-01
        2   -1    0    0  501    0  0.00000000000E+00  0.00000000000E+00  0.10375213789E+04  0.10375213789E+04  0.25500000920E-02 0.  1.
       -2   -1    0    0    0  501  0.00000000000E+00  0.00000000000E+00 -0.10585697035E+04  0.10585697035E+04  0.25500000920E-02 0. -1.
    10030    2    1    2    0    0  0.00000000000E+00  0.00000000000E+00 -0.21048324690E+02  0.20960910824E+04  0.20959853992E+04 0.  0.
        1    1    3    3  502    0 -0.53317083920E+03 -0.81264028481E+03  0.38145646913E+03  0.10441093880E+04  0.50400001928E-02 0.  1.
       -1    1    3    3    0  502  0.53317083920E+03  0.81264028481E+03 -0.40250479382E+03  0.10519816944E+04  0.50400001928E-02 0. -1.
</event>
<event>
 5   0  0.6599245E-06  0.2057262E+04  0.7818609E-02  0.8580307E-01
       -1   -1    0    0    0  501  0.00000000000E+00  0.00000000000E+00  0.67251737612E+03  0.67251737614E+03  0.50400001928E-02 0. -1.
        1   -1    0    0  501    0  0.00000000000E+00  0.00000000000E+00 -0.15733145991E+04  0.15733145991E+04  0.50400001928E-02 0.  1.
    10030    2    1    2    0    0  0.00000000000E+00  0.00000000000E+00 -0.90079722301E+03  0.22458319753E+04  0.20572616810E+04 0.  0.
        2    1    3    3  502    0 -0.95233997065E+03 -0.35552398997E+03 -0.27871718882E+03  0.10540550263E+04  0.25500000920E-02 0. -1.
       -2    1    3    3    0  502  0.95233997065E+03  0.35552398997E+03 -0.62208003418E+03  0.11917769490E+04  0.25500000920E-02 0.  1.
</event>
<event>
 5   0  0.1344501E-05  0.2099931E+04  0.7818609E-02  0.8561274E-01
       -2   -1    0    0    0  501  0.00000000000E+00  0.00000000000E+00  0.67635672512E+03  0.67635672513E+03  0.25500000920E-02 0. -1.
        2   -1    0    0  501    0  0.00000000000E+00  0.00000000000E+00 -0.16299498769E+04  0.16299498769E+04  0.25500000920E-02 0.  1.
    10030    2    1    2    0    0  0.00000000000E+00  0.00000000000E+00 -0.95359315176E+03  0.23063066020E+04  0.20999310092E+04 0.  0.
        3    1    3    3  502    0  0.92542837011E+02 -0.27939307644E+03  0.63012470250E+03  0.69547237095E+03  0.10100000352E+00 0. -1.
       -3    1    3    3    0  502 -0.92542837011E+02  0.27939307644E+03 -0.15837178543E+04  0.16108342311E+04  0.10100000352E+00 0.  1.
</event>
<event>
 5   0  0.6238363E-06  0.2099284E+04  0.7818609E-02  0.8561559E-01
        1   -1    0    0  501    0  0.00000000000E+00  0.00000000000E+00  0.10944573594E+04  0.10944573594E+04  0.50400001928E-02 0. -1.
       -1   -1    0    0    0  501  0.00000000000E+00  0.00000000000E+00 -0.10066620519E+04  0.10066620519E+04  0.50400001928E-02 0.  1.
    10030    2    1    2    0    0  0.00000000000E+00  0.00000000000E+00  0.87795307440E+02  0.21011194113E+04  0.20992843458E+04 0.  0.
        4    1    3    3  502    0  0.20254569984E+03 -0.43746443247E+03 -0.88930527823E+03  0.10115658066E+04  0.12699999809E+01 0.  1.
       -4    1    3    3    0  502 -0.20254569984E+03  0.43746443247E+03  0.97710058567E+03  0.10895536047E+04  0.12699999809E+01 0. -1.
</event>
<event>
 5   0  0.6283269E-06  0.2092857E+04  0.7818609E-02  0.8564396E-01
        1   -1    0    0  501    0  0.00000000000E+00  0.00000000000E+00  0.14708968106E+04  0.14708968106E+04  0.50400001928E-02 0.  1.
       -1   -1    0    0    0  501  0.00000000000E+00  0.00000000000E+00 -0.74445234078E+03  0.74445234079E+03  0.50400001928E-02 0. -1.
    10030    2    1    2    0    0  0.00000000000E+00  0.00000000000E+00  0.72644446984E+03  0.22153491514E+04  0.20928569695E+04 0.  0.
        1    1    3    3  502    0 -0.10236137736E+04 -0.16223072772E+03  0.51628346015E+03  0.11578655267E+04  0.50400001928E-02 0.  1.
       -1    1    3    3    0  502  0.10236137736E+04  0.16223072772E+03  0.21016100969E+03  0.10574836248E+04  0.50400001928E-02 0. -1.
</event>
<event>
 5   0  0.6917078E-06  0.2096797E+04  0.7818609E-02  0.8562656E-01
       -1   -1    0    0    0  501  0.00000000000E+00  0.00000000000E+00  0.10826801501E+04  0.10826801501E+04  0.50400001928E-02 0.  1.
        1   -1    0    0  501    0  0.00000000000E+00  0.00000000000E+00 -0.10152021894E+04  0.10152021894E+04  0.50400001928E-02 0. -1.
    10030    2    1    2    0    0  0.00000000000E+00  0.00000000000E+00  0.67477960755E+02  0.20978823395E+04  0.20967968512E+04 0.  0.
        5    1    3    3  502    0  0.57877170373E+03 -0.27783446548E+03 -0.79551365231E+03  0.10222684267E+04  0.46999998093E+01 0. -1.
       -5    1    3    3    0  502 -0.57877170373E+03  0.27783446548E+03  0.86299161306E+03  0.10756139128E+04  0.46999998093E+01 0.  1.
</event>
<event>
 5   0  0.1441136E-05  0.2099679E+04  0.7818609E-02  0.8561385E-01
        2   -1    0    0  501    0  0.00000000000E+00  0.00000000000E+00  0.13306671684E+04  0.13306671684E+04  0.25500000920E-02 0. -1.
       -2   -1    0    0    0  501  0.00000000000E+00  0.00000000000E+00 -0.82827871589E+03  0.82827871590E+03  0.25500000920E-02 0.  1.
    10030    2    1    2    0    0  0.00000000000E+00  0.00000000000E+00  0.50238845250E+03  0.21589458843E+04  0.20996793027E+04 0.  0.
        4    1    3    3  502    0  0.30604650410E+03  0.29877397303E+03 -0.73463388593E+03  0.85006994353E+03  0.12699999809E+01 0.  1.
       -4    1    3    3    0  502 -0.30604650410E+03 -0.29877397303E+03  0.12370223384E+04  0.13088759408E+04  0.12699999809E+01 0. -1.
</event>
<event>
 5   0  0.6599245E-06  0.2099496E+04  0.7818609E-02  0.8561465E-01
        1   -1    0    0  501    0  0.00000000000E+00  0.00000000000E+00  0.83864383062E+03  0.83864383064E+03  0.50400001928E-02 0.  1.
       -1   -1    0    0    0  501  0.00000000000E+00  0.00000000000E+00 -0.13139917519E+04  0.13139917519E+04  0.50400001928E-02 0. -1.
    10030    2    1    2    0    0  0.00000000000E+00  0.00000000000E+00 -0.47534792124E+03  0.21526355825E+04  0.20994962026E+04 0.  0.
        2    1    3    3  502    0 -0.78846391489E+03 -0.31939021024E+03  0.39294255456E+03  0.93706419347E+03  0.25500000920E-02 0.  1.
       -2    1    3    3    0  502  0.78846391489E+03  0.31939021024E+03 -0.86829047580E+03  0.12155713890E+04  0.25500000920E-02 0. -1.
</event>
<event>
 5   0  0.1398469E-05  0.2096922E+04  0.7818609E-02  0.8562600E-01
        2   -1    0    0  501    0  0.00000000000E+00  0.00000000000E+00  0.83792811562E+03  0.83792811563E+03  0.25500000920E-02 0. -1.
       -2   -1    0    0    0  501  0.00000000000E+00  0.00000000000E+00 -0.13118912890E+04  0.13118912890E+04  0.25500000920E-02 0.  1.
    10030    2    1    2    0    0  0.00000000000E+00  0.00000000000E+00 -0.47396317336E+03  0.21498194046E+04  0.20969221213E+04 0.  0.
        2    1    3    3  502    0 -0.22701938299E+03 -0.17447214863E+03  0.79707081689E+03  0.84693578154E+03  0.25500000920E-02 0. -1.
       -2    1    3    3    0  502  0.22701938299E+03  0.17447214863E+03 -0.12710339903E+04  0.13028836231E+04  0.25500000920E-02 0.  1.
</event>
<event>
 5   0  0.1395356E-05  0.2110414E+04  0.7818609E-02  0.8556670E-01
        2   -1    0    0  501    0  0.00000000000E+00  0.00000000000E+00  0.18106643524E+04  0.18106643524E+04  0.25500000920E-02 0.  1.
       -2   -1    0    0    0  501  0.00000000000E+00  0.00000000000E+00 -0.61494669375E+03  0.61494669376E+03  0.25500000920E-02 0. -1.
    10030    2    1    2    0    0  0.00000000000E+00  0.00000000000E+00  0.11957176587E+04  0.24256110462E+04  0.21104142314E+04 0.  0.
        1    1    3    3  502    0 -0.72881692824E+03 -0.40835314789E+03  0.13387554242E+04  0.15780343767E+04  0.50400001928E-02 0.  1.
       -1    1    3    3    0  502  0.72881692824E+03  0.40835314789E+03 -0.14303776550E+03  0.84757666949E+03  0.50400001928E-02 0. -1.
</event>
<event>
 5   0  0.1390735E-05  0.2099956E+04  0.7818609E-02  0.8561263E-01
        2   -1    0    0  501    0  0.00000000000E+00  0.00000000000E+00  0.95650128814E+03  0.95650128815E+03  0.25500000920E-02 0. -1.
       -2   -1    0    0    0  501  0.00000000000E+00  0.00000000000E+00 -0.11525900266E+04  0.11525900266E+04  0.25500000920E-02 0.  1.
    10030    2    1    2    0    0  0.00000000000E+00  0.00000000000E+00 -0.19608873841E+03  0.21090913147E+04  0.20999560425E+04 0.  0.
        5    1    3    3  502    0 -0.59321746117E+03 -0.73082849528E+03 -0.56527183696E+03  0.10979852392E+04  0.46999998093E+01 0.  1.
       -5    1    3    3    0  502  0.59321746117E+03  0.73082849528E+03  0.36918309854E+03  0.10111060755E+04  0.46999998093E+01 0. -1.
</event>
<event>
 5   0  0.6599245E-06  0.2102002E+04  0.7818609E-02  0.8560362E-01
       -1   -1    0    0    0  501  0.00000000000E+00  0.00000000000E+00  0.85290358729E+03  0.85290358731E+03  0.50400001928E-02 0. -1.
        1   -1    0    0  501    0  0.00000000000E+00  0.00000000000E+00 -0.12951095572E+04  0.12951095572E+04  0.50400001928E-02 0.  1.
    10030    2    1    2    0    0  0.00000000000E+00  0.00000000000E+00 -0.44220596993E+03  0.21480131445E+04  0.21020024618E+04 0.  0.
        2    1    3    3  502    0  0.70464566002E+03 -0.35418948592E+03  0.48881784905E+03  0.92785698665E+03  0.25500000920E-02 0. -1.
       -2    1    3    3    0  502 -0.70464566002E+03  0.35418948592E+03 -0.93102381898E+03  0.12201561579E+04  0.25500000920E-02 0.  1.
</event>
<event>
 5   0  0.6238363E-06  0.2101606E+04  0.7818609E-02  0.8560536E-01
       -1   -1    0    0    0  501  0.00000000000E+00  0.00000000000E+00  0.71292344759E+03  0.71292344761E+03  0.50400001928E-02 0. -1.
        1   -1    0    0  501    0  0.00000000000E+00  0.00000000000E+00 -0.15488149670E+04  0.15488149670E+04  0.50400001928E-02 0.  1.
    10030    2    1    2    0    0  0.00000000000E+00  0.00000000000E+00 -0.83589151940E+03  0.22617384146E+04  0.21016055824E+04 0.  0.
        4    1    3    3  502    0  0.86781045448E+03 -0.25994081450E+03  0.15509238599E+03  0.91908621632E+03  0.12699999809E+01 0. -1.
       -4    1    3    3    0  502 -0.86781045448E+03  0.25994081450E+03 -0.99098390539E+03  0.13426521983E+04  0.12699999809E+01 0.  1.
</event>
<event>
 5   0  0.1441136E-05  0.2093395E+04  0.7818609E-02  0.8564159E-01
        2   -1    0    0  501    0  0.00000000000E+00  0.00000000000E+00  0.11965521939E+04  0.11965521939E+04  0.25500000920E-02 0.  1.
       -2   -1    0    0    0  501  0.00000000000E+00  0.00000000000E+00 -0.91561041435E+03  0.91561041436E+03  0.25500000920E-02 0. -1.
    10030    2    1    2    0    0  0.00000000000E+00  0.00000000000E+00  0.28094177955E+03  0.21121626083E+04  0.20933949938E+04 0.  0.
        4    1    3    3  502    0 -0.96353374936E+02  0.53438452355E+03  0.10433245997E+04  0.11761711717E+04  0.12699999809E+01 0.  1.
       -4    1    3    3    0  502  0.96353374936E+02 -0.53438452355E+03 -0.76238282018E+03  0.93599143654E+03  0.12699999809E+01 0. -1.
</event>
<event>
 5   0  0.1344501E-05  0.2093578E+04  0.7818609E-02  0.8564078E-01
        2   -1    0    0  501    0  0.00000000000E+00  0.00000000000E+00  0.14324552778E+04  0.14324552778E+04  0.25500000920E-02 0. -1.
       -2   -1    0    0    0  501  0.00000000000E+00  0.00000000000E+00 -0.76495723783E+03  0.76495723784E+03  0.25500000920E-02 0.  1.
    10030    2    1    2    0    0  0.00000000000E+00  0.00000000000E+00  0.66749803997E+03  0.21974125156E+04  0.20935778301E+04 0.  0.
        3    1    3    3  502    0  0.67225442599E+03  0.52621520782E+03 -0.30204898629E+03  0.90557277925E+03  0.10100000352E+00 0.  1.
       -3    1    3    3    0  502 -0.67225442599E+03 -0.52621520782E+03  0.96954702626E+03  0.12918397364E+04  0.10100000352E+00 0. -1.
</event>
<event>
 5   0  0.6283269E-06  0.2098418E+04  0.7818609E-02  0.8561941E-01
       -1   -1    0    0    0  501  0.00000000000E+00  0.00000000000E+00  0.12815889250E+04  0.12815889250E+04  0.50400001928E-02 0. -1.
        1   -1    0    0  501    0  0.00000000000E+00  0.00000000000E+00 -0.85896424745E+03  0.85896424746E+03  0.50400001928E-02 0.  1.
    10030    2    1    2    0    0  0.00000000000E+00  0.00000000000E+00  0.42262467756E+03  0.21405531725E+04  0.20984175624E+04 0.  0.
        1    1    3    3  502    0 -0.19809351302E+03  0.51267949761E+03  0.11229907130E+04  0.12502757490E+04  0.50400001928E-02 0. -1.
       -1    1    3    3    0  502  0.19809351302E+03 -0.51267949761E+03 -0.70036603539E+03  0.89027742346E+03  0.50400001928E-02 0.  1.
</event>
<event>
 5   0  0.6283269E-06  0.2106927E+04  0.7818609E-02  0.8558198E-01
       -1   -1    0    0    0  501  0.00000000000E+00  0.00000000000E+00  0.60143369701E+03  0.60143369703E+03  0.50400001928E-02 0.  1.
        1   -1    0    0  501    0  0.00000000000E+00  0.00000000000E+00 -0.18452327535E+04  0.18452327535E+04  0.50400001928E-02 0. -1.
    10030    2    1    2    0    0  0.00000000000E+00  0.00000000000E+00 -0.12437990565E+04  0.24466664505E+04  0.21069268206E+04 0.  0.
        1    1    3    3  502    0 -0.29859507106E+02 -0.39871130090E+03 -0.17536989975E+04  0.17987002156E+04  0.50400001928E-02 0. -1.
       -1    1    3    3    0  502  0.29859507106E+02  0.39871130090E+03  0.50989994108E+03  0.64796623489E+03  0.50400001928E-02 0.  1.
</event>
<event>
 5   0  0.6599245E-06  0.2107132E+04  0.7818609E-02  0.8558108E-01
       -1   -1    0    0    0  501  0.00000000000E+00  0.00000000000E+00  0.69835173264E+03  0.69835173266E+03  0.50400001928E-02 0.  1.
        1   -1    0    0  501    0  0.00000000000E+00  0.00000000000E+00 -0.15894594357E+04  0.15894594357E+04  0.50400001928E-02 0. -1.
    10030    2    1    2    0    0  0.00000000000E+00  0.00000000000E+00 -0.89110770309E+03  0.22878111684E+04  0.21071324125E+04 0.  0.
        2    1    3    3  502    0  0.92971356700E+03  0.18249412096E+03  0.54750598276E+02  0.94903585225E+03  0.25500000920E-02 0.  1.
       -2    1    3    3    0  502 -0.92971356700E+03 -0.18249412096E+03 -0.94585830136E+03  0.13387753161E+04  0.25500000920E-02 0. -1.
</event>
<event>
 5   0  0.6599245E-06  0.2109998E+04  0.7818609E-02  0.8556852E-01
       -1   -1    0    0    0  501  0.00000000000E+00  0.00000000000E+00  0.15700797872E+04  0.15700797872E+04  0.50400001928E-02 0.  1.
        1   -1    0    0  501    0  0.00000000000E+00  0.00000000000E+00 -0.70889559471E+03  0.70889559473E+03  0.50400001928E-02 0. -1.
    10030    2    1    2    0    0  0.00000000000E+00  0.00000000000E+00  0.86118419251E+03  0.22789753820E+04  0.21099977673E+04 0.  0.
        2    1    3    3  502    0 -0.85518008400E+03  0.17550990712E+03 -0.20920257985E+03  0.89772068205E+03  0.25500000920E-02 0. -1.
       -2    1    3    3    0  502  0.85518008400E+03 -0.17550990712E+03  0.10703867724E+04  0.13812546999E+04  0.25500000920E-02 0.  1.
</event>
<event>
 5   0  0.1390735E-05  0.2100760E+04  0.7818609E-02  0.8560909E-01
       -2   -1    0    0    0  501  0.00000000000E+00  0.00000000000E+00  0.76022753114E+03  0.76022753115E+03  0.25500000920E-02 0. -1.
        2   -1    0    0  501    0  0.00000000000E+00  0.00000000000E+00 -0.14512731599E+04  0.14512731599E+04  0.25500000920E-02 0.  1.
    10030    2    1    2    0    0  0.00000000000E+00  0.00000000000E+00 -0.69104562874E+03  0.22115006910E+04  0.21007596829E+04 0.  0.
        5    1    3    3  502    0 -0.60250236124E+03  0.11461363601E+03  0.55214744881E+03  0.82524800883E+03  0.46999998093E+01 0. -1.
       -5    1    3    3    0  502  0.60250236124E+03 -0.11461363601E+03 -0.12431930775E+04  0.13862526822E+04  0.46999998093E+01 0.  1.
</event>
<event>
 5   0  0.6917078E-06  0.2092460E+04  0.7818609E-02  0.8564572E-01
        1   -1    0    0  501    0  0.00000000000E+00  0.00000000000E+00  0.10406404419E+04  0.10406404419E+04  0.50400001928E-02 0. -1.
       -1   -1    0    0    0  501  0.00000000000E+00  0.00000000000E+00 -0.10518500109E+04  0.10518500109E+04  0.50400001928E-02 0.  1.
    10030    2    1    2    0    0  0.00000000000E+00  0.00000000000E+00 -0.11209569022E+02  0.20924904529E+04  0.20924604276E+04 0.  0.
        5    1    3    3  502    0  0.36623890903E+03  0.73392536788E+03 -0.65507402258E+03  0.10497244635E+04  0.46999998093E+01 0.  1.
       -5    1    3    3    0  502 -0.36623890903E+03 -0.73392536788E+03  0.64386445356E+03  0.10427659894E+04  0.46999998093E+01 0. -1.
</event>
<event>
 5   0  0.6589193E-06  0.2098071E+04  0.7818609E-02  0.8562093E-01
        1   -1    0    0  501    0  0.00000000000E+00  0.00000000000E+00  0.12447593545E+04  0.12447593545E+04  0.50400001928E-02 0. -1.
       -1   -1    0    0    0  501  0.00000000000E+00  0.00000000000E+00 -0.88408735404E+03  0.88408735406E+03  0.50400001928E-02 0.  1.
    10030    2    1    2    0    0  0.00000000000E+00  0.00000000000E+00  0.36067200045E+03  0.21288467086E+04  0.20980714994E+04 0.  0.
        3    1    3    3  502    0  0.95647273659E+03 -0.32926797089E+03  0.46229424006E+03  0.11121930889E+04  0.10100000352E+00 0. -1.
       -3    1    3    3    0  502 -0.95647273659E+03  0.32926797089E+03 -0.10162223960E+03  0.10166536196E+04  0.10100000352E+00 0.  1.
</event>
<event>
 5   0  0.6589193E-06  0.2113022E+04  0.7818609E-02  0.8555529E-01
        1   -1    0    0  501    0  0.00000000000E+00  0.00000000000E+00  0.10787318203E+04  0.10787318203E+04  0.50400001928E-02 0.  1.
       -1   -1    0    0    0  501  0.00000000000E+00  0.00000000000E+00 -0.10347482429E+04  0.10347482429E+04  0.50400001928E-02 0. -1.
    10030    2    1    2    0    0  0.00000000000E+00  0.00000000000E+00  0.43983577414E+02  0.21134800633E+04  0.21130223432E+04 0.  0.
        3    1    3    3  502    0 -0.30867723580E+03  0.51540472857E+03  0.89125551829E+03  0.10748302560E+04  0.10100000352E+00 0.  1.
       -3    1    3    3    0  502  0.30867723580E+03 -0.51540472857E+03 -0.84727194088E+03  0.10386498073E+04  0.10100000352E+00 0. -1.
</event>
<event>
 5   0  0.6238363E-06  0.2099067E+04  0.7818609E-02  0.8561655E-01
        1   -1    0    0  501    0  0.00000000000E+00  0.00000000000E+00  0.11519971264E+04  0.11519971264E+04  0.50400001928E-02 0. -1.
       -1   -1    0    0    0  501  0.00000000000E+00  0.00000000000E+00 -0.95618328681E+03  0.95618328683E+03  0.50400001928E-02 0.  1.
    10030    2    1    2    0    0  0.00000000000E+00  0.00000000000E+00  0.19581383961E+03  0.21081804133E+04  0.20990668391E+04 0.  0.
        4    1    3    3  502    0 -0.83692584502E+03  0.43634721858E+03  0.55889323049E+03  0.10969079365E+04  0.12699999809E+01 0. -1.
       -4    1    3    3    0  502  0.83692584502E+03 -0.43634721858E+03 -0.36307939087E+03  0.10112724767E+04  0.12699999809E+01 0.  1.
</event>
<event>
 5   0  0.1398469E-05  0.2099452E+04  0.7818609E-02  0.8561485E-01
        2   -1    0    0  501    0  0.00000000000E+00  0.00000000000E+00  0.11565898776E+04  0.11565898776E+04  0.25500000920E-02 0. -1.
       -2   -1    0    0    0  501  0.00000000000E+00  0.00000000000E+00 -0.95273610340E+03  0.95273610341E+03  0.25500000920E-02 0.  1.
    10030    2    1    2    0    0  0.00000000000E+00  0.00000000000E+00  0.20385377424E+03  0.21093259810E+04  0.20994522460E+04 0.  0.
        2    1    3    3  502    0 -0.98816977530E+03 -0.35417897601E+03  0.10357208663E+03  0.10548219892E+04  0.25500000920E-02 0. -1.
       -2    1    3    3    0  502  0.98816977530E+03  0.35417897601E+03  0.10028168760E+03  0.10545039918E+04  0.25500000920E-02 0.  1.
</event>
<event>
 5   0  0.1395356E-05  0.2101848E+04  0.7818609E-02  0.8560430E-01
        2   -1    0    0  501    0  0.00000000000E+00  0.00000000000E+00  0.85778559887E+03  0.85778559887E+03  0.25500000920E-02 0.  1.
       -2   -1    0    0    0  501  0.00000000000E+00  0.00000000000E+00 -0.12875492678E+04  0.12875492678E+04  0.25500000920E-02 0. -1.
    10030    2    1    2    0    0  0.00000000000E+00  0.00000000000E+00 -0.42976366892E+03  0.21453348667E+04  0.21018479676E+04 0.  0.
        1    1    3    3  502    0 -0.45224399488E+03 -0.13647355420E+03 -0.11730761651E+04  0.12646174722E+04  0.50400001928E-02 0. -1.
       -1    1    3    3    0  502  0.45224399488E+03  0.13647355420E+03  0.74331249617E+03  0.88071739445E+03  0.50400001928E-02 0.  1.
</event>
<event>
 5   0  0.6917078E-06  0.2104018E+04  0.7818609E-02  0.8559476E-01
        1   -1    0    0  501    0  0.00000000000E+00  0.00000000000E+00  0.17589307588E+04  0.17589307588E+04  0.50400001928E-02 0.  1.
       -1   -1    0    0    0  501  0.00000000000E+00  0.00000000000E+00 -0.62920197237E+03  0.62920197239E+03  0.50400001928E-02 0. -1.
    10030    2    1    2    0    0  0.00000000000E+00  0.00000000000E+00  0.11297287864E+04  0.23881327312E+04  0.21040177782E+04 0.  0.
        5    1    3    3  502    0 -0.79270528687E+03  0.69151383750E+03  0.57768342225E+03  0.12001305286E+04  0.46999998093E+01 0. -1.
       -5    1    3    3    0  502  0.79270528687E+03 -0.69151383750E+03  0.55204536416E+03  0.11880022026E+04  0.46999998093E+01 0.  1.
</event>
<event>
 5   0  0.6599245E-06  0.2092364E+04  0.7818609E-02  0.8564614E-01
       -1   -1    0    0    0  501  0.00000000000E+00  0.00000000000E+00  0.56278356758E+03  0.56278356761E+03  0.50400001928E-02 0.  1.
        1   -1    0    0  501    0  0.00000000000E+00  0.00000000000E+00 -0.19447922997E+04  0.19447922997E+04  0.50400001928E-02 0. -1.
    10030    2    1    2    0    0  0.00000000000E+00  0.00000000000E+00 -0.13820087321E+04  0.25075758673E+04  0.20923643552E+04 0.  0.
        2    1    3    3  502    0  0.76162056683E+03 -0.71593767236E+03 -0.74275303036E+03  0.12823083493E+04  0.25500000920E-02 0. -1.
       -2    1    3    3    0  502 -0.76162056683E+03  0.71593767236E+03 -0.63925570176E+03  0.12252675180E+04  0.25500000920E-02 0.  1.
</event>
<event>
 5   0  0.6589193E-06  0.2090334E+04  0.7818609E-02  0.8565513E-01
       -1   -1    0    0    0  501  0.00000000000E+00  0.00000000000E+00  0.96500803198E+03  0.96500803199E+03  0.50400001928E-02 0. -1.
        1   -1    0    0  501    0  0.00000000000E+00  0.00000000000E+00 -0.11319840391E+04  0.11319840391E+04  0.50400001928E-02 0.  1.
    10030    2    1    2    0    0  0.00000000000E+00  0.00000000000E+00 -0.16697600716E+03  0.20969920711E+04  0.20903336479E+04 0.  0.
        3    1    3    3  502    0  0.19112183186E+03 -0.58037560814E+03  0.76715772656E+03  0.98076214688E+03  0.10100000352E+00 0. -1.
       -3    1    3    3    0  502 -0.19112183186E+03  0.58037560814E+03 -0.93413373372E+03  0.11162299243E+04  0.10100000352E+00 0.  1.
</event>
<event>
 5   0  0.1398469E-05  0.2101461E+04  0.7818609E-02  0.8560600E-01
       -2   -1    0    0    0  501  0.00000000000E+00  0.00000000000E+00  0.92253276113E+03  0.92253276114E+03  0.25500000920E-02 0.  1.
        2   -1    0    0  501    0  0.00000000000E+00  0.00000000000E+00 -0.11967433334E+04  0.11967433334E+04  0.25500000920E-02 0. -1.
    10030    2    1    2    0    0  0.00000000000E+00  0.00000000000E+00 -0.27421057230E+03  0.21192760946E+04  0.21014613313E+04 0.  0.
        2    1    3    3  502    0 -0.45863380542E+03  0.40287960310E+02 -0.10896049595E+04  0.11828808287E+04  0.25500000920E-02 0. -1.
       -2    1    3    3    0  502  0.45863380542E+03 -0.40287960310E+02  0.81539438719E+03  0.93639526584E+03  0.25500000920E-02 0.  1.
</event>
<event>
 5   0  0.1395356E-05  0.2098862E+04  0.7818609E-02  0.8561745E-01
        2   -1    0    0  501    0  0.00000000000E+00  0.00000000000E+00  0.11970732611E+04  0.11970732611E+04  0.25500000920E-02 0. -1.
       -2   -1    0    0    0  501  0.00000000000E+00  0.00000000000E+00 -0.91999797369E+03  0.91999797369E+03  0.25500000920E-02 0.  1.
    10030    2    1    2    0    0  0.00000000000E+00  0.00000000000E+00  0.27707528738E+03  0.21170712348E+04  0.20988615719E+04 0.  0.
        1    1    3    3  502    0 -0.18925964711E+02  0.63080466563E+03 -0.70720708764E+03  0.94784734169E+03  0.50400001928E-02 0.  1.
       -1    1    3    3    0  502  0.18925964711E+02 -0.63080466563E+03  0.98428237502E+03  0.11692238931E+04  0.50400001928E-02 0. -1.
</event>
<event>
 5   0  0.6283269E-06  0.2101924E+04  0.7818609E-02  0.8560396E-01
       -1   -1    0    0    0  501  0.00000000000E+00  0.00000000000E+00  0.81155400752E+03  0.81155400754E+03  0.50400001928E-02 0. -1.
        1   -1    0    0  501    0  0.00000000000E+00  0.00000000000E+00 -0.13609947099E+04  0.13609947099E+04  0.50400001928E-02 0.  1.
    10030    2    1    2    0    0  0.00000000000E+00  0.00000000000E+00 -0.54944070241E+03  0.21725487175E+04  0.21019236057E+04 0.  0.
        1    1    3    3  502    0 -0.16136116609E+03  0.10149808056E+04 -0.47569799726E+02  0.10288276568E+04  0.50400001928E-02 0. -1.
       -1    1    3    3    0  502  0.16136116609E+03 -0.10149808056E+04 -0.50187090268E+03  0.11437210606E+04  0.50400001928E-02 0.  1.
</event>
<event>
 5   0  0.1398469E-05  0.2073506E+04  0.7818609E-02  0.8573005E-01
        2   -1    0    0  501    0  0.00000000000E+00  0.00000000000E+00  0.16074303585E+04  0.16074303585E+04  0.25500000920E-02 0. -1.
       -2   -1    0    0    0  501  0.00000000000E+00  0.00000000000E+00 -0.66867987361E+03  0.66867987362E+03  0.25500000920E-02 0.  1.
    10030    2    1    2    0    0  0.00000000000E+00  0.00000000000E+00  0.93875048485E+03  0.22761102321E+04  0.20735055620E+04 0.  0.
        2    1    3    3  502    0  0.51172164345E+03 -0.82220223398E+03  0.63102303306E+02  0.97049340782E+03  0.25500000920E-02 0. -1.
       -2    1    3    3    0  502 -0.51172164345E+03  0.82220223398E+03  0.87564818154E+03  0.13056168243E+04  0.25500000920E-02 0.  1.
</event>
<event>
 5   0  0.6238363E-06  0.2100125E+04  0.7818609E-02  0.8561188E-01
        1   -1    0    0  501    0  0.00000000000E+00  0.00000000000E+00  0.14081551070E+04  0.14081551070E+04  0.50400001928E-02 0.  1.
       -1   -1    0    0    0  501  0.00000000000E+00  0.00000000000E+00 -0.78303235389E+03  0.78303235391E+03  0.50400001928E-02 0. -1.
    10030    2    1    2    0    0  0.00000000000E+00  0.00000000000E+00  0.62512275314E+03  0.21911874609E+04  0.21001247659E+04 0.  0.
        4    1    3    3  502    0  0.19967436711E+02 -0.56527273161E+03  0.12356244827E+04  0.13589339332E+04  0.12699999809E+01 0.  1.
       -4    1    3    3    0  502 -0.19967436711E+02  0.56527273161E+03 -0.61050172961E+03  0.83225352771E+03  0.12699999809E+01 0. -1.
</event>
<event>
 5   0  0.5009125E-06  0.2099615E+04  0.7818609E-02  0.8561413E-01
        3   -1    0    0  501    0  0.00000000000E+00  0.00000000000E+00  0.89904495266E+03  0.89904495833E+03  0.10100000352E+00 0. -1.
       -3   -1    0    0    0  501  0.00000000000E+00  0.00000000000E+00 -0.12258511600E+04  0.12258511641E+04  0.10100000352E+00 0.  1.
    10030    2    1    2    0    0  0.00000000000E+00  0.00000000000E+00 -0.32680620731E+03  0.21248961225E+04  0.20996145442E+04 0.  0.
        5    1    3    3  502    0  0.42193233722E+03 -0.66429331455E+03  0.53977298107E+03  0.95430051139E+03  0.46999998093E+01 0.  1.
       -5    1    3    3    0  502 -0.42193233722E+03  0.66429331455E+03 -0.86657918837E+03  0.11705956111E+04  0.46999998093E+01 0. -1.
</event>
<event>
 5   0  0.6589193E-06  0.2105195E+04  0.7818609E-02  0.8558958E-01
        1   -1    0    0  501    0  0.00000000000E+00  0.00000000000E+00  0.88964411539E+03  0.88964411540E+03  0.50400001928E-02 0.  1.
       -1   -1    0    0    0  501  0.00000000000E+00  0.00000000000E+00 -0.12453987909E+04  0.12453987909E+04  0.50400001928E-02 0. -1.
    10030    2    1    2    0    0  0.00000000000E+00  0.00000000000E+00 -0.35575467547E+03  0.21350429063E+04  0.21051951982E+04 0.  0.
        3    1    3    3  502    0  0.59053851897E+03 -0.68337575971E+03 -0.72611873199E+03  0.11588729846E+04  0.10100000352E+00 0. -1.
       -3    1    3    3    0  502 -0.59053851897E+03  0.68337575971E+03  0.37036405652E+03  0.97616992164E+03  0.10100000352E+00 0.  1.
</event>
<event>
 5   0  0.1390735E-05  0.2102117E+04  0.7818609E-02  0.8560311E-01
        2   -1    0    0  501    0  0.00000000000E+00  0.00000000000E+00  0.18509352757E+04  0.18509352757E+04  0.25500000920E-02 0. -1.
       -2   -1    0    0    0  501  0.00000000000E+00  0.00000000000E+00 -0.59684653673E+03  0.59684653673E+03  0.25500000920E-02 0.  1.
    10030    2    1    2    0    0  0.00000000000E+00  0.00000000000E+00  0.12540887390E+04  0.24477818125E+04  0.21021173222E+04 0.  0.
        5    1    3    3  502    0  0.20297230774E+02  0.53078760324E+03 -0.42903890105E+03  0.68282056643E+03  0.46999998093E+01 0.  1.
       -5    1    3    3    0  502 -0.20297230774E+02 -0.53078760324E+03  0.16831276400E+04  0.17649612460E+04  0.46999998093E+01 0. -1.
</event>
<event>
 5   0  0.1398469E-05  0.2102418E+04  0.7818609E-02  0.8560179E-01
        2   -1    0    0  501    0  0.00000000000E+00  0.00000000000E+00  0.65892792861E+03  0.65892792862E+03  0.25500000920E-02 0.  1.
       -2   -1    0    0    0  501  0.00000000000E+00  0.00000000000E+00 -0.16770284449E+04  0.16770284449E+04  0.25500000920E-02 0. -1.
    10030    2    1    2    0    0  0.00000000000E+00  0.00000000000E+00 -0.10181005162E+04  0.23359563735E+04  0.21024184925E+04 0.  0.
        2    1    3    3  502    0 -0.10314415592E+04 -0.17443697480E+03 -0.39389957345E+03  0.11177910459E+04  0.25500000920E-02 0. -1.
       -2    1    3    3    0  502  0.10314415592E+04  0.17443697480E+03 -0.62420094279E+03  0.12181653276E+04  0.25500000920E-02 0.  1.
</event>
<event>
 5   0  0.6917078E-06  0.2101535E+04  0.7818609E-02  0.8560568E-01
        1   -1    0    0  501    0  0.00000000000E+00  0.00000000000E+00  0.18351147839E+04  0.18351147839E+04  0.50400001928E-02 0. -1.
       -1   -1    0    0    0  501  0.00000000000E+00  0.00000000000E+00 -0.60165820661E+03  0.60165820663E+03  0.50400001928E-02 0.  1.
    10030    2    1    2    0    0  0.00000000000E+00  0.00000000000E+00  0.12334565773E+04  0.24367729905E+04  0.21015345534E+04 0.  0.
        5    1    3    3  502    0 -0.65821771169E+03 -0.56915834375E+03 -0.66206816388E+02  0.87269536998E+03  0.46999998093E+01 0.  1.
       -5    1    3    3    0  502  0.65821771169E+03  0.56915834375E+03  0.12996633936E+04  0.15640776205E+04  0.46999998093E+01 0. -1.
</event>
<event>
 5   0  0.6917078E-06  0.2099775E+04  0.7818609E-02  0.8561343E-01
        1   -1    0    0  501    0  0.00000000000E+00  0.00000000000E+00  0.83352525801E+03  0.83352525802E+03  0.50400001928E-02 0.  1.
       -1   -1    0    0    0  501  0.00000000000E+00  0.00000000000E+00 -0.13224113606E+04  0.13224113606E+04  0.50400001928E-02 0. -1.
    10030    2    1    2    0    0  0.00000000000E+00  0.00000000000E+00 -0.48888610260E+03  0.21559366186E+04  0.20997745313E+04 0.  0.
        5    1    3    3  502    0  0.42777664245E+03  0.29573804532E+03  0.69197435230E+03  0.86562372976E+03  0.46999998093E+01 0.  1.
       -5    1    3    3    0  502 -0.42777664245E+03 -0.29573804532E+03 -0.11808604549E+04  0.12903128889E+04  0.46999998093E+01 0. -1.
</event>
<event>
 5   0  0.6599245E-06  0.2101520E+04  0.7818609E-02  0.8560574E-01
       -1   -1    0    0    0  501  0.00000000000E+00  0.00000000000E+00  0.11877864445E+04  0.11877864445E+04  0.50400001928E-02 0. -1.
        1   -1    0    0  501    0  0.00000000000E+00  0.00000000000E+00 -0.92954146641E+03  0.92954146642E+03  0.50400001928E-02 0.  1.
    10030    2    1    2    0    0  0.00000000000E+00  0.00000000000E+00  0.25824497811E+03  0.21173279109E+04  0.21015201673E+04 0.  0.
        2    1    3    3  502    0 -0.63080812557E+03 -0.38640475413E+03 -0.62272745268E+03  0.96696277365E+03  0.25500000920E-02 0.  1.
       -2    1    3    3    0  502  0.63080812557E+03  0.38640475413E+03  0.88097243078E+03  0.11503651373E+04  0.25500000920E-02 0. -1.
</event>
<event>
 5   0  0.6283269E-06  0.2097354E+04  0.7818609E-02  0.8562410E-01
        1   -1    0    0  501    0  0.00000000000E+00  0.00000000000E+00  0.84743509307E+03  0.84743509309E+03  0.50400001928E-02 0.  1.
       -1   -1    0    0    0  501  0.00000000000E+00  0.00000000000E+00 -0.12977084149E+04  0.12977084149E+04  0.50400001928E-02 0. -1.
    10030    2    1    2    0    0  0.00000000000E+00  0.00000000000E+00 -0.45027332185E+03  0.21451435080E+04  0.20973541917E+04 0.  0.
        1    1    3    3  502    0 -0.21867055995E+03 -0.97727527025E+02  0.81908486904E+03  0.85338590687E+03  0.50400001928E-02 0.  1.
       -1    1    3    3    0  502  0.21867055995E+03  0.97727527025E+02 -0.12693581909E+04  0.12917576012E+04  0.50400001928E-02 0. -1.
</event>
<event>
 5   0  0.1398469E-05  0.2106399E+04  0.7818609E-02  0.8558430E-01
        2   -1    0    0  501    0  0.00000000000E+00  0.00000000000E+00  0.14233546243E+04  0.14233546243E+04  0.25500000920E-02 0. -1.
       -2   -1    0    0    0  501  0.00000000000E+00  0.00000000000E+00 -0.77930640604E+03  0.77930640604E+03  0.25500000920E-02 0.  1.
    10030    2    1    2    0    0  0.00000000000E+00  0.00000000000E+00  0.64404821824E+03  0.22026610303E+04  0.21063991804E+04 0.  0.
        2    1    3    3  502    0  0.75914815723E+03 -0.77873387689E+02 -0.43699772688E+03  0.87939593042E+03  0.25500000920E-02 0.  1.
       -2    1    3    3    0  502 -0.75914815723E+03  0.77873387689E+02  0.10810459451E+04  0.13232650999E+04  0.25500000920E-02 0. -1.
</event>
<event>
 5   0  0.6283269E-06  0.2101854E+04  0.7818609E-02  0.8560427E-01
        1   -1    0    0  501    0  0.00000000000E+00  0.00000000000E+00  0.78535747391E+03  0.78535747393E+03  0.50400001928E-02 0. -1.
       -1   -1    0    0    0  501  0.00000000000E+00  0.00000000000E+00 -0.14062993980E+04  0.14062993980E+04  0.50400001928E-02 0.  1.
    10030    2    1    2    0    0  0.00000000000E+00  0.00000000000E+00 -0.62094192407E+03  0.21916568719E+04  0.21018541746E+04 0.  0.
        1    1    3    3  502    0 -0.55345406636E+03 -0.40945379987E+03  0.51748452560E+03  0.86125144532E+03  0.50400001928E-02 0. -1.
       -1    1    3    3    0  502  0.55345406636E+03  0.40945379987E+03 -0.11384264497E+04  0.13304054266E+04  0.50400001928E-02 0.  1.
</event>
<event>
 5   0  0.1390735E-05  0.2089503E+04  0.7818609E-02  0.8565882E-01
       -2   -1    0    0    0  501  0.00000000000E+00  0.00000000000E+00  0.50934154594E+03  0.50934154594E+03  0.25500000920E-02 0.  1.
        2   -1    0    0  501    0  0.00000000000E+00  0.00000000000E+00 -0.21429731163E+04  0.21429731163E+04  0.25500000920E-02 0. -1.
    10030    2    1    2    0    0  0.00000000000E+00  0.00000000000E+00 -0.16336315704E+04  0.26523146623E+04  0.20895025628E+04 0.  0.
        5    1    3    3  502    0 -0.45014749463E+03  0.18241832954E+03 -0.19909315272E+04  0.20493266333E+04  0.46999998093E+01 0. -1.
       -5    1    3    3    0  502  0.45014749463E+03 -0.18241832954E+03  0.35729995686E+03  0.60298802894E+03  0.46999998093E+01 0.  1.
</event>
<event>
 5   0  0.6589193E-06  0.2105630E+04  0.7818609E-02  0.8558767E-01
       -1   -1    0    0    0  501  0.00000000000E+00  0.00000000000E+00  0.52727542947E+03  0.52727542950E+03  0.50400001928E-02 0. -1.
        1   -1    0    0  501    0  0.00000000000E+00  0.00000000000E+00 -0.21021636224E+04  0.21021636224E+04  0.50400001928E-02 0.  1.
    10030    2    1    2    0    0  0.00000000000E+00  0.00000000000E+00 -0.15748881929E+04  0.26294390519E+04  0.21056298125E+04 0.  0.
        3    1    3    3  502    0 -0.26544741595E+03  0.77274146555E+02 -0.20560242268E+04  0.20745286828E+04  0.10100000352E+00 0.  1.
       -3    1    3    3    0  502  0.26544741595E+03 -0.77274146555E+02  0.48113603391E+03  0.55491036906E+03  0.10100000352E+00 0. -1.
</event>
<event>
 5   0  0.6917078E-06  0.2102097E+04  0.7818609E-02  0.8560320E-01
        1   -1    0    0  501    0  0.00000000000E+00  0.00000000000E+00  0.18998285953E+04  0.18998285953E+04  0.50400001928E-02 0.  1.
       -1   -1    0    0    0  501  0.00000000000E+00  0.00000000000E+00 -0.58147514936E+03  0.58147514938E+03  0.50400001928E-02 0. -1.
    10030    2    1    2    0    0  0.00000000000E+00  0.00000000000E+00  0.13183534460E+04  0.24813037447E+04  0.21020971588E+04 0.  0.
        5    1    3    3  502    0 -0.73598978928E+02 -0.10461308133E+04  0.74158937325E+03  0.12844389346E+04  0.46999998093E+01 0.  1.
       -5    1    3    3    0  502  0.73598978928E+02  0.10461308133E+04  0.57676407272E+03  0.11968648101E+04  0.46999998093E+01 0. -1.
</event>
<event>
 5   0  0.6917078E-06  0.2096539E+04  0.7818609E-02  0.8562769E-01
       -1   -1    0    0    0  501  0.00000000000E+00  0.00000000000E+00  0.48954302972E+03  0.48954302975E+03  0.50400001928E-02 0. -1.
        1   -1    0    0  501    0  0.00000000000E+00  0.00000000000E+00 -0.22446836928E+04  0.22446836928E+04  0.50400001928E-02 0.  1.
    10030    2    1    2    0    0  0.00000000000E+00  0.00000000000E+00 -0.17551406631E+04  0.27342267226E+04  0.20965392968E+04 0.  0.
        5    1    3    3  502    0  0.46282070171E+03 -0.81407676555E+03 -0.26319629598E+03  0.97273756089E+03  0.46999998093E+01 0. -1.
       -5    1    3    3    0  502 -0.46282070171E+03  0.81407676555E+03 -0.14919443671E+04  0.17614891617E+04  0.46999998093E+01 0.  1.
</event>
<event>
 5   0  0.1398469E-05  0.2111515E+04  0.7818609E-02  0.8556188E-01
        2   -1    0    0  501    0  0.00000000000E+00  0.00000000000E+00  0.76591578598E+03  0.76591578599E+03  0.25500000920E-02 0.  1.
       -2   -1    0    0    0  501  0.00000000000E+00  0.00000000000E+00 -0.14552829812E+04  0.14552829812E+04  0.25500000920E-02 0. -1.
    10030    2    1    2    0    0  0.00000000000E+00  0.00000000000E+00 -0.68936719520E+03  0.22211987672E+04  0.21115152932E+04 0.  0.
        2    1    3    3  502    0 -0.95105867537E+02  0.72461542623E+03 -0.11461745628E+04  0.13593486566E+04  0.25500000920E-02 0. -1.
       -2    1    3    3    0  502  0.95105867537E+02 -0.72461542623E+03  0.45680736756E+03  0.86185011054E+03  0.25500000920E-02 0.  1.
</event>
<event>
 5   0  0.6917078E-06  0.2096611E+04  0.7818609E-02  0.8562738E-01
       -1   -1    0    0    0  501  0.00000000000E+00  0.00000000000E+00  0.18269125064E+04  0.18269125064E+04  0.50400001928E-02 0. -1.
        1   -1    0    0  501    0  0.00000000000E+00  0.00000000000E+00 -0.60153068536E+03  0.60153068538E+03  0.50400001928E-02 0.  1.
    10030    2    1    2    0    0  0.00000000000E+00  0.00000000000E+00  0.12253818210E+04  0.24284431918E+04  0.20966105333E+04 0.  0.
        5    1    3    3  502    0  0.49392396875E+03  0.11714088117E+03 -0.44966460367E+03  0.67816164647E+03  0.46999998093E+01 0.  1.
       -5    1    3    3    0  502 -0.49392396875E+03 -0.11714088117E+03  0.16750464247E+04  0.17502815453E+04  0.46999998093E+01 0. -1.
</event>
<event>
 5   0  0.6283269E-06  0.2076222E+04  0.7818609E-02  0.8571791E-01
       -1   -1    0    0    0  501  0.00000000000E+00  0.00000000000E+00  0.80553479305E+03  0.80553479306E+03  0.50400001928E-02 0. -1.
        1   -1    0    0  501    0  0.00000000000E+00  0.00000000000E+00 -0.13378370755E+04  0.13378370755E+04  0.50400001928E-02 0.  1.
    10030    2    1    2    0    0  0.00000000000E+00  0.00000000000E+00 -0.53230228246E+03  0.21433718686E+04  0.20762218685E+04 0.  0.
        1    1    3    3  502    0  0.97915849857E+03 -0.25698843211E+03 -0.50354476275E+03  0.11306421838E+04  0.50400001928E-02 0.  1.
       -1    1    3    3    0  502 -0.97915849857E+03  0.25698843211E+03 -0.28757519709E+02  0.10127296848E+04  0.50400001928E-02 0. -1.
</event>
<event>
 5   0  0.1398469E-05  0.2099788E+04  0.7818609E-02  0.8561337E-01
        2   -1    0    0  501    0  0.00000000000E+00  0.00000000000E+00  0.14110197605E+04  0.14110197605E+04  0.25500000920E-02 0.  1.
       -2   -1    0    0    0  501  0.00000000000E+00  0.00000000000E+00 -0.78119183585E+03  0.78119183586E+03  0.25500000920E-02 0. -1.
    10030    2    1    2    0    0  0.00000000000E+00  0.00000000000E+00  0.62982792468E+03  0.21922115964E+04  0.20997877199E+04 0.  0.
        2    1    3    3  502    0 -0.43693881686E+02 -0.54446413800E+03 -0.62117111710E+03  0.82716619224E+03  0.25500000920E-02 0. -1.
       -2    1    3    3    0  502  0.43693881686E+02  0.54446413800E+03  0.12509990418E+04  0.13650454042E+04  0.25500000920E-02 0.  1.
</event>
<event>
 5   0  0.6599245E-06  0.2107340E+04  0.7818609E-02  0.8558017E-01
        1   -1    0    0  501    0  0.00000000000E+00  0.00000000000E+00  0.14939678198E+04  0.14939678198E+04  0.50400001928E-02 0.  1.
       -1   -1    0    0    0  501  0.00000000000E+00  0.00000000000E+00 -0.74313533630E+03  0.74313533632E+03  0.50400001928E-02 0. -1.
    10030    2    1    2    0    0  0.00000000000E+00  0.00000000000E+00  0.75083248349E+03  0.22371031561E+04  0.21073398190E+04 0.  0.
        2    1    3    3  502    0 -0.56070371928E+03  0.94423319292E+02 -0.56629029434E+03  0.80248932797E+03  0.25500000920E-02 0. -1.
       -2    1    3    3    0  502  0.56070371928E+03 -0.94423319292E+02  0.13171227778E+04  0.14346138281E+04  0.25500000920E-02 0.  1.
</event>
<event>
 5   0  0.6599245E-06  0.2099566E+04  0.7818609E-02  0.8561434E-01
       -1   -1    0    0    0  501  0.00000000000E+00  0.00000000000E+00  0.53764159148E+03  0.53764159150E+03  0.50400001928E-02 0. -1.
        1   -1    0    0  501    0  0.00000000000E+00  0.00000000000E+00 -0.20497759945E+04  0.20497759945E+04  0.50400001928E-02 0.  1.
    10030    2    1    2    0    0  0.00000000000E+00  0.00000000000E+00 -0.15121344031E+04  0.25874175860E+04  0.20995664580E+04 0.  0.
        2    1    3    3  502    0 -0.67309554574E+02  0.68411924230E+03 -0.17338290365E+04  0.18651307840E+04  0.25500000920E-02 0.  1.
       -2    1    3    3    0  502  0.67309554574E+02 -0.68411924230E+03  0.22169463344E+03  0.72228680199E+03  0.25500000920E-02 0. -1.
</event>
<event>
 5   0  0.6238363E-06  0.2094182E+04  0.7818609E-02  0.8563811E-01
       -1   -1    0    0    0  501  0.00000000000E+00  0.00000000000E+00  0.94861478137E+03  0.94861478139E+03  0.50400001928E-02 0. -1.
        1   -1    0    0  501    0  0.00000000000E+00  0.00000000000E+00 -0.11557901019E+04  0.11557901020E+04  0.50400001928E-02 0.  1.
    10030    2    1    2    0    0  0.00000000000E+00  0.00000000000E+00 -0.20717532058E+03  0.21044048833E+04  0.20941820120E+04 0.  0.
        4    1    3    3  502    0  0.25314503562E+03  0.15584897119E+03 -0.11124940749E+04  0.11515276768E+04  0.12699999809E+01 0.  1.
       -4    1    3    3    0  502 -0.25314503562E+03 -0.15584897119E+03  0.90531875433E+03  0.95287720653E+03  0.12699999809E+01 0. -1.
</event>
<event>
 5   0  0.6238363E-06  0.2092485E+04  0.7818609E-02  0.8564561E-01
        1   -1    0    0  501    0  0.00000000000E+00  0.00000000000E+00  0.14881894830E+04  0.14881894830E+04  0.50400001928E-02 0. -1.
       -1   -1    0    0    0  501  0.00000000000E+00  0.00000000000E+00 -0.73554062102E+03  0.73554062104E+03  0.50400001928E-02 0.  1.
    10030    2    1    2    0    0  0.00000000000E+00  0.00000000000E+00  0.75264886193E+03  0.22237301040E+04  0.20924854279E+04 0.  0.
        4    1    3    3  502    0  0.86450761998E+03  0.20935445170E+03  0.96170913704E+03  0.13099957208E+04  0.12699999809E+01 0. -1.
       -4    1    3    3    0  502 -0.86450761998E+03 -0.20935445170E+03 -0.20906027511E+03  0.91373438316E+03  0.12699999809E+01 0.  1.
</event>
<event>
 5   0  0.6917078E-06  0.2093746E+04  0.7818609E-02  0.8564003E-01
       -1   -1    0    0    0  501  0.00000000000E+00  0.00000000000E+00  0.97613761259E+03  0.97613761260E+03  0.50400001928E-02 0.  1.
        1   -1    0    0  501    0  0.00000000000E+00  0.00000000000E+00 -0.11227338805E+04  0.11227338805E+04  0.50400001928E-02 0. -1.
    10030    2    1    2    0    0  0.00000000000E+00  0.00000000000E+00 -0.14659626789E+03  0.20988714931E+04  0.20937457054E+04 0.  0.
        5    1    3    3  502    0  0.68610856948E+03 -0.34931464841E+03 -0.78436887076E+03  0.10991006815E+04  0.46999998093E+01 0. -1.
       -5    1    3    3    0  502 -0.68610856948E+03  0.34931464841E+03  0.63777260286E+03  0.99977081157E+03  0.46999998093E+01 0.  1.
</event>
<event>
 5   0  0.6589193E-06  0.2095042E+04  0.7818609E-02  0.8563430E-01
       -1   -1    0    0    0  501  0.00000000000E+00  0.00000000000E+00  0.97067538119E+03  0.97067538120E+03  0.50400001928E-02 0.  1.
        1   -1    0    0  501    0  0.00000000000E+00  0.00000000000E+00 -0.11304507848E+04  0.11304507848E+04  0.50400001928E-02 0. -1.
    10030    2    1    2    0    0  0.00000000000E+00  0.00000000000E+00 -0.15977540358E+03  0.21011261660E+04  0.20950424783E+04 0.  0.
        3    1    3    3  502    0  0.45754109977E+03 -0.32124370658E+03  0.80855116639E+03  0.98300375170E+03  0.10100000352E+00 0.  1.
       -3    1    3    3    0  502 -0.45754109977E+03  0.32124370658E+03 -0.96832656997E+03  0.11181224143E+04  0.10100000352E+00 0. -1.
</event>
<event>
 5   0  0.1390735E-05  0.2105164E+04  0.7818609E-02  0.8558972E-01
       -2   -1    0    0    0  501  0.00000000000E+00  0.00000000000E+00  0.51925143427E+03  0.51925143427E+03  0.25500000920E-02 0. -1.
        2   -1    0    0  501    0  0.00000000000E+00  0.00000000000E+00 -0.21337047005E+04  0.21337047005E+04  0.25500000920E-02 0.  1.
    10030    2    1    2    0    0  0.00000000000E+00  0.00000000000E+00 -0.16144532663E+04  0.26529561348E+04  0.21051643414E+04 0.  0.
        5    1    3    3  502    0 -0.42424606589E+03 -0.87376862643E+03 -0.13182750629E+04  0.16374759749E+04  0.46999998093E+01 0.  1.
       -5    1    3    3    0  502  0.42424606589E+03  0.87376862643E+03 -0.29617820332E+03  0.10154801599E+04  0.46999998093E+01 0. -1.
</event>
<event>
 5   0  0.6917078E-06  0.2113671E+04  0.7818609E-02  0.8555245E-01
       -1   -1    0    0    0  501  0.00000000000E+00  0.00000000000E+00  0.11903338680E+04  0.11903338680E+04  0.50400001928E-02 0.  1.
        1   -1    0    0  501    0  0.00000000000E+00  0.00000000000E+00 -0.93830881390E+03  0.93830881391E+03  0.50400001928E-02 0. -1.
    10030    2    1    2    0    0  0.00000000000E+00  0.00000000000E+00  0.25202505412E+03  0.21286426819E+04  0.21136705135E+04 0.  0.
        5    1    3    3  502    0  0.10557566084E+04  0.31640549878E+01  0.78278017753E+02  0.10586697150E+04  0.46999998093E+01 0.  1.
       -5    1    3    3    0  502 -0.10557566084E+04 -0.31640549878E+01  0.17374703636E+03  0.10699729670E+04  0.46999998093E+01 0. -1.
</event>
<event>
 5   0  0.1395356E-05  0.2105955E+04  0.7818609E-02  0.8558625E-01
       -2   -1    0    0    0  501  0.00000000000E+00  0.00000000000E+00  0.65552300987E+03  0.65552300988E+03  0.25500000920E-02 0. -1.
        2   -1    0    0  501    0  0.00000000000E+00  0.00000000000E+00 -0.16914156997E+04  0.16914156997E+04  0.25500000920E-02 0.  1.
    10030    2    1    2    0    0  0.00000000000E+00  0.00000000000E+00 -0.10358926898E+04  0.23469387096E+04  0.21059552801E+04 0.  0.
        1    1    3    3  502    0 -0.52670285579E+03  0.87934854226E+03 -0.24934304686E+03  0.10549131301E+04  0.50400001928E-02 0. -1.
       -1    1    3    3    0  502  0.52670285579E+03 -0.87934854226E+03 -0.78654964294E+03  0.12920255794E+04  0.50400001928E-02 0.  1.
</event>
<event>
 5   0  0.6589193E-06  0.2099809E+04  0.7818609E-02  0.8561327E-01
       -1   -1    0    0    0  501  0.00000000000E+00  0.00000000000E+00  0.12631756612E+04  0.12631756612E+04  0.50400001928E-02 0.  1.
        1   -1    0    0  501    0  0.00000000000E+00  0.00000000000E+00 -0.87264152196E+03  0.87264152197E+03  0.50400001928E-02 0. -1.
    10030    2    1    2    0    0  0.00000000000E+00  0.00000000000E+00  0.39053413926E+03  0.21358171832E+04  0.20998090690E+04 0.  0.
        3    1    3    3  502    0 -0.65305850675E+03  0.17323671518E+03 -0.62213239355E+03  0.91844711227E+03  0.10100000352E+00 0. -1.
       -3    1    3    3    0  502  0.65305850675E+03 -0.17323671518E+03  0.10126665328E+04  0.12173700709E+04  0.10100000352E+00 0.  1.
</event>
<event>
 5   0  0.6599245E-06  0.2101739E+04  0.7818609E-02  0.8560478E-01
        1   -1    0    0  501    0  0.00000000000E+00  0.00000000000E+00  0.64243576928E+03  0.64243576930E+03  0.50400001928E-02 0.  1.
       -1   -1    0    0    0  501  0.00000000000E+00  0.00000000000E+00 -0.17189689625E+04  0.17189689625E+04  0.50400001928E-02 0. -1.
    10030    2    1    2    0    0  0.00000000000E+00  0.00000000000E+00 -0.10765331932E+04  0.23614047318E+04  0.21017394204E+04 0.  0.
        2    1    3    3  502    0  0.73071231254E+03 -0.54664591190E+03 -0.11237686011E+04  0.14476249878E+04  0.25500000920E-02 0.  1.
       -2    1    3    3    0  502 -0.73071231254E+03  0.54664591190E+03  0.47235407854E+02  0.91377974395E+03  0.25500000920E-02 0. -1.
</event>
<event>
 5   0  0.5009125E-06  0.2099166E+04  0.7818609E-02  0.8561611E-01
        3   -1    0    0  501    0  0.00000000000E+00  0.00000000000E+00  0.68545711684E+03  0.68545712428E+03  0.10100000352E+00 0. -1.
       -3   -1    0    0    0  501  0.00000000000E+00  0.00000000000E+00 -0.16071384083E+04  0.16071384115E+04  0.10100000352E+00 0.  1.
    10030    2    1    2    0    0  0.00000000000E+00  0.00000000000E+00 -0.92168129144E+03  0.22925955357E+04  0.20991659981E+04 0.  0.
        5    1    3    3  502    0  0.82114214403E+03 -0.49215568143E+01  0.25307846232E+03  0.85928426059E+03  0.46999998093E+01 0. -1.
       -5    1    3    3    0  502 -0.82114214403E+03  0.49215568143E+01 -0.11747597538E+04  0.14333112751E+04  0.46999998093E+01 0.  1.
</event>
<event>
 5   0  0.1395356E-05  0.2097911E+04  0.7818609E-02  0.8562164E-01
        2   -1    0    0  501    0  0.00000000000E+00  0.00000000000E+00  0.14274759107E+04  0.14274759107E+04  0.25500000920E-02 0.  1.
       -2   -1    0    0    0  501  0.00000000000E+00  0.00000000000E+00 -0.77080656625E+03  0.77080656626E+03  0.25500000920E-02 0. -1.
    10030    2    1    2    0    0  0.00000000000E+00  0.00000000000E+00  0.65666934442E+03  0.21982824769E+04  0.20979111565E+04 0.  0.
        1    1    3    3  502    0 -0.87060936110E+03 -0.53134698318E+03  0.58504034190E+03  0.11758241696E+04  0.50400001928E-02 0.  1.
       -1    1    3    3    0  502  0.87060936110E+03  0.53134698318E+03  0.71629002519E+02  0.10224583073E+04  0.50400001928E-02 0. -1.
</event>
<event>
 5   0  0.1344501E-05  0.2100274E+04  0.7818609E-02  0.8561123E-01
        2   -1    0    0  501    0  0.00000000000E+00  0.00000000000E+00  0.68643641847E+03  0.68643641847E+03  0.25500000920E-02 0. -1.
       -2   -1    0    0    0  501  0.00000000000E+00  0.00000000000E+00 -0.16065396270E+04  0.16065396270E+04  0.25500000920E-02 0.  1.
    10030    2    1    2    0    0  0.00000000000E+00  0.00000000000E+00 -0.92010320857E+03  0.22929760455E+04  0.21002736086E+04 0.  0.
        3    1    3    3  502    0  0.78979567628E+03 -0.66871300530E+03 -0.65483971845E+03  0.12246507097E+04  0.10100000352E+00 0.  1.
       -3    1    3    3    0  502 -0.78979567628E+03  0.66871300530E+03 -0.26526349012E+03  0.10683253358E+04  0.10100000352E+00 0. -1.
</event>
<event>
 5   0  0.1395356E-05  0.2096754E+04  0.7818609E-02  0.8562675E-01
       -2   -1    0    0    0  501  0.00000000000E+00  0.00000000000E+00  0.63524993169E+03  0.63524993169E+03  0.25500000920E-02 0.  1.
        2   -1    0    0  501    0  0.00000000000E+00  0.00000000000E+00 -0.17301759535E+04  0.17301759535E+04  0.25500000920E-02 0. -1.
    10030    2    1    2    0    0  0.00000000000E+00  0.00000000000E+00 -0.10949260218E+04  0.23654258852E+04  0.20967538304E+04 0.  0.
        1    1    3    3  502    0  0.46547920963E+02 -0.89247462656E+03  0.70871921750E+02  0.89649344522E+03  0.50400001928E-02 0.  1.
       -1    1    3    3    0  502 -0.46547920963E+02  0.89247462656E+03 -0.11657979436E+04  0.14689324400E+04  0.50400001928E-02 0. -1.
</event>
<event>
 5   0  0.1344501E-05  0.2102739E+04  0.7818609E-02  0.8560038E-01
        2   -1    0    0  501    0  0.00000000000E+00  0.00000000000E+00  0.40646979078E+03  0.40646979079E+03  0.25500000920E-02 0.  1.
       -2   -1    0    0    0  501  0.00000000000E+00  0.00000000000E+00 -0.27194585753E+04  0.27194585753E+04  0.25500000920E-02 0. -1.
    10030    2    1    2    0    0  0.00000000000E+00  0.00000000000E+00 -0.23129887846E+04  0.31259283661E+04  0.21027389359E+04 0.  0.
        3    1    3    3  502    0  0.86951123906E+02 -0.58669264408E+03 -0.24470202202E+04  0.25178714671E+04  0.10100000352E+00 0. -1.
       -3    1    3    3    0  502 -0.86951123906E+02  0.58669264408E+03  0.13403143561E+03  0.60805689906E+03  0.10100000352E+00 0.  1.
</event>
<event>
 5   0  0.1398469E-05  0.2100317E+04  0.7818609E-02  0.8561104E-01
        2   -1    0    0  501    0  0.00000000000E+00  0.00000000000E+00  0.19630735194E+04  0.19630735194E+04  0.25500000920E-02 0. -1.
       -2   -1    0    0    0  501  0.00000000000E+00  0.00000000000E+00 -0.56178891726E+03  0.56178891727E+03  0.25500000920E-02 0.  1.
    10030    2    1    2    0    0  0.00000000000E+00  0.00000000000E+00  0.14012846021E+04  0.25248624366E+04  0.21003170684E+04 0.  0.
        2    1    3    3  502    0 -0.86082310631E+03 -0.60047043094E+03  0.65811005870E+03  0.12388260605E+04  0.25500000920E-02 0. -1.
       -2    1    3    3    0  502  0.86082310631E+03  0.60047043094E+03  0.74317454341E+03  0.12860363761E+04  0.25500000920E-02 0.  1.
</event>
<event>
 5   0  0.1395356E-05  0.2095564E+04  0.7818609E-02  0.8563200E-01
       -2   -1    0    0    0  501  0.00000000000E+00  0.00000000000E+00  0.97885632760E+03  0.97885632761E+03  0.25500000920E-02 0.  1.
        2   -1    0    0  501    0  0.00000000000E+00  0.00000000000E+00 -0.11215610760E+04  0.11215610760E+04  0.25500000920E-02 0. -1.
    10030    2    1    2    0    0  0.00000000000E+00  0.00000000000E+00 -0.14270474840E+03  0.21004174036E+04  0.20955640349E+04 0.  0.
        1    1    3    3  502    0 -0.14461233761E+03  0.92996293297E+03  0.39026107908E+03  0.10188461585E+04  0.50400001928E-02 0.  1.
       -1    1    3    3    0  502  0.14461233761E+03 -0.92996293297E+03 -0.53296582748E+03  0.10815712451E+04  0.50400001928E-02 0. -1.
</event>
<event>
 5   0  0.6917078E-06  0.2073478E+04  0.7818609E-02  0.8573017E-01
        1   -1    0    0  501    0  0.00000000000E+00  0.00000000000E+00  0.64538355500E+03  0.64538355502E+03  0.50400001928E-02 0.  1.
       -1   -1    0    0    0  501  0.00000000000E+00  0.00000000000E+00 -0.16654100061E+04  0.16654100061E+04  0.50400001928E-02 0. -1.
    10030    2    1    2    0    0  0.00000000000E+00  0.00000000000E+00 -0.10200264511E+04  0.23107935611E+04  0.20734784593E+04 0.  0.
        5    1    3    3  502    0  0.51569682092E+03 -0.14562425330E+03 -0.14990901121E+04  0.15919933695E+04  0.46999998093E+01 0. -1.
       -5    1    3    3    0  502 -0.51569682092E+03  0.14562425330E+03  0.47906366099E+03  0.71880019166E+03  0.46999998093E+01 0.  1.
</event>
<event>
 5   0  0.6917078E-06  0.2097903E+04  0.7818609E-02  0.8562168E-01
       -1   -1    0    0    0  501  0.00000000000E+00  0.00000000000E+00  0.12937509078E+04  0.12937509078E+04  0.50400001928E-02 0.  1.
        1   -1    0    0  501    0  0.00000000000E+00  0.00000000000E+00 -0.85047235500E+03  0.85047235502E+03  0.50400001928E-02 0. -1.
    10030    2    1    2    0    0  0.00000000000E+00  0.00000000000E+00  0.44327855284E+03  0.21442232629E+04  0.20979031259E+04 0.  0.
        5    1    3    3  502    0  0.16692987192E+03  0.89228260353E+03 -0.31555401384E+03  0.96105684137E+03  0.46999998093E+01 0. -1.
       -5    1    3    3    0  502 -0.16692987192E+03 -0.89228260353E+03  0.75883256668E+03  0.11831664215E+04  0.46999998093E+01 0.  1.
</event>
<event>
 5   0  0.1398469E-05  0.2103803E+04  0.7818609E-02  0.8559570E-01
        2   -1    0    0  501    0  0.00000000000E+00  0.00000000000E+00  0.95596207362E+03  0.95596207362E+03  0.25500000920E-02 0.  1.
       -2   -1    0    0    0  501  0.00000000000E+00  0.00000000000E+00 -0.11574698222E+04  0.11574698222E+04  0.25500000920E-02 0. -1.
    10030    2    1    2    0    0  0.00000000000E+00  0.00000000000E+00 -0.20150774862E+03  0.21134318959E+04  0.21038034618E+04 0.  0.
        2    1    3    3  502    0 -0.21367544675E+02 -0.27512668292E+03  0.91895132626E+03  0.95949090859E+03  0.25500000920E-02 0.  1.
       -2    1    3    3    0  502  0.21367544675E+02  0.27512668292E+03 -0.11204590749E+04  0.11539409873E+04  0.25500000920E-02 0. -1.
</event>
<event>
 5   0  0.6589193E-06  0.2093156E+04  0.7818609E-02  0.8564264E-01
        1   -1    0    0  501    0  0.00000000000E+00  0.00000000000E+00  0.15861283117E+04  0.15861283117E+04  0.50400001928E-02 0.  1.
       -1   -1    0    0    0  501  0.00000000000E+00  0.00000000000E+00 -0.69056566416E+03  0.69056566418E+03  0.50400001928E-02 0. -1.
    10030    2    1    2    0    0  0.00000000000E+00  0.00000000000E+00  0.89556264752E+03  0.22766939759E+04  0.20931562302E+04 0.  0.
        3    1    3    3  502    0 -0.81167180039E+03  0.65694081972E+03  0.52425560304E+03  0.11684289879E+04  0.10100000352E+00 0.  1.
       -3    1    3    3    0  502  0.81167180039E+03 -0.65694081972E+03  0.37130704448E+03  0.11082649880E+04  0.10100000352E+00 0. -1.
</event>
<event>
 5   0  0.6917078E-06  0.2103437E+04  0.7818609E-02  0.8559731E-01
        1   -1    0    0  501    0  0.00000000000E+00  0.00000000000E+00  0.12450447670E+04  0.12450447670E+04  0.50400001928E-02 0. -1.
       -1   -1    0    0    0  501  0.00000000000E+00  0.00000000000E+00 -0.88841109912E+03  0.88841109913E+03  0.50400001928E-02 0.  1.
    10030    2    1    2    0    0  0.00000000000E+00  0.00000000000E+00  0.35663366789E+03  0.21334558661E+04  0.21034367972E+04 0.  0.
        5    1    3    3  502    0 -0.89461751373E+03  0.41998123452E+03  0.54312302574E+03  0.11277098227E+04  0.46999998093E+01 0.  1.
       -5    1    3    3    0  502  0.89461751373E+03 -0.41998123452E+03 -0.18648935785E+03  0.10057460434E+04  0.46999998093E+01 0. -1.
</event>
<event>
 5   0  0.1390735E-05  0.2104406E+04  0.7818609E-02  0.8559305E-01
        2   -1    0    0  501    0  0.00000000000E+00  0.00000000000E+00  0.20443530051E+04  0.20443530051E+04  0.25500000920E-02 0.  1.
       -2   -1    0    0    0  501  0.00000000000E+00  0.00000000000E+00 -0.54155557967E+03  0.54155557967E+03  0.25500000920E-02 0. -1.
    10030    2    1    2    0    0  0.00000000000E+00  0.00000000000E+00  0.15027974254E+04  0.25859085848E+04  0.21044056422E+04 0.  0.
        5    1    3    3  502    0  0.20316886536E+03  0.10322996834E+04  0.73452944255E+03  0.12831507379E+04  0.46999998093E+01 0.  1.
       -5    1    3    3    0  502 -0.20316886536E+03 -0.10322996834E+04  0.76826798287E+03  0.13027578469E+04  0.46999998093E+01 0. -1.
</event>
<event>
 5   0  0.1344501E-05  0.2098546E+04  0.7818609E-02  0.8561884E-01
       -2   -1    0    0    0  501  0.00000000000E+00  0.00000000000E+00  0.82495718872E+03  0.82495718873E+03  0.25500000920E-02 0.  1.
        2   -1    0    0  501    0  0.00000000000E+00  0.00000000000E+00 -0.13345830481E+04  0.13345830481E+04  0.25500000920E-02 0. -1.
    10030    2    1    2    0    0  0.00000000000E+00  0.00000000000E+00 -0.50962585940E+03  0.21595402368E+04  0.20985460486E+04 0.  0.
        3    1    3    3  502    0  0.44941243250E+03 -0.35887459656E+01 -0.12305214464E+04  0.13100257454E+04  0.10100000352E+00 0. -1.
       -3    1    3    3    0  502 -0.44941243250E+03  0.35887459656E+01  0.72089558697E+03  0.84951449140E+03  0.10100000352E+00 0.  1.
</event>
<event>
 5   0  0.6917078E-06  0.2103437E+04  0.7818609E-02  0.8559731E-01
        1   -1    0    0  501    0  0.00000000000E+00  0.00000000000E+00  0.13826827665E+04  0.13826827665E+04  0.50400001928E-02 0. -1.
       -1   -1    0    0    0  501  0.00000000000E+00  0.00000000000E+00 -0.79997499763E+03  0.79997499764E+03  0.50400001928E-02 0.  1.
    10030    2    1    2    0    0  0.00000000000E+00  0.00000000000E+00  0.58270776885E+03  0.21826577641E+04  0.21034368475E+04 0.  0.
        5    1    3    3  502    0  0.97172291170E+03 -0.32487338949E+03  0.53756963296E+03  0.11570615094E+04  0.46999998093E+01 0. -1.
       -5    1    3    3    0  502 -0.97172291170E+03  0.32487338949E+03  0.45138135883E+02  0.10255962547E+04  0.46999998093E+01 0.  1.
</event>
<event>
 5   0  0.1398469E-05  0.2143776E+04  0.7818609E-02  0.8542201E-01
       -2   -1    0    0    0  501  0.00000000000E+00  0.00000000000E+00  0.10877251558E+04  0.10877251558E+04  0.25500000920E-02 0.  1.
        2   -1    0    0  501    0  0.00000000000E+00  0.00000000000E+00 -0.10562816309E+04  0.10562816309E+04  0.25500000920E-02 0. -1.
    10030    2    1    2    0    0  0.00000000000E+00  0.00000000000E+00  0.31443524958E+02  0.21440067867E+04  0.21437762025E+04 0.  0.
        2    1    3    3  502    0  0.66454783998E+03 -0.52909451917E+00  0.85683540322E+03  0.10843389783E+04  0.25500000920E-02 0.  1.
       -2    1    3    3    0  502 -0.66454783998E+03  0.52909451917E+00 -0.82539187826E+03  0.10596678085E+04  0.25500000920E-02 0. -1.
</event>
<event>
 5   0  0.6283269E-06  0.2091010E+04  0.7818609E-02  0.8565214E-01
       -1   -1    0    0    0  501  0.00000000000E+00  0.00000000000E+00  0.12136005409E+04  0.12136005409E+04  0.50400001928E-02 0. -1.
        1   -1    0    0  501    0  0.00000000000E+00  0.00000000000E+00 -0.90069213729E+03  0.90069213731E+03  0.50400001928E-02 0.  1.
    10030    2    1    2    0    0  0.00000000000E+00  0.00000000000E+00  0.31290840364E+03  0.21142926783E+04  0.20910097705E+04 0.  0.
        1    1    3    3  502    0 -0.46375978161E+03 -0.88186955156E+02 -0.78679439267E+03  0.91754863112E+03  0.50400001928E-02 0.  1.
       -1    1    3    3    0  502  0.46375978161E+03  0.88186955156E+02  0.10997027963E+04  0.11967440471E+04  0.50400001928E-02 0. -1.
</event>
<event>
 5   0  0.5009125E-06  0.2099837E+04  0.7818609E-02  0.8561315E-01
        3   -1    0    0  501    0  0.00000000000E+00  0.00000000000E+00  0.84214237013E+03  0.84214237619E+03  0.10100000352E+00 0.  1.
       -3   -1    0    0    0  501  0.00000000000E+00  0.00000000000E+00 -0.13089580522E+04  0.13089580561E+04  0.10100000352E+00 0. -1.
    10030    2    1    2    0    0  0.00000000000E+00  0.00000000000E+00 -0.46681568208E+03  0.21511004323E+04  0.20998371815E+04 0.  0.
        1    1    3    3  502    0 -0.52911378818E+02 -0.18684680500E+03  0.82358466501E+03  0.84616963017E+03  0.50400001928E-02 0.  1.
       -1    1    3    3    0  502  0.52911378818E+02  0.18684680500E+03 -0.12904003471E+04  0.13049308021E+04  0.50400001928E-02 0. -1.
</event>
<event>
 5   0  0.1344501E-05  0.2101647E+04  0.7818609E-02  0.8560518E-01
       -2   -1    0    0    0  501  0.00000000000E+00  0.00000000000E+00  0.15264147130E+04  0.15264147130E+04  0.25500000920E-02 0.  1.
        2   -1    0    0  501    0  0.00000000000E+00  0.00000000000E+00 -0.72341407578E+03  0.72341407578E+03  0.25500000920E-02 0. -1.
    10030    2    1    2    0    0  0.00000000000E+00  0.00000000000E+00  0.80300063724E+03  0.22498287888E+04  0.21016468675E+04 0.  0.
        3    1    3    3  502    0 -0.22627364997E+03  0.71494374623E+03  0.11895316981E+04  0.14061756633E+04  0.10100000352E+00 0.  1.
       -3    1    3    3    0  502  0.22627364997E+03 -0.71494374623E+03 -0.38653106090E+03  0.84365312551E+03  0.10100000352E+00 0. -1.
</event>
<event>
 5   0  0.6599245E-06  0.2099759E+04  0.7818609E-02  0.8561350E-01
       -1   -1    0    0    0  501  0.00000000000E+00  0.00000000000E+00  0.76017613667E+03  0.76017613669E+03  0.50400001928E-02 0. -1.
        1   -1    0    0  501    0  0.00000000000E+00  0.00000000000E+00 -0.14499890300E+04  0.14499890300E+04  0.50400001928E-02 0.  1.
    10030    2    1    2    0    0  0.00000000000E+00  0.00000000000E+00 -0.68981289332E+03  0.22101651667E+04  0.20997590900E+04 0.  0.
        2    1    3    3  502    0 -0.44484956151E+03 -0.95092438299E+03 -0.33444692694E+03  0.11018180710E+04  0.25500000920E-02 0. -1.
       -2    1    3    3    0  502  0.44484956151E+03  0.95092438299E+03 -0.35536596638E+03  0.11083470957E+04  0.25500000920E-02 0.  1.
</event>
<event>
 5   0  0.6589193E-06  0.2086194E+04  0.7818609E-02  0.8567350E-01
        1   -1    0    0  501    0  0.00000000000E+00  0.00000000000E+00  0.14186058699E+04  0.14186058699E+04  0.50400001928E-02 0. -1.
       -1   -1    0    0    0  501  0.00000000000E+00  0.00000000000E+00 -0.76698613049E+03  0.76698613050E+03  0.50400001928E-02 0.  1.
    10030    2    1    2    0    0  0.00000000000E+00  0.00000000000E+00  0.65161973944E+03  0.21855920004E+04  0.20861936889E+04 0.  0.
        3    1    3    3  502    0 -0.37226175507E+03  0.97291244789E+03  0.38235917563E+03  0.11096558002E+04  0.10100000352E+00 0.  1.
       -3    1    3    3    0  502  0.37226175507E+03 -0.97291244789E+03  0.26926056381E+03  0.10759362002E+04  0.10100000352E+00 0. -1.
</event>
<event>
 5   0  0.6917078E-06  0.2099818E+04  0.7818609E-02  0.8561324E-01
        1   -1    0    0  501    0  0.00000000000E+00  0.00000000000E+00  0.75842927539E+03  0.75842927541E+03  0.50400001928E-02 0.  1.
       -1   -1    0    0    0  501  0.00000000000E+00  0.00000000000E+00 -0.14534100489E+04  0.14534100489E+04  0.50400001928E-02 0. -1.
    10030    2    1    2    0    0  0.00000000000E+00  0.00000000000E+00 -0.69498077353E+03  0.22118393243E+04  0.20998178305E+04 0.  0.
        5    1    3    3  502    0 -0.29095908908E+03  0.72787131404E+03  0.38822095991E+03  0.87475221923E+03  0.46999998093E+01 0.  1.
       -5    1    3    3    0  502  0.29095908908E+03 -0.72787131404E+03 -0.10832017334E+04  0.13370871051E+04  0.46999998093E+01 0. -1.
</event>
<event>
 5   0  0.6599245E-06  0.2100517E+04  0.7818609E-02  0.8561015E-01
       -1   -1    0    0    0  501  0.00000000000E+00  0.00000000000E+00  0.11708894196E+04  0.11708894196E+04  0.50400001928E-02 0.  1.
        1   -1    0    0  501    0  0.00000000000E+00  0.00000000000E+00 -0.94205600459E+03  0.94205600461E+03  0.50400001928E-02 0. -1.
    10030    2    1    2    0    0  0.00000000000E+00  0.00000000000E+00  0.22883341504E+03  0.21129454243E+04  0.21005174682E+04 0.  0.
        2    1    3    3  502    0  0.45254731871E+03 -0.49900697470E+03  0.92493608703E+03  0.11442525078E+04  0.25500000920E-02 0. -1.
       -2    1    3    3    0  502 -0.45254731871E+03  0.49900697470E+03 -0.69610267199E+03  0.96869291647E+03  0.25500000920E-02 0.  1.
</event>
<event>
 5   0  0.1441136E-05  0.2101073E+04  0.7818609E-02  0.8560771E-01
       -2   -1    0    0    0  501  0.00000000000E+00  0.00000000000E+00  0.82932467114E+03  0.82932467114E+03  0.25500000920E-02 0. -1.
        2   -1    0    0  501    0  0.00000000000E+00  0.00000000000E+00 -0.13307540748E+04  0.13307540748E+04  0.25500000920E-02 0.  1.
    10030    2    1    2    0    0  0.00000000000E+00  0.00000000000E+00 -0.50142940365E+03  0.21600787459E+04  0.21010732357E+04 0.  0.
        4    1    3    3  502    0  0.95686044729E+03  0.13340450945E+03 -0.67491209131E+03  0.11785103405E+04  0.12699999809E+01 0.  1.
       -4    1    3    3    0  502 -0.95686044729E+03 -0.13340450945E+03  0.17348268766E+03  0.98156840544E+03  0.12699999809E+01 0. -1.
</event>
<event>
 5   0  0.6238363E-06  0.2098184E+04  0.7818609E-02  0.8562044E-01
       -1   -1    0    0    0  501  0.00000000000E+00  0.00000000000E+00  0.89026543604E+03  0.89026543605E+03  0.50400001928E-02 0. -1.
        1   -1    0    0  501    0  0.00000000000E+00  0.00000000000E+00 -0.12362533373E+04  0.12362533373E+04  0.50400001928E-02 0.  1.
    10030    2    1    2    0    0  0.00000000000E+00  0.00000000000E+00 -0.34598790121E+03  0.21265187733E+04  0.20981836110E+04 0.  0.
        4    1    3    3  502    0 -0.50061629301E+02  0.50838647110E+02  0.88780278136E+03  0.89066611379E+03  0.12699999809E+01 0. -1.
       -4    1    3    3    0  502  0.50061629301E+02 -0.50838647110E+02 -0.12337906826E+04  0.12358526595E+04  0.12699999809E+01 0.  1.
</event>
<event>
 5   0  0.6589193E-06  0.2109210E+04  0.7818609E-02  0.8557197E-01
        1   -1    0    0  501    0  0.00000000000E+00  0.00000000000E+00  0.77114254407E+03  0.77114254409E+03  0.50400001928E-02 0.  1.
       -1   -1    0    0    0  501  0.00000000000E+00  0.00000000000E+00 -0.14422653124E+04  0.14422653124E+04  0.50400001928E-02 0. -1.
    10030    2    1    2    0    0  0.00000000000E+00  0.00000000000E+00 -0.67112276831E+03  0.22134078565E+04  0.21092104136E+04 0.  0.
        3    1    3    3  502    0 -0.35862162131E+03  0.60508126272E+03  0.48904315106E+03  0.85667731122E+03  0.10100000352E+00 0.  1.
       -3    1    3    3    0  502  0.35862162131E+03 -0.60508126272E+03 -0.11601659194E+04  0.13567305453E+04  0.10100000352E+00 0. -1.
</event>
<event>
 5   0  0.5009125E-06  0.2096143E+04  0.7818609E-02  0.8562944E-01
        4   -1    0    0  501    0  0.00000000000E+00  0.00000000000E+00  0.60093382729E+03  0.60093516928E+03  0.12699999809E+01 0.  1.
       -4   -1    0    0    0  501  0.00000000000E+00  0.00000000000E+00 -0.18279086063E+04  0.18279090475E+04  0.12699999809E+01 0. -1.
    10030    2    1    2    0    0  0.00000000000E+00  0.00000000000E+00 -0.12269747790E+04  0.24288442168E+04  0.20961433923E+04 0.  0.
        4    1    3    3  502    0 -0.42075343407E+03  0.33570087258E+03  0.42853937825E+03  0.68802335697E+03  0.12699999809E+01 0.  1.
       -4    1    3    3    0  502  0.42075343407E+03 -0.33570087258E+03 -0.16555141573E+04  0.17408208598E+04  0.12699999809E+01 0. -1.
</event>
<event>
 5   0  0.1395356E-05  0.2101065E+04  0.7818609E-02  0.8560774E-01
       -2   -1    0    0    0  501  0.00000000000E+00  0.00000000000E+00  0.19715261353E+04  0.19715261353E+04  0.25500000920E-02 0.  1.
        2   -1    0    0  501    0  0.00000000000E+00  0.00000000000E+00 -0.55977872038E+03  0.55977872038E+03  0.25500000920E-02 0. -1.
    10030    2    1    2    0    0  0.00000000000E+00  0.00000000000E+00  0.14117474149E+04  0.25313048557E+04  0.21010648512E+04 0.  0.
        1    1    3    3  502    0  0.69601404477E+03  0.92094499326E+02  0.16473718404E+04  0.17907403296E+04  0.50400001928E-02 0.  1.
       -1    1    3    3    0  502 -0.69601404477E+03 -0.92094499326E+02 -0.23562442555E+03  0.74056452607E+03  0.50400001928E-02 0. -1.
</event>
<event>
 5   0  0.1344501E-05  0.2098869E+04  0.7818609E-02  0.8561742E-01
       -2   -1    0    0    0  501  0.00000000000E+00  0.00000000000E+00  0.50394703496E+03  0.50394703496E+03  0.25500000920E-02 0.  1.
        2   -1    0    0  501    0  0.00000000000E+00  0.00000000000E+00 -0.21853747883E+04  0.21853747883E+04  0.25500000920E-02 0. -1.
    10030    2    1    2    0    0  0.00000000000E+00  0.00000000000E+00 -0.16814277534E+04  0.26893218233E+04  0.20988693574E+04 0.  0.
        3    1    3    3  502    0  0.56454088414E+03 -0.81832292785E+03 -0.41007942286E+03  0.10754180431E+04  0.10100000352E+00 0.  1.
       -3    1    3    3    0  502 -0.56454088414E+03  0.81832292785E+03 -0.12713483305E+04  0.16139037802E+04  0.10100000352E+00 0. -1.
</event>
<event>
 5   0  0.1344501E-05  0.2101531E+04  0.7818609E-02  0.8560569E-01
        2   -1    0    0  501    0  0.00000000000E+00  0.00000000000E+00  0.12935439531E+04  0.12935439531E+04  0.25500000920E-02 0. -1.
       -2   -1    0    0    0  501  0.00000000000E+00  0.00000000000E+00 -0.85355288020E+03  0.85355288020E+03  0.25500000920E-02 0.  1.
    10030    2    1    2    0    0  0.00000000000E+00  0.00000000000E+00  0.43999107289E+03  0.21470968333E+04  0.21015310294E+04 0.  0.
        3    1    3    3  502    0  0.75206351973E+03 -0.61755098874E+03  0.62499865123E+03  0.11565431620E+04  0.10100000352E+00 0. -1.
       -3    1    3    3    0  502 -0.75206351973E+03  0.61755098874E+03 -0.18500757834E+03  0.99055367126E+03  0.10100000352E+00 0.  1.
</event>
<event>
 5   0  0.6238363E-06  0.2114190E+04  0.7818609E-02  0.8555018E-01
        1   -1    0    0  501    0  0.00000000000E+00  0.00000000000E+00  0.11115087439E+04  0.11115087439E+04  0.50400001928E-02 0.  1.
       -1   -1    0    0    0  501  0.00000000000E+00  0.00000000000E+00 -0.10053452311E+04  0.10053452311E+04  0.50400001928E-02 0. -1.
    10030    2    1    2    0    0  0.00000000000E+00  0.00000000000E+00  0.10616351277E+03  0.21168539750E+04  0.21141901665E+04 0.  0.
        4    1    3    3  502    0 -0.37107071464E+03  0.37579398947E+03 -0.86378692795E+03  0.10124445998E+04  0.12699999809E+01 0. -1.
       -4    1    3    3    0  502  0.37107071464E+03 -0.37579398947E+03  0.96995044072E+03  0.11044093752E+04  0.12699999809E+01 0.  1.
</event>
<event>
 5   0  0.1395356E-05  0.2105708E+04  0.7818609E-02  0.8558733E-01
       -2   -1    0    0    0  501  0.00000000000E+00  0.00000000000E+00  0.53986479765E+03  0.53986479766E+03  0.25500000920E-02 0.  1.
        2   -1    0    0  501    0  0.00000000000E+00  0.00000000000E+00 -0.20532949330E+04  0.20532949330E+04  0.25500000920E-02 0. -1.
    10030    2    1    2    0    0  0.00000000000E+00  0.00000000000E+00 -0.15134301354E+04  0.25931597307E+04  0.21057081028E+04 0.  0.
        1    1    3    3  502    0  0.16100344170E+03  0.10390775261E+04 -0.82300358869E+03  0.13352674341E+04  0.50400001928E-02 0.  1.
       -1    1    3    3    0  502 -0.16100344170E+03 -0.10390775261E+04 -0.69042654668E+03  0.12578922966E+04  0.50400001928E-02 0. -1.
</event>
<event>
 5   0  0.6599245E-06  0.2097270E+04  0.7818609E-02  0.8562447E-01
       -1   -1    0    0    0  501  0.00000000000E+00  0.00000000000E+00  0.94674516066E+03  0.94674516067E+03  0.50400001928E-02 0. -1.
        1   -1    0    0  501    0  0.00000000000E+00  0.00000000000E+00 -0.11614907502E+04  0.11614907502E+04  0.50400001928E-02 0.  1.
    10030    2    1    2    0    0  0.00000000000E+00  0.00000000000E+00 -0.21474558950E+03  0.21082359108E+04  0.20972703659E+04 0.  0.
        2    1    3    3  502    0  0.73610339734E+01  0.54963803287E+03  0.79031346144E+03  0.96267934398E+03  0.25500000920E-02 0. -1.
       -2    1    3    3    0  502 -0.73610339734E+01 -0.54963803287E+03 -0.10050590509E+04  0.11455565669E+04  0.25500000920E-02 0.  1.
</event>
<event>
 5   0  0.6283269E-06  0.2147349E+04  0.7818609E-02  0.8540668E-01
        1   -1    0    0  501    0  0.00000000000E+00  0.00000000000E+00  0.12601665535E+04  0.12601665535E+04  0.50400001928E-02 0.  1.
       -1   -1    0    0    0  501  0.00000000000E+00  0.00000000000E+00 -0.91478143421E+03  0.91478143422E+03  0.50400001928E-02 0. -1.
    10030    2    1    2    0    0  0.00000000000E+00  0.00000000000E+00  0.34538511924E+03  0.21749479877E+04  0.21473490328E+04 0.  0.
        1    1    3    3  502    0  0.92950498040E+02  0.21152312678E+03 -0.88930407574E+03  0.91882727833E+03  0.50400001928E-02 0. -1.
       -1    1    3    3    0  502 -0.92950498040E+02 -0.21152312678E+03  0.12346891950E+04  0.12561207094E+04  0.50400001928E-02 0.  1.
</event>
<event>
 5   0  0.6917078E-06  0.2098107E+04  0.7818609E-02  0.8562078E-01
       -1   -1    0    0    0  501  0.00000000000E+00  0.00000000000E+00  0.90592560455E+03  0.90592560456E+03  0.50400001928E-02 0.  1.
        1   -1    0    0  501    0  0.00000000000E+00  0.00000000000E+00 -0.12147944328E+04  0.12147944328E+04  0.50400001928E-02 0. -1.
    10030    2    1    2    0    0  0.00000000000E+00  0.00000000000E+00 -0.30886882824E+03  0.21207200374E+04  0.20981071288E+04 0.  0.
        5    1    3    3  502    0 -0.41955800135E+03 -0.79862759133E+03  0.38673900833E+03  0.98154169381E+03  0.46999998093E+01 0. -1.
       -5    1    3    3    0  502  0.41955800135E+03  0.79862759133E+03 -0.69560783657E+03  0.11391783436E+04  0.46999998093E+01 0.  1.
</event>
<event>
 5   0  0.1398469E-05  0.2102788E+04  0.7818609E-02  0.8560016E-01
       -2   -1    0    0    0  501  0.00000000000E+00  0.00000000000E+00  0.88881831121E+03  0.88881831121E+03  0.25500000920E-02 0. -1.
        2   -1    0    0  501    0  0.00000000000E+00  0.00000000000E+00 -0.12437071675E+04  0.12437071675E+04  0.25500000920E-02 0.  1.
    10030    2    1    2    0    0  0.00000000000E+00  0.00000000000E+00 -0.35488885630E+03  0.21325254787E+04  0.21027883434E+04 0.  0.
        2    1    3    3  502    0  0.10092443890E+04  0.25782023913E+03 -0.32223671164E+03  0.10903586615E+04  0.25500000920E-02 0.  1.
       -2    1    3    3    0  502 -0.10092443890E+04 -0.25782023913E+03 -0.32652144652E+02  0.10421668172E+04  0.25500000920E-02 0. -1.
</event>
<event>
 5   0  0.1395356E-05  0.2101317E+04  0.7818609E-02  0.8560664E-01
       -2   -1    0    0    0  501  0.00000000000E+00  0.00000000000E+00  0.11723306359E+04  0.11723306359E+04  0.25500000920E-02 0. -1.
        2   -1    0    0  501    0  0.00000000000E+00  0.00000000000E+00 -0.94161414258E+03  0.94161414259E+03  0.25500000920E-02 0.  1.
    10030    2    1    2    0    0  0.00000000000E+00  0.00000000000E+00  0.23071649330E+03  0.21139447785E+04  0.21013168315E+04 0.  0.
        1    1    3    3  502    0  0.10296071817E+04 -0.20834762682E+03  0.13505714216E+03  0.10591223319E+04  0.50400001928E-02 0.  1.
       -1    1    3    3    0  502 -0.10296071817E+04  0.20834762682E+03  0.95659351139E+02  0.10548224466E+04  0.50400001928E-02 0. -1.
</event>
<event>
 5   0  0.1344501E-05  0.2099643E+04  0.7818609E-02  0.8561400E-01
       -2   -1    0    0    0  501  0.00000000000E+00  0.00000000000E+00  0.70012954365E+03  0.70012954366E+03  0.25500000920E-02 0. -1.
        2   -1    0    0  501    0  0.00000000000E+00  0.00000000000E+00 -0.15741738039E+04  0.15741738039E+04  0.25500000920E-02 0.  1.
    10030    2    1    2    0    0  0.00000000000E+00  0.00000000000E+00 -0.87404426023E+03  0.22743033475E+04  0.20996433859E+04 0.  0.
        3    1    3    3  502    0 -0.40038311430E+03 -0.42958808612E+02 -0.14871946568E+04  0.15407465901E+04  0.10100000352E+00 0.  1.
       -3    1    3    3    0  502  0.40038311430E+03  0.42958808612E+02  0.61315039655E+03  0.73355675748E+03  0.10100000352E+00 0. -1.
</event>
<event>
 5   0  0.5009125E-06  0.2099260E+04  0.7818609E-02  0.8561569E-01
        3   -1    0    0  501    0  0.00000000000E+00  0.00000000000E+00  0.62110650618E+03  0.62110651440E+03  0.10100000352E+00 0.  1.
       -3   -1    0    0    0  501  0.00000000000E+00  0.00000000000E+00 -0.17738074829E+04  0.17738074858E+04  0.10100000352E+00 0. -1.
    10030    2    1    2    0    0  0.00000000000E+00  0.00000000000E+00 -0.11527009767E+04  0.23949140002E+04  0.20992602331E+04 0.  0.
        4    1    3    3  502    0  0.24969590990E+03  0.87445776501E+03  0.21580235632E+02  0.90966573514E+03  0.12699999809E+01 0.  1.
       -4    1    3    3    0  502 -0.24969590990E+03 -0.87445776501E+03 -0.11742812123E+04  0.14852482650E+04  0.12699999809E+01 0. -1.
</event>
<event>
 5   0  0.5009125E-06  0.2099331E+04  0.7818609E-02  0.8561538E-01
       -4   -1    0    0    0  501  0.00000000000E+00  0.00000000000E+00  0.10862821712E+04  0.10862829136E+04  0.12699999809E+01 0.  1.
        4   -1    0    0  501    0  0.00000000000E+00  0.00000000000E+00 -0.10142820523E+04  0.10142828474E+04  0.12699999809E+01 0. -1.
    10030    2    1    2    0    0  0.00000000000E+00  0.00000000000E+00  0.72000118910E+02  0.21005657609E+04  0.20993314409E+04 0.  0.
        2    1    3    3  502    0 -0.10253521771E+04  0.17036436990E+03 -0.11046571408E+03  0.10452625410E+04  0.25500000920E-02 0. -1.
       -2    1    3    3    0  502  0.10253521771E+04 -0.17036436990E+03  0.18246583300E+03  0.10553032199E+04  0.25500000920E-02 0.  1.
</event>
<event>
 5   0  0.1441136E-05  0.2099322E+04  0.7818609E-02  0.8561542E-01
       -2   -1    0    0    0  501  0.00000000000E+00  0.00000000000E+00  0.85996547600E+03  0.85996547600E+03  0.25500000920E-02 0. -1.
        2   -1    0    0  501    0  0.00000000000E+00  0.00000000000E+00 -0.12812002452E+04  0.12812002452E+04  0.25500000920E-02 0.  1.
    10030    2    1    2    0    0  0.00000000000E+00  0.00000000000E+00 -0.42123476924E+03  0.21411657212E+04  0.20993217750E+04 0.  0.
        4    1    3    3  502    0 -0.32254754127E+03 -0.19947551846E+03 -0.12088798110E+04  0.12669725369E+04  0.12699999809E+01 0.  1.
       -4    1    3    3    0  502  0.32254754127E+03  0.19947551846E+03  0.78764504177E+03  0.87419318436E+03  0.12699999809E+01 0. -1.
</event>
<event>
 5   0  0.1395356E-05  0.2098402E+04  0.7818609E-02  0.8561948E-01
       -2   -1    0    0    0  501  0.00000000000E+00  0.00000000000E+00  0.13272237190E+04  0.13272237190E+04  0.25500000920E-02 0.  1.
        2   -1    0    0  501    0  0.00000000000E+00  0.00000000000E+00 -0.82941731671E+03  0.82941731672E+03  0.25500000920E-02 0. -1.
    10030    2    1    2    0    0  0.00000000000E+00  0.00000000000E+00  0.49780640231E+03  0.21566410357E+04  0.20984016162E+04 0.  0.
        1    1    3    3  502    0 -0.34560373843E+03  0.86538418041E+03  0.74445831572E+03  0.11927069664E+04  0.50400001928E-02 0.  1.
       -1    1    3    3    0  502  0.34560373843E+03 -0.86538418041E+03 -0.24665191341E+03  0.96393406939E+03  0.50400001928E-02 0. -1.
</event>
<event>
 5   0  0.6238363E-06  0.2098132E+04  0.7818609E-02  0.8562067E-01
       -1   -1    0    0    0  501  0.00000000000E+00  0.00000000000E+00  0.50913667785E+03  0.50913667788E+03  0.50400001928E-02 0.  1.
        1   -1    0    0  501    0  0.00000000000E+00  0.00000000000E+00 -0.21615800353E+04  0.21615800353E+04  0.50400001928E-02 0. -1.
    10030    2    1    2    0    0  0.00000000000E+00  0.00000000000E+00 -0.16524433574E+04  0.26707167132E+04  0.20981321961E+04 0.  0.
        4    1    3    3  502    0  0.57194977338E+03  0.76903215072E+03 -0.13692618410E+04  0.16713517266E+04  0.12699999809E+01 0. -1.
       -4    1    3    3    0  502 -0.57194977338E+03 -0.76903215072E+03 -0.28318151646E+03  0.99936498652E+03  0.12699999809E+01 0.  1.
</event>
<event>
 5   0  0.6917078E-06  0.2098366E+04  0.7818609E-02  0.8561964E-01
        1   -1    0    0  501    0  0.00000000000E+00  0.00000000000E+00  0.59283009221E+03  0.59283009224E+03  0.50400001928E-02 0. -1.
       -1   -1    0    0    0  501  0.00000000000E+00  0.00000000000E+00 -0.18568298520E+04  0.18568298520E+04  0.50400001928E-02 0.  1.
    10030    2    1    2    0    0  0.00000000000E+00  0.00000000000E+00 -0.12639997598E+04  0.24496599442E+04  0.20983656616E+04 0.  0.
        5    1    3    3  502    0  0.78298152563E+03 -0.56296735979E+02 -0.14446177509E+04  0.16441325762E+04  0.46999998093E+01 0.  1.
       -5    1    3    3    0  502 -0.78298152563E+03  0.56296735979E+02  0.18061799109E+03  0.80552736805E+03  0.46999998093E+01 0. -1.
</event>
<event>
 5   0  0.1390735E-05  0.2091439E+04  0.7818609E-02  0.8565024E-01
        2   -1    0    0  501    0  0.00000000000E+00  0.00000000000E+00  0.19171918942E+04  0.19171918942E+04  0.25500000920E-02 0.  1.
       -2   -1    0    0    0  501  0.00000000000E+00  0.00000000000E+00 -0.57038095404E+03  0.57038095404E+03  0.25500000920E-02 0. -1.
    10030    2    1    2    0    0  0.00000000000E+00  0.00000000000E+00  0.13468109402E+04  0.24875728483E+04  0.20914394485E+04 0.  0.
        5    1    3    3  502    0  0.37795913085E+03 -0.97376991395E+03  0.61481341666E+03  0.12120637678E+04  0.46999998093E+01 0. -1.
       -5    1    3    3    0  502 -0.37795913085E+03  0.97376991395E+03  0.73199752354E+03  0.12755090805E+04  0.46999998093E+01 0.  1.
</event>
<event>
 5   0  0.1390735E-05  0.2097575E+04  0.7818609E-02  0.8562312E-01
       -2   -1    0    0    0  501  0.00000000000E+00  0.00000000000E+00  0.78970097716E+03  0.78970097717E+03  0.25500000920E-02 0.  1.
        2   -1    0    0  501    0  0.00000000000E+00  0.00000000000E+00 -0.13928757610E+04  0.13928757611E+04  0.25500000920E-02 0. -1.
    10030    2    1    2    0    0  0.00000000000E+00  0.00000000000E+00 -0.60317478388E+03  0.21825767382E+04  0.20975751234E+04 0.  0.
        5    1    3    3  502    0  0.14655069288E+03  0.47823919811E+03  0.65758330947E+03  0.82621288727E+03  0.46999998093E+01 0.  1.
       -5    1    3    3    0  502 -0.14655069288E+03 -0.47823919811E+03 -0.12607580934E+04  0.13563638509E+04  0.46999998093E+01 0. -1.
</event>
<event>
 5   0  0.1390735E-05  0.2100348E+04  0.7818609E-02  0.8561090E-01
       -2   -1    0    0    0  501  0.00000000000E+00  0.00000000000E+00  0.80625218062E+03  0.80625218062E+03  0.25500000920E-02 0. -1.
        2   -1    0    0  501    0  0.00000000000E+00  0.00000000000E+00 -0.13678910505E+04  0.13678910505E+04  0.25500000920E-02 0.  1.
    10030    2    1    2    0    0  0.00000000000E+00  0.00000000000E+00 -0.56163886989E+03  0.21741432311E+04  0.21003477258E+04 0.  0.
        5    1    3    3  502    0 -0.18071167863E+03 -0.52133651702E+02 -0.13503038728E+04  0.13633478160E+04  0.46999998093E+01 0.  1.
       -5    1    3    3    0  502  0.18071167863E+03  0.52133651702E+02  0.78866500291E+03  0.81079541516E+03  0.46999998093E+01 0. -1.
</event>
<event>
 5   0  0.1441136E-05  0.2100373E+04  0.7818609E-02  0.8561079E-01
        2   -1    0    0  501    0  0.00000000000E+00  0.00000000000E+00  0.19832392555E+04  0.19832392555E+04  0.25500000920E-02 0. -1.
       -2   -1    0    0    0  501  0.00000000000E+00  0.00000000000E+00 -0.55610617346E+03  0.55610617347E+03  0.25500000920E-02 0.  1.
    10030    2    1    2    0    0  0.00000000000E+00  0.00000000000E+00  0.14271330820E+04  0.25393454290E+04  0.21003729130E+04 0.  0.
        4    1    3    3  502    0  0.62876830249E+02 -0.55324395198E+03  0.17900887010E+04  0.18746870503E+04  0.12699999809E+01 0. -1.
       -4    1    3    3    0  502 -0.62876830249E+02  0.55324395198E+03 -0.36295561892E+03  0.66465837872E+03  0.12699999809E+01 0.  1.
</event>
<event>
 5   0  0.1441136E-05  0.2117218E+04  0.7818609E-02  0.8553697E-01
       -2   -1    0    0    0  501  0.00000000000E+00  0.00000000000E+00  0.46101102192E+03  0.46101102192E+03  0.25500000920E-02 0.  1.
        2   -1    0    0  501    0  0.00000000000E+00  0.00000000000E+00 -0.24308588451E+04  0.24308588451E+04  0.25500000920E-02 0. -1.
    10030    2    1    2    0    0  0.00000000000E+00  0.00000000000E+00 -0.19698478231E+04  0.28918698670E+04  0.21172177217E+04 0.  0.
        4    1    3    3  502    0 -0.68466458615E+02  0.36895323059E+03 -0.23369657635E+04  0.23669019276E+04  0.12699999809E+01 0. -1.
       -4    1    3    3    0  502  0.68466458615E+02 -0.36895323059E+03  0.36711794036E+03  0.52496793936E+03  0.12699999809E+01 0.  1.
</event>
<event>
 5   0  0.6917078E-06  0.2100434E+04  0.7818609E-02  0.8561052E-01
        1   -1    0    0  501    0  0.00000000000E+00  0.00000000000E+00  0.94241008157E+03  0.94241008158E+03  0.50400001928E-02 0. -1.
       -1   -1    0    0    0  501  0.00000000000E+00  0.00000000000E+00 -0.11703567298E+04  0.11703567298E+04  0.50400001928E-02 0.  1.
    10030    2    1    2    0    0  0.00000000000E+00  0.00000000000E+00 -0.22794664827E+03  0.21127668114E+04  0.21004342230E+04 0.  0.
        5    1    3    3  502    0  0.15970317817E+02  0.67550117777E+03 -0.92266957051E+03  0.11436337344E+04  0.46999998093E+01 0.  1.
       -5    1    3    3    0  502 -0.15970317817E+02 -0.67550117777E+03  0.69472292224E+03  0.96913307699E+03  0.46999998093E+01 0. -1.
</event>
<event>
 5   0  0.1344501E-05  0.2099596E+04  0.7818609E-02  0.8561421E-01
        2   -1    0    0  501    0  0.00000000000E+00  0.00000000000E+00  0.21471992014E+04  0.21471992014E+04  0.25500000920E-02 0.  1.
       -2   -1    0    0    0  501  0.00000000000E+00  0.00000000000E+00 -0.51326198739E+03  0.51326198740E+03  0.25500000920E-02 0. -1.
    10030    2    1    2    0    0  0.00000000000E+00  0.00000000000E+00  0.16339372140E+04  0.26604611888E+04  0.20995958939E+04 0.  0.
        3    1    3    3  502    0 -0.21545344257E+03  0.73445474778E+02  0.21155521463E+04  0.21277629844E+04  0.10100000352E+00 0.  1.
       -3    1    3    3    0  502  0.21545344257E+03 -0.73445474778E+02 -0.48161493236E+03  0.53269820438E+03  0.10100000352E+00 0. -1.
</event>
<event>
 5   0  0.1398469E-05  0.2094295E+04  0.7818609E-02  0.8563761E-01
        2   -1    0    0  501    0  0.00000000000E+00  0.00000000000E+00  0.15121860080E+04  0.15121860080E+04  0.25500000920E-02 0. -1.
       -2   -1    0    0    0  501  0.00000000000E+00  0.00000000000E+00 -0.72512110842E+03  0.72512110842E+03  0.25500000920E-02 0.  1.
    10030    2    1    2    0    0  0.00000000000E+00  0.00000000000E+00  0.78706489957E+03  0.22373071164E+04  0.20942951027E+04 0.  0.
        2    1    3    3  502    0 -0.38307116947E+03 -0.82425781639E+03 -0.16194931790E+03  0.92323997440E+03  0.25500000920E-02 0.  1.
       -2    1    3    3    0  502  0.38307116947E+03  0.82425781639E+03  0.94901421747E+03  0.13140671420E+04  0.25500000920E-02 0. -1.
</event>
<event>
 5   0  0.6283269E-06  0.2096948E+04  0.7818609E-02  0.8562589E-01
       -1   -1    0    0    0  501  0.00000000000E+00  0.00000000000E+00  0.43326342873E+03  0.43326342876E+03  0.50400001928E-02 0.  1.
        1   -1    0    0  501    0  0.00000000000E+00  0.00000000000E+00 -0.25372513821E+04  0.25372513821E+04  0.50400001928E-02 0. -1.
    10030    2    1    2    0    0  0.00000000000E+00  0.00000000000E+00 -0.21039879533E+04  0.29705148108E+04  0.20969484814E+04 0.  0.
        1    1    3    3  502    0  0.64720629745E+02  0.29061698683E+03  0.37211957152E+03  0.47657105292E+03  0.50400001928E-02 0.  1.
       -1    1    3    3    0  502 -0.64720629745E+02 -0.29061698683E+03 -0.24761075249E+04  0.24939437579E+04  0.50400001928E-02 0. -1.
</event>
<event>
 5   0  0.1390735E-05  0.2107669E+04  0.7818609E-02  0.8557873E-01
        2   -1    0    0  501    0  0.00000000000E+00  0.00000000000E+00  0.10032840812E+04  0.10032840812E+04  0.25500000920E-02 0.  1.
       -2   -1    0    0    0  501  0.00000000000E+00  0.00000000000E+00 -0.11069319976E+04  0.11069319976E+04  0.25500000920E-02 0. -1.
    10030    2    1    2    0    0  0.00000000000E+00  0.00000000000E+00 -0.10364791638E+03  0.21102160789E+04  0.21076690938E+04 0.  0.
        5    1    3    3  502    0  0.57653191758E+03  0.48125689376E+03 -0.79200613029E+03  0.10914637191E+04  0.46999998093E+01 0. -1.
       -5    1    3    3    0  502 -0.57653191758E+03 -0.48125689376E+03  0.68835821392E+03  0.10187523597E+04  0.46999998093E+01 0.  1.
</event>
<event>
 5   0  0.1398469E-05  0.2051451E+04  0.7818609E-02  0.8582936E-01
        2   -1    0    0  501    0  0.00000000000E+00  0.00000000000E+00  0.89118293131E+03  0.89118293131E+03  0.25500000920E-02 0. -1.
       -2   -1    0    0    0  501  0.00000000000E+00  0.00000000000E+00 -0.11805804054E+04  0.11805804054E+04  0.25500000920E-02 0.  1.
    10030    2    1    2    0    0  0.00000000000E+00  0.00000000000E+00 -0.28939747412E+03  0.20717633367E+04  0.20514512974E+04 0.  0.
        2    1    3    3  502    0 -0.97559984789E+03  0.23065608814E+03 -0.36390970162E+03  0.10665024919E+04  0.25500000920E-02 0. -1.
       -2    1    3    3    0  502  0.97559984789E+03 -0.23065608814E+03  0.74512227499E+02  0.10052608449E+04  0.25500000920E-02 0.  1.
</event>
<event>
 5   0  0.6283269E-06  0.2074556E+04  0.7818609E-02  0.8572535E-01
        1   -1    0    0  501    0  0.00000000000E+00  0.00000000000E+00  0.11148949821E+04  0.11148949821E+04  0.50400001928E-02 0.  1.
       -1   -1    0    0    0  501  0.00000000000E+00  0.00000000000E+00 -0.96506476707E+03  0.96506476708E+03  0.50400001928E-02 0. -1.
    10030    2    1    2    0    0  0.00000000000E+00  0.00000000000E+00  0.14983021499E+03  0.20799597491E+04  0.20745562091E+04 0.  0.
        1    1    3    3  502    0 -0.65706039296E+03  0.62030019009E+02 -0.72740031354E+03  0.98218496192E+03  0.50400001928E-02 0. -1.
       -1    1    3    3    0  502  0.65706039296E+03 -0.62030019009E+02  0.87723052854E+03  0.10977747872E+04  0.50400001928E-02 0.  1.
</event>
<event>
 5   0  0.1390735E-05  0.2103761E+04  0.7818609E-02  0.8559588E-01
        2   -1    0    0  501    0  0.00000000000E+00  0.00000000000E+00  0.17351082036E+04  0.17351082036E+04  0.25500000920E-02 0.  1.
       -2   -1    0    0    0  501  0.00000000000E+00  0.00000000000E+00 -0.63768517092E+03  0.63768517092E+03  0.25500000920E-02 0. -1.
    10030    2    1    2    0    0  0.00000000000E+00  0.00000000000E+00  0.10974230327E+04  0.23727933745E+04  0.21037611760E+04 0.  0.
        5    1    3    3  502    0  0.32639612673E+02 -0.65006139527E+03  0.14806894632E+04  0.16174388824E+04  0.46999998093E+01 0.  1.
       -5    1    3    3    0  502 -0.32639612673E+02  0.65006139527E+03 -0.38326643054E+03  0.75535449208E+03  0.46999998093E+01 0. -1.
</event>
<event>
 5   0  0.1390735E-05  0.2101866E+04  0.7818609E-02  0.8560422E-01
        2   -1    0    0  501    0  0.00000000000E+00  0.00000000000E+00  0.15820589148E+04  0.15820589148E+04  0.25500000920E-02 0.  1.
       -2   -1    0    0    0  501  0.00000000000E+00  0.00000000000E+00 -0.69811565208E+03  0.69811565208E+03  0.25500000920E-02 0. -1.
    10030    2    1    2    0    0  0.00000000000E+00  0.00000000000E+00  0.88394326272E+03  0.22801745669E+04  0.21018659243E+04 0.  0.
        5    1    3    3  502    0  0.89099984771E+02  0.20005961382E+03  0.15570175975E+04  0.15723512792E+04  0.46999998093E+01 0.  1.
       -5    1    3    3    0  502 -0.89099984771E+02 -0.20005961382E+03 -0.67307433479E+03  0.70782328764E+03  0.46999998093E+01 0. -1.
</event>
<event>
 5   0  0.1344501E-05  0.2101187E+04  0.7818609E-02  0.8560721E-01
        2   -1    0    0  501    0  0.00000000000E+00  0.00000000000E+00  0.10751849712E+04  0.10751849712E+04  0.25500000920E-02 0. -1.
       -2   -1    0    0    0  501  0.00000000000E+00  0.00000000000E+00 -0.10265646491E+04  0.10265646491E+04  0.25500000920E-02 0.  1.
    10030    2    1    2    0    0  0.00000000000E+00  0.00000000000E+00  0.48620322059E+02  0.21017496203E+04  0.21011871717E+04 0.  0.
        3    1    3    3  502    0  0.97407450431E+03 -0.38819718944E+03  0.89355828014E+02  0.10523795285E+04  0.10100000352E+00 0. -1.
       -3    1    3    3    0  502 -0.97407450431E+03  0.38819718944E+03 -0.40735505955E+02  0.10493700918E+04  0.10100000352E+00 0.  1.
</event>
<event>
 5   0  0.6599245E-06  0.2099173E+04  0.7818609E-02  0.8561608E-01
       -1   -1    0    0    0  501  0.00000000000E+00  0.00000000000E+00  0.19613579073E+04  0.19613579073E+04  0.50400001928E-02 0. -1.
        1   -1    0    0  501    0  0.00000000000E+00  0.00000000000E+00 -0.56166813692E+03  0.56166813694E+03  0.50400001928E-02 0.  1.
    10030    2    1    2    0    0  0.00000000000E+00  0.00000000000E+00  0.13996897703E+04  0.25230260442E+04  0.20991734008E+04 0.  0.
        2    1    3    3  502    0 -0.49232471409E+03 -0.88247687195E+02  0.18089067947E+04  0.18767831708E+04  0.25500000920E-02 0. -1.
       -2    1    3    3    0  502  0.49232471409E+03  0.88247687195E+02 -0.40921702434E+03  0.64624287339E+03  0.25500000920E-02 0.  1.
</event>
<event>
 5   0  0.6917078E-06  0.2101218E+04  0.7818609E-02  0.8560707E-01
        1   -1    0    0  501    0  0.00000000000E+00  0.00000000000E+00  0.27912998316E+04  0.27912998316E+04  0.50400001928E-02 0.  1.
       -1   -1    0    0    0  501  0.00000000000E+00  0.00000000000E+00 -0.39543541014E+03  0.39543541017E+03  0.50400001928E-02 0. -1.
    10030    2    1    2    0    0  0.00000000000E+00  0.00000000000E+00  0.23958644215E+04  0.31867352418E+04  0.21012175459E+04 0.  0.
        5    1    3    3  502    0  0.49801100398E+02 -0.46216659532E+03 -0.23097108439E+03  0.51908365728E+03  0.46999998093E+01 0. -1.
       -5    1    3    3    0  502 -0.49801100398E+02  0.46216659532E+03  0.26268355059E+04  0.26676515845E+04  0.46999998093E+01 0.  1.
</event>
<event>
 5   0  0.1398469E-05  0.2100381E+04  0.7818609E-02  0.8561075E-01
       -2   -1    0    0    0  501  0.00000000000E+00  0.00000000000E+00  0.73537698087E+03  0.73537698088E+03  0.25500000920E-02 0. -1.
        2   -1    0    0  501    0  0.00000000000E+00  0.00000000000E+00 -0.14997755882E+04  0.14997755882E+04  0.25500000920E-02 0.  1.
    10030    2    1    2    0    0  0.00000000000E+00  0.00000000000E+00 -0.76439860735E+03  0.22351525691E+04  0.21003813407E+04 0.  0.
        2    1    3    3  502    0 -0.82169490104E+03  0.15673433963E+02  0.31356637042E+03  0.87963176136E+03  0.25500000920E-02 0. -1.
       -2    1    3    3    0  502  0.82169490104E+03 -0.15673433963E+02 -0.10779649778E+04  0.13555208077E+04  0.25500000920E-02 0.  1.
</event>
<event>
 5   0  0.1395356E-05  0.2098454E+04  0.7818609E-02  0.8561925E-01
       -2   -1    0    0    0  501  0.00000000000E+00  0.00000000000E+00  0.66169294512E+03  0.66169294512E+03  0.25500000920E-02 0.  1.
        2   -1    0    0  501    0  0.00000000000E+00  0.00000000000E+00 -0.16637287796E+04  0.16637287796E+04  0.25500000920E-02 0. -1.
    10030    2    1    2    0    0  0.00000000000E+00  0.00000000000E+00 -0.10020358345E+04  0.23254217247E+04  0.20984542845E+04 0.  0.
        1    1    3    3  502    0  0.37372187337E+02 -0.80698140325E+03 -0.12429568168E+04  0.14824160395E+04  0.50400001928E-02 0. -1.
       -1    1    3    3    0  502 -0.37372187337E+02  0.80698140325E+03  0.24092098235E+03  0.84300568524E+03  0.50400001928E-02 0.  1.
</event>
<event>
 5   0  0.6599245E-06  0.2098558E+04  0.7818609E-02  0.8561879E-01
        1   -1    0    0  501    0  0.00000000000E+00  0.00000000000E+00  0.96197321070E+03  0.96197321071E+03  0.50400001928E-02 0. -1.
       -1   -1    0    0    0  501  0.00000000000E+00  0.00000000000E+00 -0.11445079837E+04  0.11445079838E+04  0.50400001928E-02 0.  1.
    10030    2    1    2    0    0  0.00000000000E+00  0.00000000000E+00 -0.18253477304E+03  0.21064811945E+04  0.20985576188E+04 0.  0.
        2    1    3    3  502    0  0.12790132061E+02  0.79518705954E+03  0.59578756428E+03  0.99370461854E+03  0.25500000920E-02 0. -1.
       -2    1    3    3    0  502 -0.12790132061E+02 -0.79518705954E+03 -0.77832233733E+03  0.11127765759E+04  0.25500000920E-02 0.  1.
</event>
<event>
 5   0  0.6589193E-06  0.2100021E+04  0.7818609E-02  0.8561234E-01
       -1   -1    0    0    0  501  0.00000000000E+00  0.00000000000E+00  0.60829252902E+03  0.60829252904E+03  0.50400001928E-02 0.  1.
        1   -1    0    0  501    0  0.00000000000E+00  0.00000000000E+00 -0.18124860545E+04  0.18124860545E+04  0.50400001928E-02 0. -1.
    10030    2    1    2    0    0  0.00000000000E+00  0.00000000000E+00 -0.12041935255E+04  0.24207785836E+04  0.21000206913E+04 0.  0.
        3    1    3    3  502    0 -0.42809351585E+03 -0.61172952469E+03 -0.14531319827E+04  0.16337287532E+04  0.10100000352E+00 0. -1.
       -3    1    3    3    0  502  0.42809351585E+03  0.61172952469E+03  0.24893845726E+03  0.78704983031E+03  0.10100000352E+00 0.  1.
</event>
<event>
 5   0  0.1398469E-05  0.2105782E+04  0.7818609E-02  0.8558701E-01
        2   -1    0    0  501    0  0.00000000000E+00  0.00000000000E+00  0.12444805243E+04  0.12444805243E+04  0.25500000920E-02 0. -1.
       -2   -1    0    0    0  501  0.00000000000E+00  0.00000000000E+00 -0.89079675488E+03  0.89079675488E+03  0.25500000920E-02 0.  1.
    10030    2    1    2    0    0  0.00000000000E+00  0.00000000000E+00  0.35368376941E+03  0.21352772792E+04  0.21057817670E+04 0.  0.
        2    1    3    3  502    0 -0.61149971277E+03  0.80099649865E+03 -0.13247497626E+03  0.10164039103E+04  0.25500000920E-02 0.  1.
       -2    1    3    3    0  502  0.61149971277E+03 -0.80099649865E+03  0.48615874567E+03  0.11188733689E+04  0.25500000920E-02 0. -1.
</event>
<event>
 5   0  0.6283269E-06  0.2100399E+04  0.7818609E-02  0.8561068E-01
        1   -1    0    0  501    0  0.00000000000E+00  0.00000000000E+00  0.65865271430E+03  0.65865271432E+03  0.50400001928E-02 0.  1.
       -1   -1    0    0    0  501  0.00000000000E+00  0.00000000000E+00 -0.16745079490E+04  0.16745079490E+04  0.50400001928E-02 0. -1.
    10030    2    1    2    0    0  0.00000000000E+00  0.00000000000E+00 -0.10158552347E+04  0.23331606633E+04  0.21003992056E+04 0.  0.
        1    1    3    3  502    0 -0.88078669574E+03  0.13623947341E+03  0.10912418726E+03  0.89791674769E+03  0.50400001928E-02 0.  1.
       -1    1    3    3    0  502  0.88078669574E+03 -0.13623947341E+03 -0.11249794219E+04  0.14352439156E+04  0.50400001928E-02 0. -1.
</event>
<event>
 5   0  0.6283269E-06  0.2101653E+04  0.7818609E-02  0.8560516E-01
       -1   -1    0    0    0  501  0.00000000000E+00  0.00000000000E+00  0.68487861918E+03  0.68487861920E+03  0.50400001928E-02 0.  1.
        1   -1    0    0  501    0  0.00000000000E+00  0.00000000000E+00 -0.16123091197E+04  0.16123091197E+04  0.50400001928E-02 0. -1.
    10030    2    1    2    0    0  0.00000000000E+00  0.00000000000E+00 -0.92743050055E+03  0.22971877389E+04  0.21016527245E+04 0.  0.
        1    1    3    3  502    0  0.34841243346E+03  0.68013810907E+03  0.32468088938E+03  0.83029919375E+03  0.50400001928E-02 0.  1.
       -1    1    3    3    0  502 -0.34841243346E+03 -0.68013810907E+03 -0.12521113899E+04  0.14668885452E+04  0.50400001928E-02 0. -1.
</event>
<event>
 5   0  0.6599245E-06  0.2124422E+04  0.7818609E-02  0.8550561E-01
       -1   -1    0    0    0  501  0.00000000000E+00  0.00000000000E+00  0.90546812491E+03  0.90546812493E+03  0.50400001928E-02 0. -1.
        1   -1    0    0  501    0  0.00000000000E+00  0.00000000000E+00 -0.12460867520E+04  0.12460867520E+04  0.50400001928E-02 0.  1.
    10030    2    1    2    0    0  0.00000000000E+00  0.00000000000E+00 -0.34061862708E+03  0.21515548769E+04  0.21244216482E+04 0.  0.
        2    1    3    3  502    0  0.89438997094E+02 -0.87237829064E+03  0.43671943947E+03  0.97967703096E+03  0.25500000920E-02 0. -1.
       -2    1    3    3    0  502 -0.89438997094E+02  0.87237829064E+03 -0.77733806655E+03  0.11718778460E+04  0.25500000920E-02 0.  1.
</event>
<event>
 5   0  0.1441136E-05  0.2100588E+04  0.7818609E-02  0.8560985E-01
       -2   -1    0    0    0  501  0.00000000000E+00  0.00000000000E+00  0.57023434838E+03  0.57023434839E+03  0.25500000920E-02 0.  1.
        2   -1    0    0  501    0  0.00000000000E+00  0.00000000000E+00 -0.19344975970E+04  0.19344975970E+04  0.25500000920E-02 0. -1.
    10030    2    1    2    0    0  0.00000000000E+00  0.00000000000E+00 -0.13642632486E+04  0.25047319453E+04  0.21005875146E+04 0.  0.
        4    1    3    3  502    0 -0.53171229606E+03 -0.62396311518E+03  0.10074455614E+03  0.82595339661E+03  0.12699999809E+01 0.  1.
       -4    1    3    3    0  502  0.53171229606E+03  0.62396311518E+03 -0.14650078047E+04  0.16787785487E+04  0.12699999809E+01 0. -1.
</event>
<event>
 5   0  0.1390735E-05  0.2092427E+04  0.7818609E-02  0.8564587E-01
       -2   -1    0    0    0  501  0.00000000000E+00  0.00000000000E+00  0.67206573159E+03  0.67206573159E+03  0.25500000920E-02 0. -1.
        2   -1    0    0  501    0  0.00000000000E+00  0.00000000000E+00 -0.16286545865E+04  0.16286545865E+04  0.25500000920E-02 0.  1.
    10030    2    1    2    0    0  0.00000000000E+00  0.00000000000E+00 -0.95658885491E+03  0.23007203181E+04  0.20924272376E+04 0.  0.
        5    1    3    3  502    0 -0.57433320891E+03 -0.18339696864E+02 -0.14395932799E+04  0.15500470577E+04  0.46999998093E+01 0.  1.
       -5    1    3    3    0  502  0.57433320891E+03  0.18339696864E+02  0.48300442502E+03  0.75067326043E+03  0.46999998093E+01 0. -1.
</event>
<event>
 5   0  0.1441136E-05  0.2100307E+04  0.7818609E-02  0.8561108E-01
       -2   -1    0    0    0  501  0.00000000000E+00  0.00000000000E+00  0.56414676247E+03  0.56414676248E+03  0.25500000920E-02 0.  1.
        2   -1    0    0  501    0  0.00000000000E+00  0.00000000000E+00 -0.19548494487E+04  0.19548494487E+04  0.25500000920E-02 0. -1.
    10030    2    1    2    0    0  0.00000000000E+00  0.00000000000E+00 -0.13907026862E+04  0.25189962111E+04  0.21003066325E+04 0.  0.
        4    1    3    3  502    0 -0.16047504377E+03 -0.33622605185E+03  0.48222174638E+03  0.60937642160E+03  0.12699999809E+01 0.  1.
       -4    1    3    3    0  502  0.16047504377E+03  0.33622605185E+03 -0.18729244326E+04  0.19096197895E+04  0.12699999809E+01 0. -1.
</event>
<event>
 5   0  0.1395356E-05  0.2100307E+04  0.7818609E-02  0.8561108E-01
       -2   -1    0    0    0  501  0.00000000000E+00  0.00000000000E+00  0.12260166406E+04  0.12260166406E+04  0.25500000920E-02 0.  1.
        2   -1    0    0  501    0  0.00000000000E+00  0.00000000000E+00 -0.89951702541E+03  0.89951702542E+03  0.25500000920E-02 0. -1.
    10030    2    1    2    0    0  0.00000000000E+00  0.00000000000E+00  0.32649961522E+03  0.21255336661E+04  0.21003074458E+04 0.  0.
        1    1    3    3  502    0 -0.30969778199E+03  0.95808345444E+03 -0.13863864073E+03  0.10163942614E+04  0.50400001928E-02 0. -1.
       -1    1    3    3    0  502  0.30969778199E+03 -0.95808345444E+03  0.46513825595E+03  0.11091394047E+04  0.50400001928E-02 0.  1.
</event>
<event>
 5   0  0.1390735E-05  0.2099425E+04  0.7818609E-02  0.8561497E-01
       -2   -1    0    0    0  501  0.00000000000E+00  0.00000000000E+00  0.12053676807E+04  0.12053676807E+04  0.25500000920E-02 0.  1.
        2   -1    0    0  501    0  0.00000000000E+00  0.00000000000E+00 -0.91415819480E+03  0.91415819481E+03  0.25500000920E-02 0. -1.
    10030    2    1    2    0    0  0.00000000000E+00  0.00000000000E+00  0.29120948588E+03  0.21195258755E+04  0.20994253910E+04 0.  0.
        5    1    3    3  502    0 -0.20818230983E+03  0.22843662677E+03 -0.86717060995E+03  0.92061399258E+03  0.46999998093E+01 0. -1.
       -5    1    3    3    0  502  0.20818230983E+03 -0.22843662677E+03  0.11583800958E+04  0.11989118829E+04  0.46999998093E+01 0.  1.
</event>
<event>
 5   0  0.1344501E-05  0.2098966E+04  0.7818609E-02  0.8561699E-01
       -2   -1    0    0    0  501  0.00000000000E+00  0.00000000000E+00  0.97708570545E+03  0.97708570545E+03  0.25500000920E-02 0.  1.
        2   -1    0    0  501    0  0.00000000000E+00  0.00000000000E+00 -0.11272445108E+04  0.11272445108E+04  0.25500000920E-02 0. -1.
    10030    2    1    2    0    0  0.00000000000E+00  0.00000000000E+00 -0.15015880534E+03  0.21043302162E+04  0.20989659340E+04 0.  0.
        3    1    3    3  502    0 -0.30423257153E+03 -0.70245916895E+03  0.64467468568E+03  0.10008055766E+04  0.10100000352E+00 0.  1.
       -3    1    3    3    0  502  0.30423257153E+03  0.70245916895E+03 -0.79483349102E+03  0.11035246396E+04  0.10100000352E+00 0. -1.
</event>
<event>
 5   0  0.1441136E-05  0.2094616E+04  0.7818609E-02  0.8563619E-01
       -2   -1    0    0    0  501  0.00000000000E+00  0.00000000000E+00  0.78594725869E+03  0.78594725869E+03  0.25500000920E-02 0. -1.
        2   -1    0    0  501    0  0.00000000000E+00  0.00000000000E+00 -0.13955825356E+04  0.13955825356E+04  0.25500000920E-02 0.  1.
    10030    2    1    2    0    0  0.00000000000E+00  0.00000000000E+00 -0.60963527692E+03  0.21815297943E+04  0.20946162113E+04 0.  0.
        4    1    3    3  502    0  0.61216167401E+03  0.37203145215E+03  0.49088862570E+03  0.86840231014E+03  0.12699999809E+01 0. -1.
       -4    1    3    3    0  502 -0.61216167401E+03 -0.37203145215E+03 -0.11005239026E+04  0.13131274842E+04  0.12699999809E+01 0.  1.
</event>
<event>
 5   0  0.6589193E-06  0.2101093E+04  0.7818609E-02  0.8560762E-01
       -1   -1    0    0    0  501  0.00000000000E+00  0.00000000000E+00  0.67984469740E+03  0.67984469742E+03  0.50400001928E-02 0. -1.
        1   -1    0    0  501    0  0.00000000000E+00  0.00000000000E+00 -0.16233826075E+04  0.16233826075E+04  0.50400001928E-02 0.  1.
    10030    2    1    2    0    0  0.00000000000E+00  0.00000000000E+00 -0.94353791014E+03  0.23032273050E+04  0.21010931037E+04 0.  0.
        3    1    3    3  502    0 -0.59310018418E+02  0.78839355868E+03  0.28656832752E+03  0.84095392157E+03  0.10100000352E+00 0. -1.
       -3    1    3    3    0  502  0.59310018418E+02 -0.78839355868E+03 -0.12301062377E+04  0.14622733834E+04  0.10100000352E+00 0.  1.
</event>
<event>
 5   0  0.6599245E-06  0.2093714E+04  0.7818609E-02  0.8564018E-01
        1   -1    0    0  501    0  0.00000000000E+00  0.00000000000E+00  0.20457867023E+04  0.20457867023E+04  0.50400001928E-02 0.  1.
       -1   -1    0    0    0  501  0.00000000000E+00  0.00000000000E+00 -0.53569091510E+03  0.53569091513E+03  0.50400001928E-02 0. -1.
    10030    2    1    2    0    0  0.00000000000E+00  0.00000000000E+00  0.15100957872E+04  0.25814776174E+04  0.20937137824E+04 0.  0.
        2    1    3    3  502    0  0.57376553871E+03 -0.13599112840E+03 -0.31145608090E+03  0.66686233268E+03  0.25500000920E-02 0. -1.
       -2    1    3    3    0  502 -0.57376553871E+03  0.13599112840E+03  0.18215518681E+04  0.19146152847E+04  0.25500000920E-02 0.  1.
</event>
<event>
 5   0  0.6589193E-06  0.2100316E+04  0.7818609E-02  0.8561104E-01
        1   -1    0    0  501    0  0.00000000000E+00  0.00000000000E+00  0.18716818880E+04  0.18716818880E+04  0.50400001928E-02 0.  1.
       -1   -1    0    0    0  501  0.00000000000E+00  0.00000000000E+00 -0.58921963396E+03  0.58921963398E+03  0.50400001928E-02 0. -1.
    10030    2    1    2    0    0  0.00000000000E+00  0.00000000000E+00  0.12824622540E+04  0.24609015220E+04  0.21003158972E+04 0.  0.
        3    1    3    3  502    0  0.90807901089E+02 -0.89125343867E+03  0.12832580637E+04  0.15650335572E+04  0.10100000352E+00 0.  1.
       -3    1    3    3    0  502 -0.90807901089E+02  0.89125343867E+03 -0.79580966841E+00  0.89586796480E+03  0.10100000352E+00 0. -1.
</event>
<event>
 5   0  0.1441136E-05  0.2097127E+04  0.7818609E-02  0.8562510E-01
       -2   -1    0    0    0  501  0.00000000000E+00  0.00000000000E+00  0.13220326492E+04  0.13220326492E+04  0.25500000920E-02 0.  1.
        2   -1    0    0  501    0  0.00000000000E+00  0.00000000000E+00 -0.83166273686E+03  0.83166273686E+03  0.25500000920E-02 0. -1.
    10030    2    1    2    0    0  0.00000000000E+00  0.00000000000E+00  0.49036991233E+03  0.21536953861E+04  0.20971268834E+04 0.  0.
        4    1    3    3  502    0  0.86984772347E+03  0.18152605602E+03  0.81688495474E+03  0.12070167411E+04  0.12699999809E+01 0.  1.
       -4    1    3    3    0  502 -0.86984772347E+03 -0.18152605602E+03 -0.32651504241E+03  0.94667864498E+03  0.12699999809E+01 0. -1.
</event>
<event>
 5   0  0.6283269E-06  0.2099225E+04  0.7818609E-02  0.8561585E-01
        1   -1    0    0  501    0  0.00000000000E+00  0.00000000000E+00  0.11199953777E+04  0.11199953777E+04  0.50400001928E-02 0.  1.
       -1   -1    0    0    0  501  0.00000000000E+00  0.00000000000E+00 -0.98365285069E+03  0.98365285070E+03  0.50400001928E-02 0. -1.
    10030    2    1    2    0    0  0.00000000000E+00  0.00000000000E+00  0.13634252701E+03  0.21036482284E+04  0.20992252343E+04 0.  0.
        1    1    3    3  502    0  0.49509557653E+03 -0.69641080676E+03 -0.54268588988E+03  0.10122329854E+04  0.50400001928E-02 0. -1.
       -1    1    3    3    0  502 -0.49509557653E+03  0.69641080676E+03  0.67902841688E+03  0.10914152430E+04  0.50400001928E-02 0.  1.
</event>
<event>
 5   0  0.6917078E-06  0.2103923E+04  0.7818609E-02  0.8559517E-01
        1   -1    0    0  501    0  0.00000000000E+00  0.00000000000E+00  0.15238673131E+04  0.15238673131E+04  0.50400001928E-02 0.  1.
       -1   -1    0    0    0  501  0.00000000000E+00  0.00000000000E+00 -0.72619371740E+03  0.72619371742E+03  0.50400001928E-02 0. -1.
    10030    2    1    2    0    0  0.00000000000E+00  0.00000000000E+00  0.79767359570E+03  0.22500610305E+04  0.21039228778E+04 0.  0.
        5    1    3    3  502    0 -0.50857364550E+03  0.22429594724E+03  0.13539817681E+04  0.14636408518E+04  0.46999998093E+01 0.  1.
       -5    1    3    3    0  502  0.50857364550E+03 -0.22429594724E+03 -0.55630817237E+03  0.78642017871E+03  0.46999998093E+01 0. -1.
</event>
<event>
 5   0  0.6283269E-06  0.2128460E+04  0.7818609E-02  0.8548809E-01
        1   -1    0    0  501    0  0.00000000000E+00  0.00000000000E+00  0.74871447186E+03  0.74871447188E+03  0.50400001928E-02 0.  1.
       -1   -1    0    0    0  501  0.00000000000E+00  0.00000000000E+00 -0.15127064478E+04  0.15127064478E+04  0.50400001928E-02 0. -1.
    10030    2    1    2    0    0  0.00000000000E+00  0.00000000000E+00 -0.76399197591E+03  0.22614209197E+04  0.21284597334E+04 0.  0.
        1    1    3    3  502    0 -0.68091131256E+02  0.44386717913E+03 -0.14071158569E+04  0.14770340245E+04  0.50400001928E-02 0. -1.
       -1    1    3    3    0  502  0.68091131256E+02 -0.44386717913E+03  0.64312388101E+03  0.78438689510E+03  0.50400001928E-02 0.  1.
</event>
<event>
 5   0  0.6599245E-06  0.2113621E+04  0.7818609E-02  0.8555267E-01
        1   -1    0    0  501    0  0.00000000000E+00  0.00000000000E+00  0.11112147816E+04  0.11112147816E+04  0.50400001928E-02 0. -1.
       -1   -1    0    0    0  501  0.00000000000E+00  0.00000000000E+00 -0.10050697027E+04  0.10050697027E+04  0.50400001928E-02 0.  1.
    10030    2    1    2    0    0  0.00000000000E+00  0.00000000000E+00  0.10614507888E+03  0.21162844843E+04  0.21136208838E+04 0.  0.
        2    1    3    3  502    0 -0.99579358507E+03  0.13725643305E+02  0.40714942652E+03  0.10759014420E+04  0.25500000920E-02 0. -1.
       -2    1    3    3    0  502  0.99579358507E+03 -0.13725643305E+02 -0.30100434764E+03  0.10403830423E+04  0.25500000920E-02 0.  1.
</event>
<event>
 5   0  0.1390735E-05  0.2101387E+04  0.7818609E-02  0.8560633E-01
       -2   -1    0    0    0  501  0.00000000000E+00  0.00000000000E+00  0.13749583306E+04  0.13749583306E+04  0.25500000920E-02 0.  1.
        2   -1    0    0  501    0  0.00000000000E+00  0.00000000000E+00 -0.80290164705E+03  0.80290164706E+03  0.25500000920E-02 0. -1.
    10030    2    1    2    0    0  0.00000000000E+00  0.00000000000E+00  0.57205668356E+03  0.21778599777E+04  0.21013865026E+04 0.  0.
        5    1    3    3  502    0  0.11611102044E+02 -0.32071984291E+03 -0.75084962002E+03  0.81657411005E+03  0.46999998093E+01 0. -1.
       -5    1    3    3    0  502 -0.11611102044E+02  0.32071984291E+03  0.13229063036E+04  0.13612858676E+04  0.46999998093E+01 0.  1.
</event>
<event>
 5   0  0.1441136E-05  0.2105416E+04  0.7818609E-02  0.8558861E-01
        2   -1    0    0  501    0  0.00000000000E+00  0.00000000000E+00  0.11905520167E+04  0.11905520167E+04  0.25500000920E-02 0.  1.
       -2   -1    0    0    0  501  0.00000000000E+00  0.00000000000E+00 -0.93082368399E+03  0.93082368399E+03  0.25500000920E-02 0. -1.
    10030    2    1    2    0    0  0.00000000000E+00  0.00000000000E+00  0.25972833268E+03  0.21213757007E+04  0.21054158868E+04 0.  0.
        4    1    3    3  502    0 -0.69613738367E+03 -0.20686160810E+03  0.89773918298E+03  0.11547017950E+04  0.12699999809E+01 0.  1.
       -4    1    3    3    0  502  0.69613738367E+03  0.20686160810E+03 -0.63801085030E+03  0.96667390564E+03  0.12699999809E+01 0. -1.
</event>
<event>
 5   0  0.6589193E-06  0.2101384E+04  0.7818609E-02  0.8560634E-01
        1   -1    0    0  501    0  0.00000000000E+00  0.00000000000E+00  0.10593833978E+04  0.10593833978E+04  0.50400001928E-02 0.  1.
       -1   -1    0    0    0  501  0.00000000000E+00  0.00000000000E+00 -0.10420722217E+04  0.10420722218E+04  0.50400001928E-02 0. -1.
    10030    2    1    2    0    0  0.00000000000E+00  0.00000000000E+00  0.17311176075E+02  0.21014556196E+04  0.21013843162E+04 0.  0.
        3    1    3    3  502    0 -0.20053561941E+02 -0.10436818046E+04  0.12815920883E+03  0.10517122456E+04  0.10100000352E+00 0.  1.
       -3    1    3    3    0  502  0.20053561941E+02  0.10436818046E+04 -0.11084803275E+03  0.10497433740E+04  0.10100000352E+00 0. -1.
</event>
<event>
 5   0  0.6599245E-06  0.2099232E+04  0.7818609E-02  0.8561582E-01
        1   -1    0    0  501    0  0.00000000000E+00  0.00000000000E+00  0.16666792969E+04  0.16666792969E+04  0.50400001928E-02 0.  1.
       -1   -1    0    0    0  501  0.00000000000E+00  0.00000000000E+00 -0.66101119962E+03  0.66101119964E+03  0.50400001928E-02 0. -1.
    10030    2    1    2    0    0  0.00000000000E+00  0.00000000000E+00  0.10056680973E+04  0.23276904965E+04  0.20992319371E+04 0.  0.
        2    1    3    3  502    0 -0.64779637538E+03 -0.60254456124E+03 -0.12342755547E+03  0.89327176923E+03  0.25500000920E-02 0. -1.
       -2    1    3    3    0  502  0.64779637538E+03  0.60254456124E+03  0.11290956527E+04  0.14344187273E+04  0.25500000920E-02 0.  1.
</event>
<event>
 5   0  0.1441136E-05  0.2100718E+04  0.7818609E-02  0.8560927E-01
        2   -1    0    0  501    0  0.00000000000E+00  0.00000000000E+00  0.13863083570E+04  0.13863083570E+04  0.25500000920E-02 0.  1.
       -2   -1    0    0    0  501  0.00000000000E+00  0.00000000000E+00 -0.79582186008E+03  0.79582186008E+03  0.25500000920E-02 0. -1.
    10030    2    1    2    0    0  0.00000000000E+00  0.00000000000E+00  0.59048649694E+03  0.21821302171E+04  0.21007184441E+04 0.  0.
        4    1    3    3  502    0  0.42344500190E+03  0.92029080572E+03  0.69780961766E+01  0.10130602862E+04  0.12699999809E+01 0. -1.
       -4    1    3    3    0  502 -0.42344500190E+03 -0.92029080572E+03  0.58350840076E+03  0.11690699309E+04  0.12699999809E+01 0.  1.
</event>
<event>
 5   0  0.6283269E-06  0.2094964E+04  0.7818609E-02  0.8563465E-01
        1   -1    0    0  501    0  0.00000000000E+00  0.00000000000E+00  0.38915053179E+03  0.38915053182E+03  0.50400001928E-02 0. -1.
       -1   -1    0    0    0  501  0.00000000000E+00  0.00000000000E+00 -0.28195231374E+04  0.28195231374E+04  0.50400001928E-02 0.  1.
    10030    2    1    2    0    0  0.00000000000E+00  0.00000000000E+00 -0.24303726056E+04  0.32086736692E+04  0.20949643704E+04 0.  0.
        1    1    3    3  502    0  0.33635603334E+03 -0.82572108362E+03 -0.37312217378E+03  0.96652513971E+03  0.50400001928E-02 0. -1.
       -1    1    3    3    0  502 -0.33635603334E+03  0.82572108362E+03 -0.20572504318E+04  0.22421485295E+04  0.50400001928E-02 0.  1.
</event>
<event>
 5   0  0.1395356E-05  0.2096184E+04  0.7818609E-02  0.8562926E-01
       -2   -1    0    0    0  501  0.00000000000E+00  0.00000000000E+00  0.19109783457E+04  0.19109783457E+04  0.25500000920E-02 0. -1.
        2   -1    0    0  501    0  0.00000000000E+00  0.00000000000E+00 -0.57483462509E+03  0.57483462510E+03  0.25500000920E-02 0.  1.
    10030    2    1    2    0    0  0.00000000000E+00  0.00000000000E+00  0.13361437206E+04  0.24858129708E+04  0.20961836951E+04 0.  0.
        1    1    3    3  502    0 -0.94284759256E+03 -0.24210408732E+03  0.11287666489E+04  0.14905335016E+04  0.50400001928E-02 0. -1.
       -1    1    3    3    0  502  0.94284759256E+03  0.24210408732E+03  0.20737707179E+03  0.99527946921E+03  0.50400001928E-02 0.  1.
</event>
<event>
 5   0  0.6238363E-06  0.2099248E+04  0.7818609E-02  0.8561575E-01
        1   -1    0    0  501    0  0.00000000000E+00  0.00000000000E+00  0.15411429772E+04  0.15411429772E+04  0.50400001928E-02 0.  1.
       -1   -1    0    0    0  501  0.00000000000E+00  0.00000000000E+00 -0.71486583486E+03  0.71486583488E+03  0.50400001928E-02 0. -1.
    10030    2    1    2    0    0  0.00000000000E+00  0.00000000000E+00  0.82627714234E+03  0.22560088121E+04  0.20992479235E+04 0.  0.
        4    1    3    3  502    0  0.16546571201E+03 -0.72262586538E+02  0.15243273888E+04  0.15349841642E+04  0.12699999809E+01 0.  1.
       -4    1    3    3    0  502 -0.16546571201E+03  0.72262586538E+02 -0.69805024649E+03  0.72102464783E+03  0.12699999809E+01 0. -1.
</event>
<event>
 5   0  0.6283269E-06  0.2101640E+04  0.7818609E-02  0.8560521E-01
        1   -1    0    0  501    0  0.00000000000E+00  0.00000000000E+00  0.79657545645E+03  0.79657545647E+03  0.50400001928E-02 0.  1.
       -1   -1    0    0    0  501  0.00000000000E+00  0.00000000000E+00 -0.13862128268E+04  0.13862128268E+04  0.50400001928E-02 0. -1.
    10030    2    1    2    0    0  0.00000000000E+00  0.00000000000E+00 -0.58963737030E+03  0.21827882832E+04  0.21016404214E+04 0.  0.
        1    1    3    3  502    0  0.80082150507E+03  0.65118453526E+03 -0.90060052306E+02  0.10360826198E+04  0.50400001928E-02 0. -1.
       -1    1    3    3    0  502 -0.80082150507E+03 -0.65118453526E+03 -0.49957731799E+03  0.11467056635E+04  0.50400001928E-02 0.  1.
</event>
<event>
 5   0  0.1344501E-05  0.2101038E+04  0.7818609E-02  0.8560786E-01
        2   -1    0    0  501    0  0.00000000000E+00  0.00000000000E+00  0.15090260609E+04  0.15090260609E+04  0.25500000920E-02 0. -1.
       -2   -1    0    0    0  501  0.00000000000E+00  0.00000000000E+00 -0.73132608081E+03  0.73132608082E+03  0.25500000920E-02 0.  1.
    10030    2    1    2    0    0  0.00000000000E+00  0.00000000000E+00  0.77769998013E+03  0.22403521418E+04  0.21010379483E+04 0.  0.
        3    1    3    3  502    0  0.10393672169E+04 -0.13171881897E+03  0.47114270853E+03  0.11487425825E+04  0.10100000352E+00 0. -1.
       -3    1    3    3    0  502 -0.10393672169E+04  0.13171881897E+03  0.30655727160E+03  0.10916095592E+04  0.10100000352E+00 0.  1.
</event>
<event>
 5   0  0.6917078E-06  0.2100087E+04  0.7818609E-02  0.8561205E-01
        1   -1    0    0  501    0  0.00000000000E+00  0.00000000000E+00  0.15042987615E+04  0.15042987615E+04  0.50400001928E-02 0.  1.
       -1   -1    0    0    0  501  0.00000000000E+00  0.00000000000E+00 -0.73296015944E+03  0.73296015946E+03  0.50400001928E-02 0. -1.
    10030    2    1    2    0    0  0.00000000000E+00  0.00000000000E+00  0.77133860204E+03  0.22372589210E+04  0.21000867221E+04 0.  0.
        5    1    3    3  502    0 -0.91669603785E+03  0.47896371302E+03  0.57869795195E+03  0.11851798487E+04  0.46999998093E+01 0.  1.
       -5    1    3    3    0  502  0.91669603785E+03 -0.47896371302E+03  0.19264065010E+03  0.10520790723E+04  0.46999998093E+01 0. -1.
</event>
<event>
 5   0  0.1344501E-05  0.2100360E+04  0.7818609E-02  0.8561085E-01
       -2   -1    0    0    0  501  0.00000000000E+00  0.00000000000E+00  0.65847108957E+03  0.65847108958E+03  0.25500000920E-02 0. -1.
        2   -1    0    0  501    0  0.00000000000E+00  0.00000000000E+00 -0.16749068945E+04  0.16749068945E+04  0.25500000920E-02 0.  1.
    10030    2    1    2    0    0  0.00000000000E+00  0.00000000000E+00 -0.10164358050E+04  0.23333779841E+04  0.21003597480E+04 0.  0.
        3    1    3    3  502    0 -0.52458493930E+03  0.37273673767E+03 -0.14302032508E+04  0.15683122722E+04  0.10100000352E+00 0.  1.
       -3    1    3    3    0  502  0.52458493930E+03 -0.37273673767E+03  0.41376744586E+03  0.76506571195E+03  0.10100000352E+00 0. -1.
</event>
<event>
 5   0  0.1441136E-05  0.2105313E+04  0.7818609E-02  0.8558906E-01
        2   -1    0    0  501    0  0.00000000000E+00  0.00000000000E+00  0.17667906841E+04  0.17667906841E+04  0.25500000920E-02 0.  1.
       -2   -1    0    0    0  501  0.00000000000E+00  0.00000000000E+00 -0.62717454371E+03  0.62717454372E+03  0.25500000920E-02 0. -1.
    10030    2    1    2    0    0  0.00000000000E+00  0.00000000000E+00  0.11396161404E+04  0.23939652278E+04  0.21053134124E+04 0.  0.
        4    1    3    3  502    0  0.15150968962E+03 -0.55173788761E+03  0.15745331518E+04  0.16752689760E+04  0.12699999809E+01 0.  1.
       -4    1    3    3    0  502 -0.15150968962E+03  0.55173788761E+03 -0.43491701146E+03  0.71869625185E+03  0.12699999809E+01 0. -1.
</event>
<event>
 5   0  0.1344501E-05  0.2096854E+04  0.7818609E-02  0.8562630E-01
        2   -1    0    0  501    0  0.00000000000E+00  0.00000000000E+00  0.16832771472E+04  0.16832771472E+04  0.25500000920E-02 0. -1.
       -2   -1    0    0    0  501  0.00000000000E+00  0.00000000000E+00 -0.65301148029E+03  0.65301148030E+03  0.25500000920E-02 0.  1.
    10030    2    1    2    0    0  0.00000000000E+00  0.00000000000E+00  0.10302656669E+04  0.23362886275E+04  0.20968541215E+04 0.  0.
        3    1    3    3  502    0 -0.31294014454E+03  0.99961412338E+03  0.46481691413E+03  0.11459558035E+04  0.10100000352E+00 0. -1.
       -3    1    3    3    0  502  0.31294014454E+03 -0.99961412338E+03  0.56544875282E+03  0.11903328240E+04  0.10100000352E+00 0.  1.
</event>
<event>
 5   0  0.1395356E-05  0.2098872E+04  0.7818609E-02  0.8561741E-01
        2   -1    0    0  501    0  0.00000000000E+00  0.00000000000E+00  0.29574187547E+04  0.29574187547E+04  0.25500000920E-02 0. -1.
       -2   -1    0    0    0  501  0.00000000000E+00  0.00000000000E+00 -0.37239083313E+03  0.37239083314E+03  0.25500000920E-02 0.  1.
    10030    2    1    2    0    0  0.00000000000E+00  0.00000000000E+00  0.25850279215E+04  0.33298095878E+04  0.20988717293E+04 0.  0.
        1    1    3    3  502    0 -0.73105582579E+03 -0.57784352348E+03  0.52677034298E+03  0.10704357768E+04  0.50400001928E-02 0.  1.
       -1    1    3    3    0  502  0.73105582579E+03  0.57784352348E+03  0.20582575785E+04  0.22593738110E+04  0.50400001928E-02 0. -1.
</event>
<event>
 5   0  0.6599245E-06  0.2101358E+04  0.7818609E-02  0.8560646E-01
       -1   -1    0    0    0  501  0.00000000000E+00  0.00000000000E+00  0.92223676708E+03  0.92223676710E+03  0.50400001928E-02 0.  1.
        1   -1    0    0  501    0  0.00000000000E+00  0.00000000000E+00 -0.11970094459E+04  0.11970094459E+04  0.50400001928E-02 0. -1.
    10030    2    1    2    0    0  0.00000000000E+00  0.00000000000E+00 -0.27477267885E+03  0.21192462130E+04  0.21013577721E+04 0.  0.
        2    1    3    3  502    0  0.17889979941E+02 -0.10231267292E+04 -0.37778026675E+03  0.10907915866E+04  0.25500000920E-02 0. -1.
       -2    1    3    3    0  502 -0.17889979941E+02  0.10231267292E+04  0.10300758790E+03  0.10284546264E+04  0.25500000920E-02 0.  1.
</event>
<event>
 5   0  0.6238363E-06  0.2100851E+04  0.7818609E-02  0.8560869E-01
       -1   -1    0    0    0  501  0.00000000000E+00  0.00000000000E+00  0.74286856485E+03  0.74286856486E+03  0.50400001928E-02 0.  1.
        1   -1    0    0  501    0  0.00000000000E+00  0.00000000000E+00 -0.14853150392E+04  0.14853150392E+04  0.50400001928E-02 0. -1.
    10030    2    1    2    0    0  0.00000000000E+00  0.00000000000E+00 -0.74244647437E+03  0.22281836041E+04  0.21008511147E+04 0.  0.
        4    1    3    3  502    0  0.13684104006E+03 -0.43058816272E+03 -0.13769927852E+04  0.14492213010E+04  0.12699999809E+01 0. -1.
       -4    1    3    3    0  502 -0.13684104006E+03  0.43058816272E+03  0.63454631079E+03  0.77896230304E+03  0.12699999809E+01 0.  1.
</event>
<event>
 5   0  0.1390735E-05  0.2092026E+04  0.7818609E-02  0.8564764E-01
       -2   -1    0    0    0  501  0.00000000000E+00  0.00000000000E+00  0.91847095973E+03  0.91847095974E+03  0.25500000920E-02 0. -1.
        2   -1    0    0  501    0  0.00000000000E+00  0.00000000000E+00 -0.11912662063E+04  0.11912662063E+04  0.25500000920E-02 0.  1.
    10030    2    1    2    0    0  0.00000000000E+00  0.00000000000E+00 -0.27279524659E+03  0.21097371661E+04  0.20920262100E+04 0.  0.
        5    1    3    3  502    0  0.35835175298E+03  0.43107803588E+03 -0.10269804354E+04  0.11700235709E+04  0.46999998093E+01 0.  1.
       -5    1    3    3    0  502 -0.35835175298E+03 -0.43107803588E+03  0.75418518879E+03  0.93971359513E+03  0.46999998093E+01 0. -1.
</event>
<event>
 5   0  0.6283269E-06  0.2094438E+04  0.7818609E-02  0.8563697E-01
       -1   -1    0    0    0  501  0.00000000000E+00  0.00000000000E+00  0.61534242437E+03  0.61534242439E+03  0.50400001928E-02 0. -1.
        1   -1    0    0  501    0  0.00000000000E+00  0.00000000000E+00 -0.17822074345E+04  0.17822074345E+04  0.50400001928E-02 0.  1.
    10030    2    1    2    0    0  0.00000000000E+00  0.00000000000E+00 -0.11668650101E+04  0.23975498589E+04  0.20944382001E+04 0.  0.
        1    1    3    3  502    0  0.10049226903E+04  0.12269341026E+03 -0.27681667242E+03  0.10495478819E+04  0.50400001928E-02 0. -1.
       -1    1    3    3    0  502 -0.10049226903E+04 -0.12269341026E+03 -0.89004833769E+03  0.13480019769E+04  0.50400001928E-02 0.  1.
</event>
<event>
 5   0  0.6238363E-06  0.2095730E+04  0.7818609E-02  0.8563127E-01
       -1   -1    0    0    0  501  0.00000000000E+00  0.00000000000E+00  0.77434136594E+03  0.77434136595E+03  0.50400001928E-02 0. -1.
        1   -1    0    0  501    0  0.00000000000E+00  0.00000000000E+00 -0.14180067335E+04  0.14180067335E+04  0.50400001928E-02 0.  1.
    10030    2    1    2    0    0  0.00000000000E+00  0.00000000000E+00 -0.64366536753E+03  0.21923480994E+04  0.20957302030E+04 0.  0.
        4    1    3    3  502    0 -0.78729972560E+03  0.62470980464E+03 -0.63200943039E+03  0.11872408058E+04  0.12699999809E+01 0.  1.
       -4    1    3    3    0  502  0.78729972560E+03 -0.62470980464E+03 -0.11655937136E+02  0.10051072936E+04  0.12699999809E+01 0. -1.
</event>
<event>
 5   0  0.6917078E-06  0.2099764E+04  0.7818609E-02  0.8561347E-01
        1   -1    0    0  501    0  0.00000000000E+00  0.00000000000E+00  0.18272710468E+04  0.18272710468E+04  0.50400001928E-02 0. -1.
       -1   -1    0    0    0  501  0.00000000000E+00  0.00000000000E+00 -0.60322341762E+03  0.60322341764E+03  0.50400001928E-02 0.  1.
    10030    2    1    2    0    0  0.00000000000E+00  0.00000000000E+00  0.12240476292E+04  0.24304944645E+04  0.20997644495E+04 0.  0.
        5    1    3    3  502    0 -0.41783967999E+03 -0.71202788918E+03  0.13627612239E+04  0.15933342262E+04  0.46999998093E+01 0. -1.
       -5    1    3    3    0  502  0.41783967999E+03  0.71202788918E+03 -0.13871359468E+03  0.83716023824E+03  0.46999998093E+01 0.  1.
</event>
<event>
 5   0  0.1441136E-05  0.2100916E+04  0.7818609E-02  0.8560840E-01
        2   -1    0    0  501    0  0.00000000000E+00  0.00000000000E+00  0.15674235691E+04  0.15674235691E+04  0.25500000920E-02 0. -1.
       -2   -1    0    0    0  501  0.00000000000E+00  0.00000000000E+00 -0.70399760611E+03  0.70399760611E+03  0.25500000920E-02 0.  1.
    10030    2    1    2    0    0  0.00000000000E+00  0.00000000000E+00  0.86342596299E+03  0.22714211752E+04  0.21009164100E+04 0.  0.
        4    1    3    3  502    0  0.10369943431E+04  0.10657161321E+03  0.29180415839E+03  0.10825276237E+04  0.12699999809E+01 0.  1.
       -4    1    3    3    0  502 -0.10369943431E+04 -0.10657161321E+03  0.57162180459E+03  0.11888935515E+04  0.12699999809E+01 0. -1.
</event>
<event>
 5   0  0.6283269E-06  0.2099075E+04  0.7818609E-02  0.8561651E-01
       -1   -1    0    0    0  501  0.00000000000E+00  0.00000000000E+00  0.49911732551E+03  0.49911732553E+03  0.50400001928E-02 0.  1.
        1   -1    0    0  501    0  0.00000000000E+00  0.00000000000E+00 -0.22069544321E+04  0.22069544321E+04  0.50400001928E-02 0. -1.
    10030    2    1    2    0    0  0.00000000000E+00  0.00000000000E+00 -0.17078371066E+04  0.27060717576E+04  0.20990752190E+04 0.  0.
        1    1    3    3  502    0 -0.34894125664E+03 -0.11312790227E+03 -0.21216232309E+04  0.21531008004E+04  0.50400001928E-02 0. -1.
       -1    1    3    3    0  502  0.34894125664E+03  0.11312790227E+03  0.41378612430E+03  0.55297095723E+03  0.50400001928E-02 0.  1.
</event>
<event>
 5   0  0.1398469E-05  0.2098204E+04  0.7818609E-02  0.8562035E-01
        2   -1    0    0  501    0  0.00000000000E+00  0.00000000000E+00  0.12493361025E+04  0.12493361025E+04  0.25500000920E-02 0. -1.
       -2   -1    0    0    0  501  0.00000000000E+00  0.00000000000E+00 -0.88095965792E+03  0.88095965793E+03  0.25500000920E-02 0.  1.
    10030    2    1    2    0    0  0.00000000000E+00  0.00000000000E+00  0.36837644458E+03  0.21302957604E+04  0.20982037132E+04 0.  0.
        2    1    3    3  502    0  0.32781222164E+02  0.38662789574E+03  0.11738061004E+04  0.12362752524E+04  0.25500000920E-02 0. -1.
       -2    1    3    3    0  502 -0.32781222164E+02 -0.38662789574E+03 -0.80542965584E+03  0.89402050804E+03  0.25500000920E-02 0.  1.
</event>
<event>
 5   0  0.1390735E-05  0.2099680E+04  0.7818609E-02  0.8561384E-01
        2   -1    0    0  501    0  0.00000000000E+00  0.00000000000E+00  0.10994127724E+04  0.10994127724E+04  0.25500000920E-02 0.  1.
       -2   -1    0    0    0  501  0.00000000000E+00  0.00000000000E+00 -0.10025024491E+04  0.10025024491E+04  0.25500000920E-02 0. -1.
    10030    2    1    2    0    0  0.00000000000E+00  0.00000000000E+00  0.96910323242E+02  0.21019152215E+04  0.20996799727E+04 0.  0.
        5    1    3    3  502    0 -0.48849870699E+02  0.12088449684E+03  0.10912658721E+04  0.10990371536E+04  0.46999998093E+01 0.  1.
       -5    1    3    3    0  502  0.48849870699E+02 -0.12088449684E+03 -0.99435554887E+03  0.10028780679E+04  0.46999998093E+01 0. -1.
</event>
<event>
 5   0  0.6589193E-06  0.2096750E+04  0.7818609E-02  0.8562676E-01
       -1   -1    0    0    0  501  0.00000000000E+00  0.00000000000E+00  0.13217565043E+04  0.13217565043E+04  0.50400001928E-02 0. -1.
        1   -1    0    0  501    0  0.00000000000E+00  0.00000000000E+00 -0.83153733759E+03  0.83153733760E+03  0.50400001928E-02 0.  1.
    10030    2    1    2    0    0  0.00000000000E+00  0.00000000000E+00  0.49021916675E+03  0.21532938419E+04  0.20967497558E+04 0.  0.
        3    1    3    3  502    0  0.17963271628E+03 -0.53313228502E+03  0.11536084282E+04  0.12834758906E+04  0.10100000352E+00 0. -1.
       -3    1    3    3    0  502 -0.17963271628E+03  0.53313228502E+03 -0.66338926141E+03  0.86981795132E+03  0.10100000352E+00 0.  1.
</event>
<event>
 5   0  0.6917078E-06  0.2100029E+04  0.7818609E-02  0.8561231E-01
       -1   -1    0    0    0  501  0.00000000000E+00  0.00000000000E+00  0.64980137044E+03  0.64980137046E+03  0.50400001928E-02 0. -1.
        1   -1    0    0  501    0  0.00000000000E+00  0.00000000000E+00 -0.16967185253E+04  0.16967185253E+04  0.50400001928E-02 0.  1.
    10030    2    1    2    0    0  0.00000000000E+00  0.00000000000E+00 -0.10469171549E+04  0.23465198958E+04  0.21000285932E+04 0.  0.
        5    1    3    3  502    0 -0.39716948878E+03 -0.97188508751E+03 -0.53940641782E+03  0.11803751945E+04  0.46999998093E+01 0. -1.
       -5    1    3    3    0  502  0.39716948878E+03  0.97188508751E+03 -0.50751073704E+03  0.11661447013E+04  0.46999998093E+01 0.  1.
</event>
<event>
 5   0  0.1398469E-05  0.2098139E+04  0.7818609E-02  0.8562064E-01
       -2   -1    0    0    0  501  0.00000000000E+00  0.00000000000E+00  0.82018352791E+03  0.82018352792E+03  0.25500000920E-02 0. -1.
        2   -1    0    0  501    0  0.00000000000E+00  0.00000000000E+00 -0.13418299931E+04  0.13418299931E+04  0.25500000920E-02 0.  1.
    10030    2    1    2    0    0  0.00000000000E+00  0.00000000000E+00 -0.52164646514E+03  0.21620135210E+04  0.20981390398E+04 0.  0.
        2    1    3    3  502    0  0.96031386402E+03 -0.30927560299E+03  0.35494632646E+02  0.10095117557E+04  0.25500000920E-02 0. -1.
       -2    1    3    3    0  502 -0.96031386402E+03  0.30927560299E+03 -0.55714109779E+03  0.11525017652E+04  0.25500000920E-02 0.  1.
</event>
<event>
 5   0  0.6238363E-06  0.2099288E+04  0.7818609E-02  0.8561557E-01
        1   -1    0    0  501    0  0.00000000000E+00  0.00000000000E+00  0.45533113382E+03  0.45533113384E+03  0.50400001928E-02 0. -1.
       -1   -1    0    0    0  501  0.00000000000E+00  0.00000000000E+00 -0.24196728380E+04  0.24196728380E+04  0.50400001928E-02 0.  1.
    10030    2    1    2    0    0  0.00000000000E+00  0.00000000000E+00 -0.19643417042E+04  0.28750039719E+04  0.20992878572E+04 0.  0.
        4    1    3    3  502    0  0.47434865086E+03  0.92689148903E+03 -0.80040024077E+03  0.13133075167E+04  0.12699999809E+01 0. -1.
       -4    1    3    3    0  502 -0.47434865086E+03 -0.92689148903E+03 -0.11639414634E+04  0.15616964552E+04  0.12699999809E+01 0.  1.
</event>
<event>
 5   0  0.1344501E-05  0.2098158E+04  0.7818609E-02  0.8562055E-01
       -2   -1    0    0    0  501  0.00000000000E+00  0.00000000000E+00  0.92892928490E+03  0.92892928490E+03  0.25500000920E-02 0.  1.
        2   -1    0    0  501    0  0.00000000000E+00  0.00000000000E+00 -0.11847687078E+04  0.11847687078E+04  0.25500000920E-02 0. -1.
    10030    2    1    2    0    0  0.00000000000E+00  0.00000000000E+00 -0.25583942291E+03  0.21136979927E+04  0.20981576190E+04 0.  0.
        3    1    3    3  502    0  0.45862066780E+03  0.11197051435E+02 -0.10783629563E+04  0.11718894856E+04  0.10100000352E+00 0. -1.
       -3    1    3    3    0  502 -0.45862066780E+03 -0.11197051435E+02  0.82252353335E+03  0.94180850708E+03  0.10100000352E+00 0.  1.
</event>
<event>
 5   0  0.1390735E-05  0.2098775E+04  0.7818609E-02  0.8561783E-01
       -2   -1    0    0    0  501  0.00000000000E+00  0.00000000000E+00  0.11292639908E+04  0.11292639908E+04  0.25500000920E-02 0.  1.
        2   -1    0    0  501    0  0.00000000000E+00  0.00000000000E+00 -0.97516074841E+03  0.97516074841E+03  0.25500000920E-02 0. -1.
    10030    2    1    2    0    0  0.00000000000E+00  0.00000000000E+00  0.15410324243E+03  0.21044247392E+04  0.20987748030E+04 0.  0.
        5    1    3    3  502    0 -0.18825433964E+03 -0.10058399508E+03  0.11072585012E+04  0.11276525684E+04  0.46999998093E+01 0.  1.
       -5    1    3    3    0  502  0.18825433964E+03  0.10058399508E+03 -0.95315525878E+03  0.97677217088E+03  0.46999998093E+01 0. -1.
</event>
<event>
 5   0  0.1395356E-05  0.2098054E+04  0.7818609E-02  0.8562101E-01
       -2   -1    0    0    0  501  0.00000000000E+00  0.00000000000E+00  0.76335944571E+03  0.76335944571E+03  0.25500000920E-02 0.  1.
        2   -1    0    0  501    0  0.00000000000E+00  0.00000000000E+00 -0.14415981579E+04  0.14415981579E+04  0.25500000920E-02 0. -1.
    10030    2    1    2    0    0  0.00000000000E+00  0.00000000000E+00 -0.67823871216E+03  0.22049576036E+04  0.20980539276E+04 0.  0.
        1    1    3    3  502    0 -0.52067290066E+03 -0.83434277475E+03  0.44485141320E+02  0.98448314515E+03  0.50400001928E-02 0.  1.
       -1    1    3    3    0  502  0.52067290066E+03  0.83434277475E+03 -0.72272385348E+03  0.12204744584E+04  0.50400001928E-02 0. -1.
</event>
<event>
 5   0  0.6238363E-06  0.2101298E+04  0.7818609E-02  0.8560672E-01
        1   -1    0    0  501    0  0.00000000000E+00  0.00000000000E+00  0.22041138065E+04  0.22041138065E+04  0.50400001928E-02 0.  1.
       -1   -1    0    0    0  501  0.00000000000E+00  0.00000000000E+00 -0.50081946297E+03  0.50081946300E+03  0.50400001928E-02 0. -1.
    10030    2    1    2    0    0  0.00000000000E+00  0.00000000000E+00  0.17032943435E+04  0.27049332695E+04  0.21012977827E+04 0.  0.
        4    1    3    3  502    0  0.76544840286E+03  0.25262449018E+03  0.17191273710E+04  0.18987182311E+04  0.12699999809E+01 0.  1.
       -4    1    3    3    0  502 -0.76544840286E+03 -0.25262449018E+03 -0.15833027478E+02  0.80621503840E+03  0.12699999809E+01 0. -1.
</event>
<event>
 5   0  0.1395356E-05  0.2081777E+04  0.7818609E-02  0.8569314E-01
        2   -1    0    0  501    0  0.00000000000E+00  0.00000000000E+00  0.17980934532E+04  0.17980934532E+04  0.25500000920E-02 0. -1.
       -2   -1    0    0    0  501  0.00000000000E+00  0.00000000000E+00 -0.60255413898E+03  0.60255413898E+03  0.25500000920E-02 0.  1.
    10030    2    1    2    0    0  0.00000000000E+00  0.00000000000E+00  0.11955393142E+04  0.24006475922E+04  0.20817767916E+04 0.  0.
        1    1    3    3  502    0 -0.48659585773E+03  0.26734694546E+03 -0.41754528258E+03  0.69468984521E+03  0.50400001928E-02 0.  1.
       -1    1    3    3    0  502  0.48659585773E+03 -0.26734694546E+03  0.16130845968E+04  0.17059577470E+04  0.50400001928E-02 0. -1.
</event>
<event>
 5   0  0.6238363E-06  0.2096851E+04  0.7818609E-02  0.8562632E-01
       -1   -1    0    0    0  501  0.00000000000E+00  0.00000000000E+00  0.22159757147E+04  0.22159757147E+04  0.50400001928E-02 0. -1.
        1   -1    0    0  501    0  0.00000000000E+00  0.00000000000E+00 -0.49603256169E+03  0.49603256172E+03  0.50400001928E-02 0.  1.
    10030    2    1    2    0    0  0.00000000000E+00  0.00000000000E+00  0.17199431530E+04  0.27120082765E+04  0.20968510777E+04 0.  0.
        4    1    3    3  502    0 -0.48958576970E+03 -0.30463500459E+03  0.19924645807E+04  0.20742259834E+04  0.12699999809E+01 0. -1.
       -4    1    3    3    0  502  0.48958576970E+03  0.30463500459E+03 -0.27252142766E+03  0.63778229306E+03  0.12699999809E+01 0.  1.
</event>
<event>
 5   0  0.1441136E-05  0.2121785E+04  0.7818609E-02  0.8551707E-01
       -2   -1    0    0    0  501  0.00000000000E+00  0.00000000000E+00  0.11892671945E+04  0.11892671945E+04  0.25500000920E-02 0. -1.
        2   -1    0    0  501    0  0.00000000000E+00  0.00000000000E+00 -0.94637510252E+03  0.94637510252E+03  0.25500000920E-02 0.  1.
    10030    2    1    2    0    0  0.00000000000E+00  0.00000000000E+00  0.24289209195E+03  0.21356422970E+04  0.21217849685E+04 0.  0.
        4    1    3    3  502    0 -0.83800817595E+03 -0.41482898938E+03 -0.38297608373E+03  0.10104519222E+04  0.12699999809E+01 0.  1.
       -4    1    3    3    0  502  0.83800817595E+03  0.41482898938E+03  0.62586817568E+03  0.11251903748E+04  0.12699999809E+01 0. -1.
</event>
<event>
 5   0  0.6283269E-06  0.2091146E+04  0.7818609E-02  0.8565154E-01
        1   -1    0    0  501    0  0.00000000000E+00  0.00000000000E+00  0.17768574282E+04  0.17768574282E+04  0.50400001928E-02 0. -1.
       -1   -1    0    0    0  501  0.00000000000E+00  0.00000000000E+00 -0.61525611928E+03  0.61525611930E+03  0.50400001928E-02 0.  1.
    10030    2    1    2    0    0  0.00000000000E+00  0.00000000000E+00  0.11616013089E+04  0.23921135475E+04  0.20911455289E+04 0.  0.
        1    1    3    3  502    0  0.67972995767E+03 -0.25579746742E+03 -0.27962350346E+03  0.77823805060E+03  0.50400001928E-02 0.  1.
       -1    1    3    3    0  502 -0.67972995767E+03  0.25579746742E+03  0.14412248123E+04  0.16138754969E+04  0.50400001928E-02 0. -1.
</event>
<event>
 5   0  0.1390735E-05  0.2102183E+04  0.7818609E-02  0.8560282E-01
        2   -1    0    0  501    0  0.00000000000E+00  0.00000000000E+00  0.20130493367E+04  0.20130493367E+04  0.25500000920E-02 0. -1.
       -2   -1    0    0    0  501  0.00000000000E+00  0.00000000000E+00 -0.54881581627E+03  0.54881581627E+03  0.25500000920E-02 0.  1.
    10030    2    1    2    0    0  0.00000000000E+00  0.00000000000E+00  0.14642335204E+04  0.25618651530E+04  0.21021829748E+04 0.  0.
        5    1    3    3  502    0 -0.57050670505E+03  0.83105015062E+03  0.10949629798E+04  0.14883172614E+04  0.46999998093E+01 0. -1.
       -5    1    3    3    0  502  0.57050670505E+03 -0.83105015062E+03  0.36927054061E+03  0.10735478916E+04  0.46999998093E+01 0.  1.
</event>
<event>
 5   0  0.1390735E-05  0.2092581E+04  0.7818609E-02  0.8564519E-01
        2   -1    0    0  501    0  0.00000000000E+00  0.00000000000E+00  0.12921147343E+04  0.12921147343E+04  0.25500000920E-02 0. -1.
       -2   -1    0    0    0  501  0.00000000000E+00  0.00000000000E+00 -0.84723421391E+03  0.84723421391E+03  0.25500000920E-02 0.  1.
    10030    2    1    2    0    0  0.00000000000E+00  0.00000000000E+00  0.44488052038E+03  0.21393489482E+04  0.20925810008E+04 0.  0.
        5    1    3    3  502    0  0.68681746493E+03  0.65248835205E+03  0.67648592647E+03  0.11640938873E+04  0.46999998093E+01 0. -1.
       -5    1    3    3    0  502 -0.68681746493E+03 -0.65248835205E+03 -0.23160540610E+03  0.97525506091E+03  0.46999998093E+01 0.  1.
</event>
<event>
 5   0  0.1398469E-05  0.2108716E+04  0.7818609E-02  0.8557414E-01
        2   -1    0    0  501    0  0.00000000000E+00  0.00000000000E+00  0.15870854857E+04  0.15870854858E+04  0.25500000920E-02 0.  1.
       -2   -1    0    0    0  501  0.00000000000E+00  0.00000000000E+00 -0.70044781496E+03  0.70044781497E+03  0.25500000920E-02 0. -1.
    10030    2    1    2    0    0  0.00000000000E+00  0.00000000000E+00  0.88663767079E+03  0.22875333007E+04  0.21087157804E+04 0.  0.
        2    1    3    3  502    0  0.19668689471E+03 -0.94029343770E+03 -0.28079898856E+02  0.96105461044E+03  0.25500000920E-02 0. -1.
       -2    1    3    3    0  502 -0.19668689471E+03  0.94029343770E+03  0.91471756964E+03  0.13264786903E+04  0.25500000920E-02 0.  1.
</event>
<event>
 5   0  0.1398469E-05  0.2099379E+04  0.7818609E-02  0.8561517E-01
       -2   -1    0    0    0  501  0.00000000000E+00  0.00000000000E+00  0.10595512421E+04  0.10595512421E+04  0.25500000920E-02 0. -1.
        2   -1    0    0  501    0  0.00000000000E+00  0.00000000000E+00 -0.10399195936E+04  0.10399195936E+04  0.25500000920E-02 0.  1.
    10030    2    1    2    0    0  0.00000000000E+00  0.00000000000E+00  0.19631648490E+02  0.20994708358E+04  0.20993790483E+04 0.  0.
        2    1    3    3  502    0  0.55520628601E+02  0.97008881984E+03 -0.38730761746E+03  0.10460220118E+04  0.25500000920E-02 0.  1.
       -2    1    3    3    0  502 -0.55520628601E+02 -0.97008881984E+03  0.40693926595E+03  0.10534488240E+04  0.25500000920E-02 0. -1.
</event>
<event>
 5   0  0.1395356E-05  0.2096564E+04  0.7818609E-02  0.8562759E-01
        2   -1    0    0  501    0  0.00000000000E+00  0.00000000000E+00  0.15787148804E+04  0.15787148804E+04  0.25500000920E-02 0. -1.
       -2   -1    0    0    0  501  0.00000000000E+00  0.00000000000E+00 -0.69606910239E+03  0.69606910240E+03  0.25500000920E-02 0.  1.
    10030    2    1    2    0    0  0.00000000000E+00  0.00000000000E+00  0.88264577800E+03  0.22747839828E+04  0.20965635213E+04 0.  0.
        1    1    3    3  502    0 -0.33558691689E+03  0.71057768354E+03  0.11940976898E+04  0.14294784070E+04  0.50400001928E-02 0. -1.
       -1    1    3    3    0  502  0.33558691689E+03 -0.71057768354E+03 -0.31145191181E+03  0.84530557583E+03  0.50400001928E-02 0.  1.
</event>
<event>
 5   0  0.6589193E-06  0.2100898E+04  0.7818609E-02  0.8560848E-01
       -1   -1    0    0    0  501  0.00000000000E+00  0.00000000000E+00  0.80825845016E+03  0.80825845018E+03  0.50400001928E-02 0.  1.
        1   -1    0    0  501    0  0.00000000000E+00  0.00000000000E+00 -0.13652101252E+04  0.13652101252E+04  0.50400001928E-02 0. -1.
    10030    2    1    2    0    0  0.00000000000E+00  0.00000000000E+00 -0.55695167499E+03  0.21734685753E+04  0.21008975415E+04 0.  0.
        3    1    3    3  502    0  0.70716457893E+03  0.44976645185E+03  0.37670189204E+03  0.91884488820E+03  0.10100000352E+00 0.  1.
       -3    1    3    3    0  502 -0.70716457893E+03 -0.44976645185E+03 -0.93365356704E+03  0.12546236871E+04  0.10100000352E+00 0. -1.
</event>
<event>
 5   0  0.6589193E-06  0.2100099E+04  0.7818609E-02  0.8561200E-01
       -1   -1    0    0    0  501  0.00000000000E+00  0.00000000000E+00  0.65578123917E+03  0.65578123919E+03  0.50400001928E-02 0.  1.
        1   -1    0    0  501    0  0.00000000000E+00  0.00000000000E+00 -0.16813590198E+04  0.16813590198E+04  0.50400001928E-02 0. -1.
    10030    2    1    2    0    0  0.00000000000E+00  0.00000000000E+00 -0.10255777806E+04  0.23371402590E+04  0.21000987610E+04 0.  0.
        3    1    3    3  502    0 -0.33588374283E+03 -0.17076613521E+03  0.57795286550E+03  0.68993368273E+03  0.10100000352E+00 0.  1.
       -3    1    3    3    0  502  0.33588374283E+03  0.17076613521E+03 -0.16035306461E+04  0.16472065762E+04  0.10100000352E+00 0. -1.
</event>
<event>
 5   0  0.5009125E-06  0.2104616E+04  0.7818609E-02  0.8559213E-01
        3   -1    0    0  501    0  0.00000000000E+00  0.00000000000E+00  0.71660998357E+03  0.71660999069E+03  0.10100000352E+00 0. -1.
       -3   -1    0    0    0  501  0.00000000000E+00  0.00000000000E+00 -0.15452642710E+04  0.15452642743E+04  0.10100000352E+00 0.  1.
    10030    2    1    2    0    0  0.00000000000E+00  0.00000000000E+00 -0.82865428740E+03  0.22618742650E+04  0.21046157042E+04 0.  0.
        3    1    3    3  502    0  0.54024772446E+03  0.67737259607E+03  0.22749857009E+03  0.89579955754E+03  0.10100000352E+00 0. -1.
       -3    1    3    3    0  502 -0.54024772446E+03 -0.67737259607E+03 -0.10561528575E+04  0.13660747074E+04  0.10100000352E+00 0.  1.
</event>
<event>
 5   0  0.1344501E-05  0.2099516E+04  0.7818609E-02  0.8561457E-01
        2   -1    0    0  501    0  0.00000000000E+00  0.00000000000E+00  0.16443062235E+04  0.16443062235E+04  0.25500000920E-02 0. -1.
       -2   -1    0    0    0  501  0.00000000000E+00  0.00000000000E+00 -0.67018646089E+03  0.67018646089E+03  0.25500000920E-02 0.  1.
    10030    2    1    2    0    0  0.00000000000E+00  0.00000000000E+00  0.97411976264E+03  0.23144926844E+04  0.20995159143E+04 0.  0.
        3    1    3    3  502    0  0.49545975923E+03  0.31542169640E+03 -0.47209882391E+03  0.75355725019E+03  0.10100000352E+00 0.  1.
       -3    1    3    3    0  502 -0.49545975923E+03 -0.31542169640E+03  0.14462185866E+04  0.15609354342E+04  0.10100000352E+00 0. -1.
</event>
<event>
 5   0  0.6283269E-06  0.2100191E+04  0.7818609E-02  0.8561159E-01
        1   -1    0    0  501    0  0.00000000000E+00  0.00000000000E+00  0.17835777631E+04  0.17835777631E+04  0.50400001928E-02 0.  1.
       -1   -1    0    0    0  501  0.00000000000E+00  0.00000000000E+00 -0.61825224403E+03  0.61825224405E+03  0.50400001928E-02 0. -1.
    10030    2    1    2    0    0  0.00000000000E+00  0.00000000000E+00  0.11653255191E+04  0.24018300071E+04  0.21001913765E+04 0.  0.
        1    1    3    3  502    0  0.63182174421E+03  0.23737912339E+03  0.15026610294E+04  0.16472819230E+04  0.50400001928E-02 0.  1.
       -1    1    3    3    0  502 -0.63182174421E+03 -0.23737912339E+03 -0.33733551033E+03  0.75454808411E+03  0.50400001928E-02 0. -1.
</event>
<event>
 5   0  0.1398469E-05  0.2081060E+04  0.7818609E-02  0.8569633E-01
       -2   -1    0    0    0  501  0.00000000000E+00  0.00000000000E+00  0.56802059562E+03  0.56802059563E+03  0.25500000920E-02 0.  1.
        2   -1    0    0  501    0  0.00000000000E+00  0.00000000000E+00 -0.19060983081E+04  0.19060983081E+04  0.25500000920E-02 0. -1.
    10030    2    1    2    0    0  0.00000000000E+00  0.00000000000E+00 -0.13380777125E+04  0.24741189037E+04  0.20810603992E+04 0.  0.
        2    1    3    3  502    0 -0.71377105444E+03 -0.40640777362E+03  0.90415120061E+02  0.82632396223E+03  0.25500000920E-02 0.  1.
       -2    1    3    3    0  502  0.71377105444E+03  0.40640777362E+03 -0.14284928326E+04  0.16477949415E+04  0.25500000920E-02 0. -1.
</event>
<event>
 5   0  0.6238363E-06  0.2094215E+04  0.7818609E-02  0.8563796E-01
       -1   -1    0    0    0  501  0.00000000000E+00  0.00000000000E+00  0.55649644554E+03  0.55649644557E+03  0.50400001928E-02 0. -1.
        1   -1    0    0  501    0  0.00000000000E+00  0.00000000000E+00 -0.19702443733E+04  0.19702443733E+04  0.50400001928E-02 0.  1.
    10030    2    1    2    0    0  0.00000000000E+00  0.00000000000E+00 -0.14137479277E+04  0.25267408189E+04  0.20942148797E+04 0.  0.
        4    1    3    3  502    0 -0.33402193264E+03  0.18224123163E+03  0.47013033564E+03  0.60481952959E+03  0.12699999809E+01 0. -1.
       -4    1    3    3    0  502  0.33402193264E+03 -0.18224123163E+03 -0.18838782634E+04  0.19219212893E+04  0.12699999809E+01 0.  1.
</event>
<event>
 5   0  0.6283269E-06  0.2100818E+04  0.7818609E-02  0.8560883E-01
        1   -1    0    0  501    0  0.00000000000E+00  0.00000000000E+00  0.14350066172E+04  0.14350066172E+04  0.50400001928E-02 0.  1.
       -1   -1    0    0    0  501  0.00000000000E+00  0.00000000000E+00 -0.76888782403E+03  0.76888782405E+03  0.50400001928E-02 0. -1.
    10030    2    1    2    0    0  0.00000000000E+00  0.00000000000E+00  0.66611879321E+03  0.22038944413E+04  0.21008180458E+04 0.  0.
        1    1    3    3  502    0  0.81980361702E+03  0.65638860866E+03  0.35494288356E+03  0.11085614221E+04  0.50400001928E-02 0. -1.
       -1    1    3    3    0  502 -0.81980361702E+03 -0.65638860866E+03  0.31117590965E+03  0.10953330191E+04  0.50400001928E-02 0.  1.
</event>
<event>
 5   0  0.6599245E-06  0.2101336E+04  0.7818609E-02  0.8560655E-01
       -1   -1    0    0    0  501  0.00000000000E+00  0.00000000000E+00  0.10944365029E+04  0.10944365029E+04  0.50400001928E-02 0.  1.
        1   -1    0    0  501    0  0.00000000000E+00  0.00000000000E+00 -0.10086496593E+04  0.10086496593E+04  0.50400001928E-02 0. -1.
    10030    2    1    2    0    0  0.00000000000E+00  0.00000000000E+00  0.85786843627E+02  0.21030861623E+04  0.21013357712E+04 0.  0.
        2    1    3    3  502    0 -0.66938496851E+03  0.51002774399E+03 -0.58667624884E+03  0.10258623478E+04  0.25500000920E-02 0. -1.
       -2    1    3    3    0  502  0.66938496851E+03 -0.51002774399E+03  0.67246309246E+03  0.10772238145E+04  0.25500000920E-02 0.  1.
</event>
<event>
 5   0  0.6589193E-06  0.2079396E+04  0.7818609E-02  0.8570374E-01
        1   -1    0    0  501    0  0.00000000000E+00  0.00000000000E+00  0.19598788728E+04  0.19598788728E+04  0.50400001928E-02 0. -1.
       -1   -1    0    0    0  501  0.00000000000E+00  0.00000000000E+00 -0.55155060811E+03  0.55155060813E+03  0.50400001928E-02 0.  1.
    10030    2    1    2    0    0  0.00000000000E+00  0.00000000000E+00  0.14083282647E+04  0.25114294810E+04  0.20793964357E+04 0.  0.
        3    1    3    3  502    0 -0.43407989321E+03 -0.46726804066E+02 -0.43547511583E+03  0.61664198253E+03  0.10100000352E+00 0.  1.
       -3    1    3    3    0  502  0.43407989321E+03  0.46726804066E+02  0.18438033805E+04  0.18947874984E+04  0.10100000352E+00 0. -1.
</event>
<event>
 5   0  0.1441136E-05  0.2100215E+04  0.7818609E-02  0.8561149E-01
       -2   -1    0    0    0  501  0.00000000000E+00  0.00000000000E+00  0.63264889496E+03  0.63264889496E+03  0.25500000920E-02 0. -1.
        2   -1    0    0  501    0  0.00000000000E+00  0.00000000000E+00 -0.17430298841E+04  0.17430298841E+04  0.25500000920E-02 0.  1.
    10030    2    1    2    0    0  0.00000000000E+00  0.00000000000E+00 -0.11103809892E+04  0.23756787791E+04  0.21002151605E+04 0.  0.
        4    1    3    3  502    0  0.14582200286E+03 -0.94147512783E+03 -0.55575234423E+02  0.95432158753E+03  0.12699999809E+01 0. -1.
       -4    1    3    3    0  502 -0.14582200286E+03  0.94147512783E+03 -0.10548057547E+04  0.14213571916E+04  0.12699999809E+01 0.  1.
</event>
<event>
 5   0  0.1441136E-05  0.2096191E+04  0.7818609E-02  0.8562923E-01
        2   -1    0    0  501    0  0.00000000000E+00  0.00000000000E+00  0.19371072054E+04  0.19371072054E+04  0.25500000920E-02 0.  1.
       -2   -1    0    0    0  501  0.00000000000E+00  0.00000000000E+00 -0.56708505525E+03  0.56708505526E+03  0.25500000920E-02 0. -1.
    10030    2    1    2    0    0  0.00000000000E+00  0.00000000000E+00  0.13700221501E+04  0.25041922606E+04  0.20961913525E+04 0.  0.
        4    1    3    3  502    0  0.77415454767E+03 -0.12374598188E+03  0.15160151578E+04  0.17067313507E+04  0.12699999809E+01 0.  1.
       -4    1    3    3    0  502 -0.77415454767E+03  0.12374598188E+03 -0.14599300770E+03  0.79746090996E+03  0.12699999809E+01 0. -1.
</event>
<event>
 5   0  0.6599245E-06  0.2101144E+04  0.7818609E-02  0.8560740E-01
        1   -1    0    0  501    0  0.00000000000E+00  0.00000000000E+00  0.12428934288E+04  0.12428934288E+04  0.50400001928E-02 0. -1.
       -1   -1    0    0    0  501  0.00000000000E+00  0.00000000000E+00 -0.88800985025E+03  0.88800985026E+03  0.50400001928E-02 0.  1.
    10030    2    1    2    0    0  0.00000000000E+00  0.00000000000E+00  0.35488357854E+03  0.21309032791E+04  0.21011440765E+04 0.  0.
        2    1    3    3  502    0  0.68868196697E+03  0.68755352556E+03  0.57888769027E+03  0.11323089950E+04  0.25500000920E-02 0. -1.
       -2    1    3    3    0  502 -0.68868196697E+03 -0.68755352556E+03 -0.22400411173E+03  0.99859428409E+03  0.25500000920E-02 0.  1.
</event>
<event>
 5   0  0.1441136E-05  0.2156498E+04  0.7818609E-02  0.8536756E-01
        2   -1    0    0  501    0  0.00000000000E+00  0.00000000000E+00  0.88829847839E+03  0.88829847840E+03  0.25500000920E-02 0.  1.
       -2   -1    0    0    0  501  0.00000000000E+00  0.00000000000E+00 -0.13088178090E+04  0.13088178090E+04  0.25500000920E-02 0. -1.
    10030    2    1    2    0    0  0.00000000000E+00  0.00000000000E+00 -0.42051933060E+03  0.21971162874E+04  0.21564979650E+04 0.  0.
        4    1    3    3  502    0  0.75111757764E+03 -0.27168426666E+03 -0.94821531408E+03  0.12397999238E+04  0.12699999809E+01 0. -1.
       -4    1    3    3    0  502 -0.75111757764E+03  0.27168426666E+03  0.52769598348E+03  0.95731636363E+03  0.12699999809E+01 0.  1.
</event>
<event>
 5   0  0.1395356E-05  0.2103405E+04  0.7818609E-02  0.8559745E-01
       -2   -1    0    0    0  501  0.00000000000E+00  0.00000000000E+00  0.50796257143E+03  0.50796257143E+03  0.25500000920E-02 0. -1.
        2   -1    0    0  501    0  0.00000000000E+00  0.00000000000E+00 -0.21774805917E+04  0.21774805917E+04  0.25500000920E-02 0.  1.
    10030    2    1    2    0    0  0.00000000000E+00  0.00000000000E+00 -0.16695180203E+04  0.26854431632E+04  0.21034054679E+04 0.  0.
        1    1    3    3  502    0 -0.25660927735E+03 -0.80300687686E+03 -0.16375767155E+04  0.18418267738E+04  0.50400001928E-02 0.  1.
       -1    1    3    3    0  502  0.25660927735E+03  0.80300687686E+03 -0.31941304853E+02  0.84361638941E+03  0.50400001928E-02 0. -1.
</event>
<event>
 5   0  0.1441136E-05  0.2096016E+04  0.7818609E-02  0.8563001E-01
       -2   -1    0    0    0  501  0.00000000000E+00  0.00000000000E+00  0.11998340777E+04  0.11998340777E+04  0.25500000920E-02 0. -1.
        2   -1    0    0  501    0  0.00000000000E+00  0.00000000000E+00 -0.91539355041E+03  0.91539355041E+03  0.25500000920E-02 0.  1.
    10030    2    1    2    0    0  0.00000000000E+00  0.00000000000E+00  0.28444052730E+03  0.21152276281E+04  0.20960156262E+04 0.  0.
        4    1    3    3  502    0 -0.35439021711E+03  0.92921202448E+03 -0.19140235859E+03  0.10127506545E+04  0.12699999809E+01 0. -1.
       -4    1    3    3    0  502  0.35439021711E+03 -0.92921202448E+03  0.47584288589E+03  0.11024769736E+04  0.12699999809E+01 0.  1.
</event>
<event>
 5   0  0.6589193E-06  0.2102430E+04  0.7818609E-02  0.8560173E-01
        1   -1    0    0  501    0  0.00000000000E+00  0.00000000000E+00  0.17554111238E+04  0.17554111238E+04  0.50400001928E-02 0. -1.
       -1   -1    0    0    0  501  0.00000000000E+00  0.00000000000E+00 -0.62951261710E+03  0.62951261712E+03  0.50400001928E-02 0.  1.
    10030    2    1    2    0    0  0.00000000000E+00  0.00000000000E+00  0.11258985067E+04  0.23849237409E+04  0.21024304513E+04 0.  0.
        3    1    3    3  502    0  0.57168519391E+03 -0.78320917569E+03  0.10242933897E+03  0.97505505153E+03  0.10100000352E+00 0.  1.
       -3    1    3    3    0  502 -0.57168519391E+03  0.78320917569E+03  0.10234691677E+04  0.14098686894E+04  0.10100000352E+00 0. -1.
</event>
<event>
 5   0  0.1390735E-05  0.2095668E+04  0.7818609E-02  0.8563154E-01
       -2   -1    0    0    0  501  0.00000000000E+00  0.00000000000E+00  0.22568785926E+04  0.22568785926E+04  0.25500000920E-02 0.  1.
        2   -1    0    0  501    0  0.00000000000E+00  0.00000000000E+00 -0.48649316336E+03  0.48649316336E+03  0.25500000920E-02 0. -1.
    10030    2    1    2    0    0  0.00000000000E+00  0.00000000000E+00  0.17703854292E+04  0.27433717559E+04  0.20956679182E+04 0.  0.
        5    1    3    3  502    0 -0.46859166621E+03  0.19134136542E+03 -0.31583291930E+03  0.59662567048E+03  0.46999998093E+01 0. -1.
       -5    1    3    3    0  502  0.46859166621E+03 -0.19134136542E+03  0.20862183485E+04  0.21467460855E+04  0.46999998093E+01 0.  1.
</event>
<event>
 5   0  0.6589193E-06  0.2100118E+04  0.7818609E-02  0.8561192E-01
        1   -1    0    0  501    0  0.00000000000E+00  0.00000000000E+00  0.19308425518E+04  0.19308425518E+04  0.50400001928E-02 0. -1.
       -1   -1    0    0    0  501  0.00000000000E+00  0.00000000000E+00 -0.57105828602E+03  0.57105828604E+03  0.50400001928E-02 0.  1.
    10030    2    1    2    0    0  0.00000000000E+00  0.00000000000E+00  0.13597842657E+04  0.25019008378E+04  0.21001177474E+04 0.  0.
        3    1    3    3  502    0  0.58919055869E+03 -0.68721312288E+03  0.13138866789E+04  0.15955267487E+04  0.10100000352E+00 0. -1.
       -3    1    3    3    0  502 -0.58919055869E+03  0.68721312288E+03  0.45897586866E+02  0.90637408910E+03  0.10100000352E+00 0.  1.
</event>
<event>
 5   0  0.6589193E-06  0.2097162E+04  0.7818609E-02  0.8562494E-01
        1   -1    0    0  501    0  0.00000000000E+00  0.00000000000E+00  0.10337811493E+04  0.10337811493E+04  0.50400001928E-02 0. -1.
       -1   -1    0    0    0  501  0.00000000000E+00  0.00000000000E+00 -0.10635931243E+04  0.10635931243E+04  0.50400001928E-02 0.  1.
    10030    2    1    2    0    0  0.00000000000E+00  0.00000000000E+00 -0.29811974921E+02  0.20973742736E+04  0.20971623899E+04 0.  0.
        3    1    3    3  502    0  0.19834643218E+03 -0.29109932786E+03 -0.10026506413E+04  0.10627268908E+04  0.10100000352E+00 0.  1.
       -3    1    3    3    0  502 -0.19834643218E+03  0.29109932786E+03  0.97283866633E+03  0.10346473828E+04  0.10100000352E+00 0. -1.
</event>
<event>
 5   0  0.1344501E-05  0.2097617E+04  0.7818609E-02  0.8562294E-01
       -2   -1    0    0    0  501  0.00000000000E+00  0.00000000000E+00  0.19791172580E+04  0.19791172580E+04  0.25500000920E-02 0.  1.
        2   -1    0    0  501    0  0.00000000000E+00  0.00000000000E+00 -0.55580272981E+03  0.55580272981E+03  0.25500000920E-02 0. -1.
    10030    2    1    2    0    0  0.00000000000E+00  0.00000000000E+00  0.14233145282E+04  0.25349199878E+04  0.20976165280E+04 0.  0.
        3    1    3    3  502    0 -0.63215856876E+03 -0.36418027051E+03 -0.19891747570E+03  0.75618773980E+03  0.10100000352E+00 0.  1.
       -3    1    3    3    0  502  0.63215856876E+03  0.36418027051E+03  0.16222320039E+04  0.17787322480E+04  0.10100000352E+00 0. -1.
</event>
<event>
 5   0  0.6283269E-06  0.2100845E+04  0.7818609E-02  0.8560871E-01
       -1   -1    0    0    0  501  0.00000000000E+00  0.00000000000E+00  0.50763797215E+03  0.50763797218E+03  0.50400001928E-02 0. -1.
        1   -1    0    0  501    0  0.00000000000E+00  0.00000000000E+00 -0.21735721409E+04  0.21735721409E+04  0.50400001928E-02 0.  1.
    10030    2    1    2    0    0  0.00000000000E+00  0.00000000000E+00 -0.16659341687E+04  0.26812101131E+04  0.21008453098E+04 0.  0.
        1    1    3    3  502    0  0.47275712619E+02 -0.52395896330E+03  0.32738467798E+03  0.61963595411E+03  0.50400001928E-02 0. -1.
       -1    1    3    3    0  502 -0.47275712619E+02  0.52395896330E+03 -0.19933188467E+04  0.20615741589E+04  0.50400001928E-02 0.  1.
</event>
<event>
 5   0  0.6238363E-06  0.2099364E+04  0.7818609E-02  0.8561523E-01
       -1   -1    0    0    0  501  0.00000000000E+00  0.00000000000E+00  0.97771480903E+03  0.97771480904E+03  0.50400001928E-02 0.  1.
        1   -1    0    0  501    0  0.00000000000E+00  0.00000000000E+00 -0.11269469844E+04  0.11269469844E+04  0.50400001928E-02 0. -1.
    10030    2    1    2    0    0  0.00000000000E+00  0.00000000000E+00 -0.14923217539E+03  0.21046617935E+04  0.20993644330E+04 0.  0.
        4    1    3    3  502    0 -0.54880142524E+03 -0.27741494964E+03 -0.92746184448E+03  0.11128023834E+04  0.12699999809E+01 0. -1.
       -4    1    3    3    0  502  0.54880142524E+03  0.27741494964E+03  0.77822966908E+03  0.99185941008E+03  0.12699999809E+01 0.  1.
</event>
<event>
 5   0  0.6917078E-06  0.2098346E+04  0.7818609E-02  0.8561972E-01
        1   -1    0    0  501    0  0.00000000000E+00  0.00000000000E+00  0.96627369748E+03  0.96627369750E+03  0.50400001928E-02 0. -1.
       -1   -1    0    0    0  501  0.00000000000E+00  0.00000000000E+00 -0.11391848698E+04  0.11391848698E+04  0.50400001928E-02 0.  1.
    10030    2    1    2    0    0  0.00000000000E+00  0.00000000000E+00 -0.17291117232E+03  0.21054585673E+04  0.20983463740E+04 0.  0.
        5    1    3    3  502    0 -0.68511722910E+03 -0.30363157739E+03  0.65031143696E+03  0.99222215629E+03  0.46999998093E+01 0. -1.
       -5    1    3    3    0  502  0.68511722910E+03  0.30363157739E+03 -0.82322260928E+03  0.11132364110E+04  0.46999998093E+01 0.  1.
</event>
<event>
 5   0  0.6238363E-06  0.2096977E+04  0.7818609E-02  0.8562576E-01
       -1   -1    0    0    0  501  0.00000000000E+00  0.00000000000E+00  0.83460021132E+03  0.83460021134E+03  0.50400001928E-02 0.  1.
        1   -1    0    0  501    0  0.00000000000E+00  0.00000000000E+00 -0.13171909031E+04  0.13171909031E+04  0.50400001928E-02 0. -1.
    10030    2    1    2    0    0  0.00000000000E+00  0.00000000000E+00 -0.48259069175E+03  0.21517911144E+04  0.20969766866E+04 0.  0.
        4    1    3    3  502    0  0.65416665504E+03 -0.35786627015E+03  0.51507748009E+03  0.90626083623E+03  0.12699999809E+01 0.  1.
       -4    1    3    3    0  502 -0.65416665504E+03  0.35786627015E+03 -0.99766817184E+03  0.12455302782E+04  0.12699999809E+01 0. -1.
</event>
<event>
 5   0  0.6283269E-06  0.2103815E+04  0.7818609E-02  0.8559565E-01
        1   -1    0    0  501    0  0.00000000000E+00  0.00000000000E+00  0.70394326556E+03  0.70394326558E+03  0.50400001928E-02 0. -1.
       -1   -1    0    0    0  501  0.00000000000E+00  0.00000000000E+00 -0.15718728341E+04  0.15718728341E+04  0.50400001928E-02 0.  1.
    10030    2    1    2    0    0  0.00000000000E+00  0.00000000000E+00 -0.86792956855E+03  0.22758160997E+04  0.21038149119E+04 0.  0.
        1    1    3    3  502    0  0.86074906196E+03  0.13361681117E+03  0.20396628744E+03  0.89461983341E+03  0.50400001928E-02 0. -1.
       -1    1    3    3    0  502 -0.86074906196E+03 -0.13361681117E+03 -0.10718958560E+04  0.13811962663E+04  0.50400001928E-02 0.  1.
</event>
<event>
 5   0  0.1441136E-05  0.2084780E+04  0.7818609E-02  0.8567978E-01
       -2   -1    0    0    0  501  0.00000000000E+00  0.00000000000E+00  0.61695233871E+03  0.61695233872E+03  0.25500000920E-02 0.  1.
        2   -1    0    0  501    0  0.00000000000E+00  0.00000000000E+00 -0.17612004245E+04  0.17612004245E+04  0.25500000920E-02 0. -1.
    10030    2    1    2    0    0  0.00000000000E+00  0.00000000000E+00 -0.11442480858E+04  0.23781527632E+04  0.20847798165E+04 0.  0.
        4    1    3    3  502    0  0.29837630544E+03  0.98369266239E+03 -0.76935813623E+03  0.12839755560E+04  0.12699999809E+01 0. -1.
       -4    1    3    3    0  502 -0.29837630544E+03 -0.98369266239E+03 -0.37488994957E+03  0.10941772073E+04  0.12699999809E+01 0.  1.
</event>
<event>
 5   0  0.6238363E-06  0.2099704E+04  0.7818609E-02  0.8561374E-01
        1   -1    0    0  501    0  0.00000000000E+00  0.00000000000E+00  0.49011508581E+03  0.49011508583E+03  0.50400001928E-02 0. -1.
       -1   -1    0    0    0  501  0.00000000000E+00  0.00000000000E+00 -0.22488382252E+04  0.22488382252E+04  0.50400001928E-02 0.  1.
    10030    2    1    2    0    0  0.00000000000E+00  0.00000000000E+00 -0.17587231394E+04  0.27389533110E+04  0.20997043027E+04 0.  0.
        4    1    3    3  502    0  0.57485203910E+03  0.75339592623E+03 -0.14687171452E+04  0.17479107398E+04  0.12699999809E+01 0.  1.
       -4    1    3    3    0  502 -0.57485203910E+03 -0.75339592623E+03 -0.29000599413E+03  0.99104257126E+03  0.12699999809E+01 0. -1.
</event>
<event>
 5   0  0.6238363E-06  0.2103024E+04  0.7818609E-02  0.8559912E-01
        1   -1    0    0  501    0  0.00000000000E+00  0.00000000000E+00  0.12545932757E+04  0.12545932757E+04  0.50400001928E-02 0. -1.
       -1   -1    0    0    0  501  0.00000000000E+00  0.00000000000E+00 -0.88130370556E+03  0.88130370557E+03  0.50400001928E-02 0.  1.
    10030    2    1    2    0    0  0.00000000000E+00  0.00000000000E+00  0.37328957015E+03  0.21358969813E+04  0.21030242061E+04 0.  0.
        4    1    3    3  502    0  0.80900223002E+02 -0.46109788513E+03 -0.76962469553E+03  0.90082178627E+03  0.12699999809E+01 0.  1.
       -4    1    3    3    0  502 -0.80900223002E+02  0.46109788513E+03  0.11429142657E+04  0.12350751950E+04  0.12699999809E+01 0. -1.
</event>
<event>
 5   0  0.6589193E-06  0.2101941E+04  0.7818609E-02  0.8560389E-01
        1   -1    0    0  501    0  0.00000000000E+00  0.00000000000E+00  0.20103801341E+04  0.20103801341E+04  0.50400001928E-02 0. -1.
       -1   -1    0    0    0  501  0.00000000000E+00  0.00000000000E+00 -0.54941804643E+03  0.54941804645E+03  0.50400001928E-02 0.  1.
    10030    2    1    2    0    0  0.00000000000E+00  0.00000000000E+00  0.14609620877E+04  0.25597981806E+04  0.21019411275E+04 0.  0.
        3    1    3    3  502    0 -0.68517242710E+03 -0.48170855550E+02  0.16992133980E+04  0.18327869130E+04  0.10100000352E+00 0. -1.
       -3    1    3    3    0  502  0.68517242710E+03  0.48170855550E+02 -0.23825131031E+03  0.72701126762E+03  0.10100000352E+00 0.  1.
</event>
<event>
 5   0  0.6589193E-06  0.2100212E+04  0.7818609E-02  0.8561150E-01
        1   -1    0    0  501    0  0.00000000000E+00  0.00000000000E+00  0.13993983610E+04  0.13993983610E+04  0.50400001928E-02 0.  1.
       -1   -1    0    0    0  501  0.00000000000E+00  0.00000000000E+00 -0.78799795112E+03  0.78799795114E+03  0.50400001928E-02 0. -1.
    10030    2    1    2    0    0  0.00000000000E+00  0.00000000000E+00  0.61140040987E+03  0.21873963121E+04  0.21002124095E+04 0.  0.
        3    1    3    3  502    0 -0.51230735392E+03 -0.78327028719E+03 -0.19025184268E+03  0.95507431204E+03  0.10100000352E+00 0.  1.
       -3    1    3    3    0  502  0.51230735392E+03  0.78327028719E+03  0.80165225256E+03  0.12323220001E+04  0.10100000352E+00 0. -1.
</event>
<event>
 5   0  0.1441136E-05  0.2098496E+04  0.7818609E-02  0.8561906E-01
       -2   -1    0    0    0  501  0.00000000000E+00  0.00000000000E+00  0.11990972024E+04  0.11990972024E+04  0.25500000920E-02 0. -1.
        2   -1    0    0  501    0  0.00000000000E+00  0.00000000000E+00 -0.91812513263E+03  0.91812513264E+03  0.25500000920E-02 0.  1.
    10030    2    1    2    0    0  0.00000000000E+00  0.00000000000E+00  0.28097206981E+03  0.21172223351E+04  0.20984959166E+04 0.  0.
        4    1    3    3  502    0 -0.55997593730E+03 -0.45968270676E+03  0.90623085036E+03  0.11602315322E+04  0.12699999809E+01 0. -1.
       -4    1    3    3    0  502  0.55997593730E+03  0.45968270676E+03 -0.62525878056E+03  0.95699080289E+03  0.12699999809E+01 0.  1.
</event>
<event>
 5   0  0.6599245E-06  0.2111983E+04  0.7818609E-02  0.8555983E-01
        1   -1    0    0  501    0  0.00000000000E+00  0.00000000000E+00  0.85892531076E+03  0.85892531077E+03  0.50400001928E-02 0.  1.
       -1   -1    0    0    0  501  0.00000000000E+00  0.00000000000E+00 -0.12982718426E+04  0.12982718426E+04  0.50400001928E-02 0. -1.
    10030    2    1    2    0    0  0.00000000000E+00  0.00000000000E+00 -0.43934653182E+03  0.21571971534E+04  0.21119834714E+04 0.  0.
        2    1    3    3  502    0 -0.19809643858E+03 -0.37850796878E+03 -0.12060638247E+04  0.12794922550E+04  0.25500000920E-02 0. -1.
       -2    1    3    3    0  502  0.19809643858E+03  0.37850796878E+03  0.76671729286E+03  0.87770489835E+03  0.25500000920E-02 0.  1.
</event>
<event>
 5   0  0.6238363E-06  0.2099040E+04  0.7818609E-02  0.8561666E-01
       -1   -1    0    0    0  501  0.00000000000E+00  0.00000000000E+00  0.56373874406E+03  0.56373874408E+03  0.50400001928E-02 0.  1.
        1   -1    0    0  501    0  0.00000000000E+00  0.00000000000E+00 -0.19539061652E+04  0.19539061652E+04  0.50400001928E-02 0. -1.
    10030    2    1    2    0    0  0.00000000000E+00  0.00000000000E+00 -0.13901674211E+04  0.25176449092E+04  0.20990403594E+04 0.  0.
        4    1    3    3  502    0  0.12299560766E+03  0.57641458929E+03 -0.17366594006E+04  0.18339490682E+04  0.12699999809E+01 0. -1.
       -4    1    3    3    0  502 -0.12299560766E+03 -0.57641458929E+03  0.34649197951E+03  0.68369584101E+03  0.12699999809E+01 0.  1.
</event>
<event>
 5   0  0.1441136E-05  0.2098363E+04  0.7818609E-02  0.8561965E-01
       -2   -1    0    0    0  501  0.00000000000E+00  0.00000000000E+00  0.14534915442E+04  0.14534915442E+04  0.25500000920E-02 0.  1.
        2   -1    0    0  501    0  0.00000000000E+00  0.00000000000E+00 -0.75733602052E+03  0.75733602052E+03  0.25500000920E-02 0. -1.
    10030    2    1    2    0    0  0.00000000000E+00  0.00000000000E+00  0.69615552370E+03  0.22108275647E+04  0.20983626969E+04 0.  0.
        4    1    3    3  502    0  0.33939935414E+03  0.33174695293E+02 -0.69731477740E+03  0.77623578484E+03  0.12699999809E+01 0. -1.
       -4    1    3    3    0  502 -0.33939935414E+03 -0.33174695293E+02  0.13934703011E+04  0.14345917799E+04  0.12699999809E+01 0.  1.
</event>
<event>
 5   0  0.1390735E-05  0.2097410E+04  0.7818609E-02  0.8562385E-01
        2   -1    0    0  501    0  0.00000000000E+00  0.00000000000E+00  0.12456997803E+04  0.12456997803E+04  0.25500000920E-02 0. -1.
       -2   -1    0    0    0  501  0.00000000000E+00  0.00000000000E+00 -0.88286320204E+03  0.88286320205E+03  0.25500000920E-02 0.  1.
    10030    2    1    2    0    0  0.00000000000E+00  0.00000000000E+00  0.36283657827E+03  0.21285629824E+04  0.20974103050E+04 0.  0.
        5    1    3    3  502    0  0.39752742890E+03  0.88711475724E+03 -0.21781994690E+03  0.99622701656E+03  0.46999998093E+01 0.  1.
       -5    1    3    3    0  502 -0.39752742890E+03 -0.88711475724E+03  0.58065652517E+03  0.11323359658E+04  0.46999998093E+01 0. -1.
</event>
<event>
 5   0  0.6238363E-06  0.2103794E+04  0.7818609E-02  0.8559574E-01
        1   -1    0    0  501    0  0.00000000000E+00  0.00000000000E+00  0.99439738416E+03  0.99439738417E+03  0.50400001928E-02 0.  1.
       -1   -1    0    0    0  501  0.00000000000E+00  0.00000000000E+00 -0.11127215559E+04  0.11127215559E+04  0.50400001928E-02 0. -1.
    10030    2    1    2    0    0  0.00000000000E+00  0.00000000000E+00 -0.11832417177E+03  0.21071189401E+04  0.21037941007E+04 0.  0.
        4    1    3    3  502    0  0.89662370745E+03  0.63319771015E+02 -0.60641587035E+03  0.10842902226E+04  0.12699999809E+01 0. -1.
       -4    1    3    3    0  502 -0.89662370745E+03 -0.63319771015E+02  0.48809169858E+03  0.10228287175E+04  0.12699999809E+01 0.  1.
</event>
<event>
 5   0  0.1441136E-05  0.2094581E+04  0.7818609E-02  0.8563634E-01
        2   -1    0    0  501    0  0.00000000000E+00  0.00000000000E+00  0.12022214787E+04  0.12022214787E+04  0.25500000920E-02 0.  1.
       -2   -1    0    0    0  501  0.00000000000E+00  0.00000000000E+00 -0.91232560726E+03  0.91232560727E+03  0.25500000920E-02 0. -1.
    10030    2    1    2    0    0  0.00000000000E+00  0.00000000000E+00  0.28989587146E+03  0.21145470860E+04  0.20945810470E+04 0.  0.
        4    1    3    3  502    0 -0.13398713021E+03 -0.11678437724E+03 -0.89698748465E+03  0.91442840198E+03  0.12699999809E+01 0. -1.
       -4    1    3    3    0  502  0.13398713021E+03  0.11678437724E+03  0.11868833561E+04  0.12001186840E+04  0.12699999809E+01 0.  1.
</event>
<event>
 5   0  0.1344501E-05  0.2099076E+04  0.7818609E-02  0.8561651E-01
       -2   -1    0    0    0  501  0.00000000000E+00  0.00000000000E+00  0.99093831277E+03  0.99093831277E+03  0.25500000920E-02 0.  1.
        2   -1    0    0  501    0  0.00000000000E+00  0.00000000000E+00 -0.11116027476E+04  0.11116027476E+04  0.25500000920E-02 0. -1.
    10030    2    1    2    0    0  0.00000000000E+00  0.00000000000E+00 -0.12066443484E+03  0.21025410604E+04  0.20990757501E+04 0.  0.
        3    1    3    3  502    0  0.30351144102E+03 -0.77269791495E+03  0.58287153974E+03  0.10143571879E+04  0.10100000352E+00 0.  1.
       -3    1    3    3    0  502 -0.30351144102E+03  0.77269791495E+03 -0.70353597458E+03  0.10881838725E+04  0.10100000352E+00 0. -1.
</event>
<event>
 5   0  0.6917078E-06  0.2097340E+04  0.7818609E-02  0.8562416E-01
        1   -1    0    0  501    0  0.00000000000E+00  0.00000000000E+00  0.85571633717E+03  0.85571633718E+03  0.50400001928E-02 0.  1.
       -1   -1    0    0    0  501  0.00000000000E+00  0.00000000000E+00 -0.12851318380E+04  0.12851318381E+04  0.50400001928E-02 0. -1.
    10030    2    1    2    0    0  0.00000000000E+00  0.00000000000E+00 -0.42941550088E+03  0.21408481752E+04  0.20973395617E+04 0.  0.
        5    1    3    3  502    0 -0.46931154877E+02  0.51196593645E+03  0.71824090763E+03  0.88329142687E+03  0.46999998093E+01 0.  1.
       -5    1    3    3    0  502  0.46931154877E+02 -0.51196593645E+03 -0.11476564085E+04  0.12575567484E+04  0.46999998093E+01 0. -1.
</event>
<event>
 5   0  0.1398469E-05  0.2098936E+04  0.7818609E-02  0.8561712E-01
        2   -1    0    0  501    0  0.00000000000E+00  0.00000000000E+00  0.12453374985E+04  0.12453374985E+04  0.25500000920E-02 0.  1.
       -2   -1    0    0    0  501  0.00000000000E+00  0.00000000000E+00 -0.88440556161E+03  0.88440556162E+03  0.25500000920E-02 0. -1.
    10030    2    1    2    0    0  0.00000000000E+00  0.00000000000E+00  0.36093193693E+03  0.21297430602E+04  0.20989363114E+04 0.  0.
        2    1    3    3  502    0  0.62996669105E+03 -0.76934064327E+03  0.52101131605E+03  0.11225844506E+04  0.25500000920E-02 0.  1.
       -2    1    3    3    0  502 -0.62996669105E+03  0.76934064327E+03 -0.16007937913E+03  0.10071586096E+04  0.25500000920E-02 0. -1.
</event>
<event>
 5   0  0.6917078E-06  0.2094920E+04  0.7818609E-02  0.8563485E-01
        1   -1    0    0  501    0  0.00000000000E+00  0.00000000000E+00  0.66252535243E+03  0.66252535245E+03  0.50400001928E-02 0. -1.
       -1   -1    0    0    0  501  0.00000000000E+00  0.00000000000E+00 -0.16560452652E+04  0.16560452652E+04  0.50400001928E-02 0.  1.
    10030    2    1    2    0    0  0.00000000000E+00  0.00000000000E+00 -0.99351991276E+03  0.23185706176E+04  0.20949195431E+04 0.  0.
        5    1    3    3  502    0  0.99590583391E+03 -0.65067762138E+02 -0.84864597134E+03  0.13100703486E+04  0.46999998093E+01 0.  1.
       -5    1    3    3    0  502 -0.99590583391E+03  0.65067762138E+02 -0.14487394141E+03  0.10085002690E+04  0.46999998093E+01 0. -1.
</event>
<event>
 5   0  0.1398469E-05  0.2094565E+04  0.7818609E-02  0.8563641E-01
        2   -1    0    0  501    0  0.00000000000E+00  0.00000000000E+00  0.92966068982E+03  0.92966068983E+03  0.25500000920E-02 0. -1.
       -2   -1    0    0    0  501  0.00000000000E+00  0.00000000000E+00 -0.11797857177E+04  0.11797857177E+04  0.25500000920E-02 0.  1.
    10030    2    1    2    0    0  0.00000000000E+00  0.00000000000E+00 -0.25012502787E+03  0.21094464075E+04  0.20945647798E+04 0.  0.
        2    1    3    3  502    0 -0.68805571078E+03 -0.66178730413E+03  0.30859795421E+03  0.10033024441E+04  0.25500000920E-02 0. -1.
       -2    1    3    3    0  502  0.68805571078E+03  0.66178730413E+03 -0.55872298207E+03  0.11061439634E+04  0.25500000920E-02 0.  1.
</event>
<event>
 5   0  0.6589193E-06  0.2104208E+04  0.7818609E-02  0.8559392E-01
        1   -1    0    0  501    0  0.00000000000E+00  0.00000000000E+00  0.11410353143E+04  0.11410353143E+04  0.50400001928E-02 0.  1.
       -1   -1    0    0    0  501  0.00000000000E+00  0.00000000000E+00 -0.97010357640E+03  0.97010357641E+03  0.50400001928E-02 0. -1.
    10030    2    1    2    0    0  0.00000000000E+00  0.00000000000E+00  0.17093173785E+03  0.21111388907E+04  0.21042076316E+04 0.  0.
        3    1    3    3  502    0 -0.92499878929E+03  0.33728839400E+03 -0.28661448371E+03  0.10254433643E+04  0.10100000352E+00 0.  1.
       -3    1    3    3    0  502  0.92499878929E+03 -0.33728839400E+03  0.45754622156E+03  0.10856955264E+04  0.10100000352E+00 0. -1.
</event>
<event>
 5   0  0.1344501E-05  0.2097803E+04  0.7818609E-02  0.8562212E-01
       -2   -1    0    0    0  501  0.00000000000E+00  0.00000000000E+00  0.15699489804E+04  0.15699489804E+04  0.25500000920E-02 0. -1.
        2   -1    0    0  501    0  0.00000000000E+00  0.00000000000E+00 -0.70078366368E+03  0.70078366369E+03  0.25500000920E-02 0.  1.
    10030    2    1    2    0    0  0.00000000000E+00  0.00000000000E+00  0.86916531669E+03  0.22707326441E+04  0.20978032303E+04 0.  0.
        3    1    3    3  502    0  0.72927120404E+03  0.18761610931E+03  0.12249506405E+04  0.14378944243E+04  0.10100000352E+00 0. -1.
       -3    1    3    3    0  502 -0.72927120404E+03 -0.18761610931E+03 -0.35578532380E+03  0.83283821979E+03  0.10100000352E+00 0.  1.
</event>
<event>
 5   0  0.6599245E-06  0.2098231E+04  0.7818609E-02  0.8562023E-01
        1   -1    0    0  501    0  0.00000000000E+00  0.00000000000E+00  0.16194249031E+04  0.16194249031E+04  0.50400001928E-02 0.  1.
       -1   -1    0    0    0  501  0.00000000000E+00  0.00000000000E+00 -0.67965050087E+03  0.67965050089E+03  0.50400001928E-02 0. -1.
    10030    2    1    2    0    0  0.00000000000E+00  0.00000000000E+00  0.93977440218E+03  0.22990754039E+04  0.20982306322E+04 0.  0.
        2    1    3    3  502    0 -0.53309049216E+03  0.29752106691E+03  0.14047489559E+04  0.15316735576E+04  0.25500000920E-02 0.  1.
       -2    1    3    3    0  502  0.53309049216E+03 -0.29752106691E+03 -0.46497455372E+03  0.76740184630E+03  0.25500000920E-02 0. -1.
</event>
<event>
 5   0  0.6283269E-06  0.2101683E+04  0.7818609E-02  0.8560502E-01
       -1   -1    0    0    0  501  0.00000000000E+00  0.00000000000E+00  0.60657889508E+03  0.60657889510E+03  0.50400001928E-02 0.  1.
        1   -1    0    0  501    0  0.00000000000E+00  0.00000000000E+00 -0.18204851746E+04  0.18204851746E+04  0.50400001928E-02 0. -1.
    10030    2    1    2    0    0  0.00000000000E+00  0.00000000000E+00 -0.12139062795E+04  0.24270640697E+04  0.21016830263E+04 0.  0.
        1    1    3    3  502    0  0.65140712319E+03 -0.41294256878E+03 -0.14311859964E+04  0.16257755570E+04  0.50400001928E-02 0. -1.
       -1    1    3    3    0  502 -0.65140712319E+03  0.41294256878E+03  0.21727971690E+03  0.80128851274E+03  0.50400001928E-02 0.  1.
</event>
<event>
 5   0  0.1398469E-05  0.2083454E+04  0.7818609E-02  0.8568567E-01
        2   -1    0    0  501    0  0.00000000000E+00  0.00000000000E+00  0.21775771391E+04  0.21775771391E+04  0.25500000920E-02 0. -1.
       -2   -1    0    0    0  501  0.00000000000E+00  0.00000000000E+00 -0.49834995796E+03  0.49834995797E+03  0.25500000920E-02 0.  1.
    10030    2    1    2    0    0  0.00000000000E+00  0.00000000000E+00  0.16792271812E+04  0.26759270971E+04  0.20834543199E+04 0.  0.
        2    1    3    3  502    0 -0.26206110585E+03 -0.89197847145E+03  0.23596788460E+03  0.95915716089E+03  0.25500000920E-02 0. -1.
       -2    1    3    3    0  502  0.26206110585E+03  0.89197847145E+03  0.14432592966E+04  0.17167699362E+04  0.25500000920E-02 0.  1.
</event>
<event>
 5   0  0.6589193E-06  0.2100627E+04  0.7818609E-02  0.8560967E-01
        1   -1    0    0  501    0  0.00000000000E+00  0.00000000000E+00  0.91732493504E+03  0.91732493505E+03  0.50400001928E-02 0.  1.
       -1   -1    0    0    0  501  0.00000000000E+00  0.00000000000E+00 -0.12025817671E+04  0.12025817671E+04  0.50400001928E-02 0. -1.
    10030    2    1    2    0    0  0.00000000000E+00  0.00000000000E+00 -0.28525683205E+03  0.21199067021E+04  0.21006268030E+04 0.  0.
        3    1    3    3  502    0  0.83270114859E+03  0.37415409021E+02  0.50227284560E+03  0.97317477224E+03  0.10100000352E+00 0.  1.
       -3    1    3    3    0  502 -0.83270114859E+03 -0.37415409021E+02 -0.78752967765E+03  0.11467319299E+04  0.10100000352E+00 0. -1.
</event>
<event>
 5   0  0.1441136E-05  0.2099000E+04  0.7818609E-02  0.8561684E-01
       -2   -1    0    0    0  501  0.00000000000E+00  0.00000000000E+00  0.70147091587E+03  0.70147091588E+03  0.25500000920E-02 0.  1.
        2   -1    0    0  501    0  0.00000000000E+00  0.00000000000E+00 -0.15702013979E+04  0.15702013979E+04  0.25500000920E-02 0. -1.
    10030    2    1    2    0    0  0.00000000000E+00  0.00000000000E+00 -0.86873048203E+03  0.22716723138E+04  0.20990003456E+04 0.  0.
        4    1    3    3  502    0 -0.38019831980E+03  0.76854458757E+03 -0.10893249031E+04  0.13863051261E+04  0.12699999809E+01 0. -1.
       -4    1    3    3    0  502  0.38019831980E+03 -0.76854458757E+03  0.22059442102E+03  0.88536718764E+03  0.12699999809E+01 0.  1.
</event>
<event>
 5   0  0.1344501E-05  0.2098020E+04  0.7818609E-02  0.8562116E-01
       -2   -1    0    0    0  501  0.00000000000E+00  0.00000000000E+00  0.85988190113E+03  0.85988190113E+03  0.25500000920E-02 0. -1.
        2   -1    0    0  501    0  0.00000000000E+00  0.00000000000E+00 -0.12797361325E+04  0.12797361325E+04  0.25500000920E-02 0.  1.
    10030    2    1    2    0    0  0.00000000000E+00  0.00000000000E+00 -0.41985423133E+03  0.21396180336E+04  0.20980199604E+04 0.  0.
        3    1    3    3  502    0  0.45373021116E+03  0.91196345031E+03 -0.46564459502E+03  0.11199880974E+04  0.10100000352E+00 0.  1.
       -3    1    3    3    0  502 -0.45373021116E+03 -0.91196345031E+03  0.45790363682E+02  0.10196299362E+04  0.10100000352E+00 0. -1.
</event>
<event>
 5   0  0.1390735E-05  0.2098699E+04  0.7818609E-02  0.8561817E-01
        2   -1    0    0  501    0  0.00000000000E+00  0.00000000000E+00  0.13317711786E+04  0.13317711786E+04  0.25500000920E-02 0.  1.
       -2   -1    0    0    0  501  0.00000000000E+00  0.00000000000E+00 -0.82681919033E+03  0.82681919034E+03  0.25500000920E-02 0. -1.
    10030    2    1    2    0    0  0.00000000000E+00  0.00000000000E+00  0.50495198829E+03  0.21585903690E+04  0.20986986135E+04 0.  0.
        5    1    3    3  502    0  0.79915249005E+03  0.61885899819E+01 -0.44695139083E+03  0.91568042284E+03  0.46999998093E+01 0. -1.
       -5    1    3    3    0  502 -0.79915249005E+03 -0.61885899819E+01  0.95190337912E+03  0.12429099461E+04  0.46999998093E+01 0.  1.
</event>
<event>
 5   0  0.6238363E-06  0.2099677E+04  0.7818609E-02  0.8561386E-01
        1   -1    0    0  501    0  0.00000000000E+00  0.00000000000E+00  0.84271300384E+03  0.84271300385E+03  0.50400001928E-02 0. -1.
       -1   -1    0    0    0  501  0.00000000000E+00  0.00000000000E+00 -0.13078721341E+04  0.13078721341E+04  0.50400001928E-02 0.  1.
    10030    2    1    2    0    0  0.00000000000E+00  0.00000000000E+00 -0.46515913030E+03  0.21505851380E+04  0.20996769797E+04 0.  0.
        4    1    3    3  502    0 -0.39625071174E+03  0.42584589523E+03  0.66256658638E+03  0.88167763231E+03  0.12699999809E+01 0. -1.
       -4    1    3    3    0  502  0.39625071174E+03 -0.42584589523E+03 -0.11277257167E+04  0.12689075057E+04  0.12699999809E+01 0.  1.
</event>
<event>
 5   0  0.6283269E-06  0.2099153E+04  0.7818609E-02  0.8561616E-01
       -1   -1    0    0    0  501  0.00000000000E+00  0.00000000000E+00  0.71312389692E+03  0.71312389693E+03  0.50400001928E-02 0.  1.
        1   -1    0    0  501    0  0.00000000000E+00  0.00000000000E+00 -0.15447680735E+04  0.15447680736E+04  0.50400001928E-02 0. -1.
    10030    2    1    2    0    0  0.00000000000E+00  0.00000000000E+00 -0.83164417663E+03  0.22578919705E+04  0.20991531897E+04 0.  0.
        1    1    3    3  502    0 -0.63049038256E+03 -0.53472896329E+03  0.27972918295E+03  0.87275517902E+03  0.50400001928E-02 0.  1.
       -1    1    3    3    0  502  0.63049038256E+03  0.53472896329E+03 -0.11113733596E+04  0.13851367915E+04  0.50400001928E-02 0. -1.
</event>
<event>
 5   0  0.6917078E-06  0.2099192E+04  0.7818609E-02  0.8561599E-01
        1   -1    0    0  501    0  0.00000000000E+00  0.00000000000E+00  0.10446674893E+04  0.10446674893E+04  0.50400001928E-02 0. -1.
       -1   -1    0    0    0  501  0.00000000000E+00  0.00000000000E+00 -0.10545477130E+04  0.10545477130E+04  0.50400001928E-02 0.  1.
    10030    2    1    2    0    0  0.00000000000E+00  0.00000000000E+00 -0.98802237566E+01  0.20992152023E+04  0.20991919509E+04 0.  0.
        5    1    3    3  502    0 -0.57069406486E+03 -0.84297303195E+02 -0.88178040663E+03  0.10537345617E+04  0.46999998093E+01 0.  1.
       -5    1    3    3    0  502  0.57069406486E+03  0.84297303195E+02  0.87190018287E+03  0.10454806406E+04  0.46999998093E+01 0. -1.
</event>
<event>
 5   0  0.1441136E-05  0.2101574E+04  0.7818609E-02  0.8560550E-01
        2   -1    0    0  501    0  0.00000000000E+00  0.00000000000E+00  0.10414220688E+04  0.10414220689E+04  0.25500000920E-02 0. -1.
       -2   -1    0    0    0  501  0.00000000000E+00  0.00000000000E+00 -0.10602364085E+04  0.10602364085E+04  0.25500000920E-02 0.  1.
    10030    2    1    2    0    0  0.00000000000E+00  0.00000000000E+00 -0.18814339602E+02  0.21016584773E+04  0.21015742613E+04 0.  0.
        4    1    3    3  502    0  0.86843757419E+03  0.17635724848E+03  0.55529791956E+03  0.10457739200E+04  0.12699999809E+01 0. -1.
       -4    1    3    3    0  502 -0.86843757419E+03 -0.17635724848E+03 -0.57411225916E+03  0.10558845573E+04  0.12699999809E+01 0.  1.
</event>
<event>
 5   0  0.1395356E-05  0.2106610E+04  0.7818609E-02  0.8558337E-01
       -2   -1    0    0    0  501  0.00000000000E+00  0.00000000000E+00  0.65181127322E+03  0.65181127323E+03  0.25500000920E-02 0. -1.
        2   -1    0    0  501    0  0.00000000000E+00  0.00000000000E+00 -0.17021045215E+04  0.17021045215E+04  0.25500000920E-02 0.  1.
    10030    2    1    2    0    0  0.00000000000E+00  0.00000000000E+00 -0.10502932483E+04  0.23539157947E+04  0.21066095180E+04 0.  0.
        1    1    3    3  502    0  0.26274250548E+03 -0.82268990854E+03  0.14863317397E+03  0.87632421524E+03  0.50400001928E-02 0. -1.
       -1    1    3    3    0  502 -0.26274250548E+03  0.82268990854E+03 -0.11989264222E+04  0.14775915795E+04  0.50400001928E-02 0.  1.
</event>
<event>
 5   0  0.1390735E-05  0.2095592E+04  0.7818609E-02  0.8563187E-01
        2   -1    0    0  501    0  0.00000000000E+00  0.00000000000E+00  0.27731363670E+04  0.27731363670E+04  0.25500000920E-02 0.  1.
       -2   -1    0    0    0  501  0.00000000000E+00  0.00000000000E+00 -0.39589717275E+03  0.39589717276E+03  0.25500000920E-02 0. -1.
    10030    2    1    2    0    0  0.00000000000E+00  0.00000000000E+00  0.23772391942E+04  0.31690335397E+04  0.20955923719E+04 0.  0.
        5    1    3    3  502    0 -0.64227800317E+01 -0.10368758377E+04  0.14164712109E+04  0.17554388443E+04  0.46999998093E+01 0. -1.
       -5    1    3    3    0  502  0.64227800317E+01  0.10368758377E+04  0.96076798333E+03  0.14135946954E+04  0.46999998093E+01 0.  1.
</event>
<event>
 5   0  0.1441136E-05  0.2107757E+04  0.7818609E-02  0.8557834E-01
       -2   -1    0    0    0  501  0.00000000000E+00  0.00000000000E+00  0.91427784076E+03  0.91427784076E+03  0.25500000920E-02 0. -1.
        2   -1    0    0  501    0  0.00000000000E+00  0.00000000000E+00 -0.12147951960E+04  0.12147951960E+04  0.25500000920E-02 0.  1.
    10030    2    1    2    0    0  0.00000000000E+00  0.00000000000E+00 -0.30051735524E+03  0.21290730368E+04  0.21077574137E+04 0.  0.
        4    1    3    3  502    0  0.25926947312E+03 -0.49280955211E+03  0.75353944539E+03  0.93696596683E+03  0.12699999809E+01 0. -1.
       -4    1    3    3    0  502 -0.25926947312E+03  0.49280955211E+03 -0.10540568006E+04  0.11921070699E+04  0.12699999809E+01 0.  1.
</event>
<event>
 5   0  0.1398469E-05  0.2095644E+04  0.7818609E-02  0.8563165E-01
        2   -1    0    0  501    0  0.00000000000E+00  0.00000000000E+00  0.14446298887E+04  0.14446298887E+04  0.25500000920E-02 0. -1.
       -2   -1    0    0    0  501  0.00000000000E+00  0.00000000000E+00 -0.76000846859E+03  0.76000846859E+03  0.25500000920E-02 0.  1.
    10030    2    1    2    0    0  0.00000000000E+00  0.00000000000E+00  0.68462142011E+03  0.22046383573E+04  0.20956440054E+04 0.  0.
        2    1    3    3  502    0 -0.22236012584E+03  0.37022955041E+03  0.13466452833E+04  0.14142020594E+04  0.25500000920E-02 0. -1.
       -2    1    3    3    0  502  0.22236012584E+03 -0.37022955041E+03 -0.66202386324E+03  0.79043629792E+03  0.25500000920E-02 0.  1.
</event>
<event>
 5   0  0.1390735E-05  0.2103204E+04  0.7818609E-02  0.8559833E-01
       -2   -1    0    0    0  501  0.00000000000E+00  0.00000000000E+00  0.60989920889E+03  0.60989920889E+03  0.25500000920E-02 0.  1.
        2   -1    0    0  501    0  0.00000000000E+00  0.00000000000E+00 -0.18131963278E+04  0.18131963278E+04  0.25500000920E-02 0. -1.
    10030    2    1    2    0    0  0.00000000000E+00  0.00000000000E+00 -0.12032971189E+04  0.24230955367E+04  0.21032042277E+04 0.  0.
        5    1    3    3  502    0 -0.23409196070E+03 -0.10869890641E+03 -0.17761269119E+04  0.17947878414E+04  0.46999998093E+01 0. -1.
       -5    1    3    3    0  502  0.23409196070E+03  0.10869890641E+03  0.57282979297E+03  0.62830769535E+03  0.46999998093E+01 0.  1.
</event>
<event>
 5   0  0.1390735E-05  0.2093249E+04  0.7818609E-02  0.8564223E-01
       -2   -1    0    0    0  501  0.00000000000E+00  0.00000000000E+00  0.41242957149E+03  0.41242957150E+03  0.25500000920E-02 0. -1.
        2   -1    0    0  501    0  0.00000000000E+00  0.00000000000E+00 -0.26560230769E+04  0.26560230769E+04  0.25500000920E-02 0.  1.
    10030    2    1    2    0    0  0.00000000000E+00  0.00000000000E+00 -0.22435935054E+04  0.30684526484E+04  0.20932486326E+04 0.  0.
        5    1    3    3  502    0  0.67023478584E+03 -0.12042731839E+03  0.43262977262E+02  0.68235707834E+03  0.46999998093E+01 0. -1.
       -5    1    3    3    0  502 -0.67023478584E+03  0.12042731839E+03 -0.22868564827E+04  0.23860955701E+04  0.46999998093E+01 0.  1.
</event>
<event>
 5   0  0.6599245E-06  0.2100723E+04  0.7818609E-02  0.8560925E-01
        1   -1    0    0  501    0  0.00000000000E+00  0.00000000000E+00  0.10197904335E+04  0.10197904336E+04  0.50400001928E-02 0.  1.
       -1   -1    0    0    0  501  0.00000000000E+00  0.00000000000E+00 -0.10818486037E+04  0.10818486037E+04  0.50400001928E-02 0. -1.
    10030    2    1    2    0    0  0.00000000000E+00  0.00000000000E+00 -0.62058170164E+02  0.21016390373E+04  0.21007225963E+04 0.  0.
        2    1    3    3  502    0  0.52065716585E+03  0.82365762224E+03  0.36126835471E+03  0.10392355783E+04  0.25500000920E-02 0.  1.
       -2    1    3    3    0  502 -0.52065716585E+03 -0.82365762224E+03 -0.42332652488E+03  0.10624034590E+04  0.25500000920E-02 0. -1.
</event>
<event>
 5   0  0.6599245E-06  0.2095920E+04  0.7818609E-02  0.8563043E-01
        1   -1    0    0  501    0  0.00000000000E+00  0.00000000000E+00  0.14753603381E+04  0.14753603381E+04  0.50400001928E-02 0. -1.
       -1   -1    0    0    0  501  0.00000000000E+00  0.00000000000E+00 -0.74437384869E+03  0.74437384870E+03  0.50400001928E-02 0.  1.
    10030    2    1    2    0    0  0.00000000000E+00  0.00000000000E+00  0.73098648938E+03  0.22197341868E+04  0.20959195147E+04 0.  0.
        2    1    3    3  502    0  0.34962020026E+03 -0.84831904323E+03  0.90170299037E+03  0.12864477317E+04  0.25500000920E-02 0. -1.
       -2    1    3    3    0  502 -0.34962020026E+03  0.84831904323E+03 -0.17071650099E+03  0.93328645509E+03  0.25500000920E-02 0.  1.
</event>
<event>
 5   0  0.5009125E-06  0.2101112E+04  0.7818609E-02  0.8560754E-01
        4   -1    0    0  501    0  0.00000000000E+00  0.00000000000E+00  0.10434558420E+04  0.10434566148E+04  0.12699999809E+01 0.  1.
       -4   -1    0    0    0  501  0.00000000000E+00  0.00000000000E+00 -0.10577030322E+04  0.10577037947E+04  0.12699999809E+01 0. -1.
    10030    2    1    2    0    0  0.00000000000E+00  0.00000000000E+00 -0.14247190249E+02  0.21011604095E+04  0.21011121065E+04 0.  0.
        4    1    3    3  502    0 -0.32614391443E+02 -0.20040795095E+02  0.10427581860E+04  0.10434613454E+04  0.12699999809E+01 0.  1.
       -4    1    3    3    0  502  0.32614391443E+02  0.20040795095E+02 -0.10570053762E+04  0.10576990641E+04  0.12699999809E+01 0. -1.
</event>
<event>
 5   0  0.6589193E-06  0.2126729E+04  0.7818609E-02  0.8549559E-01
        1   -1    0    0  501    0  0.00000000000E+00  0.00000000000E+00  0.26233873215E+04  0.26233873215E+04  0.50400001928E-02 0.  1.
       -1   -1    0    0    0  501  0.00000000000E+00  0.00000000000E+00 -0.43102457376E+03  0.43102457379E+03  0.50400001928E-02 0. -1.
    10030    2    1    2    0    0  0.00000000000E+00  0.00000000000E+00  0.21923627477E+04  0.30544118953E+04  0.21267293218E+04 0.  0.
        3    1    3    3  502    0  0.16150299485E+03 -0.51729652205E+03  0.24101805726E+04  0.24703540864E+04  0.10100000352E+00 0.  1.
       -3    1    3    3    0  502 -0.16150299485E+03  0.51729652205E+03 -0.21781782494E+03  0.58405780890E+03  0.10100000352E+00 0. -1.
</event>
<event>
 5   0  0.1344501E-05  0.2091643E+04  0.7818609E-02  0.8564933E-01
        2   -1    0    0  501    0  0.00000000000E+00  0.00000000000E+00  0.17735957299E+04  0.17735957299E+04  0.25500000920E-02 0.  1.
       -2   -1    0    0    0  501  0.00000000000E+00  0.00000000000E+00 -0.61668113784E+03  0.61668113784E+03  0.25500000920E-02 0. -1.
    10030    2    1    2    0    0  0.00000000000E+00  0.00000000000E+00  0.11569145920E+04  0.23902768677E+04  0.20916434044E+04 0.  0.
        3    1    3    3  502    0 -0.68915945210E+03  0.39196663094E+03  0.13578634188E+04  0.15723777105E+04  0.10100000352E+00 0.  1.
       -3    1    3    3    0  502  0.68915945210E+03 -0.39196663094E+03 -0.20094882675E+03  0.81789915721E+03  0.10100000352E+00 0. -1.
</event>
<event>
 5   0  0.6283269E-06  0.2099117E+04  0.7818609E-02  0.8561632E-01
        1   -1    0    0  501    0  0.00000000000E+00  0.00000000000E+00  0.16763088105E+04  0.16763088105E+04  0.50400001928E-02 0.  1.
       -1   -1    0    0    0  501  0.00000000000E+00  0.00000000000E+00 -0.65714212091E+03  0.65714212093E+03  0.50400001928E-02 0. -1.
    10030    2    1    2    0    0  0.00000000000E+00  0.00000000000E+00  0.10191666896E+04  0.23334509315E+04  0.20991170783E+04 0.  0.
        1    1    3    3  502    0  0.78828083797E+03 -0.36516634691E+03  0.11642596025E+04  0.14526642979E+04  0.50400001928E-02 0.  1.
       -1    1    3    3    0  502 -0.78828083797E+03  0.36516634691E+03 -0.14509291289E+03  0.88078663354E+03  0.50400001928E-02 0. -1.
</event>
<event>
 5   0  0.6599245E-06  0.2108211E+04  0.7818609E-02  0.8557635E-01
        1   -1    0    0  501    0  0.00000000000E+00  0.00000000000E+00  0.17195431110E+04  0.17195431110E+04  0.50400001928E-02 0. -1.
       -1   -1    0    0    0  501  0.00000000000E+00  0.00000000000E+00 -0.64618237759E+03  0.64618237761E+03  0.50400001928E-02 0.  1.
    10030    2    1    2    0    0  0.00000000000E+00  0.00000000000E+00  0.10733607334E+04  0.23657254886E+04  0.21082110481E+04 0.  0.
        2    1    3    3  502    0  0.98630263839E+03  0.35301306073E+03  0.40520528060E+03  0.11232107705E+04  0.25500000920E-02 0.  1.
       -2    1    3    3    0  502 -0.98630263839E+03 -0.35301306073E+03  0.66815545278E+03  0.12425147181E+04  0.25500000920E-02 0. -1.
</event>
<event>
 5   0  0.6917078E-06  0.2097563E+04  0.7818609E-02  0.8562317E-01
       -1   -1    0    0    0  501  0.00000000000E+00  0.00000000000E+00  0.12944095829E+04  0.12944095829E+04  0.50400001928E-02 0. -1.
        1   -1    0    0  501    0  0.00000000000E+00  0.00000000000E+00 -0.84976432595E+03  0.84976432596E+03  0.50400001928E-02 0.  1.
    10030    2    1    2    0    0  0.00000000000E+00  0.00000000000E+00  0.44464525692E+03  0.21441739088E+04  0.20975634310E+04 0.  0.
        5    1    3    3  502    0  0.35212319244E+03  0.23684157542E+03 -0.75807032604E+03  0.86877924914E+03  0.46999998093E+01 0.  1.
       -5    1    3    3    0  502 -0.35212319244E+03 -0.23684157542E+03  0.12027155830E+04  0.12753946597E+04  0.46999998093E+01 0. -1.
</event>
<event>
 5   0  0.1398469E-05  0.2098367E+04  0.7818609E-02  0.8561963E-01
        2   -1    0    0  501    0  0.00000000000E+00  0.00000000000E+00  0.66295496097E+03  0.66295496098E+03  0.25500000920E-02 0. -1.
       -2   -1    0    0    0  501  0.00000000000E+00  0.00000000000E+00 -0.16604240877E+04  0.16604240877E+04  0.25500000920E-02 0.  1.
    10030    2    1    2    0    0  0.00000000000E+00  0.00000000000E+00 -0.99746912674E+03  0.23233790487E+04  0.20983673523E+04 0.  0.
        2    1    3    3  502    0  0.84283108847E+03  0.60310223832E+03 -0.31784584828E+03  0.10840306900E+04  0.25500000920E-02 0.  1.
       -2    1    3    3    0  502 -0.84283108847E+03 -0.60310223832E+03 -0.67962327846E+03  0.12393483587E+04  0.25500000920E-02 0. -1.
</event>
<event>
 5   0  0.1441136E-05  0.2116869E+04  0.7818609E-02  0.8553849E-01
       -2   -1    0    0    0  501  0.00000000000E+00  0.00000000000E+00  0.97773322422E+03  0.97773322422E+03  0.25500000920E-02 0.  1.
        2   -1    0    0  501    0  0.00000000000E+00  0.00000000000E+00 -0.11457966773E+04  0.11457966773E+04  0.25500000920E-02 0. -1.
    10030    2    1    2    0    0  0.00000000000E+00  0.00000000000E+00 -0.16806345309E+03  0.21235299015E+04  0.21168688950E+04 0.  0.
        4    1    3    3  502    0 -0.44377071604E+03 -0.25649769482E+03 -0.10129901122E+04  0.11352859094E+04  0.12699999809E+01 0. -1.
       -4    1    3    3    0  502  0.44377071604E+03  0.25649769482E+03  0.84492665907E+03  0.98824399212E+03  0.12699999809E+01 0.  1.
</event>
<event>
 5   0  0.6589193E-06  0.2099944E+04  0.7818609E-02  0.8561268E-01
       -1   -1    0    0    0  501  0.00000000000E+00  0.00000000000E+00  0.39128083041E+03  0.39128083044E+03  0.50400001928E-02 0. -1.
        1   -1    0    0  501    0  0.00000000000E+00  0.00000000000E+00 -0.28175181197E+04  0.28175181197E+04  0.50400001928E-02 0.  1.
    10030    2    1    2    0    0  0.00000000000E+00  0.00000000000E+00 -0.24262372893E+04  0.32087989501E+04  0.20999436465E+04 0.  0.
        3    1    3    3  502    0 -0.81733780344E+03  0.49904498351E+03 -0.55525534465E+03  0.11069758301E+04  0.10100000352E+00 0. -1.
       -3    1    3    3    0  502  0.81733780344E+03 -0.49904498351E+03 -0.18709819446E+04  0.21018231200E+04  0.10100000352E+00 0.  1.
</event>
<event>
 5   0  0.1398469E-05  0.2100123E+04  0.7818609E-02  0.8561189E-01
       -2   -1    0    0    0  501  0.00000000000E+00  0.00000000000E+00  0.68754447292E+03  0.68754447292E+03  0.25500000920E-02 0. -1.
        2   -1    0    0  501    0  0.00000000000E+00  0.00000000000E+00 -0.16037204417E+04  0.16037204417E+04  0.25500000920E-02 0.  1.
    10030    2    1    2    0    0  0.00000000000E+00  0.00000000000E+00 -0.91617596882E+03  0.22912649147E+04  0.21001229734E+04 0.  0.
        2    1    3    3  502    0 -0.98105551563E+03 -0.13346752313E+03 -0.76473548821E+02  0.99304164472E+03  0.25500000920E-02 0. -1.
       -2    1    3    3    0  502  0.98105551563E+03  0.13346752313E+03 -0.83970242000E+03  0.12982232699E+04  0.25500000920E-02 0.  1.
</event>
<event>
 5   0  0.6917078E-06  0.2091199E+04  0.7818609E-02  0.8565130E-01
        1   -1    0    0  501    0  0.00000000000E+00  0.00000000000E+00  0.11339465448E+04  0.11339465448E+04  0.50400001928E-02 0.  1.
       -1   -1    0    0    0  501  0.00000000000E+00  0.00000000000E+00 -0.96413548156E+03  0.96413548158E+03  0.50400001928E-02 0. -1.
    10030    2    1    2    0    0  0.00000000000E+00  0.00000000000E+00  0.16981106322E+03  0.20980820264E+04  0.20911987931E+04 0.  0.
        5    1    3    3  502    0 -0.12615983949E+03  0.47654667093E+03 -0.84021574540E+03  0.97416509047E+03  0.46999998093E+01 0. -1.
       -5    1    3    3    0  502  0.12615983949E+03 -0.47654667093E+03  0.10100268086E+04  0.11239169359E+04  0.46999998093E+01 0.  1.
</event>
<event>
 5   0  0.5009125E-06  0.2070022E+04  0.7818609E-02  0.8574565E-01
       -3   -1    0    0    0  501  0.00000000000E+00  0.00000000000E+00  0.95861048223E+03  0.95861048755E+03  0.10100000352E+00 0.  1.
        3   -1    0    0  501    0  0.00000000000E+00  0.00000000000E+00 -0.11175008748E+04  0.11175008794E+04  0.10100000352E+00 0. -1.
    10030    2    1    2    0    0  0.00000000000E+00  0.00000000000E+00 -0.15889039262E+03  0.20761113670E+04  0.20700222828E+04 0.  0.
        3    1    3    3  502    0  0.11944871867E+03 -0.83102565202E+03  0.52762566015E+03  0.99159491636E+03  0.10100000352E+00 0. -1.
       -3    1    3    3    0  502 -0.11944871867E+03  0.83102565202E+03 -0.68651605276E+03  0.10845164506E+04  0.10100000352E+00 0.  1.
</event>
<event>
 5   0  0.6238363E-06  0.2124968E+04  0.7818609E-02  0.8550324E-01
       -1   -1    0    0    0  501  0.00000000000E+00  0.00000000000E+00  0.69122275316E+03  0.69122275318E+03  0.50400001928E-02 0. -1.
        1   -1    0    0  501    0  0.00000000000E+00  0.00000000000E+00 -0.16331525435E+04  0.16331525435E+04  0.50400001928E-02 0.  1.
    10030    2    1    2    0    0  0.00000000000E+00  0.00000000000E+00 -0.94192979037E+03  0.23243752967E+04  0.21249679504E+04 0.  0.
        4    1    3    3  502    0  0.88509831280E+03  0.10076370822E+03  0.16244151410E+03  0.90550605001E+03  0.12699999809E+01 0. -1.
       -4    1    3    3    0  502 -0.88509831280E+03 -0.10076370822E+03 -0.11043713045E+04  0.14188692467E+04  0.12699999809E+01 0.  1.
</event>
<event>
 5   0  0.6599245E-06  0.2101804E+04  0.7818609E-02  0.8560449E-01
       -1   -1    0    0    0  501  0.00000000000E+00  0.00000000000E+00  0.79994811905E+03  0.79994811906E+03  0.50400001928E-02 0. -1.
        1   -1    0    0  501    0  0.00000000000E+00  0.00000000000E+00 -0.13805830202E+04  0.13805830202E+04  0.50400001928E-02 0.  1.
    10030    2    1    2    0    0  0.00000000000E+00  0.00000000000E+00 -0.58063490111E+03  0.21805311392E+04  0.21018037874E+04 0.  0.
        2    1    3    3  502    0 -0.28795770630E+03  0.80061064048E+03  0.34963273647E+03  0.91985873301E+03  0.25500000920E-02 0. -1.
       -2    1    3    3    0  502  0.28795770630E+03 -0.80061064048E+03 -0.93026763758E+03  0.12606724062E+04  0.25500000920E-02 0.  1.
</event>
<event>
 5   0  0.6917078E-06  0.2104793E+04  0.7818609E-02  0.8559135E-01
        1   -1    0    0  501    0  0.00000000000E+00  0.00000000000E+00  0.14576265484E+04  0.14576265484E+04  0.50400001928E-02 0.  1.
       -1   -1    0    0    0  501  0.00000000000E+00  0.00000000000E+00 -0.75982344110E+03  0.75982344112E+03  0.50400001928E-02 0. -1.
    10030    2    1    2    0    0  0.00000000000E+00  0.00000000000E+00  0.69780310725E+03  0.22174499895E+04  0.21047934054E+04 0.  0.
        5    1    3    3  502    0  0.56674977870E+03  0.58047890897E+03 -0.35731755603E+03  0.88648688725E+03  0.46999998093E+01 0. -1.
       -5    1    3    3    0  502 -0.56674977870E+03 -0.58047890897E+03  0.10551206633E+04  0.13309631022E+04  0.46999998093E+01 0.  1.
</event>
<event>
 5   0  0.6283269E-06  0.2096022E+04  0.7818609E-02  0.8562998E-01
       -1   -1    0    0    0  501  0.00000000000E+00  0.00000000000E+00  0.12831695152E+04  0.12831695152E+04  0.50400001928E-02 0.  1.
        1   -1    0    0  501    0  0.00000000000E+00  0.00000000000E+00 -0.85594890036E+03  0.85594890037E+03  0.50400001928E-02 0. -1.
    10030    2    1    2    0    0  0.00000000000E+00  0.00000000000E+00  0.42722061488E+03  0.21391184156E+04  0.20960224575E+04 0.  0.
        1    1    3    3  502    0  0.69883428062E+03  0.34183592153E+03  0.93026377860E+03  0.12126878604E+04  0.50400001928E-02 0.  1.
       -1    1    3    3    0  502 -0.69883428062E+03 -0.34183592153E+03 -0.50304316372E+03  0.92643055520E+03  0.50400001928E-02 0. -1.
</event>
<event>
 5   0  0.1344501E-05  0.2100446E+04  0.7818609E-02  0.8561047E-01
        2   -1    0    0  501    0  0.00000000000E+00  0.00000000000E+00  0.80271611728E+03  0.80271611729E+03  0.25500000920E-02 0. -1.
       -2   -1    0    0    0  501  0.00000000000E+00  0.00000000000E+00 -0.13740460043E+04  0.13740460043E+04  0.25500000920E-02 0.  1.
    10030    2    1    2    0    0  0.00000000000E+00  0.00000000000E+00 -0.57132988705E+03  0.21767621216E+04  0.21004464988E+04 0.  0.
        3    1    3    3  502    0 -0.56728865556E+03 -0.71030738500E+03  0.25938699539E+03  0.94532249708E+03  0.10100000352E+00 0. -1.
       -3    1    3    3    0  502  0.56728865556E+03  0.71030738500E+03 -0.83071688244E+03  0.12314396245E+04  0.10100000352E+00 0.  1.
</event>
<event>
 5   0  0.1344501E-05  0.2099210E+04  0.7818609E-02  0.8561592E-01
       -2   -1    0    0    0  501  0.00000000000E+00  0.00000000000E+00  0.77701440075E+03  0.77701440076E+03  0.25500000920E-02 0. -1.
        2   -1    0    0  501    0  0.00000000000E+00  0.00000000000E+00 -0.14178249245E+04  0.14178249245E+04  0.25500000920E-02 0.  1.
    10030    2    1    2    0    0  0.00000000000E+00  0.00000000000E+00 -0.64081052379E+03  0.21948393253E+04  0.20992097409E+04 0.  0.
        3    1    3    3  502    0 -0.56683442678E+03  0.30372333648E+03 -0.11877253037E+04  0.13506444905E+04  0.10100000352E+00 0.  1.
       -3    1    3    3    0  502  0.56683442678E+03 -0.30372333648E+03  0.54691477987E+03  0.84419483482E+03  0.10100000352E+00 0. -1.
</event>
<event>
 5   0  0.6917078E-06  0.2096182E+04  0.7818609E-02  0.8562927E-01
       -1   -1    0    0    0  501  0.00000000000E+00  0.00000000000E+00  0.96212213254E+03  0.96212213255E+03  0.50400001928E-02 0. -1.
        1   -1    0    0  501    0  0.00000000000E+00  0.00000000000E+00 -0.11417418160E+04  0.11417418160E+04  0.50400001928E-02 0.  1.
    10030    2    1    2    0    0  0.00000000000E+00  0.00000000000E+00 -0.17961968347E+03  0.21038639486E+04  0.20961823116E+04 0.  0.
        5    1    3    3  502    0 -0.89716118401E+03  0.48720469516E+03  0.14813779243E+03  0.10316169350E+04  0.46999998093E+01 0.  1.
       -5    1    3    3    0  502  0.89716118401E+03 -0.48720469516E+03 -0.32775747591E+03  0.10722470136E+04  0.46999998093E+01 0. -1.
</event>
<event>
 5   0  0.6589193E-06  0.2099217E+04  0.7818609E-02  0.8561588E-01
       -1   -1    0    0    0  501  0.00000000000E+00  0.00000000000E+00  0.10916904714E+04  0.10916904715E+04  0.50400001928E-02 0.  1.
        1   -1    0    0  501    0  0.00000000000E+00  0.00000000000E+00 -0.10091487431E+04  0.10091487431E+04  0.50400001928E-02 0. -1.
    10030    2    1    2    0    0  0.00000000000E+00  0.00000000000E+00  0.82541728338E+02  0.21008392146E+04  0.20992170608E+04 0.  0.
        3    1    3    3  502    0  0.46321348407E+03  0.19322431836E+02  0.98366618357E+03  0.10874462097E+04  0.10100000352E+00 0.  1.
       -3    1    3    3    0  502 -0.46321348407E+03 -0.19322431836E+02 -0.90112445523E+03  0.10133930048E+04  0.10100000352E+00 0. -1.
</event>
<event>
 5   0  0.6589193E-06  0.2054440E+04  0.7818609E-02  0.8581583E-01
        1   -1    0    0  501    0  0.00000000000E+00  0.00000000000E+00  0.22322274648E+04  0.22322274648E+04  0.50400001928E-02 0. -1.
       -1   -1    0    0    0  501  0.00000000000E+00  0.00000000000E+00 -0.47270333359E+03  0.47270333362E+03  0.50400001928E-02 0.  1.
    10030    2    1    2    0    0  0.00000000000E+00  0.00000000000E+00  0.17595241312E+04  0.27049307985E+04  0.20544404241E+04 0.  0.
        3    1    3    3  502    0 -0.27862559709E+03  0.75115361516E+03  0.17262181659E+04  0.19030746552E+04  0.10100000352E+00 0. -1.
       -3    1    3    3    0  502  0.27862559709E+03 -0.75115361516E+03  0.33305965358E+02  0.80185614324E+03  0.10100000352E+00 0.  1.
</event>
<event>
 5   0  0.1398469E-05  0.2100540E+04  0.7818609E-02  0.8561005E-01
        2   -1    0    0  501    0  0.00000000000E+00  0.00000000000E+00  0.73930088673E+03  0.73930088674E+03  0.25500000920E-02 0. -1.
       -2   -1    0    0    0  501  0.00000000000E+00  0.00000000000E+00 -0.14920413039E+04  0.14920413039E+04  0.25500000920E-02 0.  1.
    10030    2    1    2    0    0  0.00000000000E+00  0.00000000000E+00 -0.75274041718E+03  0.22313421906E+04  0.21005403676E+04 0.  0.
        2    1    3    3  502    0  0.58505215466E+03 -0.87186023797E+03 -0.34947229338E+03  0.11065971182E+04  0.25500000920E-02 0.  1.
       -2    1    3    3    0  502 -0.58505215466E+03  0.87186023797E+03 -0.40326812380E+03  0.11247450724E+04  0.25500000920E-02 0. -1.
</event>
<event>
 5   0  0.1398469E-05  0.2104677E+04  0.7818609E-02  0.8559186E-01
        2   -1    0    0  501    0  0.00000000000E+00  0.00000000000E+00  0.91016121087E+03  0.91016121087E+03  0.25500000920E-02 0. -1.
       -2   -1    0    0    0  501  0.00000000000E+00  0.00000000000E+00 -0.12167249911E+04  0.12167249911E+04  0.25500000920E-02 0.  1.
    10030    2    1    2    0    0  0.00000000000E+00  0.00000000000E+00 -0.30656378019E+03  0.21268862019E+04  0.21046765938E+04 0.  0.
        2    1    3    3  502    0 -0.43736240699E+03  0.37826405535E+03  0.73522672106E+03  0.93537580789E+03  0.25500000920E-02 0. -1.
       -2    1    3    3    0  502  0.43736240699E+03 -0.37826405535E+03 -0.10417905013E+04  0.11915103941E+04  0.25500000920E-02 0.  1.
</event>
<event>
 5   0  0.6238363E-06  0.2098996E+04  0.7818609E-02  0.8561686E-01
       -1   -1    0    0    0  501  0.00000000000E+00  0.00000000000E+00  0.14697891962E+04  0.14697891962E+04  0.50400001928E-02 0. -1.
        1   -1    0    0  501    0  0.00000000000E+00  0.00000000000E+00 -0.74939044592E+03  0.74939044594E+03  0.50400001928E-02 0.  1.
    10030    2    1    2    0    0  0.00000000000E+00  0.00000000000E+00  0.72039875029E+03  0.22191796422E+04  0.20989959325E+04 0.  0.
        4    1    3    3  502    0  0.81547225312E+02 -0.42152683786E+03  0.13726910689E+04  0.14382688234E+04  0.12699999809E+01 0. -1.
       -4    1    3    3    0  502 -0.81547225312E+02  0.42152683786E+03 -0.65229231859E+03  0.78091081872E+03  0.12699999809E+01 0.  1.
</event>
<event>
 5   0  0.1395356E-05  0.2097933E+04  0.7818609E-02  0.8562154E-01
       -2   -1    0    0    0  501  0.00000000000E+00  0.00000000000E+00  0.89803955990E+03  0.89803955990E+03  0.25500000920E-02 0.  1.
        2   -1    0    0  501    0  0.00000000000E+00  0.00000000000E+00 -0.12252589358E+04  0.12252589358E+04  0.25500000920E-02 0. -1.
    10030    2    1    2    0    0  0.00000000000E+00  0.00000000000E+00 -0.32721937593E+03  0.21232984957E+04  0.20979332644E+04 0.  0.
        1    1    3    3  502    0 -0.45061801255E+02 -0.20438251797E+02 -0.12240771684E+04  0.12250768149E+04  0.50400001928E-02 0. -1.
       -1    1    3    3    0  502  0.45061801255E+02  0.20438251797E+02  0.89685779247E+03  0.89822168088E+03  0.50400001928E-02 0.  1.
</event>
<event>
 5   0  0.5009125E-06  0.2104161E+04  0.7818609E-02  0.8559413E-01
        3   -1    0    0  501    0  0.00000000000E+00  0.00000000000E+00  0.15778470837E+04  0.15778470869E+04  0.10100000352E+00 0. -1.
       -3   -1    0    0    0  501  0.00000000000E+00  0.00000000000E+00 -0.70150861101E+03  0.70150861828E+03  0.10100000352E+00 0.  1.
    10030    2    1    2    0    0  0.00000000000E+00  0.00000000000E+00  0.87633847264E+03  0.22793557052E+04  0.21041609520E+04 0.  0.
        1    1    3    3  502    0 -0.84465990840E+03 -0.10574139042E+03 -0.23156452742E+03  0.88218690360E+03  0.50400001928E-02 0.  1.
       -1    1    3    3    0  502  0.84465990840E+03  0.10574139042E+03  0.11079030001E+04  0.13971688016E+04  0.50400001928E-02 0. -1.
</event>
<event>
 5   0  0.1390735E-05  0.2100556E+04  0.7818609E-02  0.8560998E-01
        2   -1    0    0  501    0  0.00000000000E+00  0.00000000000E+00  0.83153258715E+03  0.83153258715E+03  0.25500000920E-02 0. -1.
       -2   -1    0    0    0  501  0.00000000000E+00  0.00000000000E+00 -0.13265673471E+04  0.13265673471E+04  0.25500000920E-02 0.  1.
    10030    2    1    2    0    0  0.00000000000E+00  0.00000000000E+00 -0.49503475998E+03  0.21580999343E+04  0.21005560961E+04 0.  0.
        5    1    3    3  502    0 -0.57161543611E+03 -0.41618330287E+03  0.55035829072E+03  0.89602962370E+03  0.46999998093E+01 0. -1.
       -5    1    3    3    0  502  0.57161543611E+03  0.41618330287E+03 -0.10453930507E+04  0.12620703106E+04  0.46999998093E+01 0.  1.
</event>
<event>
 5   0  0.1390735E-05  0.2098772E+04  0.7818609E-02  0.8561785E-01
       -2   -1    0    0    0  501  0.00000000000E+00  0.00000000000E+00  0.54117247873E+03  0.54117247873E+03  0.25500000920E-02 0.  1.
        2   -1    0    0  501    0  0.00000000000E+00  0.00000000000E+00 -0.20348608970E+04  0.20348608970E+04  0.25500000920E-02 0. -1.
    10030    2    1    2    0    0  0.00000000000E+00  0.00000000000E+00 -0.14936884183E+04  0.25760333757E+04  0.20987717508E+04 0.  0.
        5    1    3    3  502    0 -0.77879127608E+03  0.41170283414E+03 -0.46931496405E+02  0.88217896750E+03  0.46999998093E+01 0.  1.
       -5    1    3    3    0  502  0.77879127608E+03 -0.41170283414E+03 -0.14467569219E+04  0.16938544083E+04  0.46999998093E+01 0. -1.
</event>
<event>
 5   0  0.1398469E-05  0.2099054E+04  0.7818609E-02  0.8561660E-01
        2   -1    0    0  501    0  0.00000000000E+00  0.00000000000E+00  0.20294467841E+04  0.20294467841E+04  0.25500000920E-02 0. -1.
       -2   -1    0    0    0  501  0.00000000000E+00  0.00000000000E+00 -0.54276234882E+03  0.54276234883E+03  0.25500000920E-02 0.  1.
    10030    2    1    2    0    0  0.00000000000E+00  0.00000000000E+00  0.14866844353E+04  0.25722091329E+04  0.20990543617E+04 0.  0.
        2    1    3    3  502    0 -0.45768573586E+03  0.40073020370E+03 -0.30468807424E+03  0.68036442555E+03  0.25500000920E-02 0.  1.
       -2    1    3    3    0  502  0.45768573586E+03 -0.40073020370E+03  0.17913725095E+04  0.18918447074E+04  0.25500000920E-02 0. -1.
</event>
<event>
 5   0  0.6917078E-06  0.2097085E+04  0.7818609E-02  0.8562528E-01
        1   -1    0    0  501    0  0.00000000000E+00  0.00000000000E+00  0.17831073294E+04  0.17831073294E+04  0.50400001928E-02 0. -1.
       -1   -1    0    0    0  501  0.00000000000E+00  0.00000000000E+00 -0.61658749992E+03  0.61658749994E+03  0.50400001928E-02 0.  1.
    10030    2    1    2    0    0  0.00000000000E+00  0.00000000000E+00  0.11665198294E+04  0.23996948293E+04  0.20970853014E+04 0.  0.
        5    1    3    3  502    0 -0.31246313543E+03 -0.67927100583E+03 -0.25791916652E+03  0.79094038765E+03  0.46999998093E+01 0.  1.
       -5    1    3    3    0  502  0.31246313543E+03  0.67927100583E+03  0.14244389960E+04  0.16087544417E+04  0.46999998093E+01 0. -1.
</event>
<event>
 5   0  0.1344501E-05  0.2107083E+04  0.7818609E-02  0.8558130E-01
       -2   -1    0    0    0  501  0.00000000000E+00  0.00000000000E+00  0.90256738284E+03  0.90256738284E+03  0.25500000920E-02 0.  1.
        2   -1    0    0  501    0  0.00000000000E+00  0.00000000000E+00 -0.12297694798E+04  0.12297694798E+04  0.25500000920E-02 0. -1.
    10030    2    1    2    0    0  0.00000000000E+00  0.00000000000E+00 -0.32720209692E+03  0.21323368626E+04  0.21070831221E+04 0.  0.
        3    1    3    3  502    0 -0.14862317037E+03 -0.39753351239E+03 -0.11394339860E+04  0.12159077098E+04  0.10100000352E+00 0. -1.
       -3    1    3    3    0  502  0.14862317037E+03  0.39753351239E+03  0.81223188906E+03  0.91642915277E+03  0.10100000352E+00 0.  1.
</event>
<event>
 5   0  0.6589193E-06  0.2085881E+04  0.7818609E-02  0.8567489E-01
       -1   -1    0    0    0  501  0.00000000000E+00  0.00000000000E+00  0.58958109602E+03  0.58958109604E+03  0.50400001928E-02 0.  1.
        1   -1    0    0  501    0  0.00000000000E+00  0.00000000000E+00 -0.18449111407E+04  0.18449111407E+04  0.50400001928E-02 0. -1.
    10030    2    1    2    0    0  0.00000000000E+00  0.00000000000E+00 -0.12553300447E+04  0.24344922367E+04  0.20858808522E+04 0.  0.
        3    1    3    3  502    0 -0.35393579406E+03 -0.97484922785E+03 -0.75617202509E+03  0.12835099162E+04  0.10100000352E+00 0.  1.
       -3    1    3    3    0  502  0.35393579406E+03  0.97484922785E+03 -0.49915801958E+03  0.11509823205E+04  0.10100000352E+00 0. -1.
</event>
<event>
 5   0  0.1441136E-05  0.2106095E+04  0.7818609E-02  0.8558563E-01
       -2   -1    0    0    0  501  0.00000000000E+00  0.00000000000E+00  0.75086076610E+03  0.75086076611E+03  0.25500000920E-02 0.  1.
        2   -1    0    0  501    0  0.00000000000E+00  0.00000000000E+00 -0.14768503508E+04  0.14768503508E+04  0.25500000920E-02 0. -1.
    10030    2    1    2    0    0  0.00000000000E+00  0.00000000000E+00 -0.72598958471E+03  0.22277111169E+04  0.21060949512E+04 0.  0.
        4    1    3    3  502    0 -0.73553460562E+03 -0.44577595034E+03 -0.10056825378E+04  0.13233013011E+04  0.12699999809E+01 0. -1.
       -4    1    3    3    0  502  0.73553460562E+03  0.44577595034E+03  0.27969295306E+03  0.90440981577E+03  0.12699999809E+01 0.  1.
</event>
<event>
 5   0  0.6599245E-06  0.2097972E+04  0.7818609E-02  0.8562137E-01
       -1   -1    0    0    0  501  0.00000000000E+00  0.00000000000E+00  0.70444802312E+03  0.70444802314E+03  0.50400001928E-02 0.  1.
        1   -1    0    0  501    0  0.00000000000E+00  0.00000000000E+00 -0.15620345285E+04  0.15620345285E+04  0.50400001928E-02 0. -1.
    10030    2    1    2    0    0  0.00000000000E+00  0.00000000000E+00 -0.85758650537E+03  0.22664825516E+04  0.20979724838E+04 0.  0.
        2    1    3    3  502    0  0.25464533086E+03  0.15512045101E+03 -0.15152892660E+04  0.15443471625E+04  0.25500000920E-02 0. -1.
       -2    1    3    3    0  502 -0.25464533086E+03 -0.15512045101E+03  0.65770276062E+03  0.72213538909E+03  0.25500000920E-02 0.  1.
</event>
<event>
 5   0  0.6283269E-06  0.2098959E+04  0.7818609E-02  0.8561702E-01
        1   -1    0    0  501    0  0.00000000000E+00  0.00000000000E+00  0.14320429277E+04  0.14320429277E+04  0.50400001928E-02 0. -1.
       -1   -1    0    0    0  501  0.00000000000E+00  0.00000000000E+00 -0.76911604855E+03  0.76911604856E+03  0.50400001928E-02 0.  1.
    10030    2    1    2    0    0  0.00000000000E+00  0.00000000000E+00  0.66292687916E+03  0.22011589763E+04  0.20989589781E+04 0.  0.
        1    1    3    3  502    0 -0.17411997526E+03 -0.49014781242E+03 -0.62442530537E+03  0.81269281147E+03  0.50400001928E-02 0.  1.
       -1    1    3    3    0  502  0.17411997526E+03  0.49014781242E+03  0.12873521845E+04  0.13884661648E+04  0.50400001928E-02 0. -1.
</event>
<event>
 5   0  0.1390735E-05  0.2104731E+04  0.7818609E-02  0.8559162E-01
       -2   -1    0    0    0  501  0.00000000000E+00  0.00000000000E+00  0.76553526637E+03  0.76553526637E+03  0.25500000920E-02 0. -1.
        2   -1    0    0  501    0  0.00000000000E+00  0.00000000000E+00 -0.14466655524E+04  0.14466655524E+04  0.25500000920E-02 0.  1.
    10030    2    1    2    0    0  0.00000000000E+00  0.00000000000E+00 -0.68113028601E+03  0.22122008188E+04  0.21047313358E+04 0.  0.
        5    1    3    3  502    0 -0.22470652358E+03 -0.16142542891E+03  0.72661122010E+03  0.77751986856E+03  0.46999998093E+01 0. -1.
       -5    1    3    3    0  502  0.22470652358E+03  0.16142542891E+03 -0.14077415061E+04  0.14346809502E+04  0.46999998093E+01 0.  1.
</event>
<event>
 5   0  0.6917078E-06  0.2101034E+04  0.7818609E-02  0.8560788E-01
       -1   -1    0    0    0  501  0.00000000000E+00  0.00000000000E+00  0.74633628378E+03  0.74633628380E+03  0.50400001928E-02 0. -1.
        1   -1    0    0  501    0  0.00000000000E+00  0.00000000000E+00 -0.14786712139E+04  0.14786712139E+04  0.50400001928E-02 0.  1.
    10030    2    1    2    0    0  0.00000000000E+00  0.00000000000E+00 -0.73233493011E+03  0.22250074977E+04  0.21010340109E+04 0.  0.
        5    1    3    3  502    0  0.37456162326E+03  0.53044402591E+03  0.50832820448E+03  0.82467383111E+03  0.46999998093E+01 0. -1.
       -5    1    3    3    0  502 -0.37456162326E+03 -0.53044402591E+03 -0.12406631346E+04  0.14003336666E+04  0.46999998093E+01 0.  1.
</event>
<event>
 5   0  0.1344501E-05  0.2102726E+04  0.7818609E-02  0.8560043E-01
        2   -1    0    0  501    0  0.00000000000E+00  0.00000000000E+00  0.29047003332E+04  0.29047003332E+04  0.25500000920E-02 0. -1.
       -2   -1    0    0    0  501  0.00000000000E+00  0.00000000000E+00 -0.38054343971E+03  0.38054343972E+03  0.25500000920E-02 0.  1.
    10030    2    1    2    0    0  0.00000000000E+00  0.00000000000E+00  0.25241568935E+04  0.32852437729E+04  0.21027264740E+04 0.  0.
        3    1    3    3  502    0  0.40909071480E+03 -0.89663304080E+03  0.69003081042E+03  0.12030995604E+04  0.10100000352E+00 0.  1.
       -3    1    3    3    0  502 -0.40909071480E+03  0.89663304080E+03  0.18341260831E+04  0.20821442125E+04  0.10100000352E+00 0. -1.
</event>
<event>
 5   0  0.1395356E-05  0.2099535E+04  0.7818609E-02  0.8561448E-01
        2   -1    0    0  501    0  0.00000000000E+00  0.00000000000E+00  0.13525890583E+04  0.13525890583E+04  0.25500000920E-02 0.  1.
       -2   -1    0    0    0  501  0.00000000000E+00  0.00000000000E+00 -0.81474287548E+03  0.81474287548E+03  0.25500000920E-02 0. -1.
    10030    2    1    2    0    0  0.00000000000E+00  0.00000000000E+00  0.53784618285E+03  0.21673319338E+04  0.20995354712E+04 0.  0.
        1    1    3    3  502    0 -0.10364975493E+03 -0.97594139835E+02 -0.80473139607E+03  0.81722732925E+03  0.50400001928E-02 0. -1.
       -1    1    3    3    0  502  0.10364975493E+03  0.97594139835E+02  0.13425775789E+04  0.13501046046E+04  0.50400001928E-02 0.  1.
</event>
<event>
 5   0  0.6599245E-06  0.2099457E+04  0.7818609E-02  0.8561482E-01
       -1   -1    0    0    0  501  0.00000000000E+00  0.00000000000E+00  0.15288147681E+04  0.15288147681E+04  0.50400001928E-02 0.  1.
        1   -1    0    0  501    0  0.00000000000E+00  0.00000000000E+00 -0.72077426498E+03  0.72077426500E+03  0.50400001928E-02 0. -1.
    10030    2    1    2    0    0  0.00000000000E+00  0.00000000000E+00  0.80804050313E+03  0.22495890331E+04  0.20994573973E+04 0.  0.
        2    1    3    3  502    0 -0.21175531398E+02  0.10260440964E+04  0.16752115874E+03  0.10398452911E+04  0.25500000920E-02 0. -1.
       -2    1    3    3    0  502  0.21175531398E+02 -0.10260440964E+04  0.64051934438E+03  0.12097437420E+04  0.25500000920E-02 0.  1.
</event>
<event>
 5   0  0.6599245E-06  0.2095197E+04  0.7818609E-02  0.8563362E-01
       -1   -1    0    0    0  501  0.00000000000E+00  0.00000000000E+00  0.16913489095E+04  0.16913489095E+04  0.50400001928E-02 0.  1.
        1   -1    0    0  501    0  0.00000000000E+00  0.00000000000E+00 -0.64886833722E+03  0.64886833724E+03  0.50400001928E-02 0. -1.
    10030    2    1    2    0    0  0.00000000000E+00  0.00000000000E+00  0.10424805723E+04  0.23402172467E+04  0.20951971312E+04 0.  0.
        2    1    3    3  502    0  0.43945216938E+03 -0.73500909437E+03 -0.15273707372E+03  0.86987653818E+03  0.25500000920E-02 0.  1.
       -2    1    3    3    0  502 -0.43945216938E+03  0.73500909437E+03  0.11952176460E+04  0.14703407086E+04  0.25500000920E-02 0. -1.
</event>
<event>
 5   0  0.1344501E-05  0.2104714E+04  0.7818609E-02  0.8559170E-01
        2   -1    0    0  501    0  0.00000000000E+00  0.00000000000E+00  0.17377054100E+04  0.17377054100E+04  0.25500000920E-02 0.  1.
       -2   -1    0    0    0  501  0.00000000000E+00  0.00000000000E+00 -0.63730916746E+03  0.63730916747E+03  0.25500000920E-02 0. -1.
    10030    2    1    2    0    0  0.00000000000E+00  0.00000000000E+00  0.11003962426E+04  0.23750145775E+04  0.21047143162E+04 0.  0.
        3    1    3    3  502    0 -0.10283666563E+04 -0.68205388314E+02  0.31011735070E+03  0.10762726124E+04  0.10100000352E+00 0. -1.
       -3    1    3    3    0  502  0.10283666563E+04  0.68205388314E+02  0.79027889185E+03  0.12987419651E+04  0.10100000352E+00 0.  1.
</event>
<event>
 5   0  0.1344501E-05  0.2100248E+04  0.7818609E-02  0.8561134E-01
       -2   -1    0    0    0  501  0.00000000000E+00  0.00000000000E+00  0.83553917270E+03  0.83553917270E+03  0.25500000920E-02 0.  1.
        2   -1    0    0  501    0  0.00000000000E+00  0.00000000000E+00 -0.13198184882E+04  0.13198184882E+04  0.25500000920E-02 0. -1.
    10030    2    1    2    0    0  0.00000000000E+00  0.00000000000E+00 -0.48427931549E+03  0.21553576609E+04  0.21002476499E+04 0.  0.
        3    1    3    3  502    0  0.92711852936E+03 -0.40688605942E+03 -0.52811827715E+03  0.11419343053E+04  0.10100000352E+00 0. -1.
       -3    1    3    3    0  502 -0.92711852936E+03  0.40688605942E+03  0.43838961660E+02  0.10134233556E+04  0.10100000352E+00 0.  1.
</event>
<event>
 5   0  0.6238363E-06  0.2102329E+04  0.7818609E-02  0.8560218E-01
       -1   -1    0    0    0  501  0.00000000000E+00  0.00000000000E+00  0.87748381494E+03  0.87748381495E+03  0.50400001928E-02 0.  1.
        1   -1    0    0  501    0  0.00000000000E+00  0.00000000000E+00 -0.12592216088E+04  0.12592216088E+04  0.50400001928E-02 0. -1.
    10030    2    1    2    0    0  0.00000000000E+00  0.00000000000E+00 -0.38173779387E+03  0.21367054238E+04  0.21023287861E+04 0.  0.
        4    1    3    3  502    0 -0.13992994702E+03 -0.29920642498E+03 -0.12051044242E+04  0.12495531845E+04  0.12699999809E+01 0. -1.
       -4    1    3    3    0  502  0.13992994702E+03  0.29920642498E+03  0.82336663031E+03  0.88715223926E+03  0.12699999809E+01 0.  1.
</event>
<event>
 5   0  0.6238363E-06  0.2097368E+04  0.7818609E-02  0.8562404E-01
        1   -1    0    0  501    0  0.00000000000E+00  0.00000000000E+00  0.11507020292E+04  0.11507020292E+04  0.50400001928E-02 0.  1.
       -1   -1    0    0    0  501  0.00000000000E+00  0.00000000000E+00 -0.95571019150E+03  0.95571019151E+03  0.50400001928E-02 0. -1.
    10030    2    1    2    0    0  0.00000000000E+00  0.00000000000E+00  0.19499183768E+03  0.21064122207E+04  0.20973675469E+04 0.  0.
        4    1    3    3  502    0  0.58707774353E+03  0.85601052200E+03  0.24754487262E+03  0.10670962316E+04  0.12699999809E+01 0.  1.
       -4    1    3    3    0  502 -0.58707774353E+03 -0.85601052200E+03 -0.52553034946E+02  0.10393159891E+04  0.12699999809E+01 0. -1.
</event>
<event>
 5   0  0.6283269E-06  0.2095574E+04  0.7818609E-02  0.8563196E-01
       -1   -1    0    0    0  501  0.00000000000E+00  0.00000000000E+00  0.12636964687E+04  0.12636964687E+04  0.50400001928E-02 0. -1.
        1   -1    0    0  501    0  0.00000000000E+00  0.00000000000E+00 -0.86876678967E+03  0.86876678968E+03  0.50400001928E-02 0.  1.
    10030    2    1    2    0    0  0.00000000000E+00  0.00000000000E+00  0.39492967900E+03  0.21324632584E+04  0.20955739302E+04 0.  0.
        1    1    3    3  502    0 -0.67758260489E+03 -0.11550976560E+03 -0.60727667970E+03  0.91719444947E+03  0.50400001928E-02 0.  1.
       -1    1    3    3    0  502  0.67758260489E+03  0.11550976560E+03  0.10022063587E+04  0.12152688089E+04  0.50400001928E-02 0. -1.
</event>
<event>
 5   0  0.6283269E-06  0.2111668E+04  0.7818609E-02  0.8556121E-01
       -1   -1    0    0    0  501  0.00000000000E+00  0.00000000000E+00  0.61823975160E+03  0.61823975162E+03  0.50400001928E-02 0. -1.
        1   -1    0    0  501    0  0.00000000000E+00  0.00000000000E+00 -0.18031598177E+04  0.18031598177E+04  0.50400001928E-02 0.  1.
    10030    2    1    2    0    0  0.00000000000E+00  0.00000000000E+00 -0.11849200661E+04  0.24213995693E+04  0.21116676612E+04 0.  0.
        1    1    3    3  502    0 -0.67056300407E+02  0.98764474384E+03 -0.17138396927E+03  0.10046447892E+04  0.50400001928E-02 0. -1.
       -1    1    3    3    0  502  0.67056300407E+02 -0.98764474384E+03 -0.10135360968E+04  0.14167547801E+04  0.50400001928E-02 0.  1.
</event>
<event>
 5   0  0.6599245E-06  0.2099977E+04  0.7818609E-02  0.8561253E-01
       -1   -1    0    0    0  501  0.00000000000E+00  0.00000000000E+00  0.49655881929E+03  0.49655881932E+03  0.50400001928E-02 0. -1.
        1   -1    0    0  501    0  0.00000000000E+00  0.00000000000E+00 -0.22202324709E+04  0.22202324709E+04  0.50400001928E-02 0.  1.
    10030    2    1    2    0    0  0.00000000000E+00  0.00000000000E+00 -0.17236736516E+04  0.27167912902E+04  0.20999771564E+04 0.  0.
        2    1    3    3  502    0 -0.71294739206E+03  0.25837220692E+02  0.13484688627E+03  0.72604767651E+03  0.25500000920E-02 0. -1.
       -2    1    3    3    0  502  0.71294739206E+03 -0.25837220692E+02 -0.18585205379E+04  0.19907436137E+04  0.25500000920E-02 0.  1.
</event>
<event>
 5   0  0.6917078E-06  0.2145937E+04  0.7818609E-02  0.8541273E-01
       -1   -1    0    0    0  501  0.00000000000E+00  0.00000000000E+00  0.19528368001E+04  0.19528368001E+04  0.50400001928E-02 0. -1.
        1   -1    0    0  501    0  0.00000000000E+00  0.00000000000E+00 -0.58953274735E+03  0.58953274738E+03  0.50400001928E-02 0.  1.
    10030    2    1    2    0    0  0.00000000000E+00  0.00000000000E+00  0.13633040527E+04  0.25423695475E+04  0.21459368527E+04 0.  0.
        5    1    3    3  502    0  0.41476085623E+02  0.43927283079E+03  0.18403692295E+04  0.18925279064E+04  0.46999998093E+01 0. -1.
       -5    1    3    3    0  502 -0.41476085623E+02 -0.43927283079E+03 -0.47706517679E+03  0.64984164106E+03  0.46999998093E+01 0.  1.
</event>
<event>
 5   0  0.6599245E-06  0.2098644E+04  0.7818609E-02  0.8561841E-01
       -1   -1    0    0    0  501  0.00000000000E+00  0.00000000000E+00  0.14620026245E+04  0.14620026245E+04  0.50400001928E-02 0.  1.
        1   -1    0    0  501    0  0.00000000000E+00  0.00000000000E+00 -0.75312870975E+03  0.75312870977E+03  0.50400001928E-02 0. -1.
    10030    2    1    2    0    0  0.00000000000E+00  0.00000000000E+00  0.70887391477E+03  0.22151313343E+04  0.20986435145E+04 0.  0.
        2    1    3    3  502    0 -0.48207264662E+03 -0.44839343791E+03  0.12168736890E+04  0.13835578364E+04  0.25500000920E-02 0.  1.
       -2    1    3    3    0  502  0.48207264662E+03  0.44839343791E+03 -0.50799977421E+03  0.83157349788E+03  0.25500000920E-02 0. -1.
</event>
<event>
 5   0  0.1395356E-05  0.2104644E+04  0.7818609E-02  0.8559200E-01
       -2   -1    0    0    0  501  0.00000000000E+00  0.00000000000E+00  0.60409751913E+03  0.60409751913E+03  0.25500000920E-02 0. -1.
        2   -1    0    0  501    0  0.00000000000E+00  0.00000000000E+00 -0.18331172721E+04  0.18331172721E+04  0.25500000920E-02 0.  1.
    10030    2    1    2    0    0  0.00000000000E+00  0.00000000000E+00 -0.12290197530E+04  0.24372147912E+04  0.21046440044E+04 0.  0.
        1    1    3    3  502    0 -0.67639714936E+02 -0.48397776293E+03  0.46473021159E+03  0.67437658296E+03  0.50400001928E-02 0. -1.
       -1    1    3    3    0  502  0.67639714936E+02  0.48397776293E+03 -0.16937499645E+04  0.17628382083E+04  0.50400001928E-02 0.  1.
</event>
<event>
 5   0  0.1395356E-05  0.2098441E+04  0.7818609E-02  0.8561931E-01
       -2   -1    0    0    0  501  0.00000000000E+00  0.00000000000E+00  0.11887563151E+04  0.11887563151E+04  0.25500000920E-02 0. -1.
        2   -1    0    0  501    0  0.00000000000E+00  0.00000000000E+00 -0.92606312765E+03  0.92606312765E+03  0.25500000920E-02 0.  1.
    10030    2    1    2    0    0  0.00000000000E+00  0.00000000000E+00  0.26269318749E+03  0.21148194428E+04  0.20984407461E+04 0.  0.
        1    1    3    3  502    0  0.74276334411E+02 -0.44971608277E+03  0.10837634683E+04  0.11757145845E+04  0.50400001928E-02 0. -1.
       -1    1    3    3    0  502 -0.74276334411E+02  0.44971608277E+03 -0.82107028077E+03  0.93910485833E+03  0.50400001928E-02 0.  1.
</event>
<event>
 5   0  0.1398469E-05  0.2097849E+04  0.7818609E-02  0.8562191E-01
        2   -1    0    0  501    0  0.00000000000E+00  0.00000000000E+00  0.14388943868E+04  0.14388943868E+04  0.25500000920E-02 0.  1.
       -2   -1    0    0    0  501  0.00000000000E+00  0.00000000000E+00 -0.76464454024E+03  0.76464454025E+03  0.25500000920E-02 0. -1.
    10030    2    1    2    0    0  0.00000000000E+00  0.00000000000E+00  0.67424984657E+03  0.22035389271E+04  0.20978491241E+04 0.  0.
        2    1    3    3  502    0 -0.22412862430E+03 -0.76925273886E+03  0.10481781795E+04  0.13193410902E+04  0.25500000920E-02 0.  1.
       -2    1    3    3    0  502  0.22412862430E+03  0.76925273886E+03 -0.37392833291E+03  0.88419783682E+03  0.25500000920E-02 0. -1.
</event>
<event>
 5   0  0.6238363E-06  0.2101119E+04  0.7818609E-02  0.8560751E-01
        1   -1    0    0  501    0  0.00000000000E+00  0.00000000000E+00  0.96291899276E+03  0.96291899278E+03  0.50400001928E-02 0. -1.
       -1   -1    0    0    0  501  0.00000000000E+00  0.00000000000E+00 -0.11461764774E+04  0.11461764774E+04  0.50400001928E-02 0.  1.
    10030    2    1    2    0    0  0.00000000000E+00  0.00000000000E+00 -0.18325748466E+03  0.21090954702E+04  0.21011188440E+04 0.  0.
        4    1    3    3  502    0  0.99146931591E+03  0.33626504723E+03 -0.41894935170E+01  0.10469502143E+04  0.12699999809E+01 0.  1.
       -4    1    3    3    0  502 -0.99146931591E+03 -0.33626504723E+03 -0.17906799114E+03  0.10621452559E+04  0.12699999809E+01 0. -1.
</event>
<event>
 5   0  0.6238363E-06  0.2100382E+04  0.7818609E-02  0.8561075E-01
        1   -1    0    0  501    0  0.00000000000E+00  0.00000000000E+00  0.18033377367E+04  0.18033377367E+04  0.50400001928E-02 0. -1.
       -1   -1    0    0    0  501  0.00000000000E+00  0.00000000000E+00 -0.61158870572E+03  0.61158870574E+03  0.50400001928E-02 0.  1.
    10030    2    1    2    0    0  0.00000000000E+00  0.00000000000E+00  0.11917490309E+04  0.24149264424E+04  0.21003818628E+04 0.  0.
        4    1    3    3  502    0  0.87622573235E+03  0.51895043538E+03  0.30090376820E+03  0.10618972545E+04  0.12699999809E+01 0.  1.
       -4    1    3    3    0  502 -0.87622573235E+03 -0.51895043538E+03  0.89084526273E+03  0.13530291879E+04  0.12699999809E+01 0. -1.
</event>
<event>
 5   0  0.6283269E-06  0.2100817E+04  0.7818609E-02  0.8560884E-01
       -1   -1    0    0    0  501  0.00000000000E+00  0.00000000000E+00  0.11690960153E+04  0.11690960153E+04  0.50400001928E-02 0.  1.
        1   -1    0    0  501    0  0.00000000000E+00  0.00000000000E+00 -0.94376987565E+03  0.94376987566E+03  0.50400001928E-02 0. -1.
    10030    2    1    2    0    0  0.00000000000E+00  0.00000000000E+00  0.22532613966E+03  0.21128658910E+04  0.21008166041E+04 0.  0.
        1    1    3    3  502    0 -0.64104299514E+03  0.81878827231E+03 -0.36536174999E+02  0.10405216233E+04  0.50400001928E-02 0. -1.
       -1    1    3    3    0  502  0.64104299514E+03 -0.81878827231E+03  0.26186231465E+03  0.10723442676E+04  0.50400001928E-02 0.  1.
</event>
<event>
 5   0  0.6599245E-06  0.2104538E+04  0.7818609E-02  0.8559247E-01
       -1   -1    0    0    0  501  0.00000000000E+00  0.00000000000E+00  0.13602798050E+04  0.13602798050E+04  0.50400001928E-02 0. -1.
        1   -1    0    0  501    0  0.00000000000E+00  0.00000000000E+00 -0.81400130754E+03  0.81400130755E+03  0.50400001928E-02 0.  1.
    10030    2    1    2    0    0  0.00000000000E+00  0.00000000000E+00  0.54627849749E+03  0.21742811126E+04  0.21045375168E+04 0.  0.
        2    1    3    3  502    0  0.77400869378E+03  0.59126638544E+03  0.68456256584E+03  0.11905088421E+04  0.25500000920E-02 0. -1.
       -2    1    3    3    0  502 -0.77400869378E+03 -0.59126638544E+03 -0.13828406835E+03  0.98377227048E+03  0.25500000920E-02 0.  1.
</event>
<event>
 5   0  0.6599245E-06  0.2097725E+04  0.7818609E-02  0.8562246E-01
       -1   -1    0    0    0  501  0.00000000000E+00  0.00000000000E+00  0.17998408837E+04  0.17998408837E+04  0.50400001928E-02 0. -1.
        1   -1    0    0  501    0  0.00000000000E+00  0.00000000000E+00 -0.61122762401E+03  0.61122762403E+03  0.50400001928E-02 0.  1.
    10030    2    1    2    0    0  0.00000000000E+00  0.00000000000E+00  0.11886132597E+04  0.24110685078E+04  0.20977249267E+04 0.  0.
        2    1    3    3  502    0  0.87407922713E+03  0.42115183507E+03  0.13638696588E+03  0.97978812401E+03  0.25500000920E-02 0.  1.
       -2    1    3    3    0  502 -0.87407922713E+03 -0.42115183507E+03  0.10522262938E+04  0.14312803838E+04  0.25500000920E-02 0. -1.
</event>
<event>
 5   0  0.1344501E-05  0.2099910E+04  0.7818609E-02  0.8561283E-01
       -2   -1    0    0    0  501  0.00000000000E+00  0.00000000000E+00  0.11545581357E+04  0.11545581357E+04  0.25500000920E-02 0.  1.
        2   -1    0    0  501    0  0.00000000000E+00  0.00000000000E+00 -0.95482892449E+03  0.95482892449E+03  0.25500000920E-02 0. -1.
    10030    2    1    2    0    0  0.00000000000E+00  0.00000000000E+00  0.19972921122E+03  0.21093870602E+04  0.20999100009E+04 0.  0.
        3    1    3    3  502    0 -0.70908701737E+03 -0.48086336853E+03  0.70953992715E+03  0.11124211863E+04  0.10100000352E+00 0.  1.
       -3    1    3    3    0  502  0.70908701737E+03  0.48086336853E+03 -0.50981071592E+03  0.99696587387E+03  0.10100000352E+00 0. -1.
</event>
<event>
 5   0  0.1395356E-05  0.2100139E+04  0.7818609E-02  0.8561182E-01
       -2   -1    0    0    0  501  0.00000000000E+00  0.00000000000E+00  0.78385396673E+03  0.78385396674E+03  0.25500000920E-02 0. -1.
        2   -1    0    0  501    0  0.00000000000E+00  0.00000000000E+00 -0.14066976090E+04  0.14066976090E+04  0.25500000920E-02 0.  1.
    10030    2    1    2    0    0  0.00000000000E+00  0.00000000000E+00 -0.62284364228E+03  0.21905515758E+04  0.21001385676E+04 0.  0.
        1    1    3    3  502    0 -0.89059167846E+03 -0.41568356458E+03 -0.69706745531E+03  0.12049271351E+04  0.50400001928E-02 0. -1.
       -1    1    3    3    0  502  0.89059167846E+03  0.41568356458E+03  0.74223813026E+02  0.98562444067E+03  0.50400001928E-02 0.  1.
</event>
<event>
 5   0  0.1344501E-05  0.2098850E+04  0.7818609E-02  0.8561750E-01
       -2   -1    0    0    0  501  0.00000000000E+00  0.00000000000E+00  0.64895717669E+03  0.64895717669E+03  0.25500000920E-02 0. -1.
        2   -1    0    0  501    0  0.00000000000E+00  0.00000000000E+00 -0.16970199527E+04  0.16970199527E+04  0.25500000920E-02 0.  1.
    10030    2    1    2    0    0  0.00000000000E+00  0.00000000000E+00 -0.10480627760E+04  0.23459771293E+04  0.20988504256E+04 0.  0.
        3    1    3    3  502    0  0.74316417081E+03  0.39636392739E+03 -0.12237568135E+04  0.14855901509E+04  0.10100000352E+00 0.  1.
       -3    1    3    3    0  502 -0.74316417081E+03 -0.39636392739E+03  0.17569403748E+03  0.86038697847E+03  0.10100000352E+00 0. -1.
</event>
<event>
 5   0  0.6238363E-06  0.2100367E+04  0.7818609E-02  0.8561082E-01
        1   -1    0    0  501    0  0.00000000000E+00  0.00000000000E+00  0.15638135736E+04  0.15638135736E+04  0.50400001928E-02 0. -1.
       -1   -1    0    0    0  501  0.00000000000E+00  0.00000000000E+00 -0.70525394915E+03  0.70525394917E+03  0.50400001928E-02 0.  1.
    10030    2    1    2    0    0  0.00000000000E+00  0.00000000000E+00  0.85855962443E+03  0.22690675228E+04  0.21003672998E+04 0.  0.
        4    1    3    3  502    0  0.82731298422E+03 -0.59325747849E+03  0.15072730573E+03  0.10291363094E+04  0.12699999809E+01 0.  1.
       -4    1    3    3    0  502 -0.82731298422E+03  0.59325747849E+03  0.70783231871E+03  0.12399312134E+04  0.12699999809E+01 0. -1.
</event>
<event>
 5   0  0.1398469E-05  0.2090067E+04  0.7818609E-02  0.8565632E-01
       -2   -1    0    0    0  501  0.00000000000E+00  0.00000000000E+00  0.73978313840E+03  0.73978313841E+03  0.25500000920E-02 0. -1.
        2   -1    0    0  501    0  0.00000000000E+00  0.00000000000E+00 -0.14762364200E+04  0.14762364200E+04  0.25500000920E-02 0.  1.
    10030    2    1    2    0    0  0.00000000000E+00  0.00000000000E+00 -0.73645328163E+03  0.22160195584E+04  0.20900668045E+04 0.  0.
        2    1    3    3  502    0 -0.59619664831E+03  0.92793780637E+02 -0.12728944931E+04  0.14086594761E+04  0.25500000920E-02 0.  1.
       -2    1    3    3    0  502  0.59619664831E+03 -0.92793780637E+02  0.53644121144E+03  0.80736008232E+03  0.25500000920E-02 0. -1.
</event>
<event>
 5   0  0.1398469E-05  0.2102190E+04  0.7818609E-02  0.8560279E-01
        2   -1    0    0  501    0  0.00000000000E+00  0.00000000000E+00  0.14757278821E+04  0.14757278821E+04  0.25500000920E-02 0. -1.
       -2   -1    0    0    0  501  0.00000000000E+00  0.00000000000E+00 -0.74864808093E+03  0.74864808093E+03  0.25500000920E-02 0.  1.
    10030    2    1    2    0    0  0.00000000000E+00  0.00000000000E+00  0.72707980121E+03  0.22243759631E+04  0.21021901407E+04 0.  0.
        2    1    3    3  502    0  0.14803021469E+03  0.52216283887E+03 -0.58890836658E+03  0.80086205990E+03  0.25500000920E-02 0.  1.
       -2    1    3    3    0  502 -0.14803021469E+03 -0.52216283887E+03  0.13159881678E+04  0.14235139032E+04  0.25500000920E-02 0. -1.
</event>
<event>
 5   0  0.6238363E-06  0.2103021E+04  0.7818609E-02  0.8559914E-01
       -1   -1    0    0    0  501  0.00000000000E+00  0.00000000000E+00  0.66213534556E+03  0.66213534558E+03  0.50400001928E-02 0.  1.
        1   -1    0    0  501    0  0.00000000000E+00  0.00000000000E+00 -0.16698617650E+04  0.16698617650E+04  0.50400001928E-02 0. -1.
    10030    2    1    2    0    0  0.00000000000E+00  0.00000000000E+00 -0.10077264194E+04  0.23319971106E+04  0.21030211571E+04 0.  0.
        4    1    3    3  502    0 -0.33339786100E+03  0.39486273220E+03  0.51159570778E+03  0.72718807204E+03  0.12699999809E+01 0.  1.
       -4    1    3    3    0  502  0.33339786100E+03 -0.39486273220E+03 -0.15193221272E+04  0.16048090385E+04  0.12699999809E+01 0. -1.
</event>
<event>
 5   0  0.6599245E-06  0.2101682E+04  0.7818609E-02  0.8560503E-01
        1   -1    0    0  501    0  0.00000000000E+00  0.00000000000E+00  0.56140830915E+03  0.56140830917E+03  0.50400001928E-02 0.  1.
       -1   -1    0    0    0  501  0.00000000000E+00  0.00000000000E+00 -0.19669590294E+04  0.19669590294E+04  0.50400001928E-02 0. -1.
    10030    2    1    2    0    0  0.00000000000E+00  0.00000000000E+00 -0.14055507203E+04  0.25283673386E+04  0.21016823194E+04 0.  0.
        2    1    3    3  502    0 -0.61045861669E+03  0.36117366010E+02  0.32529924134E+03  0.69266426445E+03  0.25500000920E-02 0.  1.
       -2    1    3    3    0  502  0.61045861669E+03 -0.36117366010E+02 -0.17308499616E+04  0.18357030741E+04  0.25500000920E-02 0. -1.
</event>
<event>
 5   0  0.6917078E-06  0.2096209E+04  0.7818609E-02  0.8562915E-01
       -1   -1    0    0    0  501  0.00000000000E+00  0.00000000000E+00  0.81842307250E+03  0.81842307252E+03  0.50400001928E-02 0.  1.
        1   -1    0    0  501    0  0.00000000000E+00  0.00000000000E+00 -0.13422438176E+04  0.13422438176E+04  0.50400001928E-02 0. -1.
    10030    2    1    2    0    0  0.00000000000E+00  0.00000000000E+00 -0.52382074513E+03  0.21606668902E+04  0.20962092542E+04 0.  0.
        5    1    3    3  502    0 -0.61410361087E+03 -0.82294595681E+03 -0.45359894447E+02  0.10278340833E+04  0.46999998093E+01 0.  1.
       -5    1    3    3    0  502  0.61410361087E+03  0.82294595681E+03 -0.47846085069E+03  0.11328328069E+04  0.46999998093E+01 0. -1.
</event>
<event>
 5   0  0.1441136E-05  0.2100295E+04  0.7818609E-02  0.8561113E-01
       -2   -1    0    0    0  501  0.00000000000E+00  0.00000000000E+00  0.21118069851E+04  0.21118069851E+04  0.25500000920E-02 0. -1.
        2   -1    0    0  501    0  0.00000000000E+00  0.00000000000E+00 -0.52221146368E+03  0.52221146368E+03  0.25500000920E-02 0.  1.
    10030    2    1    2    0    0  0.00000000000E+00  0.00000000000E+00  0.15895955214E+04  0.26340184488E+04  0.21002950428E+04 0.  0.
        4    1    3    3  502    0 -0.71406369464E+03 -0.22442076046E+03 -0.12896620448E+03  0.75952981016E+03  0.12699999809E+01 0.  1.
       -4    1    3    3    0  502  0.71406369464E+03  0.22442076046E+03  0.17185617259E+04  0.18744886386E+04  0.12699999809E+01 0. -1.
</event>
<event>
 5   0  0.6917078E-06  0.2102570E+04  0.7818609E-02  0.8560112E-01
        1   -1    0    0  501    0  0.00000000000E+00  0.00000000000E+00  0.12381286202E+04  0.12381286202E+04  0.50400001928E-02 0.  1.
       -1   -1    0    0    0  501  0.00000000000E+00  0.00000000000E+00 -0.89263763402E+03  0.89263763404E+03  0.50400001928E-02 0. -1.
    10030    2    1    2    0    0  0.00000000000E+00  0.00000000000E+00  0.34549098617E+03  0.21307662542E+04  0.21025700485E+04 0.  0.
        5    1    3    3  502    0 -0.28607847558E+03  0.99503309521E+03  0.35752651786E+03  0.10953442636E+04  0.46999998093E+01 0.  1.
       -5    1    3    3    0  502  0.28607847558E+03 -0.99503309521E+03 -0.12035531684E+02  0.10354219907E+04  0.46999998093E+01 0. -1.
</event>
<event>
 5   0  0.1395356E-05  0.2098557E+04  0.7818609E-02  0.8561879E-01
       -2   -1    0    0    0  501  0.00000000000E+00  0.00000000000E+00  0.43946648014E+03  0.43946648014E+03  0.25500000920E-02 0.  1.
        2   -1    0    0  501    0  0.00000000000E+00  0.00000000000E+00 -0.25052781842E+04  0.25052781842E+04  0.25500000920E-02 0. -1.
    10030    2    1    2    0    0  0.00000000000E+00  0.00000000000E+00 -0.20658117040E+04  0.29447446643E+04  0.20985573953E+04 0.  0.
        1    1    3    3  502    0 -0.65302535084E+03 -0.57404425032E+03 -0.20867861740E+03  0.89415640441E+03  0.50400001928E-02 0.  1.
       -1    1    3    3    0  502  0.65302535084E+03  0.57404425032E+03 -0.18571330866E+04  0.20505882599E+04  0.50400001928E-02 0. -1.
</event>
<event>
 5   0  0.6917078E-06  0.2099495E+04  0.7818609E-02  0.8561466E-01
        1   -1    0    0  501    0  0.00000000000E+00  0.00000000000E+00  0.10306761557E+04  0.10306761557E+04  0.50400001928E-02 0. -1.
       -1   -1    0    0    0  501  0.00000000000E+00  0.00000000000E+00 -0.10691719794E+04  0.10691719794E+04  0.50400001928E-02 0.  1.
    10030    2    1    2    0    0  0.00000000000E+00  0.00000000000E+00 -0.38495823720E+02  0.20998481351E+04  0.20994952399E+04 0.  0.
        5    1    3    3  502    0 -0.66002970118E+02  0.79572905044E+03  0.66234067025E+03  0.10374287288E+04  0.46999998093E+01 0. -1.
       -5    1    3    3    0  502  0.66002970118E+02 -0.79572905044E+03 -0.70083649397E+03  0.10624194064E+04  0.46999998093E+01 0.  1.
</event>
<event>
 5   0  0.6283269E-06  0.2100195E+04  0.7818609E-02  0.8561158E-01
        1   -1    0    0  501    0  0.00000000000E+00  0.00000000000E+00  0.11681859564E+04  0.11681859564E+04  0.50400001928E-02 0.  1.
       -1   -1    0    0    0  501  0.00000000000E+00  0.00000000000E+00 -0.94394604722E+03  0.94394604723E+03  0.50400001928E-02 0. -1.
    10030    2    1    2    0    0  0.00000000000E+00  0.00000000000E+00  0.22423990917E+03  0.21121320036E+04  0.21001947681E+04 0.  0.
        1    1    3    3  502    0 -0.39173971790E+03  0.70222394611E+03 -0.56708980502E+03  0.98395595636E+03  0.50400001928E-02 0. -1.
       -1    1    3    3    0  502  0.39173971790E+03 -0.70222394611E+03  0.79132971419E+03  0.11281760473E+04  0.50400001928E-02 0.  1.
</event>
<event>
 5   0  0.6589193E-06  0.2099453E+04  0.7818609E-02  0.8561484E-01
        1   -1    0    0  501    0  0.00000000000E+00  0.00000000000E+00  0.17121166132E+04  0.17121166132E+04  0.50400001928E-02 0. -1.
       -1   -1    0    0    0  501  0.00000000000E+00  0.00000000000E+00 -0.64360462522E+03  0.64360462524E+03  0.50400001928E-02 0.  1.
    10030    2    1    2    0    0  0.00000000000E+00  0.00000000000E+00  0.10685119880E+04  0.23557212384E+04  0.20994534252E+04 0.  0.
        3    1    3    3  502    0 -0.13281835375E+03  0.50136824888E+03  0.15582987251E+04  0.16423476377E+04  0.10100000352E+00 0. -1.
       -3    1    3    3    0  502  0.13281835375E+03 -0.50136824888E+03 -0.48978673719E+03  0.71337360072E+03  0.10100000352E+00 0.  1.
</event>
<event>
 5   0  0.6917078E-06  0.2099903E+04  0.7818609E-02  0.8561286E-01
       -1   -1    0    0    0  501  0.00000000000E+00  0.00000000000E+00  0.58600700482E+03  0.58600700484E+03  0.50400001928E-02 0. -1.
        1   -1    0    0  501    0  0.00000000000E+00  0.00000000000E+00 -0.18812021477E+04  0.18812021477E+04  0.50400001928E-02 0.  1.
    10030    2    1    2    0    0  0.00000000000E+00  0.00000000000E+00 -0.12951951429E+04  0.24672091525E+04  0.20999025083E+04 0.  0.
        5    1    3    3  502    0 -0.14023971018E+02  0.10495947727E+04 -0.67463819231E+03  0.12477999195E+04  0.46999998093E+01 0.  1.
       -5    1    3    3    0  502  0.14023971018E+02 -0.10495947727E+04 -0.62055695055E+03  0.12194092330E+04  0.46999998093E+01 0. -1.
</event>
<event>
 5   0  0.1441136E-05  0.2099381E+04  0.7818609E-02  0.8561516E-01
       -2   -1    0    0    0  501  0.00000000000E+00  0.00000000000E+00  0.60569107003E+03  0.60569107003E+03  0.25500000920E-02 0.  1.
        2   -1    0    0  501    0  0.00000000000E+00  0.00000000000E+00 -0.18191616063E+04  0.18191616063E+04  0.25500000920E-02 0. -1.
    10030    2    1    2    0    0  0.00000000000E+00  0.00000000000E+00 -0.12134705363E+04  0.24248526764E+04  0.20993808039E+04 0.  0.
        4    1    3    3  502    0  0.27543941533E+03 -0.10056388231E+04 -0.46682841514E+03  0.11424126645E+04  0.12699999809E+01 0.  1.
       -4    1    3    3    0  502 -0.27543941533E+03  0.10056388231E+04 -0.74664212116E+03  0.12824400118E+04  0.12699999809E+01 0. -1.
</event>
<event>
 5   0  0.1344501E-05  0.2094724E+04  0.7818609E-02  0.8563571E-01
        2   -1    0    0  501    0  0.00000000000E+00  0.00000000000E+00  0.10111754729E+04  0.10111754729E+04  0.25500000920E-02 0.  1.
       -2   -1    0    0    0  501  0.00000000000E+00  0.00000000000E+00 -0.10848430975E+04  0.10848430975E+04  0.25500000920E-02 0. -1.
    10030    2    1    2    0    0  0.00000000000E+00  0.00000000000E+00 -0.73667624591E+02  0.20960185704E+04  0.20947235924E+04 0.  0.
        3    1    3    3  502    0  0.83262542305E+02  0.49421674866E+03 -0.95706744720E+03  0.10803522362E+04  0.10100000352E+00 0. -1.
       -3    1    3    3    0  502 -0.83262542305E+02 -0.49421674866E+03  0.88339982260E+03  0.10156663342E+04  0.10100000352E+00 0.  1.
</event>
<event>
 5   0  0.1398469E-05  0.2101114E+04  0.7818609E-02  0.8560753E-01
        2   -1    0    0  501    0  0.00000000000E+00  0.00000000000E+00  0.15105549968E+04  0.15105549968E+04  0.25500000920E-02 0.  1.
       -2   -1    0    0    0  501  0.00000000000E+00  0.00000000000E+00 -0.73063844914E+03  0.73063844914E+03  0.25500000920E-02 0. -1.
    10030    2    1    2    0    0  0.00000000000E+00  0.00000000000E+00  0.77991654768E+03  0.22411934460E+04  0.21011135716E+04 0.  0.
        2    1    3    3  502    0  0.29751706359E+03  0.45382922241E+03  0.13494818676E+04  0.14545028970E+04  0.25500000920E-02 0.  1.
       -2    1    3    3    0  502 -0.29751706359E+03 -0.45382922241E+03 -0.56956531993E+03  0.78669054901E+03  0.25500000920E-02 0. -1.
</event>
<event>
 5   0  0.1395356E-05  0.2104510E+04  0.7818609E-02  0.8559259E-01
       -2   -1    0    0    0  501  0.00000000000E+00  0.00000000000E+00  0.87475770767E+03  0.87475770768E+03  0.25500000920E-02 0.  1.
        2   -1    0    0  501    0  0.00000000000E+00  0.00000000000E+00 -0.12657679673E+04  0.12657679673E+04  0.25500000920E-02 0. -1.
    10030    2    1    2    0    0  0.00000000000E+00  0.00000000000E+00 -0.39101025965E+03  0.21405256750E+04  0.21045097154E+04 0.  0.
        1    1    3    3  502    0 -0.35970088812E+03 -0.70205424596E+03 -0.90382489063E+03  0.11996517520E+04  0.50400001928E-02 0. -1.
       -1    1    3    3    0  502  0.35970088812E+03  0.70205424596E+03  0.51281463098E+03  0.94087392298E+03  0.50400001928E-02 0.  1.
</event>
<event>
 5   0  0.1390735E-05  0.2098027E+04  0.7818609E-02  0.8562113E-01
       -2   -1    0    0    0  501  0.00000000000E+00  0.00000000000E+00  0.74959535013E+03  0.74959535013E+03  0.25500000920E-02 0.  1.
        2   -1    0    0  501    0  0.00000000000E+00  0.00000000000E+00 -0.14680304809E+04  0.14680304809E+04  0.25500000920E-02 0. -1.
    10030    2    1    2    0    0  0.00000000000E+00  0.00000000000E+00 -0.71843513081E+03  0.22176258311E+04  0.20980265226E+04 0.  0.
        5    1    3    3  502    0  0.15230462660E+03  0.89899092118E+03 -0.90746158821E+03  0.12864252795E+04  0.46999998093E+01 0. -1.
       -5    1    3    3    0  502 -0.15230462660E+03 -0.89899092118E+03  0.18902645740E+03  0.93120055157E+03  0.46999998093E+01 0.  1.
</event>
<event>
 5   0  0.1344501E-05  0.2102644E+04  0.7818609E-02  0.8560080E-01
        2   -1    0    0  501    0  0.00000000000E+00  0.00000000000E+00  0.16311389508E+04  0.16311389508E+04  0.25500000920E-02 0. -1.
       -2   -1    0    0    0  501  0.00000000000E+00  0.00000000000E+00 -0.67761121183E+03  0.67761121183E+03  0.25500000920E-02 0.  1.
    10030    2    1    2    0    0  0.00000000000E+00  0.00000000000E+00  0.95352773898E+03  0.23087501626E+04  0.21026440889E+04 0.  0.
        3    1    3    3  502    0 -0.81342021899E+03 -0.39315521462E+03 -0.11357459531E+03  0.91056173561E+03  0.10100000352E+00 0.  1.
       -3    1    3    3    0  502  0.81342021899E+03  0.39315521462E+03  0.10671023343E+04  0.13981884270E+04  0.10100000352E+00 0. -1.
</event>
<event>
 5   0  0.6283269E-06  0.2077943E+04  0.7818609E-02  0.8571022E-01
       -1   -1    0    0    0  501  0.00000000000E+00  0.00000000000E+00  0.64534689807E+03  0.64534689809E+03  0.50400001928E-02 0. -1.
        1   -1    0    0  501    0  0.00000000000E+00  0.00000000000E+00 -0.16726845020E+04  0.16726845020E+04  0.50400001928E-02 0.  1.
    10030    2    1    2    0    0  0.00000000000E+00  0.00000000000E+00 -0.10273376039E+04  0.23180314001E+04  0.20779429779E+04 0.  0.
        1    1    3    3  502    0 -0.82943511551E+03 -0.35708934896E+03 -0.10868295187E+04  0.14130370896E+04  0.50400001928E-02 0.  1.
       -1    1    3    3    0  502  0.82943511551E+03  0.35708934896E+03  0.59491914771E+02  0.90499431044E+03  0.50400001928E-02 0. -1.
</event>
<event>
 5   0  0.6589193E-06  0.2103656E+04  0.7818609E-02  0.8559635E-01
       -1   -1    0    0    0  501  0.00000000000E+00  0.00000000000E+00  0.54301747434E+03  0.54301747437E+03  0.50400001928E-02 0.  1.
        1   -1    0    0  501    0  0.00000000000E+00  0.00000000000E+00 -0.20373969891E+04  0.20373969891E+04  0.50400001928E-02 0. -1.
    10030    2    1    2    0    0  0.00000000000E+00  0.00000000000E+00 -0.14943795148E+04  0.25804144635E+04  0.21036560245E+04 0.  0.
        3    1    3    3  502    0 -0.86951412002E+02 -0.87558136526E+03 -0.14541168055E+04  0.16996055335E+04  0.10100000352E+00 0. -1.
       -3    1    3    3    0  502  0.86951412002E+02  0.87558136526E+03 -0.40262709304E+02  0.88080893002E+03  0.10100000352E+00 0.  1.
</event>
<event>
 5   0  0.6917078E-06  0.2100126E+04  0.7818609E-02  0.8561188E-01
       -1   -1    0    0    0  501  0.00000000000E+00  0.00000000000E+00  0.66416609459E+03  0.66416609460E+03  0.50400001928E-02 0.  1.
        1   -1    0    0  501    0  0.00000000000E+00  0.00000000000E+00 -0.16601760878E+04  0.16601760878E+04  0.50400001928E-02 0. -1.
    10030    2    1    2    0    0  0.00000000000E+00  0.00000000000E+00 -0.99600999325E+03  0.23243421824E+04  0.21001263473E+04 0.  0.
        5    1    3    3  502    0  0.39167431631E+03 -0.38587074920E+03 -0.14881129774E+04  0.15864448710E+04  0.46999998093E+01 0. -1.
       -5    1    3    3    0  502 -0.39167431631E+03  0.38587074920E+03  0.49210298420E+03  0.73789731142E+03  0.46999998093E+01 0.  1.
</event>
<event>
 5   0  0.6589193E-06  0.2099138E+04  0.7818609E-02  0.8561623E-01
        1   -1    0    0  501    0  0.00000000000E+00  0.00000000000E+00  0.14428768752E+04  0.14428768752E+04  0.50400001928E-02 0. -1.
       -1   -1    0    0    0  501  0.00000000000E+00  0.00000000000E+00 -0.76347152565E+03  0.76347152567E+03  0.50400001928E-02 0.  1.
    10030    2    1    2    0    0  0.00000000000E+00  0.00000000000E+00  0.67940534958E+03  0.22063484009E+04  0.20991383083E+04 0.  0.
        3    1    3    3  502    0 -0.72678157476E+02  0.28510553040E+03  0.13986444343E+04  0.14292562898E+04  0.10100000352E+00 0. -1.
       -3    1    3    3    0  502  0.72678157476E+02 -0.28510553040E+03 -0.71923908471E+03  0.77709211115E+03  0.10100000352E+00 0.  1.
</event>
<event>
 5   0  0.1398469E-05  0.2100535E+04  0.7818609E-02  0.8561008E-01
       -2   -1    0    0    0  501  0.00000000000E+00  0.00000000000E+00  0.10239070668E+04  0.10239070668E+04  0.25500000920E-02 0. -1.
        2   -1    0    0  501    0  0.00000000000E+00  0.00000000000E+00 -0.10773066008E+04  0.10773066008E+04  0.25500000920E-02 0.  1.
    10030    2    1    2    0    0  0.00000000000E+00  0.00000000000E+00 -0.53399534001E+02  0.21012136676E+04  0.21005350191E+04 0.  0.
        2    1    3    3  502    0 -0.29981440956E+03  0.70403073092E+03  0.69291703791E+03  0.10323187355E+04  0.25500000920E-02 0. -1.
       -2    1    3    3    0  502  0.29981440956E+03 -0.70403073092E+03 -0.74631657191E+03  0.10688949321E+04  0.25500000920E-02 0.  1.
</event>
<event>
 5   0  0.1344501E-05  0.2104183E+04  0.7818609E-02  0.8559403E-01
        2   -1    0    0  501    0  0.00000000000E+00  0.00000000000E+00  0.17545442081E+04  0.17545442081E+04  0.25500000920E-02 0. -1.
       -2   -1    0    0    0  501  0.00000000000E+00  0.00000000000E+00 -0.63087385971E+03  0.63087385971E+03  0.25500000920E-02 0.  1.
    10030    2    1    2    0    0  0.00000000000E+00  0.00000000000E+00  0.11236703484E+04  0.23854180679E+04  0.21041825744E+04 0.  0.
        3    1    3    3  502    0 -0.16612395787E+03 -0.28559203733E+03  0.16942066591E+04  0.17261217208E+04  0.10100000352E+00 0. -1.
       -3    1    3    3    0  502  0.16612395787E+03  0.28559203733E+03 -0.57053631069E+03  0.65929634701E+03  0.10100000352E+00 0.  1.
</event>
<event>
 5   0  0.6589193E-06  0.2103677E+04  0.7818609E-02  0.8559625E-01
       -1   -1    0    0    0  501  0.00000000000E+00  0.00000000000E+00  0.13069302208E+04  0.13069302208E+04  0.50400001928E-02 0.  1.
        1   -1    0    0  501    0  0.00000000000E+00  0.00000000000E+00 -0.84653642395E+03  0.84653642396E+03  0.50400001928E-02 0. -1.
    10030    2    1    2    0    0  0.00000000000E+00  0.00000000000E+00  0.46039379682E+03  0.21534666447E+04  0.21036768150E+04 0.  0.
        3    1    3    3  502    0  0.44005841302E+03  0.45367124642E+03 -0.63047295135E+03  0.89272905144E+03  0.10100000352E+00 0. -1.
       -3    1    3    3    0  502 -0.44005841302E+03 -0.45367124642E+03  0.10908667482E+04  0.12607375933E+04  0.10100000352E+00 0.  1.
</event>
<event>
 5   0  0.6599245E-06  0.2090662E+04  0.7818609E-02  0.8565368E-01
        1   -1    0    0  501    0  0.00000000000E+00  0.00000000000E+00  0.25469600505E+04  0.25469600505E+04  0.50400001928E-02 0.  1.
       -1   -1    0    0    0  501  0.00000000000E+00  0.00000000000E+00 -0.42902795428E+03  0.42902795431E+03  0.50400001928E-02 0. -1.
    10030    2    1    2    0    0  0.00000000000E+00  0.00000000000E+00  0.21179320963E+04  0.29759880049E+04  0.20906621536E+04 0.  0.
        2    1    3    3  502    0  0.82981047169E+03 -0.16028477447E+03  0.19346473650E+04  0.21111932774E+04  0.25500000920E-02 0.  1.
       -2    1    3    3    0  502 -0.82981047169E+03  0.16028477447E+03  0.18328473128E+03  0.86479472742E+03  0.25500000920E-02 0. -1.
</event>
<event>
 5   0  0.1398469E-05  0.2091806E+04  0.7818609E-02  0.8564861E-01
        2   -1    0    0  501    0  0.00000000000E+00  0.00000000000E+00  0.20162669780E+04  0.20162669780E+04  0.25500000920E-02 0.  1.
       -2   -1    0    0    0  501  0.00000000000E+00  0.00000000000E+00 -0.54254399262E+03  0.54254399263E+03  0.25500000920E-02 0. -1.
    10030    2    1    2    0    0  0.00000000000E+00  0.00000000000E+00  0.14737229854E+04  0.25588109707E+04  0.20918064313E+04 0.  0.
        2    1    3    3  502    0  0.33989654739E+03 -0.85046046018E+03  0.11902623571E+03  0.92356911060E+03  0.25500000920E-02 0. -1.
       -2    1    3    3    0  502 -0.33989654739E+03  0.85046046018E+03  0.13546967497E+04  0.16352418601E+04  0.25500000920E-02 0.  1.
</event>
<event>
 5   0  0.6238363E-06  0.2101846E+04  0.7818609E-02  0.8560430E-01
        1   -1    0    0  501    0  0.00000000000E+00  0.00000000000E+00  0.83641863691E+03  0.83641863693E+03  0.50400001928E-02 0.  1.
       -1   -1    0    0    0  501  0.00000000000E+00  0.00000000000E+00 -0.13204387198E+04  0.13204387199E+04  0.50400001928E-02 0. -1.
    10030    2    1    2    0    0  0.00000000000E+00  0.00000000000E+00 -0.48402008294E+03  0.21568573568E+04  0.21018463828E+04 0.  0.
        4    1    3    3  502    0  0.92514228762E+03 -0.46593799042E+02  0.26734667611E+03  0.96412400270E+03  0.12699999809E+01 0.  1.
       -4    1    3    3    0  502 -0.92514228762E+03  0.46593799042E+02 -0.75136675904E+03  0.11927333541E+04  0.12699999809E+01 0. -1.
</event>
<event>
 5   0  0.5009125E-06  0.2088264E+04  0.7818609E-02  0.8566431E-01
        3   -1    0    0  501    0  0.00000000000E+00  0.00000000000E+00  0.15989900253E+04  0.15989900284E+04  0.10100000352E+00 0. -1.
       -3   -1    0    0    0  501  0.00000000000E+00  0.00000000000E+00 -0.68181283398E+03  0.68181284146E+03  0.10100000352E+00 0.  1.
    10030    2    1    2    0    0  0.00000000000E+00  0.00000000000E+00  0.91717719128E+03  0.22808028699E+04  0.20882642867E+04 0.  0.
        3    1    3    3  502    0 -0.90667182400E+03  0.32944106981E+03  0.22218412745E+02  0.96492428873E+03  0.10100000352E+00 0. -1.
       -3    1    3    3    0  502  0.90667182400E+03 -0.32944106981E+03  0.89495877853E+03  0.13158785812E+04  0.10100000352E+00 0.  1.
</event>
<event>
 5   0  0.1395356E-05  0.2100048E+04  0.7818609E-02  0.8561222E-01
       -2   -1    0    0    0  501  0.00000000000E+00  0.00000000000E+00  0.99527852467E+03  0.99527852467E+03  0.25500000920E-02 0.  1.
        2   -1    0    0  501    0  0.00000000000E+00  0.00000000000E+00 -0.11077805521E+04  0.11077805521E+04  0.25500000920E-02 0. -1.
    10030    2    1    2    0    0  0.00000000000E+00  0.00000000000E+00 -0.11250202739E+03  0.21030590767E+04  0.21000478028E+04 0.  0.
        1    1    3    3  502    0  0.71688171155E+03 -0.39610549656E+03  0.60175373826E+03  0.10163299239E+04  0.50400001928E-02 0.  1.
       -1    1    3    3    0  502 -0.71688171155E+03  0.39610549656E+03 -0.71425576565E+03  0.10867291528E+04  0.50400001928E-02 0. -1.
</event>
<event>
 5   0  0.6238363E-06  0.2097137E+04  0.7818609E-02  0.8562506E-01
        1   -1    0    0  501    0  0.00000000000E+00  0.00000000000E+00  0.14277859927E+04  0.14277859927E+04  0.50400001928E-02 0.  1.
       -1   -1    0    0    0  501  0.00000000000E+00  0.00000000000E+00 -0.77007062486E+03  0.77007062488E+03  0.50400001928E-02 0. -1.
    10030    2    1    2    0    0  0.00000000000E+00  0.00000000000E+00  0.65771536788E+03  0.21978566176E+04  0.20971371454E+04 0.  0.
        4    1    3    3  502    0 -0.43419178843E+03  0.92546086939E+03  0.57350885635E+03  0.11721409263E+04  0.12699999809E+01 0.  1.
       -4    1    3    3    0  502  0.43419178843E+03 -0.92546086939E+03  0.84206511526E+02  0.10257156913E+04  0.12699999809E+01 0. -1.
</event>
<event>
 5   0  0.6283269E-06  0.2100942E+04  0.7818609E-02  0.8560829E-01
       -1   -1    0    0    0  501  0.00000000000E+00  0.00000000000E+00  0.59643983907E+03  0.59643983909E+03  0.50400001928E-02 0. -1.
        1   -1    0    0  501    0  0.00000000000E+00  0.00000000000E+00 -0.18501262192E+04  0.18501262193E+04  0.50400001928E-02 0.  1.
    10030    2    1    2    0    0  0.00000000000E+00  0.00000000000E+00 -0.12536863802E+04  0.24465660583E+04  0.21009416789E+04 0.  0.
        1    1    3    3  502    0  0.25193336710E+03  0.10085474702E+04 -0.45081127798E+03  0.11330795336E+04  0.50400001928E-02 0. -1.
       -1    1    3    3    0  502 -0.25193336710E+03 -0.10085474702E+04 -0.80287510220E+03  0.13134865248E+04  0.50400001928E-02 0.  1.
</event>
<event>
 5   0  0.6599245E-06  0.2099367E+04  0.7818609E-02  0.8561522E-01
        1   -1    0    0  501    0  0.00000000000E+00  0.00000000000E+00  0.12632824726E+04  0.12632824726E+04  0.50400001928E-02 0. -1.
       -1   -1    0    0    0  501  0.00000000000E+00  0.00000000000E+00 -0.87220043217E+03  0.87220043218E+03  0.50400001928E-02 0.  1.
    10030    2    1    2    0    0  0.00000000000E+00  0.00000000000E+00  0.39108204040E+03  0.21354829048E+04  0.20993670651E+04 0.  0.
        2    1    3    3  502    0  0.47651929651E+03  0.80862883624E+02  0.11433572284E+04  0.12413199417E+04  0.25500000920E-02 0. -1.
       -2    1    3    3    0  502 -0.47651929651E+03 -0.80862883624E+02 -0.75227518805E+03  0.89416296303E+03  0.25500000920E-02 0.  1.
</event>
<event>
 5   0  0.1395356E-05  0.2038829E+04  0.7818609E-02  0.8588679E-01
       -2   -1    0    0    0  501  0.00000000000E+00  0.00000000000E+00  0.12919359359E+04  0.12919359359E+04  0.25500000920E-02 0.  1.
        2   -1    0    0  501    0  0.00000000000E+00  0.00000000000E+00 -0.80437921261E+03  0.80437921262E+03  0.25500000920E-02 0. -1.
    10030    2    1    2    0    0  0.00000000000E+00  0.00000000000E+00  0.48755672333E+03  0.20963151486E+04  0.20388294788E+04 0.  0.
        1    1    3    3  502    0 -0.31928369976E+03 -0.91711075339E+03  0.56263865017E+03  0.11223174531E+04  0.50400001928E-02 0.  1.
       -1    1    3    3    0  502  0.31928369976E+03  0.91711075339E+03 -0.75081926845E+02  0.97399769542E+03  0.50400001928E-02 0. -1.
</event>
<event>
 5   0  0.1390735E-05  0.2100618E+04  0.7818609E-02  0.8560971E-01
       -2   -1    0    0    0  501  0.00000000000E+00  0.00000000000E+00  0.42074006541E+03  0.42074006541E+03  0.25500000920E-02 0. -1.
        2   -1    0    0  501    0  0.00000000000E+00  0.00000000000E+00 -0.26219246014E+04  0.26219246014E+04  0.25500000920E-02 0.  1.
    10030    2    1    2    0    0  0.00000000000E+00  0.00000000000E+00 -0.22011845360E+04  0.30426646668E+04  0.21006177456E+04 0.  0.
        5    1    3    3  502    0 -0.33316259821E+03 -0.34979927965E+03  0.25026424071E+03  0.54406905174E+03  0.46999998093E+01 0. -1.
       -5    1    3    3    0  502  0.33316259821E+03  0.34979927965E+03 -0.24514487767E+04  0.24985956150E+04  0.46999998093E+01 0.  1.
</event>
<event>
 5   0  0.6589193E-06  0.2098839E+04  0.7818609E-02  0.8561755E-01
        1   -1    0    0  501    0  0.00000000000E+00  0.00000000000E+00  0.26763995684E+04  0.26763995684E+04  0.50400001928E-02 0. -1.
       -1   -1    0    0    0  501  0.00000000000E+00  0.00000000000E+00 -0.41147871576E+03  0.41147871579E+03  0.50400001928E-02 0.  1.
    10030    2    1    2    0    0  0.00000000000E+00  0.00000000000E+00  0.22649208527E+04  0.30878782842E+04  0.20988391623E+04 0.  0.
        3    1    3    3  502    0 -0.61336483719E+02 -0.42740272578E+03 -0.27473707962E+03  0.51177702895E+03  0.10100000352E+00 0.  1.
       -3    1    3    3    0  502  0.61336483719E+02  0.42740272578E+03  0.25396579323E+04  0.25761012553E+04  0.10100000352E+00 0. -1.
</event>
<event>
 5   0  0.1441136E-05  0.2097949E+04  0.7818609E-02  0.8562148E-01
        2   -1    0    0  501    0  0.00000000000E+00  0.00000000000E+00  0.98154107309E+03  0.98154107310E+03  0.25500000920E-02 0.  1.
       -2   -1    0    0    0  501  0.00000000000E+00  0.00000000000E+00 -0.11210402054E+04  0.11210402054E+04  0.25500000920E-02 0. -1.
    10030    2    1    2    0    0  0.00000000000E+00  0.00000000000E+00 -0.13949913228E+03  0.21025812785E+04  0.20979485277E+04 0.  0.
        4    1    3    3  502    0 -0.76312499894E+03 -0.47495060330E+03 -0.61169087776E+03  0.10872466061E+04  0.12699999809E+01 0. -1.
       -4    1    3    3    0  502  0.76312499894E+03  0.47495060330E+03  0.47219174548E+03  0.10153346724E+04  0.12699999809E+01 0.  1.
</event>
<event>
 5   0  0.6238363E-06  0.2096189E+04  0.7818609E-02  0.8562924E-01
        1   -1    0    0  501    0  0.00000000000E+00  0.00000000000E+00  0.19629886364E+04  0.19629886365E+04  0.50400001928E-02 0.  1.
       -1   -1    0    0    0  501  0.00000000000E+00  0.00000000000E+00 -0.55960668826E+03  0.55960668828E+03  0.50400001928E-02 0. -1.
    10030    2    1    2    0    0  0.00000000000E+00  0.00000000000E+00  0.14033819482E+04  0.25225953247E+04  0.20961885125E+04 0.  0.
        4    1    3    3  502    0  0.51984098795E+03  0.86397097131E+03  0.35746347014E+03  0.10697954185E+04  0.12699999809E+01 0. -1.
       -4    1    3    3    0  502 -0.51984098795E+03 -0.86397097131E+03  0.10459184780E+04  0.14527999063E+04  0.12699999809E+01 0.  1.
</event>
<event>
 5   0  0.6917078E-06  0.2129022E+04  0.7818609E-02  0.8548565E-01
       -1   -1    0    0    0  501  0.00000000000E+00  0.00000000000E+00  0.12663848342E+04  0.12663848342E+04  0.50400001928E-02 0. -1.
        1   -1    0    0  501    0  0.00000000000E+00  0.00000000000E+00 -0.89481806998E+03  0.89481806999E+03  0.50400001928E-02 0.  1.
    10030    2    1    2    0    0  0.00000000000E+00  0.00000000000E+00  0.37156676426E+03  0.21612029042E+04  0.21290223421E+04 0.  0.
        5    1    3    3  502    0 -0.88074458893E+03 -0.40036409289E+03 -0.26495462848E+03  0.10031079119E+04  0.46999998093E+01 0. -1.
       -5    1    3    3    0  502  0.88074458893E+03  0.40036409289E+03  0.63652139274E+03  0.11580949923E+04  0.46999998093E+01 0.  1.
</event>
<event>
 5   0  0.6599245E-06  0.2099819E+04  0.7818609E-02  0.8561323E-01
        1   -1    0    0  501    0  0.00000000000E+00  0.00000000000E+00  0.11940797617E+04  0.11940797617E+04  0.50400001928E-02 0. -1.
       -1   -1    0    0    0  501  0.00000000000E+00  0.00000000000E+00 -0.92314594076E+03  0.92314594077E+03  0.50400001928E-02 0.  1.
    10030    2    1    2    0    0  0.00000000000E+00  0.00000000000E+00  0.27093382096E+03  0.21172257025E+04  0.20998189303E+04 0.  0.
        2    1    3    3  502    0  0.10280930609E+04 -0.44516944660E+01  0.35010410711E+03  0.10860792077E+04  0.25500000920E-02 0. -1.
       -2    1    3    3    0  502 -0.10280930609E+04  0.44516944660E+01 -0.79170286152E+02  0.10311464948E+04  0.25500000920E-02 0.  1.
</event>
<event>
 5   0  0.6599245E-06  0.2102870E+04  0.7818609E-02  0.8559980E-01
        1   -1    0    0  501    0  0.00000000000E+00  0.00000000000E+00  0.10505424104E+04  0.10505424104E+04  0.50400001928E-02 0. -1.
       -1   -1    0    0    0  501  0.00000000000E+00  0.00000000000E+00 -0.10523285506E+04  0.10523285506E+04  0.50400001928E-02 0.  1.
    10030    2    1    2    0    0  0.00000000000E+00  0.00000000000E+00 -0.17861402372E+01  0.21028709610E+04  0.21028702024E+04 0.  0.
        2    1    3    3  502    0  0.18510345749E+03 -0.70273105451E+03 -0.76077593195E+03  0.10520809111E+04  0.25500000920E-02 0.  1.
       -2    1    3    3    0  502 -0.18510345749E+03  0.70273105451E+03  0.75898979171E+03  0.10507900499E+04  0.25500000920E-02 0. -1.
</event>
<event>
 5   0  0.6917078E-06  0.2096375E+04  0.7818609E-02  0.8562842E-01
       -1   -1    0    0    0  501  0.00000000000E+00  0.00000000000E+00  0.80215185223E+03  0.80215185225E+03  0.50400001928E-02 0.  1.
        1   -1    0    0  501    0  0.00000000000E+00  0.00000000000E+00 -0.13696867579E+04  0.13696867579E+04  0.50400001928E-02 0. -1.
    10030    2    1    2    0    0  0.00000000000E+00  0.00000000000E+00 -0.56753490568E+03  0.21718386102E+04  0.20963747469E+04 0.  0.
        5    1    3    3  502    0 -0.75947089180E+02  0.15753670784E+03 -0.13544539656E+04  0.13657061945E+04  0.46999998093E+01 0. -1.
       -5    1    3    3    0  502  0.75947089180E+02 -0.15753670784E+03  0.78691905996E+03  0.80613241567E+03  0.46999998093E+01 0.  1.
</event>
<event>
 5   0  0.6917078E-06  0.2097962E+04  0.7818609E-02  0.8562142E-01
       -1   -1    0    0    0  501  0.00000000000E+00  0.00000000000E+00  0.55286200529E+03  0.55286200531E+03  0.50400001928E-02 0.  1.
        1   -1    0    0  501    0  0.00000000000E+00  0.00000000000E+00 -0.19902997811E+04  0.19902997811E+04  0.50400001928E-02 0. -1.
    10030    2    1    2    0    0  0.00000000000E+00  0.00000000000E+00 -0.14374377758E+04  0.25431617864E+04  0.20979619903E+04 0.  0.
        5    1    3    3  502    0 -0.72584656537E+03 -0.41630444281E+03 -0.14855542236E+04  0.17050091105E+04  0.46999998093E+01 0. -1.
       -5    1    3    3    0  502  0.72584656537E+03  0.41630444281E+03  0.48116447837E+02  0.83815267590E+03  0.46999998093E+01 0.  1.
</event>
<event>
 5   0  0.6599245E-06  0.2097663E+04  0.7818609E-02  0.8562273E-01
       -1   -1    0    0    0  501  0.00000000000E+00  0.00000000000E+00  0.12338672760E+04  0.12338672760E+04  0.50400001928E-02 0. -1.
        1   -1    0    0  501    0  0.00000000000E+00  0.00000000000E+00 -0.89154480665E+03  0.89154480667E+03  0.50400001928E-02 0.  1.
    10030    2    1    2    0    0  0.00000000000E+00  0.00000000000E+00  0.34232246931E+03  0.21254120826E+04  0.20976634258E+04 0.  0.
        2    1    3    3  502    0  0.96147505551E+03  0.23757500764E+02  0.59508472247E+03  0.11309838762E+04  0.25500000920E-02 0. -1.
       -2    1    3    3    0  502 -0.96147505551E+03 -0.23757500764E+02 -0.25276225316E+03  0.99442820648E+03  0.25500000920E-02 0.  1.
</event>
<event>
 5   0  0.6599245E-06  0.2087928E+04  0.7818609E-02  0.8566580E-01
        1   -1    0    0  501    0  0.00000000000E+00  0.00000000000E+00  0.17288935324E+04  0.17288935324E+04  0.50400001928E-02 0. -1.
       -1   -1    0    0    0  501  0.00000000000E+00  0.00000000000E+00 -0.63038029385E+03  0.63038029387E+03  0.50400001928E-02 0.  1.
    10030    2    1    2    0    0  0.00000000000E+00  0.00000000000E+00  0.10985132386E+04  0.23592738263E+04  0.20879275975E+04 0.  0.
        2    1    3    3  502    0 -0.27454053526E+03 -0.56717440425E+03 -0.39126157233E+03  0.74171755293E+03  0.25500000920E-02 0.  1.
       -2    1    3    3    0  502  0.27454053526E+03  0.56717440425E+03  0.14897748109E+04  0.16175562734E+04  0.25500000920E-02 0. -1.
</event>
<event>
 5   0  0.5009125E-06  0.2061145E+04  0.7818609E-02  0.8578555E-01
        4   -1    0    0  501    0  0.00000000000E+00  0.00000000000E+00  0.91250004981E+03  0.91250093359E+03  0.12699999809E+01 0.  1.
       -4   -1    0    0    0  501  0.00000000000E+00  0.00000000000E+00 -0.11639212828E+04  0.11639219757E+04  0.12699999809E+01 0. -1.
    10030    2    1    2    0    0  0.00000000000E+00  0.00000000000E+00 -0.25142123299E+03  0.20764229093E+04  0.20611451821E+04 0.  0.
        2    1    3    3  502    0 -0.17844984080E+03  0.29968751148E+03 -0.11026527265E+04  0.11565033444E+04  0.25500000920E-02 0. -1.
       -2    1    3    3    0  502  0.17844984080E+03 -0.29968751148E+03  0.85123149355E+03  0.91991956487E+03  0.25500000920E-02 0.  1.
</event>
<event>
 5   0  0.1395356E-05  0.2099138E+04  0.7818609E-02  0.8561623E-01
        2   -1    0    0  501    0  0.00000000000E+00  0.00000000000E+00  0.17082261425E+04  0.17082261425E+04  0.25500000920E-02 0. -1.
       -2   -1    0    0    0  501  0.00000000000E+00  0.00000000000E+00 -0.64487680260E+03  0.64487680261E+03  0.25500000920E-02 0.  1.
    10030    2    1    2    0    0  0.00000000000E+00  0.00000000000E+00  0.10633493399E+04  0.23531029451E+04  0.20991383117E+04 0.  0.
        1    1    3    3  502    0 -0.20260564135E+03 -0.10220231712E+04  0.38981354302E+03  0.11124455073E+04  0.50400001928E-02 0. -1.
       -1    1    3    3    0  502  0.20260564135E+03  0.10220231712E+04  0.67353579685E+03  0.12406574378E+04  0.50400001928E-02 0.  1.
</event>
<event>
 5   0  0.6917078E-06  0.2097873E+04  0.7818609E-02  0.8562181E-01
       -1   -1    0    0    0  501  0.00000000000E+00  0.00000000000E+00  0.91404075843E+03  0.91404075844E+03  0.50400001928E-02 0. -1.
        1   -1    0    0  501    0  0.00000000000E+00  0.00000000000E+00 -0.12037403804E+04  0.12037403804E+04  0.50400001928E-02 0.  1.
    10030    2    1    2    0    0  0.00000000000E+00  0.00000000000E+00 -0.28969962196E+03  0.21177811388E+04  0.20978729897E+04 0.  0.
        5    1    3    3  502    0 -0.66186918842E+03 -0.31545855332E+03 -0.90207525490E+03  0.11624744199E+04  0.46999998093E+01 0.  1.
       -5    1    3    3    0  502  0.66186918842E+03  0.31545855332E+03  0.61237563294E+03  0.95530671894E+03  0.46999998093E+01 0. -1.
</event>
<event>
 5   0  0.6599245E-06  0.2102173E+04  0.7818609E-02  0.8560287E-01
        1   -1    0    0  501    0  0.00000000000E+00  0.00000000000E+00  0.80820901343E+03  0.80820901344E+03  0.50400001928E-02 0.  1.
       -1   -1    0    0    0  501  0.00000000000E+00  0.00000000000E+00 -0.13669524649E+04  0.13669524649E+04  0.50400001928E-02 0. -1.
    10030    2    1    2    0    0  0.00000000000E+00  0.00000000000E+00 -0.55874345148E+03  0.21751614784E+04  0.21021734496E+04 0.  0.
        2    1    3    3  502    0  0.36260672622E+03 -0.39474255807E+03  0.65616531618E+03  0.84726515756E+03  0.25500000920E-02 0.  1.
       -2    1    3    3    0  502 -0.36260672622E+03  0.39474255807E+03 -0.12149087677E+04  0.13278963208E+04  0.25500000920E-02 0. -1.
</event>
<event>
 5   0  0.6283269E-06  0.2101282E+04  0.7818609E-02  0.8560679E-01
       -1   -1    0    0    0  501  0.00000000000E+00  0.00000000000E+00  0.16170531668E+04  0.16170531668E+04  0.50400001928E-02 0. -1.
        1   -1    0    0  501    0  0.00000000000E+00  0.00000000000E+00 -0.68262874776E+03  0.68262874777E+03  0.50400001928E-02 0.  1.
    10030    2    1    2    0    0  0.00000000000E+00  0.00000000000E+00  0.93442441901E+03  0.22996819145E+04  0.21012824449E+04 0.  0.
        1    1    3    3  502    0 -0.76112975197E+03 -0.54691551026E+03  0.98681534231E+03  0.13609700932E+04  0.50400001928E-02 0. -1.
       -1    1    3    3    0  502  0.76112975197E+03  0.54691551026E+03 -0.52390923304E+02  0.93871182136E+03  0.50400001928E-02 0.  1.
</event>
<event>
 5   0  0.1390735E-05  0.2104922E+04  0.7818609E-02  0.8559078E-01
       -2   -1    0    0    0  501  0.00000000000E+00  0.00000000000E+00  0.64469297778E+03  0.64469297779E+03  0.25500000920E-02 0.  1.
        2   -1    0    0  501    0  0.00000000000E+00  0.00000000000E+00 -0.17181428231E+04  0.17181428231E+04  0.25500000920E-02 0. -1.
    10030    2    1    2    0    0  0.00000000000E+00  0.00000000000E+00 -0.10734498453E+04  0.23628358009E+04  0.21049224336E+04 0.  0.
        5    1    3    3  502    0 -0.66033447687E+03  0.62983348501E+03 -0.11252990301E+04  0.14488104904E+04  0.46999998093E+01 0.  1.
       -5    1    3    3    0  502  0.66033447687E+03 -0.62983348501E+03  0.51849184732E+02  0.91402531045E+03  0.46999998093E+01 0. -1.
</event>
<event>
 5   0  0.1390735E-05  0.2098149E+04  0.7818609E-02  0.8562059E-01
       -2   -1    0    0    0  501  0.00000000000E+00  0.00000000000E+00  0.65040844973E+03  0.65040844973E+03  0.25500000920E-02 0.  1.
        2   -1    0    0  501    0  0.00000000000E+00  0.00000000000E+00 -0.16921021017E+04  0.16921021017E+04  0.25500000920E-02 0. -1.
    10030    2    1    2    0    0  0.00000000000E+00  0.00000000000E+00 -0.10416936520E+04  0.23425105515E+04  0.20981491890E+04 0.  0.
        5    1    3    3  502    0 -0.83829964105E+03 -0.60176658454E+03 -0.73169654573E+03  0.12650182748E+04  0.46999998093E+01 0.  1.
       -5    1    3    3    0  502  0.83829964105E+03  0.60176658454E+03 -0.30999710628E+03  0.10774922767E+04  0.46999998093E+01 0. -1.
</event>
<event>
 5   0  0.1441136E-05  0.2101274E+04  0.7818609E-02  0.8560682E-01
        2   -1    0    0  501    0  0.00000000000E+00  0.00000000000E+00  0.27781498584E+04  0.27781498584E+04  0.25500000920E-02 0. -1.
       -2   -1    0    0    0  501  0.00000000000E+00  0.00000000000E+00 -0.39732842124E+03  0.39732842125E+03  0.25500000920E-02 0.  1.
    10030    2    1    2    0    0  0.00000000000E+00  0.00000000000E+00  0.23808214372E+04  0.31754782797E+04  0.21012738015E+04 0.  0.
        4    1    3    3  502    0 -0.65382829849E+03 -0.64491291188E+03  0.41919864329E+03  0.10095212842E+04  0.12699999809E+01 0. -1.
       -4    1    3    3    0  502  0.65382829849E+03  0.64491291188E+03  0.19616227939E+04  0.21659569955E+04  0.12699999809E+01 0.  1.
</event>
<event>
 5   0  0.6917078E-06  0.2101891E+04  0.7818609E-02  0.8560411E-01
       -1   -1    0    0    0  501  0.00000000000E+00  0.00000000000E+00  0.11796499821E+04  0.11796499821E+04  0.50400001928E-02 0.  1.
        1   -1    0    0  501    0  0.00000000000E+00  0.00000000000E+00 -0.93628324917E+03  0.93628324918E+03  0.50400001928E-02 0. -1.
    10030    2    1    2    0    0  0.00000000000E+00  0.00000000000E+00  0.24336673296E+03  0.21159332313E+04  0.21018910706E+04 0.  0.
        5    1    3    3  502    0 -0.16359193746E+03 -0.10282427929E+04  0.26553260043E+03  0.10745116170E+04  0.46999998093E+01 0. -1.
       -5    1    3    3    0  502  0.16359193746E+03  0.10282427929E+04 -0.22165867470E+02  0.10414216143E+04  0.46999998093E+01 0.  1.
</event>
<event>
 5   0  0.1398469E-05  0.2102520E+04  0.7818609E-02  0.8560134E-01
       -2   -1    0    0    0  501  0.00000000000E+00  0.00000000000E+00  0.59913502743E+03  0.59913502743E+03  0.25500000920E-02 0.  1.
        2   -1    0    0  501    0  0.00000000000E+00  0.00000000000E+00 -0.18445715319E+04  0.18445715319E+04  0.25500000920E-02 0. -1.
    10030    2    1    2    0    0  0.00000000000E+00  0.00000000000E+00 -0.12454365044E+04  0.24437065593E+04  0.21025198361E+04 0.  0.
        2    1    3    3  502    0 -0.29033387547E+03  0.43589403824E+03 -0.16821433964E+04  0.17617899358E+04  0.25500000920E-02 0. -1.
       -2    1    3    3    0  502  0.29033387547E+03 -0.43589403824E+03  0.43670689201E+03  0.68191662346E+03  0.25500000920E-02 0.  1.
</event>
<event>
 5   0  0.6599245E-06  0.2088436E+04  0.7818609E-02  0.8566355E-01
       -1   -1    0    0    0  501  0.00000000000E+00  0.00000000000E+00  0.13645014032E+04  0.13645014032E+04  0.50400001928E-02 0.  1.
        1   -1    0    0  501    0  0.00000000000E+00  0.00000000000E+00 -0.79911310706E+03  0.79911310708E+03  0.50400001928E-02 0. -1.
    10030    2    1    2    0    0  0.00000000000E+00  0.00000000000E+00  0.56538829611E+03  0.21636145103E+04  0.20884357361E+04 0.  0.
        2    1    3    3  502    0  0.37238179325E+03  0.88818514684E+03  0.70076753104E+03  0.11910567525E+04  0.25500000920E-02 0.  1.
       -2    1    3    3    0  502 -0.37238179325E+03 -0.88818514684E+03 -0.13537923493E+03  0.97255775780E+03  0.25500000920E-02 0. -1.
</event>
<event>
 5   0  0.1398469E-05  0.2106230E+04  0.7818609E-02  0.8558504E-01
       -2   -1    0    0    0  501  0.00000000000E+00  0.00000000000E+00  0.71458773105E+03  0.71458773106E+03  0.25500000920E-02 0. -1.
        2   -1    0    0  501    0  0.00000000000E+00  0.00000000000E+00 -0.15520158402E+04  0.15520158402E+04  0.25500000920E-02 0.  1.
    10030    2    1    2    0    0  0.00000000000E+00  0.00000000000E+00 -0.83742810915E+03  0.22666035713E+04  0.21062302607E+04 0.  0.
        2    1    3    3  502    0 -0.31642777386E+03  0.13577334789E+03  0.65229930109E+03  0.73760105496E+03  0.25500000920E-02 0. -1.
       -2    1    3    3    0  502  0.31642777386E+03 -0.13577334789E+03 -0.14897274102E+04  0.15290025163E+04  0.25500000920E-02 0.  1.
</event>
<event>
 5   0  0.6917078E-06  0.2099023E+04  0.7818609E-02  0.8561674E-01
       -1   -1    0    0    0  501  0.00000000000E+00  0.00000000000E+00  0.80842410855E+03  0.80842410857E+03  0.50400001928E-02 0.  1.
        1   -1    0    0  501    0  0.00000000000E+00  0.00000000000E+00 -0.13624953139E+04  0.13624953140E+04  0.50400001928E-02 0. -1.
    10030    2    1    2    0    0  0.00000000000E+00  0.00000000000E+00 -0.55407120539E+03  0.21709194225E+04  0.20990226865E+04 0.  0.
        5    1    3    3  502    0 -0.99925220384E+03  0.73414534435E+02  0.46004528127E+02  0.10030120475E+04  0.46999998093E+01 0.  1.
       -5    1    3    3    0  502  0.99925220384E+03 -0.73414534435E+02 -0.60007573352E+03  0.11679073751E+04  0.46999998093E+01 0. -1.
</event>
<event>
 5   0  0.1441136E-05  0.2098621E+04  0.7818609E-02  0.8561851E-01
       -2   -1    0    0    0  501  0.00000000000E+00  0.00000000000E+00  0.48898023770E+03  0.48898023770E+03  0.25500000920E-02 0.  1.
        2   -1    0    0  501    0  0.00000000000E+00  0.00000000000E+00 -0.22517320425E+04  0.22517320425E+04  0.25500000920E-02 0. -1.
    10030    2    1    2    0    0  0.00000000000E+00  0.00000000000E+00 -0.17627518048E+04  0.27407122802E+04  0.20986209466E+04 0.  0.
        4    1    3    3  502    0  0.99306024723E+02  0.65873056401E+03  0.17738795004E+03  0.68938794610E+03  0.12699999809E+01 0.  1.
       -4    1    3    3    0  502 -0.99306024723E+02 -0.65873056401E+03 -0.19401397548E+04  0.20513243341E+04  0.12699999809E+01 0. -1.
</event>
<event>
 5   0  0.6283269E-06  0.2092235E+04  0.7818609E-02  0.8564672E-01
        1   -1    0    0  501    0  0.00000000000E+00  0.00000000000E+00  0.18652519915E+04  0.18652519915E+04  0.50400001928E-02 0.  1.
       -1   -1    0    0    0  501  0.00000000000E+00  0.00000000000E+00 -0.58670978018E+03  0.58670978020E+03  0.50400001928E-02 0. -1.
    10030    2    1    2    0    0  0.00000000000E+00  0.00000000000E+00  0.12785422113E+04  0.24519617717E+04  0.20922347726E+04 0.  0.
        1    1    3    3  502    0  0.17624058700E+03 -0.99960550859E+03  0.34258494256E+03  0.10712779099E+04  0.50400001928E-02 0. -1.
       -1    1    3    3    0  502 -0.17624058700E+03  0.99960550859E+03  0.93595726877E+03  0.13806838618E+04  0.50400001928E-02 0.  1.
</event>
<event>
 5   0  0.6917078E-06  0.2098380E+04  0.7818609E-02  0.8561957E-01
        1   -1    0    0  501    0  0.00000000000E+00  0.00000000000E+00  0.12530599044E+04  0.12530599044E+04  0.50400001928E-02 0.  1.
       -1   -1    0    0    0  501  0.00000000000E+00  0.00000000000E+00 -0.87848939489E+03  0.87848939490E+03  0.50400001928E-02 0. -1.
    10030    2    1    2    0    0  0.00000000000E+00  0.00000000000E+00  0.37457050950E+03  0.21315492993E+04  0.20983801726E+04 0.  0.
        5    1    3    3  502    0  0.58524016722E+03  0.56820308084E+03  0.85757700567E+03  0.11835629282E+04  0.46999998093E+01 0.  1.
       -5    1    3    3    0  502 -0.58524016722E+03 -0.56820308084E+03 -0.48300649617E+03  0.94798637108E+03  0.46999998093E+01 0. -1.
</event>
<event>
 5   0  0.6238363E-06  0.2101054E+04  0.7818609E-02  0.8560779E-01
       -1   -1    0    0    0  501  0.00000000000E+00  0.00000000000E+00  0.11979485419E+04  0.11979485419E+04  0.50400001928E-02 0. -1.
        1   -1    0    0  501    0  0.00000000000E+00  0.00000000000E+00 -0.92124762117E+03  0.92124762118E+03  0.50400001928E-02 0.  1.
    10030    2    1    2    0    0  0.00000000000E+00  0.00000000000E+00  0.27670092077E+03  0.21191961631E+04  0.21010542540E+04 0.  0.
        4    1    3    3  502    0 -0.10221318996E+04 -0.24207809808E+03  0.15430494413E+03  0.10616812395E+04  0.12699999809E+01 0.  1.
       -4    1    3    3    0  502  0.10221318996E+04  0.24207809808E+03  0.12239597663E+03  0.10575149236E+04  0.12699999809E+01 0. -1.
</event>
<event>
 5   0  0.1398469E-05  0.2099513E+04  0.7818609E-02  0.8561458E-01
        2   -1    0    0  501    0  0.00000000000E+00  0.00000000000E+00  0.16738147441E+04  0.16738147441E+04  0.25500000920E-02 0.  1.
       -2   -1    0    0    0  501  0.00000000000E+00  0.00000000000E+00 -0.65836957187E+03  0.65836957188E+03  0.25500000920E-02 0. -1.
    10030    2    1    2    0    0  0.00000000000E+00  0.00000000000E+00  0.10154451723E+04  0.23321843160E+04  0.20995129878E+04 0.  0.
        2    1    3    3  502    0  0.91163470728E+03  0.37931008420E+02  0.10843578589E+04  0.14171621527E+04  0.25500000920E-02 0.  1.
       -2    1    3    3    0  502 -0.91163470728E+03 -0.37931008420E+02 -0.68912686653E+02  0.91502216329E+03  0.25500000920E-02 0. -1.
</event>
<event>
 5   0  0.1344501E-05  0.2100414E+04  0.7818609E-02  0.8561061E-01
        2   -1    0    0  501    0  0.00000000000E+00  0.00000000000E+00  0.22995273298E+04  0.22995273298E+04  0.25500000920E-02 0.  1.
       -2   -1    0    0    0  501  0.00000000000E+00  0.00000000000E+00 -0.47963534699E+03  0.47963534700E+03  0.25500000920E-02 0. -1.
    10030    2    1    2    0    0  0.00000000000E+00  0.00000000000E+00  0.18198919828E+04  0.27791626768E+04  0.21004138533E+04 0.  0.
        3    1    3    3  502    0  0.27900074783E+03 -0.98240263812E+03  0.12339914008E+04  0.16017774965E+04  0.10100000352E+00 0.  1.
       -3    1    3    3    0  502 -0.27900074783E+03  0.98240263812E+03  0.58590058197E+03  0.11773851803E+04  0.10100000352E+00 0. -1.
</event>
<event>
 5   0  0.6917078E-06  0.2085519E+04  0.7818609E-02  0.8567649E-01
        1   -1    0    0  501    0  0.00000000000E+00  0.00000000000E+00  0.13092333427E+04  0.13092333427E+04  0.50400001928E-02 0.  1.
       -1   -1    0    0    0  501  0.00000000000E+00  0.00000000000E+00 -0.83052226080E+03  0.83052226082E+03  0.50400001928E-02 0. -1.
    10030    2    1    2    0    0  0.00000000000E+00  0.00000000000E+00  0.47871108192E+03  0.21397556036E+04  0.20855190584E+04 0.  0.
        5    1    3    3  502    0  0.29600306891E+02  0.94857234206E+03  0.68263261170E+03  0.11690487752E+04  0.46999998093E+01 0.  1.
       -5    1    3    3    0  502 -0.29600306891E+02 -0.94857234206E+03 -0.20392152977E+03  0.97070682834E+03  0.46999998093E+01 0. -1.
</event>
<event>
 5   0  0.1390735E-05  0.2114925E+04  0.7818609E-02  0.8554697E-01
        2   -1    0    0  501    0  0.00000000000E+00  0.00000000000E+00  0.11996372624E+04  0.11996372624E+04  0.25500000920E-02 0. -1.
       -2   -1    0    0    0  501  0.00000000000E+00  0.00000000000E+00 -0.93213717003E+03  0.93213717003E+03  0.25500000920E-02 0.  1.
    10030    2    1    2    0    0  0.00000000000E+00  0.00000000000E+00  0.26750009237E+03  0.21317744324E+04  0.21149245687E+04 0.  0.
        5    1    3    3  502    0 -0.87376411787E+03  0.34272845704E+03 -0.35724259009E+03  0.10042763002E+04  0.46999998093E+01 0.  1.
       -5    1    3    3    0  502  0.87376411787E+03 -0.34272845704E+03  0.62474268245E+03  0.11274981322E+04  0.46999998093E+01 0. -1.
</event>
<event>
 5   0  0.1390735E-05  0.2102024E+04  0.7818609E-02  0.8560352E-01
        2   -1    0    0  501    0  0.00000000000E+00  0.00000000000E+00  0.15128580940E+04  0.15128580940E+04  0.25500000920E-02 0.  1.
       -2   -1    0    0    0  501  0.00000000000E+00  0.00000000000E+00 -0.73015852655E+03  0.73015852656E+03  0.25500000920E-02 0. -1.
    10030    2    1    2    0    0  0.00000000000E+00  0.00000000000E+00  0.78269956749E+03  0.22430166206E+04  0.21020240121E+04 0.  0.
        5    1    3    3  502    0 -0.92541993349E+03 -0.49589552236E+03  0.34028912307E+03  0.11036907174E+04  0.46999998093E+01 0.  1.
       -5    1    3    3    0  502  0.92541993349E+03  0.49589552236E+03  0.44241044442E+03  0.11393259032E+04  0.46999998093E+01 0. -1.
</event>
<event>
 5   0  0.1390735E-05  0.2096020E+04  0.7818609E-02  0.8562999E-01
        2   -1    0    0  501    0  0.00000000000E+00  0.00000000000E+00  0.80979639785E+03  0.80979639785E+03  0.25500000920E-02 0.  1.
       -2   -1    0    0    0  501  0.00000000000E+00  0.00000000000E+00 -0.13562970517E+04  0.13562970517E+04  0.25500000920E-02 0. -1.
    10030    2    1    2    0    0  0.00000000000E+00  0.00000000000E+00 -0.54650065390E+03  0.21660934496E+04  0.20960195294E+04 0.  0.
        5    1    3    3  502    0  0.31228241091E+03 -0.97515142338E+03 -0.50401308886E+03  0.11412676664E+04  0.46999998093E+01 0. -1.
       -5    1    3    3    0  502 -0.31228241091E+03  0.97515142338E+03 -0.42487565035E+02  0.10248257832E+04  0.46999998093E+01 0.  1.
</event>
<event>
 5   0  0.6238363E-06  0.2099212E+04  0.7818609E-02  0.8561591E-01
        1   -1    0    0  501    0  0.00000000000E+00  0.00000000000E+00  0.17757308577E+04  0.17757308577E+04  0.50400001928E-02 0. -1.
       -1   -1    0    0    0  501  0.00000000000E+00  0.00000000000E+00 -0.62040534675E+03  0.62040534677E+03  0.50400001928E-02 0.  1.
    10030    2    1    2    0    0  0.00000000000E+00  0.00000000000E+00  0.11553255110E+04  0.23961362045E+04  0.20992121556E+04 0.  0.
        4    1    3    3  502    0  0.57974632422E+03  0.56931209854E+03  0.13360579199E+04  0.15637373322E+04  0.12699999809E+01 0. -1.
       -4    1    3    3    0  502 -0.57974632422E+03 -0.56931209854E+03 -0.18073240895E+03  0.83239887225E+03  0.12699999809E+01 0.  1.
</event>
<event>
 5   0  0.1441136E-05  0.2098363E+04  0.7818609E-02  0.8561965E-01
       -2   -1    0    0    0  501  0.00000000000E+00  0.00000000000E+00  0.15530273688E+04  0.15530273688E+04  0.25500000920E-02 0.  1.
        2   -1    0    0  501    0  0.00000000000E+00  0.00000000000E+00 -0.70879748398E+03  0.70879748398E+03  0.25500000920E-02 0. -1.
    10030    2    1    2    0    0  0.00000000000E+00  0.00000000000E+00  0.84422988487E+03  0.22618248528E+04  0.20983630683E+04 0.  0.
        4    1    3    3  502    0  0.37999922361E+02  0.98807498228E+03  0.44013129713E+02  0.98978529651E+03  0.12699999809E+01 0. -1.
       -4    1    3    3    0  502 -0.37999922361E+02 -0.98807498228E+03  0.80021675515E+03  0.12720395563E+04  0.12699999809E+01 0.  1.
</event>
<event>
 5   0  0.6283269E-06  0.2099611E+04  0.7818609E-02  0.8561415E-01
       -1   -1    0    0    0  501  0.00000000000E+00  0.00000000000E+00  0.62251322526E+03  0.62251322528E+03  0.50400001928E-02 0.  1.
        1   -1    0    0  501    0  0.00000000000E+00  0.00000000000E+00 -0.17703905998E+04  0.17703905998E+04  0.50400001928E-02 0. -1.
    10030    2    1    2    0    0  0.00000000000E+00  0.00000000000E+00 -0.11478773746E+04  0.23929038251E+04  0.20996109757E+04 0.  0.
        1    1    3    3  502    0  0.89560447395E+03  0.54570634747E+03 -0.52061912707E+03  0.11708744881E+04  0.50400001928E-02 0. -1.
       -1    1    3    3    0  502 -0.89560447395E+03 -0.54570634747E+03 -0.62725824749E+03  0.12220293370E+04  0.50400001928E-02 0.  1.
</event>
<event>
 5   0  0.6283269E-06  0.2102584E+04  0.7818609E-02  0.8560106E-01
       -1   -1    0    0    0  501  0.00000000000E+00  0.00000000000E+00  0.87152964614E+03  0.87152964615E+03  0.50400001928E-02 0. -1.
        1   -1    0    0  501    0  0.00000000000E+00  0.00000000000E+00 -0.12681324129E+04  0.12681324129E+04  0.50400001928E-02 0.  1.
    10030    2    1    2    0    0  0.00000000000E+00  0.00000000000E+00 -0.39660276671E+03  0.21396620590E+04  0.21025841177E+04 0.  0.
        1    1    3    3  502    0  0.17574526343E+03 -0.35151842838E+03  0.79396443587E+03  0.88590695254E+03  0.50400001928E-02 0. -1.
       -1    1    3    3    0  502 -0.17574526343E+03  0.35151842838E+03 -0.11905672026E+04  0.12537551065E+04  0.50400001928E-02 0.  1.
</event>
<event>
 5   0  0.6599245E-06  0.2100794E+04  0.7818609E-02  0.8560894E-01
       -1   -1    0    0    0  501  0.00000000000E+00  0.00000000000E+00  0.13378106098E+04  0.13378106098E+04  0.50400001928E-02 0.  1.
        1   -1    0    0  501    0  0.00000000000E+00  0.00000000000E+00 -0.82473074581E+03  0.82473074583E+03  0.50400001928E-02 0. -1.
    10030    2    1    2    0    0  0.00000000000E+00  0.00000000000E+00  0.51307986396E+03  0.21625413556E+04  0.21007936995E+04 0.  0.
        2    1    3    3  502    0 -0.10038125843E+04  0.23594647743E+03  0.46247787114E+03  0.11301310659E+04  0.25500000920E-02 0.  1.
       -2    1    3    3    0  502  0.10038125843E+04 -0.23594647743E+03  0.50601992812E+02  0.10324102897E+04  0.25500000920E-02 0. -1.
</event>
<event>
 5   0  0.1441136E-05  0.2129091E+04  0.7818609E-02  0.8548536E-01
       -2   -1    0    0    0  501  0.00000000000E+00  0.00000000000E+00  0.45275102433E+03  0.45275102434E+03  0.25500000920E-02 0. -1.
        2   -1    0    0  501    0  0.00000000000E+00  0.00000000000E+00 -0.25030461749E+04  0.25030461749E+04  0.25500000920E-02 0.  1.
    10030    2    1    2    0    0  0.00000000000E+00  0.00000000000E+00 -0.20502951506E+04  0.29557971993E+04  0.21290906225E+04 0.  0.
        4    1    3    3  502    0  0.94676693116E+03 -0.56800703811E+02 -0.16962267394E+04  0.19433941201E+04  0.12699999809E+01 0.  1.
       -4    1    3    3    0  502 -0.94676693116E+03  0.56800703811E+02 -0.35406841120E+03  0.10124030791E+04  0.12699999809E+01 0. -1.
</event>
<event>
 5   0  0.6238363E-06  0.2106940E+04  0.7818609E-02  0.8558192E-01
        1   -1    0    0  501    0  0.00000000000E+00  0.00000000000E+00  0.72654257512E+03  0.72654257514E+03  0.50400001928E-02 0. -1.
       -1   -1    0    0    0  501  0.00000000000E+00  0.00000000000E+00 -0.15275070571E+04  0.15275070571E+04  0.50400001928E-02 0.  1.
    10030    2    1    2    0    0  0.00000000000E+00  0.00000000000E+00 -0.80096448197E+03  0.22540496322E+04  0.21069398765E+04 0.  0.
        4    1    3    3  502    0  0.10185715700E+04 -0.11285550802E+03 -0.13936493127E+03  0.10342381766E+04  0.12699999809E+01 0.  1.
       -4    1    3    3    0  502 -0.10185715700E+04  0.11285550802E+03 -0.66159955070E+03  0.12198114557E+04  0.12699999809E+01 0. -1.
</event>
<event>
 5   0  0.6283269E-06  0.2104847E+04  0.7818609E-02  0.8559111E-01
        1   -1    0    0  501    0  0.00000000000E+00  0.00000000000E+00  0.16569252820E+04  0.16569252820E+04  0.50400001928E-02 0. -1.
       -1   -1    0    0    0  501  0.00000000000E+00  0.00000000000E+00 -0.66846429786E+03  0.66846429788E+03  0.50400001928E-02 0.  1.
    10030    2    1    2    0    0  0.00000000000E+00  0.00000000000E+00  0.98846098411E+03  0.23253895799E+04  0.21048471633E+04 0.  0.
        1    1    3    3  502    0  0.73444969691E+03 -0.70555919107E+03  0.78728899180E+03  0.12872661287E+04  0.50400001928E-02 0.  1.
       -1    1    3    3    0  502 -0.73444969691E+03  0.70555919107E+03  0.20117199231E+03  0.10381234512E+04  0.50400001928E-02 0. -1.
</event>
<event>
 5   0  0.1395356E-05  0.2101671E+04  0.7818609E-02  0.8560508E-01
        2   -1    0    0  501    0  0.00000000000E+00  0.00000000000E+00  0.24772294299E+04  0.24772294299E+04  0.25500000920E-02 0.  1.
       -2   -1    0    0    0  501  0.00000000000E+00  0.00000000000E+00 -0.44576219682E+03  0.44576219683E+03  0.25500000920E-02 0. -1.
    10030    2    1    2    0    0  0.00000000000E+00  0.00000000000E+00  0.20314672330E+04  0.29229916267E+04  0.21016709854E+04 0.  0.
        1    1    3    3  502    0  0.77018178129E+03 -0.69911916725E+03  0.80800816160E+03  0.13171274712E+04  0.50400001928E-02 0. -1.
       -1    1    3    3    0  502 -0.77018178129E+03  0.69911916725E+03  0.12234590714E+04  0.16058641555E+04  0.50400001928E-02 0.  1.
</event>
<event>
 5   0  0.1390735E-05  0.2095825E+04  0.7818609E-02  0.8563085E-01
        2   -1    0    0  501    0  0.00000000000E+00  0.00000000000E+00  0.96880025609E+03  0.96880025609E+03  0.25500000920E-02 0.  1.
       -2   -1    0    0    0  501  0.00000000000E+00  0.00000000000E+00 -0.11334845180E+04  0.11334845180E+04  0.25500000920E-02 0. -1.
    10030    2    1    2    0    0  0.00000000000E+00  0.00000000000E+00 -0.16468426195E+03  0.21022847741E+04  0.20958245073E+04 0.  0.
        5    1    3    3  502    0 -0.20896637992E+03 -0.70639941594E+03 -0.82991177196E+03  0.11097038893E+04  0.46999998093E+01 0. -1.
       -5    1    3    3    0  502  0.20896637992E+03  0.70639941594E+03  0.66522751001E+03  0.99258088479E+03  0.46999998093E+01 0.  1.
</event>
<event>
 5   0  0.6238363E-06  0.2095868E+04  0.7818609E-02  0.8563066E-01
        1   -1    0    0  501    0  0.00000000000E+00  0.00000000000E+00  0.16178868230E+04  0.16178868230E+04  0.50400001928E-02 0.  1.
       -1   -1    0    0    0  501  0.00000000000E+00  0.00000000000E+00 -0.67876515114E+03  0.67876515116E+03  0.50400001928E-02 0. -1.
    10030    2    1    2    0    0  0.00000000000E+00  0.00000000000E+00  0.93912167190E+03  0.22966519742E+04  0.20958675473E+04 0.  0.
        4    1    3    3  502    0 -0.10312161214E+04  0.18380822213E+03  0.43540719379E+03  0.11343602553E+04  0.12699999809E+01 0. -1.
       -4    1    3    3    0  502  0.10312161214E+04 -0.18380822213E+03  0.50371447811E+03  0.11622917189E+04  0.12699999809E+01 0.  1.
</event>
<event>
 5   0  0.1441136E-05  0.2104746E+04  0.7818609E-02  0.8559156E-01
       -2   -1    0    0    0  501  0.00000000000E+00  0.00000000000E+00  0.34497999240E+03  0.34497999241E+03  0.25500000920E-02 0.  1.
        2   -1    0    0  501    0  0.00000000000E+00  0.00000000000E+00 -0.32102975369E+04  0.32102975369E+04  0.25500000920E-02 0. -1.
    10030    2    1    2    0    0  0.00000000000E+00  0.00000000000E+00 -0.28653175445E+04  0.35552775293E+04  0.21047455142E+04 0.  0.
        4    1    3    3  502    0 -0.47371320653E+02 -0.84898260371E+03 -0.38527490444E+03  0.93351693520E+03  0.12699999809E+01 0.  1.
       -4    1    3    3    0  502  0.47371320653E+02  0.84898260371E+03 -0.24800426400E+04  0.26217605941E+04  0.12699999809E+01 0. -1.
</event>
<event>
 5   0  0.1398469E-05  0.2111062E+04  0.7818609E-02  0.8556386E-01
       -2   -1    0    0    0  501  0.00000000000E+00  0.00000000000E+00  0.61469592577E+03  0.61469592578E+03  0.25500000920E-02 0. -1.
        2   -1    0    0  501    0  0.00000000000E+00  0.00000000000E+00 -0.18125150006E+04  0.18125150006E+04  0.25500000920E-02 0.  1.
    10030    2    1    2    0    0  0.00000000000E+00  0.00000000000E+00 -0.11978190748E+04  0.24272109264E+04  0.21110618999E+04 0.  0.
        2    1    3    3  502    0 -0.33824857121E+03  0.81772973040E+03  0.62627832283E+02  0.88713936520E+03  0.25500000920E-02 0. -1.
       -2    1    3    3    0  502  0.33824857121E+03 -0.81772973040E+03 -0.12604469071E+04  0.15400715612E+04  0.25500000920E-02 0.  1.
</event>
<event>
 5   0  0.6283269E-06  0.2110418E+04  0.7818609E-02  0.8556668E-01
       -1   -1    0    0    0  501  0.00000000000E+00  0.00000000000E+00  0.92412377075E+03  0.92412377076E+03  0.50400001928E-02 0. -1.
        1   -1    0    0  501    0  0.00000000000E+00  0.00000000000E+00 -0.12048882115E+04  0.12048882115E+04  0.50400001928E-02 0.  1.
    10030    2    1    2    0    0  0.00000000000E+00  0.00000000000E+00 -0.28076444078E+03  0.21290119823E+04  0.21104178140E+04 0.  0.
        1    1    3    3  502    0  0.62728585075E+03 -0.58926688518E+02 -0.99430689018E+03  0.11771177023E+04  0.50400001928E-02 0.  1.
       -1    1    3    3    0  502 -0.62728585075E+03  0.58926688518E+02  0.71354244940E+03  0.95189428000E+03  0.50400001928E-02 0. -1.
</event>
<event>
 5   0  0.1398469E-05  0.2106210E+04  0.7818609E-02  0.8558513E-01
        2   -1    0    0  501    0  0.00000000000E+00  0.00000000000E+00  0.16849648975E+04  0.16849648975E+04  0.25500000920E-02 0. -1.
       -2   -1    0    0    0  501  0.00000000000E+00  0.00000000000E+00 -0.65819174351E+03  0.65819174352E+03  0.25500000920E-02 0.  1.
    10030    2    1    2    0    0  0.00000000000E+00  0.00000000000E+00  0.10267731539E+04  0.23431566410E+04  0.21062098505E+04 0.  0.
        2    1    3    3  502    0  0.84887911765E+03  0.80319032934E+02 -0.17419106451E+03  0.87028123638E+03  0.25500000920E-02 0.  1.
       -2    1    3    3    0  502 -0.84887911765E+03 -0.80319032934E+02  0.12009642184E+04  0.14728754046E+04  0.25500000920E-02 0. -1.
</event>
<event>
 5   0  0.6599245E-06  0.2099599E+04  0.7818609E-02  0.8561420E-01
        1   -1    0    0  501    0  0.00000000000E+00  0.00000000000E+00  0.11512780118E+04  0.11512780119E+04  0.50400001928E-02 0. -1.
       -1   -1    0    0    0  501  0.00000000000E+00  0.00000000000E+00 -0.95726588711E+03  0.95726588713E+03  0.50400001928E-02 0.  1.
    10030    2    1    2    0    0  0.00000000000E+00  0.00000000000E+00  0.19401212473E+03  0.21085438990E+04  0.20995991687E+04 0.  0.
        2    1    3    3  502    0 -0.36073657021E+03 -0.52164127415E+03  0.93713360884E+03  0.11315740775E+04  0.25500000920E-02 0. -1.
       -2    1    3    3    0  502  0.36073657021E+03  0.52164127415E+03 -0.74312148411E+03  0.97696982151E+03  0.25500000920E-02 0.  1.
</event>
<event>
 5   0  0.6238363E-06  0.2099570E+04  0.7818609E-02  0.8561433E-01
       -1   -1    0    0    0  501  0.00000000000E+00  0.00000000000E+00  0.47801455583E+03  0.47801455585E+03  0.50400001928E-02 0.  1.
        1   -1    0    0  501    0  0.00000000000E+00  0.00000000000E+00 -0.23054708896E+04  0.23054708896E+04  0.50400001928E-02 0. -1.
    10030    2    1    2    0    0  0.00000000000E+00  0.00000000000E+00 -0.18274563338E+04  0.27834854455E+04  0.20995700925E+04 0.  0.
        4    1    3    3  502    0 -0.98414658092E+03  0.22681688201E+03 -0.12934936080E+04  0.16410721244E+04  0.12699999809E+01 0. -1.
       -4    1    3    3    0  502  0.98414658092E+03 -0.22681688201E+03 -0.53396272576E+03  0.11424133210E+04  0.12699999809E+01 0.  1.
</event>
<event>
 5   0  0.1395356E-05  0.2096904E+04  0.7818609E-02  0.8562608E-01
        2   -1    0    0  501    0  0.00000000000E+00  0.00000000000E+00  0.21828192650E+04  0.21828192650E+04  0.25500000920E-02 0.  1.
       -2   -1    0    0    0  501  0.00000000000E+00  0.00000000000E+00 -0.50359279044E+03  0.50359279045E+03  0.25500000920E-02 0. -1.
    10030    2    1    2    0    0  0.00000000000E+00  0.00000000000E+00  0.16792264746E+04  0.26864120555E+04  0.20969044277E+04 0.  0.
        1    1    3    3  502    0 -0.21663334063E+03 -0.53284900513E+03  0.19626292980E+04  0.20451825904E+04  0.50400001928E-02 0.  1.
       -1    1    3    3    0  502  0.21663334063E+03  0.53284900513E+03 -0.28340282344E+03  0.64122946509E+03  0.50400001928E-02 0. -1.
</event>
<event>
 5   0  0.1398469E-05  0.2099093E+04  0.7818609E-02  0.8561643E-01
        2   -1    0    0  501    0  0.00000000000E+00  0.00000000000E+00  0.22301951616E+04  0.22301951616E+04  0.25500000920E-02 0.  1.
       -2   -1    0    0    0  501  0.00000000000E+00  0.00000000000E+00 -0.49392422894E+03  0.49392422895E+03  0.25500000920E-02 0. -1.
    10030    2    1    2    0    0  0.00000000000E+00  0.00000000000E+00  0.17362709326E+04  0.27241193905E+04  0.20990925902E+04 0.  0.
        2    1    3    3  502    0  0.30126258812E+03  0.17480568898E+03 -0.41673342360E+03  0.54312330299E+03  0.25500000920E-02 0. -1.
       -2    1    3    3    0  502 -0.30126258812E+03 -0.17480568898E+03  0.21530043562E+04  0.21809960876E+04  0.25500000920E-02 0.  1.
</event>
<event>
 5   0  0.6283269E-06  0.2100557E+04  0.7818609E-02  0.8560998E-01
        1   -1    0    0  501    0  0.00000000000E+00  0.00000000000E+00  0.11746619482E+04  0.11746619482E+04  0.50400001928E-02 0.  1.
       -1   -1    0    0    0  501  0.00000000000E+00  0.00000000000E+00 -0.93906553723E+03  0.93906553724E+03  0.50400001928E-02 0. -1.
    10030    2    1    2    0    0  0.00000000000E+00  0.00000000000E+00  0.23559641096E+03  0.21137274854E+04  0.21005566438E+04 0.  0.
        1    1    3    3  502    0  0.55856013715E+03 -0.29241302118E+02  0.10123265819E+04  0.11565680217E+04  0.50400001928E-02 0.  1.
       -1    1    3    3    0  502 -0.55856013715E+03  0.29241302118E+02 -0.77673017089E+03  0.95715946370E+03  0.50400001928E-02 0. -1.
</event>
<event>
 5   0  0.6599245E-06  0.2104027E+04  0.7818609E-02  0.8559472E-01
        1   -1    0    0  501    0  0.00000000000E+00  0.00000000000E+00  0.17202030537E+04  0.17202030537E+04  0.50400001928E-02 0. -1.
       -1   -1    0    0    0  501  0.00000000000E+00  0.00000000000E+00 -0.64337290706E+03  0.64337290708E+03  0.50400001928E-02 0.  1.
    10030    2    1    2    0    0  0.00000000000E+00  0.00000000000E+00  0.10768301467E+04  0.23635759608E+04  0.21040266533E+04 0.  0.
        2    1    3    3  502    0 -0.32042561141E+03  0.99491592358E+03  0.67228702507E+03  0.12427791886E+04  0.25500000920E-02 0.  1.
       -2    1    3    3    0  502  0.32042561141E+03 -0.99491592358E+03  0.40454312158E+03  0.11207967722E+04  0.25500000920E-02 0. -1.
</event>
<event>
 5   0  0.1395356E-05  0.2102109E+04  0.7818609E-02  0.8560315E-01
       -2   -1    0    0    0  501  0.00000000000E+00  0.00000000000E+00  0.98587181748E+03  0.98587181748E+03  0.25500000920E-02 0. -1.
        2   -1    0    0  501    0  0.00000000000E+00  0.00000000000E+00 -0.11205473807E+04  0.11205473807E+04  0.25500000920E-02 0.  1.
    10030    2    1    2    0    0  0.00000000000E+00  0.00000000000E+00 -0.13467556326E+03  0.21064191982E+04  0.21021094956E+04 0.  0.
        1    1    3    3  502    0  0.76972130959E+03  0.61328588659E+03  0.30237067895E+03  0.10295719988E+04  0.50400001928E-02 0. -1.
       -1    1    3    3    0  502 -0.76972130959E+03 -0.61328588659E+03 -0.43704624221E+03  0.10768471995E+04  0.50400001928E-02 0.  1.
</event>
<event>
 5   0  0.6599245E-06  0.2092954E+04  0.7818609E-02  0.8564354E-01
        1   -1    0    0  501    0  0.00000000000E+00  0.00000000000E+00  0.14254981443E+04  0.14254981443E+04  0.50400001928E-02 0.  1.
       -1   -1    0    0    0  501  0.00000000000E+00  0.00000000000E+00 -0.76823225668E+03  0.76823225670E+03  0.50400001928E-02 0. -1.
    10030    2    1    2    0    0  0.00000000000E+00  0.00000000000E+00  0.65726588762E+03  0.21937304010E+04  0.20929535650E+04 0.  0.
        2    1    3    3  502    0 -0.33306144495E+02 -0.78869982490E+03  0.10487031645E+04  0.13126062016E+04  0.25500000920E-02 0.  1.
       -2    1    3    3    0  502  0.33306144495E+02  0.78869982490E+03 -0.39143727693E+03  0.88112419944E+03  0.25500000920E-02 0. -1.
</event>
<event>
 5   0  0.6589193E-06  0.2102689E+04  0.7818609E-02  0.8560060E-01
       -1   -1    0    0    0  501  0.00000000000E+00  0.00000000000E+00  0.23479335935E+04  0.23479335936E+04  0.50400001928E-02 0. -1.
        1   -1    0    0  501    0  0.00000000000E+00  0.00000000000E+00 -0.47076506124E+03  0.47076506127E+03  0.50400001928E-02 0.  1.
    10030    2    1    2    0    0  0.00000000000E+00  0.00000000000E+00  0.18771685323E+04  0.28186986548E+04  0.21026888519E+04 0.  0.
        3    1    3    3  502    0 -0.35422466196E+03  0.39248748939E+03  0.21567657925E+04  0.22206215874E+04  0.10100000352E+00 0. -1.
       -3    1    3    3    0  502  0.35422466196E+03 -0.39248748939E+03 -0.27959726021E+03  0.59807706743E+03  0.10100000352E+00 0.  1.
</event>
<event>
 5   0  0.1441136E-05  0.2098064E+04  0.7818609E-02  0.8562096E-01
       -2   -1    0    0    0  501  0.00000000000E+00  0.00000000000E+00  0.63201057693E+03  0.63201057693E+03  0.25500000920E-02 0. -1.
        2   -1    0    0  501    0  0.00000000000E+00  0.00000000000E+00 -0.17412186395E+04  0.17412186395E+04  0.25500000920E-02 0.  1.
    10030    2    1    2    0    0  0.00000000000E+00  0.00000000000E+00 -0.11092080625E+04  0.23732292164E+04  0.20980644384E+04 0.  0.
        4    1    3    3  502    0 -0.46540631217E+01  0.50245547844E+03 -0.15962368275E+04  0.16734565398E+04  0.12699999809E+01 0.  1.
       -4    1    3    3    0  502  0.46540631217E+01 -0.50245547844E+03  0.48702876498E+03  0.69977267662E+03  0.12699999809E+01 0. -1.
</event>
<event>
 5   0  0.1441136E-05  0.2104457E+04  0.7818609E-02  0.8559282E-01
       -2   -1    0    0    0  501  0.00000000000E+00  0.00000000000E+00  0.11994662320E+04  0.11994662320E+04  0.25500000920E-02 0.  1.
        2   -1    0    0  501    0  0.00000000000E+00  0.00000000000E+00 -0.92306485172E+03  0.92306485173E+03  0.25500000920E-02 0. -1.
    10030    2    1    2    0    0  0.00000000000E+00  0.00000000000E+00  0.27640138024E+03  0.21225310837E+04  0.21044572883E+04 0.  0.
        4    1    3    3  502    0  0.46659986128E+02 -0.82310636818E+03  0.79765263013E+03  0.11471410458E+04  0.12699999809E+01 0.  1.
       -4    1    3    3    0  502 -0.46659986128E+02  0.82310636818E+03 -0.52125124990E+03  0.97539003791E+03  0.12699999809E+01 0. -1.
</event>
<event>
 5   0  0.1441136E-05  0.2098539E+04  0.7818609E-02  0.8561887E-01
       -2   -1    0    0    0  501  0.00000000000E+00  0.00000000000E+00  0.67331983051E+03  0.67331983051E+03  0.25500000920E-02 0. -1.
        2   -1    0    0  501    0  0.00000000000E+00  0.00000000000E+00 -0.16351322015E+04  0.16351322015E+04  0.25500000920E-02 0.  1.
    10030    2    1    2    0    0  0.00000000000E+00  0.00000000000E+00 -0.96181237095E+03  0.23084520320E+04  0.20985394318E+04 0.  0.
        4    1    3    3  502    0  0.88555395708E+03 -0.31817515561E+02  0.13721473992E+03  0.89668704850E+03  0.12699999809E+01 0. -1.
       -4    1    3    3    0  502 -0.88555395708E+03  0.31817515561E+02 -0.10990271109E+04  0.14117649835E+04  0.12699999809E+01 0.  1.
</event>
<event>
 5   0  0.1344501E-05  0.2106528E+04  0.7818609E-02  0.8558373E-01
        2   -1    0    0  501    0  0.00000000000E+00  0.00000000000E+00  0.91005334590E+03  0.91005334590E+03  0.25500000920E-02 0. -1.
       -2   -1    0    0    0  501  0.00000000000E+00  0.00000000000E+00 -0.12190111923E+04  0.12190111923E+04  0.25500000920E-02 0.  1.
    10030    2    1    2    0    0  0.00000000000E+00  0.00000000000E+00 -0.30895784644E+03  0.21290645382E+04  0.21065281525E+04 0.  0.
        3    1    3    3  502    0 -0.96927552760E+03 -0.39381310266E+03 -0.27735837995E+03  0.10823638433E+04  0.10100000352E+00 0.  1.
       -3    1    3    3    0  502  0.96927552760E+03  0.39381310266E+03 -0.31599466486E+02  0.10467006949E+04  0.10100000352E+00 0. -1.
</event>
<event>
 5   0  0.6283269E-06  0.2102205E+04  0.7818609E-02  0.8560273E-01
        1   -1    0    0  501    0  0.00000000000E+00  0.00000000000E+00  0.11245324878E+04  0.11245324879E+04  0.50400001928E-02 0. -1.
       -1   -1    0    0    0  501  0.00000000000E+00  0.00000000000E+00 -0.98246771325E+03  0.98246771326E+03  0.50400001928E-02 0.  1.
    10030    2    1    2    0    0  0.00000000000E+00  0.00000000000E+00  0.14206477460E+03  0.21070002011E+04  0.21022053771E+04 0.  0.
        1    1    3    3  502    0 -0.91986188076E+03 -0.34720595459E+03 -0.30145893395E+03  0.10283848227E+04  0.50400001928E-02 0.  1.
       -1    1    3    3    0  502  0.91986188076E+03  0.34720595459E+03  0.44352370855E+03  0.10786153785E+04  0.50400001928E-02 0. -1.
</event>
<event>
 5   0  0.1398469E-05  0.2099846E+04  0.7818609E-02  0.8561311E-01
        2   -1    0    0  501    0  0.00000000000E+00  0.00000000000E+00  0.12471892591E+04  0.12471892592E+04  0.25500000920E-02 0.  1.
       -2   -1    0    0    0  501  0.00000000000E+00  0.00000000000E+00 -0.88385842651E+03  0.88385842652E+03  0.25500000920E-02 0. -1.
    10030    2    1    2    0    0  0.00000000000E+00  0.00000000000E+00  0.36333083264E+03  0.21310476857E+04  0.20998464098E+04 0.  0.
        2    1    3    3  502    0 -0.77038252734E+03 -0.61150379258E+03 -0.19109682032E+03  0.10019701201E+04  0.25500000920E-02 0. -1.
       -2    1    3    3    0  502  0.77038252734E+03  0.61150379258E+03  0.55442765295E+03  0.11290775656E+04  0.25500000920E-02 0.  1.
</event>
<event>
 5   0  0.1395356E-05  0.2100582E+04  0.7818609E-02  0.8560987E-01
       -2   -1    0    0    0  501  0.00000000000E+00  0.00000000000E+00  0.89656348981E+03  0.89656348981E+03  0.25500000920E-02 0.  1.
        2   -1    0    0  501    0  0.00000000000E+00  0.00000000000E+00 -0.12303771589E+04  0.12303771589E+04  0.25500000920E-02 0. -1.
    10030    2    1    2    0    0  0.00000000000E+00  0.00000000000E+00 -0.33381366905E+03  0.21269406487E+04  0.21005820520E+04 0.  0.
        1    1    3    3  502    0  0.67640813183E+03 -0.28953132417E+03  0.59200120219E+03  0.94436315679E+03  0.50400001928E-02 0.  1.
       -1    1    3    3    0  502 -0.67640813183E+03  0.28953132417E+03 -0.92581487124E+03  0.11825774919E+04  0.50400001928E-02 0. -1.
</event>
<event>
 5   0  0.6599245E-06  0.2100352E+04  0.7818609E-02  0.8561088E-01
       -1   -1    0    0    0  501  0.00000000000E+00  0.00000000000E+00  0.11651224795E+04  0.11651224795E+04  0.50400001928E-02 0.  1.
        1   -1    0    0  501    0  0.00000000000E+00  0.00000000000E+00 -0.94656990334E+03  0.94656990335E+03  0.50400001928E-02 0. -1.
    10030    2    1    2    0    0  0.00000000000E+00  0.00000000000E+00  0.21855257612E+03  0.21116923828E+04  0.21003522303E+04 0.  0.
        2    1    3    3  502    0  0.51554415913E+03  0.90560837035E+03  0.24020061808E+03  0.10693963893E+04  0.25500000920E-02 0.  1.
       -2    1    3    3    0  502 -0.51554415913E+03 -0.90560837035E+03 -0.21648041961E+02  0.10422959936E+04  0.25500000920E-02 0. -1.
</event>
<event>
 5   0  0.6599245E-06  0.2063205E+04  0.7818609E-02  0.8577628E-01
        1   -1    0    0  501    0  0.00000000000E+00  0.00000000000E+00  0.17265935641E+04  0.17265935641E+04  0.50400001928E-02 0.  1.
       -1   -1    0    0    0  501  0.00000000000E+00  0.00000000000E+00 -0.61636004588E+03  0.61636004590E+03  0.50400001928E-02 0. -1.
    10030    2    1    2    0    0  0.00000000000E+00  0.00000000000E+00  0.11102335182E+04  0.23429536100E+04  0.20632045836E+04 0.  0.
        2    1    3    3  502    0 -0.55035402886E+03 -0.73998726325E+03  0.10801136863E+04  0.14202521896E+04  0.25500000920E-02 0.  1.
       -2    1    3    3    0  502  0.55035402886E+03  0.73998726325E+03  0.30119831929E+02  0.92270142036E+03  0.25500000920E-02 0. -1.
</event>
<event>
 5   0  0.1395356E-05  0.2102727E+04  0.7818609E-02  0.8560043E-01
        2   -1    0    0  501    0  0.00000000000E+00  0.00000000000E+00  0.92927883586E+03  0.92927883586E+03  0.25500000920E-02 0.  1.
       -2   -1    0    0    0  501  0.00000000000E+00  0.00000000000E+00 -0.11894865705E+04  0.11894865705E+04  0.25500000920E-02 0. -1.
    10030    2    1    2    0    0  0.00000000000E+00  0.00000000000E+00 -0.26020773461E+03  0.21187654063E+04  0.21027265114E+04 0.  0.
        1    1    3    3  502    0  0.44090912858E+03  0.24493610830E+03  0.79941293225E+03  0.94522779957E+03  0.50400001928E-02 0.  1.
       -1    1    3    3    0  502 -0.44090912858E+03 -0.24493610830E+03 -0.10596206669E+04  0.11735376068E+04  0.50400001928E-02 0. -1.
</event>
<event>
 5   0  0.1441136E-05  0.2100718E+04  0.7818609E-02  0.8560927E-01
       -2   -1    0    0    0  501  0.00000000000E+00  0.00000000000E+00  0.17160134523E+04  0.17160134523E+04  0.25500000920E-02 0.  1.
        2   -1    0    0  501    0  0.00000000000E+00  0.00000000000E+00 -0.64291699985E+03  0.64291699986E+03  0.25500000920E-02 0. -1.
    10030    2    1    2    0    0  0.00000000000E+00  0.00000000000E+00  0.10730964525E+04  0.23589304522E+04  0.21007181824E+04 0.  0.
        4    1    3    3  502    0  0.46843437967E+03 -0.88677190102E+03  0.88710214887E+03  0.13389350275E+04  0.12699999809E+01 0.  1.
       -4    1    3    3    0  502 -0.46843437967E+03  0.88677190102E+03  0.18599430360E+03  0.10199954247E+04  0.12699999809E+01 0. -1.
</event>
<event>
 5   0  0.1441136E-05  0.2088064E+04  0.7818609E-02  0.8566519E-01
        2   -1    0    0  501    0  0.00000000000E+00  0.00000000000E+00  0.11806343484E+04  0.11806343484E+04  0.25500000920E-02 0.  1.
       -2   -1    0    0    0  501  0.00000000000E+00  0.00000000000E+00 -0.92323515545E+03  0.92323515545E+03  0.25500000920E-02 0. -1.
    10030    2    1    2    0    0  0.00000000000E+00  0.00000000000E+00  0.25739919297E+03  0.21038695039E+04  0.20880643057E+04 0.  0.
        4    1    3    3  502    0 -0.48677121774E+03  0.14837166200E+03 -0.78981528024E+03  0.93955849116E+03  0.12699999809E+01 0. -1.
       -4    1    3    3    0  502  0.48677121774E+03 -0.14837166200E+03  0.10472144732E+04  0.11643110127E+04  0.12699999809E+01 0.  1.
</event>
<event>
 5   0  0.6589193E-06  0.2103585E+04  0.7818609E-02  0.8559666E-01
       -1   -1    0    0    0  501  0.00000000000E+00  0.00000000000E+00  0.12934176391E+04  0.12934176392E+04  0.50400001928E-02 0.  1.
        1   -1    0    0  501    0  0.00000000000E+00  0.00000000000E+00 -0.85530564207E+03  0.85530564208E+03  0.50400001928E-02 0. -1.
    10030    2    1    2    0    0  0.00000000000E+00  0.00000000000E+00  0.43811199707E+03  0.21487232812E+04  0.21035849442E+04 0.  0.
        3    1    3    3  502    0  0.22487351000E+03 -0.64963912296E+03 -0.59405798387E+03  0.90857249792E+03  0.10100000352E+00 0. -1.
       -3    1    3    3    0  502 -0.22487351000E+03  0.64963912296E+03  0.10321699809E+04  0.12401507833E+04  0.10100000352E+00 0.  1.
</event>
<event>
 5   0  0.6589193E-06  0.2095221E+04  0.7818609E-02  0.8563351E-01
       -1   -1    0    0    0  501  0.00000000000E+00  0.00000000000E+00  0.84888249961E+03  0.84888249963E+03  0.50400001928E-02 0.  1.
        1   -1    0    0  501    0  0.00000000000E+00  0.00000000000E+00 -0.12928618545E+04  0.12928618545E+04  0.50400001928E-02 0. -1.
    10030    2    1    2    0    0  0.00000000000E+00  0.00000000000E+00 -0.44397935489E+03  0.21417443541E+04  0.20952210411E+04 0.  0.
        3    1    3    3  502    0 -0.26458280492E+03 -0.19893660840E+03  0.79401574500E+03  0.86025626899E+03  0.10100000352E+00 0.  1.
       -3    1    3    3    0  502  0.26458280492E+03  0.19893660840E+03 -0.12379950999E+04  0.12814880851E+04  0.10100000352E+00 0. -1.
</event>
<event>
 5   0  0.1398469E-05  0.2098804E+04  0.7818609E-02  0.8561770E-01
       -2   -1    0    0    0  501  0.00000000000E+00  0.00000000000E+00  0.68871615446E+03  0.68871615447E+03  0.25500000920E-02 0.  1.
        2   -1    0    0  501    0  0.00000000000E+00  0.00000000000E+00 -0.15989818108E+04  0.15989818108E+04  0.25500000920E-02 0. -1.
    10030    2    1    2    0    0  0.00000000000E+00  0.00000000000E+00 -0.91026565638E+03  0.22876979653E+04  0.20988040440E+04 0.  0.
        2    1    3    3  502    0  0.70691674840E+03 -0.66842156652E+03 -0.88388697762E+03  0.13144485037E+04  0.25500000920E-02 0. -1.
       -2    1    3    3    0  502 -0.70691674840E+03  0.66842156652E+03 -0.26378678761E+02  0.97324946158E+03  0.25500000920E-02 0.  1.
</event>
<event>
 5   0  0.6599245E-06  0.2123868E+04  0.7818609E-02  0.8550802E-01
        1   -1    0    0  501    0  0.00000000000E+00  0.00000000000E+00  0.79745536068E+03  0.79745536070E+03  0.50400001928E-02 0. -1.
       -1   -1    0    0    0  501  0.00000000000E+00  0.00000000000E+00 -0.14141278855E+04  0.14141278855E+04  0.50400001928E-02 0.  1.
    10030    2    1    2    0    0  0.00000000000E+00  0.00000000000E+00 -0.61667252478E+03  0.22115832462E+04  0.21238680401E+04 0.  0.
        2    1    3    3  502    0  0.78132780748E+03  0.33462781101E+03  0.35455138283E+03  0.92095363495E+03  0.25500000920E-02 0. -1.
       -2    1    3    3    0  502 -0.78132780748E+03 -0.33462781101E+03 -0.97122390762E+03  0.12906296112E+04  0.25500000920E-02 0.  1.
</event>
<event>
 5   0  0.6599245E-06  0.2099849E+04  0.7818609E-02  0.8561310E-01
       -1   -1    0    0    0  501  0.00000000000E+00  0.00000000000E+00  0.13820955190E+04  0.13820955190E+04  0.50400001928E-02 0.  1.
        1   -1    0    0  501    0  0.00000000000E+00  0.00000000000E+00 -0.79758684754E+03  0.79758684756E+03  0.50400001928E-02 0. -1.
    10030    2    1    2    0    0  0.00000000000E+00  0.00000000000E+00  0.58450867144E+03  0.21796823666E+04  0.20998487641E+04 0.  0.
        2    1    3    3  502    0 -0.39485704341E+03 -0.96150179970E+03  0.44601925940E+03  0.11310751413E+04  0.25500000920E-02 0.  1.
       -2    1    3    3    0  502  0.39485704341E+03  0.96150179970E+03  0.13848941204E+03  0.10486072252E+04  0.25500000920E-02 0. -1.
</event>
<event>
 5   0  0.6283269E-06  0.2099209E+04  0.7818609E-02  0.8561592E-01
       -1   -1    0    0    0  501  0.00000000000E+00  0.00000000000E+00  0.85839528475E+03  0.85839528477E+03  0.50400001928E-02 0. -1.
        1   -1    0    0  501    0  0.00000000000E+00  0.00000000000E+00 -0.12834059161E+04  0.12834059161E+04  0.50400001928E-02 0.  1.
    10030    2    1    2    0    0  0.00000000000E+00  0.00000000000E+00 -0.42501063132E+03  0.21418012008E+04  0.20992089813E+04 0.  0.
        1    1    3    3  502    0  0.23242022048E+03  0.83810189550E+03  0.38698378829E+03  0.95194033351E+03  0.50400001928E-02 0. -1.
       -1    1    3    3    0  502 -0.23242022048E+03 -0.83810189550E+03 -0.81199441961E+03  0.11898608673E+04  0.50400001928E-02 0.  1.
</event>
<event>
 5   0  0.1398469E-05  0.2107800E+04  0.7818609E-02  0.8557815E-01
       -2   -1    0    0    0  501  0.00000000000E+00  0.00000000000E+00  0.10386644140E+04  0.10386644140E+04  0.25500000920E-02 0.  1.
        2   -1    0    0  501    0  0.00000000000E+00  0.00000000000E+00 -0.10693594165E+04  0.10693594165E+04  0.25500000920E-02 0. -1.
    10030    2    1    2    0    0  0.00000000000E+00  0.00000000000E+00 -0.30695002517E+02  0.21080238305E+04  0.21078003432E+04 0.  0.
        2    1    3    3  502    0  0.16000637962E+03 -0.46319698547E+03  0.91778523292E+03  0.10404245396E+04  0.25500000920E-02 0.  1.
       -2    1    3    3    0  502 -0.16000637962E+03  0.46319698547E+03 -0.94848023544E+03  0.10675992909E+04  0.25500000920E-02 0. -1.
</event>
<event>
 5   0  0.1441136E-05  0.2100956E+04  0.7818609E-02  0.8560822E-01
        2   -1    0    0  501    0  0.00000000000E+00  0.00000000000E+00  0.12027951904E+04  0.12027951904E+04  0.25500000920E-02 0.  1.
       -2   -1    0    0    0  501  0.00000000000E+00  0.00000000000E+00 -0.91744951335E+03  0.91744951335E+03  0.25500000920E-02 0. -1.
    10030    2    1    2    0    0  0.00000000000E+00  0.00000000000E+00  0.28534567709E+03  0.21202447038E+04  0.21009558416E+04 0.  0.
        4    1    3    3  502    0  0.34927296356E+03  0.46939089049E+03 -0.73779512125E+03  0.94162766792E+03  0.12699999809E+01 0. -1.
       -4    1    3    3    0  502 -0.34927296356E+03 -0.46939089049E+03  0.10231407983E+04  0.11786170359E+04  0.12699999809E+01 0.  1.
</event>
<event>
 5   0  0.6283269E-06  0.2097081E+04  0.7818609E-02  0.8562530E-01
        1   -1    0    0  501    0  0.00000000000E+00  0.00000000000E+00  0.30680051624E+04  0.30680051624E+04  0.50400001928E-02 0.  1.
       -1   -1    0    0    0  501  0.00000000000E+00  0.00000000000E+00 -0.35835584094E+03  0.35835584097E+03  0.50400001928E-02 0. -1.
    10030    2    1    2    0    0  0.00000000000E+00  0.00000000000E+00  0.27096493214E+04  0.34263610033E+04  0.20970813718E+04 0.  0.
        1    1    3    3  502    0 -0.18792469050E+03 -0.33062867083E+02  0.30393996041E+04  0.30453831937E+04  0.50400001928E-02 0.  1.
       -1    1    3    3    0  502  0.18792469050E+03  0.33062867083E+02 -0.32975028273E+03  0.38097780968E+03  0.50400001928E-02 0. -1.
</event>
<event>
 5   0  0.1395356E-05  0.2104745E+04  0.7818609E-02  0.8559156E-01
       -2   -1    0    0    0  501  0.00000000000E+00  0.00000000000E+00  0.86588912050E+03  0.86588912051E+03  0.25500000920E-02 0.  1.
        2   -1    0    0  501    0  0.00000000000E+00  0.00000000000E+00 -0.12790185131E+04  0.12790185131E+04  0.25500000920E-02 0. -1.
    10030    2    1    2    0    0  0.00000000000E+00  0.00000000000E+00 -0.41312939263E+03  0.21449076336E+04  0.21047453199E+04 0.  0.
        1    1    3    3  502    0 -0.81029052703E+03  0.63350928461E+03 -0.43348715082E+03  0.11161612168E+04  0.50400001928E-02 0. -1.
       -1    1    3    3    0  502  0.81029052703E+03 -0.63350928461E+03  0.20357758185E+02  0.10287464169E+04  0.50400001928E-02 0.  1.
</event>
<event>
 5   0  0.6599245E-06  0.2098303E+04  0.7818609E-02  0.8561991E-01
       -1   -1    0    0    0  501  0.00000000000E+00  0.00000000000E+00  0.10632852741E+04  0.10632852741E+04  0.50400001928E-02 0.  1.
        1   -1    0    0  501    0  0.00000000000E+00  0.00000000000E+00 -0.10352058455E+04  0.10352058455E+04  0.50400001928E-02 0. -1.
    10030    2    1    2    0    0  0.00000000000E+00  0.00000000000E+00  0.28079428666E+02  0.20984911196E+04  0.20983032490E+04 0.  0.
        2    1    3    3  502    0  0.10169304153E+03  0.45211558147E+02  0.10573653908E+04  0.10632060615E+04  0.25500000920E-02 0.  1.
       -2    1    3    3    0  502 -0.10169304153E+03 -0.45211558147E+02 -0.10292859621E+04  0.10352850581E+04  0.25500000920E-02 0. -1.
</event>
<event>
 5   0  0.6238363E-06  0.2101117E+04  0.7818609E-02  0.8560751E-01
        1   -1    0    0  501    0  0.00000000000E+00  0.00000000000E+00  0.14102178417E+04  0.14102178417E+04  0.50400001928E-02 0. -1.
       -1   -1    0    0    0  501  0.00000000000E+00  0.00000000000E+00 -0.78262622272E+03  0.78262622274E+03  0.50400001928E-02 0.  1.
    10030    2    1    2    0    0  0.00000000000E+00  0.00000000000E+00  0.62759161894E+03  0.21928440644E+04  0.21011172863E+04 0.  0.
        4    1    3    3  502    0  0.30923796955E+03  0.93770619134E+03 -0.60687500627E+02  0.98924496902E+03  0.12699999809E+01 0.  1.
       -4    1    3    3    0  502 -0.30923796955E+03 -0.93770619134E+03  0.68827911957E+03  0.12035990954E+04  0.12699999809E+01 0. -1.
</event>
<event>
 5   0  0.6283269E-06  0.2106678E+04  0.7818609E-02  0.8558308E-01
        1   -1    0    0  501    0  0.00000000000E+00  0.00000000000E+00  0.15800191377E+04  0.15800191377E+04  0.50400001928E-02 0. -1.
       -1   -1    0    0    0  501  0.00000000000E+00  0.00000000000E+00 -0.70222096176E+03  0.70222096178E+03  0.50400001928E-02 0.  1.
    10030    2    1    2    0    0  0.00000000000E+00  0.00000000000E+00  0.87779817592E+03  0.22822400995E+04  0.21066775344E+04 0.  0.
        1    1    3    3  502    0 -0.47857164418E+03  0.59267023929E+03 -0.34921125020E+03  0.83799601935E+03  0.50400001928E-02 0.  1.
       -1    1    3    3    0  502  0.47857164418E+03 -0.59267023929E+03  0.12270094261E+04  0.14442440801E+04  0.50400001928E-02 0. -1.
</event>
<event>
 5   0  0.6283269E-06  0.2098321E+04  0.7818609E-02  0.8561983E-01
        1   -1    0    0  501    0  0.00000000000E+00  0.00000000000E+00  0.12913479675E+04  0.12913479675E+04  0.50400001928E-02 0.  1.
       -1   -1    0    0    0  501  0.00000000000E+00  0.00000000000E+00 -0.85239459997E+03  0.85239459998E+03  0.50400001928E-02 0. -1.
    10030    2    1    2    0    0  0.00000000000E+00  0.00000000000E+00  0.43895336753E+03  0.21437425675E+04  0.20983212664E+04 0.  0.
        1    1    3    3  502    0 -0.15933781153E+03  0.55710509546E+03 -0.67408936123E+03  0.88890443385E+03  0.50400001928E-02 0. -1.
       -1    1    3    3    0  502  0.15933781153E+03 -0.55710509546E+03  0.11130427288E+04  0.12548381336E+04  0.50400001928E-02 0.  1.
</event>
<event>
 5   0  0.6283269E-06  0.2093685E+04  0.7818609E-02  0.8564030E-01
        1   -1    0    0  501    0  0.00000000000E+00  0.00000000000E+00  0.10339597821E+04  0.10339597821E+04  0.50400001928E-02 0. -1.
       -1   -1    0    0    0  501  0.00000000000E+00  0.00000000000E+00 -0.10598855773E+04  0.10598855773E+04  0.50400001928E-02 0.  1.
    10030    2    1    2    0    0  0.00000000000E+00  0.00000000000E+00 -0.25925795166E+02  0.20938453594E+04  0.20936848479E+04 0.  0.
        1    1    3    3  502    0 -0.81817493671E+03 -0.16944083659E+02 -0.66583890428E+03  0.10550065287E+04  0.50400001928E-02 0.  1.
       -1    1    3    3    0  502  0.81817493671E+03  0.16944083659E+02  0.63991310911E+03  0.10388388307E+04  0.50400001928E-02 0. -1.
</event>
<event>
 5   0  0.6599245E-06  0.2098017E+04  0.7818609E-02  0.8562118E-01
        1   -1    0    0  501    0  0.00000000000E+00  0.00000000000E+00  0.11172718346E+04  0.11172718346E+04  0.50400001928E-02 0. -1.
       -1   -1    0    0    0  501  0.00000000000E+00  0.00000000000E+00 -0.98491570759E+03  0.98491570760E+03  0.50400001928E-02 0.  1.
    10030    2    1    2    0    0  0.00000000000E+00  0.00000000000E+00  0.13235612698E+03  0.21021875422E+04  0.20980167583E+04 0.  0.
        2    1    3    3  502    0  0.53237596730E+03 -0.69293930318E+03  0.64770198635E+03  0.10877071810E+04  0.25500000920E-02 0. -1.
       -2    1    3    3    0  502 -0.53237596730E+03  0.69293930318E+03 -0.51534585938E+03  0.10144803612E+04  0.25500000920E-02 0.  1.
</event>
<event>
 5   0  0.6238363E-06  0.2102814E+04  0.7818609E-02  0.8560005E-01
       -1   -1    0    0    0  501  0.00000000000E+00  0.00000000000E+00  0.75365427036E+03  0.75365427038E+03  0.50400001928E-02 0.  1.
        1   -1    0    0  501    0  0.00000000000E+00  0.00000000000E+00 -0.14667959327E+04  0.14667959327E+04  0.50400001928E-02 0. -1.
    10030    2    1    2    0    0  0.00000000000E+00  0.00000000000E+00 -0.71314166230E+03  0.22204502030E+04  0.21028143222E+04 0.  0.
        4    1    3    3  502    0  0.85042317581E+03  0.16611062144E+03  0.27226294716E+03  0.90826265023E+03  0.12699999809E+01 0.  1.
       -4    1    3    3    0  502 -0.85042317581E+03 -0.16611062144E+03 -0.98540460946E+03  0.13121875528E+04  0.12699999809E+01 0. -1.
</event>
<event>
 5   0  0.1398469E-05  0.2099207E+04  0.7818609E-02  0.8561593E-01
       -2   -1    0    0    0  501  0.00000000000E+00  0.00000000000E+00  0.69795586579E+03  0.69795586580E+03  0.25500000920E-02 0.  1.
        2   -1    0    0  501    0  0.00000000000E+00  0.00000000000E+00 -0.15784206265E+04  0.15784206265E+04  0.25500000920E-02 0. -1.
    10030    2    1    2    0    0  0.00000000000E+00  0.00000000000E+00 -0.88046476075E+03  0.22763764923E+04  0.20992074076E+04 0.  0.
        2    1    3    3  502    0 -0.56786955037E+03  0.14494772449E+03 -0.13844575063E+04  0.15033989011E+04  0.25500000920E-02 0. -1.
       -2    1    3    3    0  502  0.56786955037E+03 -0.14494772449E+03  0.50399274551E+03  0.77297759127E+03  0.25500000920E-02 0.  1.
</event>
<event>
 5   0  0.6599245E-06  0.2098596E+04  0.7818609E-02  0.8561862E-01
       -1   -1    0    0    0  501  0.00000000000E+00  0.00000000000E+00  0.11780666964E+04  0.11780666964E+04  0.50400001928E-02 0.  1.
        1   -1    0    0  501    0  0.00000000000E+00  0.00000000000E+00 -0.93460402907E+03  0.93460402908E+03  0.50400001928E-02 0. -1.
    10030    2    1    2    0    0  0.00000000000E+00  0.00000000000E+00  0.24346266734E+03  0.21126707255E+04  0.20985956075E+04 0.  0.
        2    1    3    3  502    0 -0.46547430361E+03  0.43133729562E+03 -0.71952135961E+03  0.95939000248E+03  0.25500000920E-02 0. -1.
       -2    1    3    3    0  502  0.46547430361E+03 -0.43133729562E+03  0.96298402695E+03  0.11532807230E+04  0.25500000920E-02 0.  1.
</event>
<event>
 5   0  0.6917078E-06  0.2100072E+04  0.7818609E-02  0.8561212E-01
       -1   -1    0    0    0  501  0.00000000000E+00  0.00000000000E+00  0.64313147321E+03  0.64313147323E+03  0.50400001928E-02 0.  1.
        1   -1    0    0  501    0  0.00000000000E+00  0.00000000000E+00 -0.17143857107E+04  0.17143857107E+04  0.50400001928E-02 0. -1.
    10030    2    1    2    0    0  0.00000000000E+00  0.00000000000E+00 -0.10712542375E+04  0.23575171840E+04  0.21000718158E+04 0.  0.
        5    1    3    3  502    0 -0.75667200676E+03 -0.21616469059E+03 -0.13160271256E+04  0.15333718351E+04  0.46999998093E+01 0. -1.
       -5    1    3    3    0  502  0.75667200676E+03  0.21616469059E+03  0.24477288813E+03  0.82414534886E+03  0.46999998093E+01 0.  1.
</event>
<event>
 5   0  0.1395356E-05  0.2101940E+04  0.7818609E-02  0.8560389E-01
       -2   -1    0    0    0  501  0.00000000000E+00  0.00000000000E+00  0.64314565929E+03  0.64314565930E+03  0.25500000920E-02 0.  1.
        2   -1    0    0  501    0  0.00000000000E+00  0.00000000000E+00 -0.17173992205E+04  0.17173992205E+04  0.25500000920E-02 0. -1.
    10030    2    1    2    0    0  0.00000000000E+00  0.00000000000E+00 -0.10742535612E+04  0.23605448798E+04  0.21019399172E+04 0.  0.
        1    1    3    3  502    0  0.97586191239E+02 -0.78970552414E+03  0.23391431889E+03  0.82938156972E+03  0.50400001928E-02 0. -1.
       -1    1    3    3    0  502 -0.97586191239E+02  0.78970552414E+03 -0.13081678801E+04  0.15311633100E+04  0.50400001928E-02 0.  1.
</event>
<event>
 5   0  0.1395356E-05  0.2101355E+04  0.7818609E-02  0.8560647E-01
       -2   -1    0    0    0  501  0.00000000000E+00  0.00000000000E+00  0.13099367109E+04  0.13099367109E+04  0.25500000920E-02 0.  1.
        2   -1    0    0  501    0  0.00000000000E+00  0.00000000000E+00 -0.84273039253E+03  0.84273039253E+03  0.25500000920E-02 0. -1.
    10030    2    1    2    0    0  0.00000000000E+00  0.00000000000E+00  0.46720631833E+03  0.21526671034E+04  0.21013552565E+04 0.  0.
        1    1    3    3  502    0  0.26911571532E+03 -0.34168504460E+02  0.12734422502E+04  0.13020160981E+04  0.50400001928E-02 0.  1.
       -1    1    3    3    0  502 -0.26911571532E+03  0.34168504460E+02 -0.80623593191E+03  0.85065100532E+03  0.50400001928E-02 0. -1.
</event>
<event>
 5   0  0.1398469E-05  0.2063819E+04  0.7818609E-02  0.8577351E-01
        2   -1    0    0  501    0  0.00000000000E+00  0.00000000000E+00  0.68150020321E+03  0.68150020321E+03  0.25500000920E-02 0. -1.
       -2   -1    0    0    0  501  0.00000000000E+00  0.00000000000E+00 -0.15624905182E+04  0.15624905182E+04  0.25500000920E-02 0.  1.
    10030    2    1    2    0    0  0.00000000000E+00  0.00000000000E+00 -0.88099031501E+03  0.22439907214E+04  0.20638193774E+04 0.  0.
        2    1    3    3  502    0  0.24091074610E+03  0.98984220044E+03 -0.61919658983E+03  0.11921535078E+04  0.25500000920E-02 0.  1.
       -2    1    3    3    0  502 -0.24091074610E+03 -0.98984220044E+03 -0.26179372518E+03  0.10518372136E+04  0.25500000920E-02 0. -1.
</event>
<event>
 5   0  0.1390735E-05  0.2095459E+04  0.7818609E-02  0.8563246E-01
        2   -1    0    0  501    0  0.00000000000E+00  0.00000000000E+00  0.31852679042E+04  0.31852679042E+04  0.25500000920E-02 0. -1.
       -2   -1    0    0    0  501  0.00000000000E+00  0.00000000000E+00 -0.34462935103E+03  0.34462935104E+03  0.25500000920E-02 0.  1.
    10030    2    1    2    0    0  0.00000000000E+00  0.00000000000E+00  0.28406385531E+04  0.35298972552E+04  0.20954587189E+04 0.  0.
        5    1    3    3  502    0  0.63710114859E+03 -0.32951535233E+03  0.27068059596E+04  0.28002319250E+04  0.46999998093E+01 0. -1.
       -5    1    3    3    0  502 -0.63710114859E+03  0.32951535233E+03  0.13383259352E+03  0.72966533017E+03  0.46999998093E+01 0.  1.
</event>
<event>
 5   0  0.6238363E-06  0.2096014E+04  0.7818609E-02  0.8563001E-01
        1   -1    0    0  501    0  0.00000000000E+00  0.00000000000E+00  0.18329756914E+04  0.18329756914E+04  0.50400001928E-02 0.  1.
       -1   -1    0    0    0  501  0.00000000000E+00  0.00000000000E+00 -0.59919956412E+03  0.59919956414E+03  0.50400001928E-02 0. -1.
    10030    2    1    2    0    0  0.00000000000E+00  0.00000000000E+00  0.12337761273E+04  0.24321752555E+04  0.20960135833E+04 0.  0.
        4    1    3    3  502    0  0.29060624386E+03  0.74065875569E+02  0.17821207089E+04  0.18071783467E+04  0.12699999809E+01 0.  1.
       -4    1    3    3    0  502 -0.29060624386E+03 -0.74065875569E+02 -0.54834458164E+03  0.62499690880E+03  0.12699999809E+01 0. -1.
</event>
<event>
 5   0  0.1395356E-05  0.2098011E+04  0.7818609E-02  0.8562120E-01
        2   -1    0    0  501    0  0.00000000000E+00  0.00000000000E+00  0.58919280419E+03  0.58919280419E+03  0.25500000920E-02 0. -1.
       -2   -1    0    0    0  501  0.00000000000E+00  0.00000000000E+00 -0.18676616868E+04  0.18676616868E+04  0.25500000920E-02 0.  1.
    10030    2    1    2    0    0  0.00000000000E+00  0.00000000000E+00 -0.12784688826E+04  0.24568544910E+04  0.20980112741E+04 0.  0.
        1    1    3    3  502    0  0.52539773419E+03 -0.29368302934E+03 -0.16453206611E+04  0.17519624935E+04  0.50400001928E-02 0.  1.
       -1    1    3    3    0  502 -0.52539773419E+03  0.29368302934E+03  0.36685177844E+03  0.70489199753E+03  0.50400001928E-02 0. -1.
</event>
<event>
 5   0  0.6283269E-06  0.2100899E+04  0.7818609E-02  0.8560848E-01
        1   -1    0    0  501    0  0.00000000000E+00  0.00000000000E+00  0.13815007381E+04  0.13815007382E+04  0.50400001928E-02 0.  1.
       -1   -1    0    0    0  501  0.00000000000E+00  0.00000000000E+00 -0.79872826111E+03  0.79872826113E+03  0.50400001928E-02 0. -1.
    10030    2    1    2    0    0  0.00000000000E+00  0.00000000000E+00  0.58277247703E+03  0.21802289993E+04  0.21008985528E+04 0.  0.
        1    1    3    3  502    0  0.82805879073E+02  0.70261467012E+03 -0.51441270380E+03  0.87472545301E+03  0.50400001928E-02 0. -1.
       -1    1    3    3    0  502 -0.82805879073E+02 -0.70261467012E+03  0.10971851808E+04  0.13055035463E+04  0.50400001928E-02 0.  1.
</event>
<event>
 5   0  0.6599245E-06  0.2113327E+04  0.7818609E-02  0.8555395E-01
       -1   -1    0    0    0  501  0.00000000000E+00  0.00000000000E+00  0.48799322299E+03  0.48799322302E+03  0.50400001928E-02 0. -1.
        1   -1    0    0  501    0  0.00000000000E+00  0.00000000000E+00 -0.22880200319E+04  0.22880200320E+04  0.50400001928E-02 0.  1.
    10030    2    1    2    0    0  0.00000000000E+00  0.00000000000E+00 -0.18000268090E+04  0.27760132550E+04  0.21133274897E+04 0.  0.
        2    1    3    3  502    0  0.93235839170E+03 -0.59791752928E+02 -0.25159296465E+03  0.96755684286E+03  0.25500000920E-02 0. -1.
       -2    1    3    3    0  502 -0.93235839170E+03  0.59791752928E+02 -0.15484338443E+04  0.18084564121E+04  0.25500000920E-02 0.  1.
</event>
<event>
 5   0  0.6283269E-06  0.2101705E+04  0.7818609E-02  0.8560493E-01
       -1   -1    0    0    0  501  0.00000000000E+00  0.00000000000E+00  0.14235902894E+04  0.14235902894E+04  0.50400001928E-02 0. -1.
        1   -1    0    0  501    0  0.00000000000E+00  0.00000000000E+00 -0.77570866898E+03  0.77570866899E+03  0.50400001928E-02 0.  1.
    10030    2    1    2    0    0  0.00000000000E+00  0.00000000000E+00  0.64788162041E+03  0.21992989584E+04  0.21017053348E+04 0.  0.
        1    1    3    3  502    0  0.67922506368E+03 -0.68195448936E+03 -0.11740531462E+03  0.96963530290E+03  0.50400001928E-02 0.  1.
       -1    1    3    3    0  502 -0.67922506368E+03  0.68195448936E+03  0.76528693503E+03  0.12296636555E+04  0.50400001928E-02 0. -1.
</event>
<event>
 5   0  0.6917078E-06  0.2095894E+04  0.7818609E-02  0.8563054E-01
        1   -1    0    0  501    0  0.00000000000E+00  0.00000000000E+00  0.21064968068E+04  0.21064968068E+04  0.50400001928E-02 0.  1.
       -1   -1    0    0    0  501  0.00000000000E+00  0.00000000000E+00 -0.52133630718E+03  0.52133630721E+03  0.50400001928E-02 0. -1.
    10030    2    1    2    0    0  0.00000000000E+00  0.00000000000E+00  0.15851604996E+04  0.26278331140E+04  0.20958943355E+04 0.  0.
        5    1    3    3  502    0 -0.85213751080E+03 -0.96334165016E+02  0.15477309765E+04  0.17694382935E+04  0.46999998093E+01 0.  1.
       -5    1    3    3    0  502  0.85213751080E+03  0.96334165016E+02  0.37429523033E+02  0.85839482050E+03  0.46999998093E+01 0. -1.
</event>
<event>
 5   0  0.6599245E-06  0.2078666E+04  0.7818609E-02  0.8570700E-01
        1   -1    0    0  501    0  0.00000000000E+00  0.00000000000E+00  0.11454733516E+04  0.11454733516E+04  0.50400001928E-02 0.  1.
       -1   -1    0    0    0  501  0.00000000000E+00  0.00000000000E+00 -0.94302775442E+03  0.94302775443E+03  0.50400001928E-02 0. -1.
    10030    2    1    2    0    0  0.00000000000E+00  0.00000000000E+00  0.20244559715E+03  0.20885011060E+04  0.20786660747E+04 0.  0.
        2    1    3    3  502    0  0.10349063690E+04 -0.95438317345E+02  0.92609171047E+02  0.10434156045E+04  0.25500000920E-02 0.  1.
       -2    1    3    3    0  502 -0.10349063690E+04  0.95438317345E+02  0.10983642610E+03  0.10450855016E+04  0.25500000920E-02 0. -1.
</event>
<event>
 5   0  0.1395356E-05  0.2102968E+04  0.7818609E-02  0.8559937E-01
       -2   -1    0    0    0  501  0.00000000000E+00  0.00000000000E+00  0.64203565088E+03  0.64203565088E+03  0.25500000920E-02 0. -1.
        2   -1    0    0  501    0  0.00000000000E+00  0.00000000000E+00 -0.17220520620E+04  0.17220520620E+04  0.25500000920E-02 0.  1.
    10030    2    1    2    0    0  0.00000000000E+00  0.00000000000E+00 -0.10800164111E+04  0.23640877129E+04  0.21029682037E+04 0.  0.
        1    1    3    3  502    0 -0.43779105516E+02 -0.16936994866E+03 -0.17055781737E+04  0.17145260850E+04  0.50400001928E-02 0.  1.
       -1    1    3    3    0  502  0.43779105516E+02  0.16936994866E+03  0.62556176257E+03  0.64956162787E+03  0.50400001928E-02 0. -1.
</event>
<event>
 5   0  0.1344501E-05  0.2096614E+04  0.7818609E-02  0.8562736E-01
       -2   -1    0    0    0  501  0.00000000000E+00  0.00000000000E+00  0.50882406929E+03  0.50882406929E+03  0.25500000920E-02 0.  1.
        2   -1    0    0  501    0  0.00000000000E+00  0.00000000000E+00 -0.21597793896E+04  0.21597793896E+04  0.25500000920E-02 0. -1.
    10030    2    1    2    0    0  0.00000000000E+00  0.00000000000E+00 -0.16509553203E+04  0.26686034589E+04  0.20966141636E+04 0.  0.
        3    1    3    3  502    0 -0.83186709298E+03 -0.11772145115E+03 -0.16234900031E+04  0.18279991796E+04  0.10100000352E+00 0. -1.
       -3    1    3    3    0  502  0.83186709298E+03  0.11772145115E+03 -0.27465317230E+02  0.84060427926E+03  0.10100000352E+00 0.  1.
</event>
<event>
 5   0  0.6283269E-06  0.2102831E+04  0.7818609E-02  0.8559997E-01
       -1   -1    0    0    0  501  0.00000000000E+00  0.00000000000E+00  0.12522421323E+04  0.12522421323E+04  0.50400001928E-02 0.  1.
        1   -1    0    0  501    0  0.00000000000E+00  0.00000000000E+00 -0.88279604307E+03  0.88279604308E+03  0.50400001928E-02 0. -1.
    10030    2    1    2    0    0  0.00000000000E+00  0.00000000000E+00  0.36944608919E+03  0.21350381754E+04  0.21028308533E+04 0.  0.
        1    1    3    3  502    0  0.24953676779E+03  0.96412332211E+03 -0.15759366131E+03  0.10082847519E+04  0.50400001928E-02 0.  1.
       -1    1    3    3    0  502 -0.24953676779E+03 -0.96412332211E+03  0.52703975050E+03  0.11267534235E+04  0.50400001928E-02 0. -1.
</event>
<event>
 5   0  0.6599245E-06  0.2097124E+04  0.7818609E-02  0.8562511E-01
        1   -1    0    0  501    0  0.00000000000E+00  0.00000000000E+00  0.17421974003E+04  0.17421974003E+04  0.50400001928E-02 0.  1.
       -1   -1    0    0    0  501  0.00000000000E+00  0.00000000000E+00 -0.63108914754E+03  0.63108914756E+03  0.50400001928E-02 0. -1.
    10030    2    1    2    0    0  0.00000000000E+00  0.00000000000E+00  0.11111082528E+04  0.23732865479E+04  0.20971236227E+04 0.  0.
        2    1    3    3  502    0 -0.10360678649E+04 -0.14675220203E+03  0.47956204870E+03  0.11510658487E+04  0.25500000920E-02 0.  1.
       -2    1    3    3    0  502  0.10360678649E+04  0.14675220203E+03  0.63154620410E+03  0.12222206992E+04  0.25500000920E-02 0. -1.
</event>
<event>
 5   0  0.5009125E-06  0.2135723E+04  0.7818609E-02  0.8545668E-01
        3   -1    0    0  501    0  0.00000000000E+00  0.00000000000E+00  0.17429595326E+04  0.17429595356E+04  0.10100000352E+00 0. -1.
       -3   -1    0    0    0  501  0.00000000000E+00  0.00000000000E+00 -0.65424835725E+03  0.65424836504E+03  0.10100000352E+00 0.  1.
    10030    2    1    2    0    0  0.00000000000E+00  0.00000000000E+00  0.10887111754E+04  0.23972079006E+04  0.21357232253E+04 0.  0.
        3    1    3    3  502    0 -0.10544923123E+04  0.11881529595E+03  0.67837861071E+03  0.12594715800E+04  0.10100000352E+00 0. -1.
       -3    1    3    3    0  502  0.10544923123E+04 -0.11881529595E+03  0.41033256467E+03  0.11377363205E+04  0.10100000352E+00 0.  1.
</event>
<event>
 5   0  0.6238363E-06  0.2102277E+04  0.7818609E-02  0.8560241E-01
       -1   -1    0    0    0  501  0.00000000000E+00  0.00000000000E+00  0.12482552822E+04  0.12482552822E+04  0.50400001928E-02 0.  1.
        1   -1    0    0  501    0  0.00000000000E+00  0.00000000000E+00 -0.88514946443E+03  0.88514946444E+03  0.50400001928E-02 0. -1.
    10030    2    1    2    0    0  0.00000000000E+00  0.00000000000E+00  0.36310581780E+03  0.21334047467E+04  0.21022773314E+04 0.  0.
        4    1    3    3  502    0 -0.52290040652E+03  0.91042371193E+03  0.23324543665E+03  0.10755004496E+04  0.12699999809E+01 0.  1.
       -4    1    3    3    0  502  0.52290040652E+03 -0.91042371193E+03  0.12986038115E+03  0.10579042971E+04  0.12699999809E+01 0. -1.
</event>
<event>
 5   0  0.6599245E-06  0.2096700E+04  0.7818609E-02  0.8562699E-01
       -1   -1    0    0    0  501  0.00000000000E+00  0.00000000000E+00  0.10548262968E+04  0.10548262968E+04  0.50400001928E-02 0.  1.
        1   -1    0    0  501    0  0.00000000000E+00  0.00000000000E+00 -0.10419131375E+04  0.10419131375E+04  0.50400001928E-02 0. -1.
    10030    2    1    2    0    0  0.00000000000E+00  0.00000000000E+00  0.12913159323E+02  0.20967394343E+04  0.20966996699E+04 0.  0.
        2    1    3    3  502    0  0.80617355962E+03  0.57311383211E+03 -0.34091451935E+03  0.10462303677E+04  0.25500000920E-02 0. -1.
       -2    1    3    3    0  502 -0.80617355962E+03 -0.57311383211E+03  0.35382767867E+03  0.10505090666E+04  0.25500000920E-02 0.  1.
</event>
<event>
 5   0  0.6589193E-06  0.2102899E+04  0.7818609E-02  0.8559967E-01
        1   -1    0    0  501    0  0.00000000000E+00  0.00000000000E+00  0.15054835829E+04  0.15054835829E+04  0.50400001928E-02 0. -1.
       -1   -1    0    0    0  501  0.00000000000E+00  0.00000000000E+00 -0.73434637111E+03  0.73434637113E+03  0.50400001928E-02 0.  1.
    10030    2    1    2    0    0  0.00000000000E+00  0.00000000000E+00  0.77113721176E+03  0.22398299540E+04  0.21028993375E+04 0.  0.
        3    1    3    3  502    0 -0.42196163774E+03  0.49803855479E+03 -0.49239410950E+03  0.81764661991E+03  0.10100000352E+00 0.  1.
       -3    1    3    3    0  502  0.42196163774E+03 -0.49803855479E+03  0.12635313213E+04  0.14221833341E+04  0.10100000352E+00 0. -1.
</event>
<event>
 5   0  0.1395356E-05  0.2100233E+04  0.7818609E-02  0.8561141E-01
       -2   -1    0    0    0  501  0.00000000000E+00  0.00000000000E+00  0.84510060487E+03  0.84510060487E+03  0.25500000920E-02 0.  1.
        2   -1    0    0  501    0  0.00000000000E+00  0.00000000000E+00 -0.13048675853E+04  0.13048675853E+04  0.25500000920E-02 0. -1.
    10030    2    1    2    0    0  0.00000000000E+00  0.00000000000E+00 -0.45976698047E+03  0.21499681902E+04  0.21002327353E+04 0.  0.
        1    1    3    3  502    0  0.18759810666E+03 -0.90113914471E+03 -0.74732314027E+03  0.11856376697E+04  0.50400001928E-02 0. -1.
       -1    1    3    3    0  502 -0.18759810666E+03  0.90113914471E+03  0.28755615980E+03  0.96433052053E+03  0.50400001928E-02 0.  1.
</event>
<event>
 5   0  0.6917078E-06  0.2101829E+04  0.7818609E-02  0.8560438E-01
       -1   -1    0    0    0  501  0.00000000000E+00  0.00000000000E+00  0.66346688753E+03  0.66346688755E+03  0.50400001928E-02 0. -1.
        1   -1    0    0  501    0  0.00000000000E+00  0.00000000000E+00 -0.16646221079E+04  0.16646221079E+04  0.50400001928E-02 0.  1.
    10030    2    1    2    0    0  0.00000000000E+00  0.00000000000E+00 -0.10011552204E+04  0.23280889954E+04  0.21018293450E+04 0.  0.
        5    1    3    3  502    0 -0.25085086485E+03 -0.38240728583E+03 -0.15486020199E+04  0.16147296351E+04  0.46999998093E+01 0.  1.
       -5    1    3    3    0  502  0.25085086485E+03  0.38240728583E+03  0.54744679951E+03  0.71335936031E+03  0.46999998093E+01 0. -1.
</event>
<event>
 5   0  0.1398469E-05  0.2091087E+04  0.7818609E-02  0.8565180E-01
        2   -1    0    0  501    0  0.00000000000E+00  0.00000000000E+00  0.11322934926E+04  0.11322934926E+04  0.25500000920E-02 0.  1.
       -2   -1    0    0    0  501  0.00000000000E+00  0.00000000000E+00 -0.96544004610E+03  0.96544004610E+03  0.25500000920E-02 0. -1.
    10030    2    1    2    0    0  0.00000000000E+00  0.00000000000E+00  0.16685344648E+03  0.20977335387E+04  0.20910872595E+04 0.  0.
        2    1    3    3  502    0 -0.26759590081E+03 -0.97551261902E+03 -0.18185477799E+03  0.10277663140E+04  0.25500000920E-02 0.  1.
       -2    1    3    3    0  502  0.26759590081E+03  0.97551261902E+03  0.34870822447E+03  0.10699672246E+04  0.25500000920E-02 0. -1.
</event>
<event>
 5   0  0.6599245E-06  0.2114782E+04  0.7818609E-02  0.8554760E-01
       -1   -1    0    0    0  501  0.00000000000E+00  0.00000000000E+00  0.17639602652E+04  0.17639602652E+04  0.50400001928E-02 0.  1.
        1   -1    0    0  501    0  0.00000000000E+00  0.00000000000E+00 -0.63384404360E+03  0.63384404362E+03  0.50400001928E-02 0. -1.
    10030    2    1    2    0    0  0.00000000000E+00  0.00000000000E+00  0.11301162216E+04  0.23978043089E+04  0.21147819815E+04 0.  0.
        2    1    3    3  502    0 -0.79797355467E+03  0.11002077630E+03  0.13417190437E+04  0.15649525096E+04  0.25500000920E-02 0.  1.
       -2    1    3    3    0  502  0.79797355467E+03 -0.11002077630E+03 -0.21160282206E+03  0.83285179924E+03  0.25500000920E-02 0. -1.
</event>
<event>
 5   0  0.1344501E-05  0.2099076E+04  0.7818609E-02  0.8561651E-01
        2   -1    0    0  501    0  0.00000000000E+00  0.00000000000E+00  0.15737307132E+04  0.15737307132E+04  0.25500000920E-02 0.  1.
       -2   -1    0    0    0  501  0.00000000000E+00  0.00000000000E+00 -0.69994798203E+03  0.69994798204E+03  0.25500000920E-02 0. -1.
    10030    2    1    2    0    0  0.00000000000E+00  0.00000000000E+00  0.87378273119E+03  0.22736786953E+04  0.20990756413E+04 0.  0.
        3    1    3    3  502    0  0.84480396848E+03  0.48090853656E+03  0.86548466604E+03  0.13015492626E+04  0.10100000352E+00 0. -1.
       -3    1    3    3    0  502 -0.84480396848E+03 -0.48090853656E+03  0.82980651516E+01  0.97212943263E+03  0.10100000352E+00 0.  1.
</event>
<event>
 5   0  0.6283269E-06  0.2097265E+04  0.7818609E-02  0.8562449E-01
        1   -1    0    0  501    0  0.00000000000E+00  0.00000000000E+00  0.14596478571E+04  0.14596478571E+04  0.50400001928E-02 0.  1.
       -1   -1    0    0    0  501  0.00000000000E+00  0.00000000000E+00 -0.75335293102E+03  0.75335293104E+03  0.50400001928E-02 0. -1.
    10030    2    1    2    0    0  0.00000000000E+00  0.00000000000E+00  0.70629492609E+03  0.22130007882E+04  0.20972648774E+04 0.  0.
        1    1    3    3  502    0  0.33187081556E+03 -0.89309765556E+01 -0.69643573413E+03  0.77151845885E+03  0.50400001928E-02 0. -1.
       -1    1    3    3    0  502 -0.33187081556E+03  0.89309765556E+01  0.14027306602E+04  0.14414823293E+04  0.50400001928E-02 0.  1.
</event>
<event>
 5   0  0.1344501E-05  0.2099968E+04  0.7818609E-02  0.8561257E-01
       -2   -1    0    0    0  501  0.00000000000E+00  0.00000000000E+00  0.63064238135E+03  0.63064238135E+03  0.25500000920E-02 0. -1.
        2   -1    0    0  501    0  0.00000000000E+00  0.00000000000E+00 -0.17481647609E+04  0.17481647609E+04  0.25500000920E-02 0.  1.
    10030    2    1    2    0    0  0.00000000000E+00  0.00000000000E+00 -0.11175223795E+04  0.23788071422E+04  0.20999683691E+04 0.  0.
        3    1    3    3  502    0 -0.60060125328E+03  0.58068291789E+03  0.16173849802E+03  0.85092530138E+03  0.10100000352E+00 0. -1.
       -3    1    3    3    0  502  0.60060125328E+03 -0.58068291789E+03 -0.12792608775E+04  0.15278818408E+04  0.10100000352E+00 0.  1.
</event>
<event>
 5   0  0.6589193E-06  0.2098072E+04  0.7818609E-02  0.8562093E-01
        1   -1    0    0  501    0  0.00000000000E+00  0.00000000000E+00  0.14232575191E+04  0.14232575191E+04  0.50400001928E-02 0.  1.
       -1   -1    0    0    0  501  0.00000000000E+00  0.00000000000E+00 -0.77320956313E+03  0.77320956314E+03  0.50400001928E-02 0. -1.
    10030    2    1    2    0    0  0.00000000000E+00  0.00000000000E+00  0.65004795601E+03  0.21964670823E+04  0.20980718049E+04 0.  0.
        3    1    3    3  502    0 -0.95418516112E+03  0.42993405533E+03  0.40025290810E+03  0.11204976637E+04  0.10100000352E+00 0. -1.
       -3    1    3    3    0  502  0.95418516112E+03 -0.42993405533E+03  0.24979504790E+03  0.10759694186E+04  0.10100000352E+00 0.  1.
</event>
<event>
 5   0  0.6917078E-06  0.2095013E+04  0.7818609E-02  0.8563443E-01
       -1   -1    0    0    0  501  0.00000000000E+00  0.00000000000E+00  0.76752353108E+03  0.76752353110E+03  0.50400001928E-02 0. -1.
        1   -1    0    0  501    0  0.00000000000E+00  0.00000000000E+00 -0.14296238746E+04  0.14296238746E+04  0.50400001928E-02 0.  1.
    10030    2    1    2    0    0  0.00000000000E+00  0.00000000000E+00 -0.66210034351E+03  0.21971474057E+04  0.20950130924E+04 0.  0.
        5    1    3    3  502    0 -0.24318337293E+03  0.48602654827E+03 -0.12701878993E+04  0.13815785711E+04  0.46999998093E+01 0.  1.
       -5    1    3    3    0  502  0.24318337293E+03 -0.48602654827E+03  0.60808755580E+03  0.81556883462E+03  0.46999998093E+01 0. -1.
</event>
<event>
 5   0  0.6589193E-06  0.2102599E+04  0.7818609E-02  0.8560099E-01
       -1   -1    0    0    0  501  0.00000000000E+00  0.00000000000E+00  0.87796942262E+03  0.87796942264E+03  0.50400001928E-02 0.  1.
        1   -1    0    0  501    0  0.00000000000E+00  0.00000000000E+00 -0.12588486447E+04  0.12588486447E+04  0.50400001928E-02 0. -1.
    10030    2    1    2    0    0  0.00000000000E+00  0.00000000000E+00 -0.38087922208E+03  0.21368180674E+04  0.21025989801E+04 0.  0.
        3    1    3    3  502    0  0.40872993591E+03  0.26933500907E+03 -0.11359733313E+04  0.12369466145E+04  0.10100000352E+00 0. -1.
       -3    1    3    3    0  502 -0.40872993591E+03 -0.26933500907E+03  0.75509410921E+03  0.89987145281E+03  0.10100000352E+00 0.  1.
</event>
<event>
 5   0  0.1390735E-05  0.2102713E+04  0.7818609E-02  0.8560049E-01
       -2   -1    0    0    0  501  0.00000000000E+00  0.00000000000E+00  0.65396837004E+03  0.65396837004E+03  0.25500000920E-02 0. -1.
        2   -1    0    0  501    0  0.00000000000E+00  0.00000000000E+00 -0.16902194788E+04  0.16902194788E+04  0.25500000920E-02 0.  1.
    10030    2    1    2    0    0  0.00000000000E+00  0.00000000000E+00 -0.10362511088E+04  0.23441878489E+04  0.21027126076E+04 0.  0.
        5    1    3    3  502    0  0.14947607141E+03  0.15726408662E+03  0.62872604642E+03  0.66512677010E+03  0.46999998093E+01 0. -1.
       -5    1    3    3    0  502 -0.14947607141E+03 -0.15726408662E+03 -0.16649771552E+04  0.16790610788E+04  0.46999998093E+01 0.  1.
</event>
<event>
 5   0  0.1395356E-05  0.2103240E+04  0.7818609E-02  0.8559817E-01
       -2   -1    0    0    0  501  0.00000000000E+00  0.00000000000E+00  0.45903457773E+03  0.45903457774E+03  0.25500000920E-02 0. -1.
        2   -1    0    0  501    0  0.00000000000E+00  0.00000000000E+00 -0.24091967932E+04  0.24091967932E+04  0.25500000920E-02 0.  1.
    10030    2    1    2    0    0  0.00000000000E+00  0.00000000000E+00 -0.19501622155E+04  0.28682313709E+04  0.21032400078E+04 0.  0.
        1    1    3    3  502    0  0.92507718725E+03  0.13124216868E+03 -0.16332260998E+04  0.18816003302E+04  0.50400001928E-02 0.  1.
       -1    1    3    3    0  502 -0.92507718725E+03 -0.13124216868E+03 -0.31693611562E+03  0.98663104077E+03  0.50400001928E-02 0. -1.
</event>
<event>
 5   0  0.1395356E-05  0.2101808E+04  0.7818609E-02  0.8560447E-01
       -2   -1    0    0    0  501  0.00000000000E+00  0.00000000000E+00  0.85113195696E+03  0.85113195696E+03  0.25500000920E-02 0.  1.
        2   -1    0    0  501    0  0.00000000000E+00  0.00000000000E+00 -0.12975651048E+04  0.12975651048E+04  0.25500000920E-02 0. -1.
    10030    2    1    2    0    0  0.00000000000E+00  0.00000000000E+00 -0.44643314782E+03  0.21486970618E+04  0.21018079141E+04 0.  0.
        1    1    3    3  502    0  0.36999882031E+03 -0.45443346283E+03 -0.11150252782E+04  0.12596389444E+04  0.50400001928E-02 0. -1.
       -1    1    3    3    0  502 -0.36999882031E+03  0.45443346283E+03  0.66859213040E+03  0.88905811735E+03  0.50400001928E-02 0.  1.
</event>
<event>
 5   0  0.6599245E-06  0.2096966E+04  0.7818609E-02  0.8562581E-01
       -1   -1    0    0    0  501  0.00000000000E+00  0.00000000000E+00  0.92907691940E+03  0.92907691941E+03  0.50400001928E-02 0.  1.
        1   -1    0    0  501    0  0.00000000000E+00  0.00000000000E+00 -0.11832358339E+04  0.11832358339E+04  0.50400001928E-02 0. -1.
    10030    2    1    2    0    0  0.00000000000E+00  0.00000000000E+00 -0.25415891445E+03  0.21123127533E+04  0.20969664790E+04 0.  0.
        2    1    3    3  502    0 -0.24583414967E+03 -0.46028120204E+03 -0.10431433393E+04  0.11663795439E+04  0.25500000920E-02 0. -1.
       -2    1    3    3    0  502  0.24583414967E+03  0.46028120204E+03  0.78898442480E+03  0.94593320942E+03  0.25500000920E-02 0.  1.
</event>
<event>
 5   0  0.1390735E-05  0.2094956E+04  0.7818609E-02  0.8563469E-01
        2   -1    0    0  501    0  0.00000000000E+00  0.00000000000E+00  0.88176157158E+03  0.88176157158E+03  0.25500000920E-02 0. -1.
       -2   -1    0    0    0  501  0.00000000000E+00  0.00000000000E+00 -0.12443388568E+04  0.12443388568E+04  0.25500000920E-02 0.  1.
    10030    2    1    2    0    0  0.00000000000E+00  0.00000000000E+00 -0.36257728519E+03  0.21261004284E+04  0.20949560243E+04 0.  0.
        5    1    3    3  502    0  0.15948011500E+03  0.96915395071E+03  0.18812105753E+03  0.10000524534E+04  0.46999998093E+01 0. -1.
       -5    1    3    3    0  502 -0.15948011500E+03 -0.96915395071E+03 -0.55069834272E+03  0.11260479750E+04  0.46999998093E+01 0.  1.
</event>
<event>
 5   0  0.1398469E-05  0.2076952E+04  0.7818609E-02  0.8571465E-01
        2   -1    0    0  501    0  0.00000000000E+00  0.00000000000E+00  0.15876035188E+04  0.15876035188E+04  0.25500000920E-02 0. -1.
       -2   -1    0    0    0  501  0.00000000000E+00  0.00000000000E+00 -0.67928331808E+03  0.67928331809E+03  0.25500000920E-02 0.  1.
    10030    2    1    2    0    0  0.00000000000E+00  0.00000000000E+00  0.90832020070E+03  0.22668868369E+04  0.20769521767E+04 0.  0.
        2    1    3    3  502    0  0.17018763153E+03 -0.80436426585E+03  0.11465782125E+04  0.14108888332E+04  0.25500000920E-02 0. -1.
       -2    1    3    3    0  502 -0.17018763153E+03  0.80436426585E+03 -0.23825801185E+03  0.85599800369E+03  0.25500000920E-02 0.  1.
</event>
<event>
 5   0  0.6917078E-06  0.2101378E+04  0.7818609E-02  0.8560637E-01
       -1   -1    0    0    0  501  0.00000000000E+00  0.00000000000E+00  0.16233468932E+04  0.16233468932E+04  0.50400001928E-02 0.  1.
        1   -1    0    0  501    0  0.00000000000E+00  0.00000000000E+00 -0.68004399112E+03  0.68004399114E+03  0.50400001928E-02 0. -1.
    10030    2    1    2    0    0  0.00000000000E+00  0.00000000000E+00  0.94330290207E+03  0.23033908843E+04  0.21013779291E+04 0.  0.
        5    1    3    3  502    0  0.80053743522E+03  0.23008185647E+03  0.11736283992E+04  0.14391746090E+04  0.46999998093E+01 0.  1.
       -5    1    3    3    0  502 -0.80053743522E+03 -0.23008185647E+03 -0.23032549714E+03  0.86421627530E+03  0.46999998093E+01 0. -1.
</event>
<event>
 5   0  0.6238363E-06  0.2098366E+04  0.7818609E-02  0.8561964E-01
       -1   -1    0    0    0  501  0.00000000000E+00  0.00000000000E+00  0.15780135179E+04  0.15780135179E+04  0.50400001928E-02 0. -1.
        1   -1    0    0  501    0  0.00000000000E+00  0.00000000000E+00 -0.69757612357E+03  0.69757612358E+03  0.50400001928E-02 0.  1.
    10030    2    1    2    0    0  0.00000000000E+00  0.00000000000E+00  0.88043739437E+03  0.22755896415E+04  0.20983656048E+04 0.  0.
        4    1    3    3  502    0 -0.27955291591E+03  0.18863333824E+03  0.15176323915E+04  0.15546517480E+04  0.12699999809E+01 0. -1.
       -4    1    3    3    0  502  0.27955291591E+03 -0.18863333824E+03 -0.63719499709E+03  0.72093789352E+03  0.12699999809E+01 0.  1.
</event>
<event>
 5   0  0.6589193E-06  0.2101839E+04  0.7818609E-02  0.8560434E-01
        1   -1    0    0  501    0  0.00000000000E+00  0.00000000000E+00  0.58842977540E+03  0.58842977543E+03  0.50400001928E-02 0. -1.
       -1   -1    0    0    0  501  0.00000000000E+00  0.00000000000E+00 -0.18769142356E+04  0.18769142356E+04  0.50400001928E-02 0.  1.
    10030    2    1    2    0    0  0.00000000000E+00  0.00000000000E+00 -0.12884844602E+04  0.24653440110E+04  0.21018394060E+04 0.  0.
        3    1    3    3  502    0 -0.96602123111E+03 -0.30465792197E+03 -0.97270635197E+03  0.14043401033E+04  0.10100000352E+00 0.  1.
       -3    1    3    3    0  502  0.96602123111E+03  0.30465792197E+03 -0.31577810822E+03  0.10610039077E+04  0.10100000352E+00 0. -1.
</event>
<event>
 5   0  0.6589193E-06  0.2097540E+04  0.7818609E-02  0.8562328E-01
       -1   -1    0    0    0  501  0.00000000000E+00  0.00000000000E+00  0.36909126254E+03  0.36909126257E+03  0.50400001928E-02 0.  1.
        1   -1    0    0  501    0  0.00000000000E+00  0.00000000000E+00 -0.29800733403E+04  0.29800733404E+04  0.50400001928E-02 0. -1.
    10030    2    1    2    0    0  0.00000000000E+00  0.00000000000E+00 -0.26109820778E+04  0.33491646029E+04  0.20975404947E+04 0.  0.
        3    1    3    3  502    0 -0.79425964942E+03  0.34776658351E+03 -0.22475894280E+04  0.24090347101E+04  0.10100000352E+00 0.  1.
       -3    1    3    3    0  502  0.79425964942E+03 -0.34776658351E+03 -0.36339264982E+03  0.94012989286E+03  0.10100000352E+00 0. -1.
</event>
<event>
 5   0  0.1398469E-05  0.2099364E+04  0.7818609E-02  0.8561524E-01
        2   -1    0    0  501    0  0.00000000000E+00  0.00000000000E+00  0.15722513214E+04  0.15722513214E+04  0.25500000920E-02 0.  1.
       -2   -1    0    0    0  501  0.00000000000E+00  0.00000000000E+00 -0.70079898725E+03  0.70079898725E+03  0.25500000920E-02 0. -1.
    10030    2    1    2    0    0  0.00000000000E+00  0.00000000000E+00  0.87145233415E+03  0.22730503087E+04  0.20993638405E+04 0.  0.
        2    1    3    3  502    0  0.74266387647E+03  0.34609667006E+03  0.11461339472E+04  0.14088845103E+04  0.25500000920E-02 0.  1.
       -2    1    3    3    0  502 -0.74266387647E+03 -0.34609667006E+03 -0.27468161306E+03  0.86416579833E+03  0.25500000920E-02 0. -1.
</event>
<event>
 5   0  0.1398469E-05  0.2099224E+04  0.7818609E-02  0.8561585E-01
        2   -1    0    0  501    0  0.00000000000E+00  0.00000000000E+00  0.27811633603E+04  0.27811633603E+04  0.25500000920E-02 0. -1.
       -2   -1    0    0    0  501  0.00000000000E+00  0.00000000000E+00 -0.39612388854E+03  0.39612388855E+03  0.25500000920E-02 0.  1.
    10030    2    1    2    0    0  0.00000000000E+00  0.00000000000E+00  0.23850394718E+04  0.31772872489E+04  0.20992238994E+04 0.  0.
        2    1    3    3  502    0 -0.79182168618E+03 -0.41252998305E+03  0.35728694538E+03  0.96167381734E+03  0.25500000920E-02 0. -1.
       -2    1    3    3    0  502  0.79182168618E+03  0.41252998305E+03  0.20277525264E+04  0.22156134315E+04  0.25500000920E-02 0.  1.
</event>
<event>
 5   0  0.6238363E-06  0.2101942E+04  0.7818609E-02  0.8560389E-01
        1   -1    0    0  501    0  0.00000000000E+00  0.00000000000E+00  0.11873867903E+04  0.11873867903E+04  0.50400001928E-02 0. -1.
       -1   -1    0    0    0  501  0.00000000000E+00  0.00000000000E+00 -0.93022732152E+03  0.93022732153E+03  0.50400001928E-02 0.  1.
    10030    2    1    2    0    0  0.00000000000E+00  0.00000000000E+00  0.25715946878E+03  0.21176141118E+04  0.21019416106E+04 0.  0.
        4    1    3    3  502    0 -0.58911463339E+03 -0.86993594213E+03  0.10205040735E+03  0.10555853794E+04  0.12699999809E+01 0.  1.
       -4    1    3    3    0  502  0.58911463339E+03  0.86993594213E+03  0.15510906144E+03  0.10620287324E+04  0.12699999809E+01 0. -1.
</event>
<event>
 5   0  0.6283269E-06  0.2099610E+04  0.7818609E-02  0.8561415E-01
        1   -1    0    0  501    0  0.00000000000E+00  0.00000000000E+00  0.13420102832E+04  0.13420102832E+04  0.50400001928E-02 0. -1.
       -1   -1    0    0    0  501  0.00000000000E+00  0.00000000000E+00 -0.82122378515E+03  0.82122378517E+03  0.50400001928E-02 0.  1.
    10030    2    1    2    0    0  0.00000000000E+00  0.00000000000E+00  0.52078649804E+03  0.21632340684E+04  0.20996102157E+04 0.  0.
        1    1    3    3  502    0  0.29650340005E+03  0.81469901373E+03  0.87031331461E+03  0.12284518773E+04  0.50400001928E-02 0. -1.
       -1    1    3    3    0  502 -0.29650340005E+03 -0.81469901373E+03 -0.34952681657E+03  0.93478219107E+03  0.50400001928E-02 0.  1.
</event>
<event>
 5   0  0.6283269E-06  0.2105062E+04  0.7818609E-02  0.8559017E-01
       -1   -1    0    0    0  501  0.00000000000E+00  0.00000000000E+00  0.71814829407E+03  0.71814829409E+03  0.50400001928E-02 0. -1.
        1   -1    0    0  501    0  0.00000000000E+00  0.00000000000E+00 -0.15426076380E+04  0.15426076380E+04  0.50400001928E-02 0.  1.
    10030    2    1    2    0    0  0.00000000000E+00  0.00000000000E+00 -0.82445934393E+03  0.22607559321E+04  0.21050615608E+04 0.  0.
        1    1    3    3  502    0  0.97461920712E+03  0.35146301805E+03 -0.21300411714E+03  0.10577237853E+04  0.50400001928E-02 0.  1.
       -1    1    3    3    0  502 -0.97461920712E+03 -0.35146301805E+03 -0.61145522678E+03  0.12030321468E+04  0.50400001928E-02 0. -1.
</event>
<event>
 5   0  0.5009125E-06  0.2076176E+04  0.7818609E-02  0.8571811E-01
        3   -1    0    0  501    0  0.00000000000E+00  0.00000000000E+00  0.37712452718E+03  0.37712454070E+03  0.10100000352E+00 0.  1.
       -3   -1    0    0    0  501  0.00000000000E+00  0.00000000000E+00 -0.28574814944E+04  0.28574814962E+04  0.10100000352E+00 0. -1.
    10030    2    1    2    0    0  0.00000000000E+00  0.00000000000E+00 -0.24803569672E+04  0.32346060369E+04  0.20761756980E+04 0.  0.
        5    1    3    3  502    0  0.68504898545E+03  0.28503400589E+03 -0.23712512090E+04  0.24846309350E+04  0.46999998093E+01 0. -1.
       -5    1    3    3    0  502 -0.68504898545E+03 -0.28503400589E+03 -0.10910575822E+03  0.74997510188E+03  0.46999998093E+01 0.  1.
</event>
<event>
 5   0  0.6917078E-06  0.2099223E+04  0.7818609E-02  0.8561586E-01
        1   -1    0    0  501    0  0.00000000000E+00  0.00000000000E+00  0.81861736456E+03  0.81861736458E+03  0.50400001928E-02 0. -1.
       -1   -1    0    0    0  501  0.00000000000E+00  0.00000000000E+00 -0.13457863395E+04  0.13457863395E+04  0.50400001928E-02 0.  1.
    10030    2    1    2    0    0  0.00000000000E+00  0.00000000000E+00 -0.52716897496E+03  0.21644037041E+04  0.20992227767E+04 0.  0.
        5    1    3    3  502    0 -0.53661416307E+03  0.87190005956E+03 -0.50206148392E+03  0.11402860595E+04  0.46999998093E+01 0.  1.
       -5    1    3    3    0  502  0.53661416307E+03 -0.87190005956E+03 -0.25107491038E+02  0.10241176446E+04  0.46999998093E+01 0. -1.
</event>
<event>
 5   0  0.1395356E-05  0.2098650E+04  0.7818609E-02  0.8561838E-01
        2   -1    0    0  501    0  0.00000000000E+00  0.00000000000E+00  0.22480136493E+04  0.22480136493E+04  0.25500000920E-02 0. -1.
       -2   -1    0    0    0  501  0.00000000000E+00  0.00000000000E+00 -0.48980278078E+03  0.48980278078E+03  0.25500000920E-02 0.  1.
    10030    2    1    2    0    0  0.00000000000E+00  0.00000000000E+00  0.17582108686E+04  0.27378164301E+04  0.20986503631E+04 0.  0.
        1    1    3    3  502    0  0.37975819545E+03  0.60681760511E+03  0.18800013446E+04  0.20116781424E+04  0.50400001928E-02 0. -1.
       -1    1    3    3    0  502 -0.37975819545E+03 -0.60681760511E+03 -0.12179047600E+03  0.72613828776E+03  0.50400001928E-02 0.  1.
</event>
<event>
 5   0  0.1344501E-05  0.2098277E+04  0.7818609E-02  0.8562003E-01
        2   -1    0    0  501    0  0.00000000000E+00  0.00000000000E+00  0.16552398563E+04  0.16552398563E+04  0.25500000920E-02 0.  1.
       -2   -1    0    0    0  501  0.00000000000E+00  0.00000000000E+00 -0.66497406470E+03  0.66497406471E+03  0.25500000920E-02 0. -1.
    10030    2    1    2    0    0  0.00000000000E+00  0.00000000000E+00  0.99026579162E+03  0.23202139210E+04  0.20982769839E+04 0.  0.
        3    1    3    3  502    0 -0.79006539578E+03  0.65277651278E+03  0.24695919568E+03  0.10541865868E+04  0.10100000352E+00 0. -1.
       -3    1    3    3    0  502  0.79006539578E+03 -0.65277651278E+03  0.74330659594E+03  0.12660273342E+04  0.10100000352E+00 0.  1.
</event>
<event>
 5   0  0.1395356E-05  0.2098567E+04  0.7818609E-02  0.8561875E-01
       -2   -1    0    0    0  501  0.00000000000E+00  0.00000000000E+00  0.13043802265E+04  0.13043802265E+04  0.25500000920E-02 0.  1.
        2   -1    0    0  501    0  0.00000000000E+00  0.00000000000E+00 -0.84407558466E+03  0.84407558466E+03  0.25500000920E-02 0. -1.
    10030    2    1    2    0    0  0.00000000000E+00  0.00000000000E+00  0.46030464187E+03  0.21484558112E+04  0.20985666559E+04 0.  0.
        1    1    3    3  502    0  0.10124800343E+04 -0.14933442569E+03  0.46712626778E+03  0.11249993514E+04  0.50400001928E-02 0. -1.
       -1    1    3    3    0  502 -0.10124800343E+04  0.14933442569E+03 -0.68216259110E+01  0.10234564598E+04  0.50400001928E-02 0.  1.
</event>
<event>
 5   0  0.1344501E-05  0.2119234E+04  0.7818609E-02  0.8552818E-01
       -2   -1    0    0    0  501  0.00000000000E+00  0.00000000000E+00  0.73518067577E+03  0.73518067578E+03  0.25500000920E-02 0. -1.
        2   -1    0    0  501    0  0.00000000000E+00  0.00000000000E+00 -0.15272268855E+04  0.15272268855E+04  0.25500000920E-02 0.  1.
    10030    2    1    2    0    0  0.00000000000E+00  0.00000000000E+00 -0.79204620977E+03  0.22624075613E+04  0.21192335348E+04 0.  0.
        3    1    3    3  502    0 -0.69326219665E+03 -0.77157900646E+03 -0.62707275931E+03  0.12120919487E+04  0.10100000352E+00 0.  1.
       -3    1    3    3    0  502  0.69326219665E+03  0.77157900646E+03 -0.16497345046E+03  0.10503156126E+04  0.10100000352E+00 0. -1.
</event>
<event>
 5   0  0.1390735E-05  0.2096958E+04  0.7818609E-02  0.8562585E-01
       -2   -1    0    0    0  501  0.00000000000E+00  0.00000000000E+00  0.10036136760E+04  0.10036136760E+04  0.25500000920E-02 0. -1.
        2   -1    0    0  501    0  0.00000000000E+00  0.00000000000E+00 -0.10953498849E+04  0.10953498849E+04  0.25500000920E-02 0.  1.
    10030    2    1    2    0    0  0.00000000000E+00  0.00000000000E+00 -0.91736208922E+02  0.20989635610E+04  0.20969579152E+04 0.  0.
        5    1    3    3  502    0  0.15115901847E+03 -0.61871645924E+03 -0.87950736043E+03  0.10859163839E+04  0.46999998093E+01 0.  1.
       -5    1    3    3    0  502 -0.15115901847E+03  0.61871645924E+03  0.78777115151E+03  0.10130471771E+04  0.46999998093E+01 0. -1.
</event>
<event>
 5   0  0.1390735E-05  0.2098080E+04  0.7818609E-02  0.8562090E-01
       -2   -1    0    0    0  501  0.00000000000E+00  0.00000000000E+00  0.65115125219E+03  0.65115125219E+03  0.25500000920E-02 0. -1.
        2   -1    0    0  501    0  0.00000000000E+00  0.00000000000E+00 -0.16900606423E+04  0.16900606423E+04  0.25500000920E-02 0.  1.
    10030    2    1    2    0    0  0.00000000000E+00  0.00000000000E+00 -0.10389093901E+04  0.23412118945E+04  0.20980801734E+04 0.  0.
        5    1    3    3  502    0  0.81343031351E+03 -0.56332908990E+03 -0.13056592452E+03  0.99803711810E+03  0.46999998093E+01 0. -1.
       -5    1    3    3    0  502 -0.81343031351E+03  0.56332908990E+03 -0.90834346559E+03  0.13431747764E+04  0.46999998093E+01 0.  1.
</event>
<event>
 5   0  0.6283269E-06  0.2098954E+04  0.7818609E-02  0.8561704E-01
       -1   -1    0    0    0  501  0.00000000000E+00  0.00000000000E+00  0.74551600981E+03  0.74551600983E+03  0.50400001928E-02 0.  1.
        1   -1    0    0  501    0  0.00000000000E+00  0.00000000000E+00 -0.14773684285E+04  0.14773684286E+04  0.50400001928E-02 0. -1.
    10030    2    1    2    0    0  0.00000000000E+00  0.00000000000E+00 -0.73185241873E+03  0.22228844384E+04  0.20989538498E+04 0.  0.
        1    1    3    3  502    0 -0.49438150499E+03  0.46430812818E+03 -0.12140919840E+04  0.13906884827E+04  0.50400001928E-02 0. -1.
       -1    1    3    3    0  502  0.49438150499E+03 -0.46430812818E+03  0.48223956523E+03  0.83219595569E+03  0.50400001928E-02 0.  1.
</event>
<event>
 5   0  0.1395356E-05  0.2103286E+04  0.7818609E-02  0.8559797E-01
       -2   -1    0    0    0  501  0.00000000000E+00  0.00000000000E+00  0.70776455484E+03  0.70776455485E+03  0.25500000920E-02 0. -1.
        2   -1    0    0  501    0  0.00000000000E+00  0.00000000000E+00 -0.15625996237E+04  0.15625996237E+04  0.25500000920E-02 0.  1.
    10030    2    1    2    0    0  0.00000000000E+00  0.00000000000E+00 -0.85483506884E+03  0.22703641785E+04  0.21032856459E+04 0.  0.
        1    1    3    3  502    0 -0.17874474622E+03 -0.42142145571E+03  0.59458003573E+03  0.75038066776E+03  0.50400001928E-02 0. -1.
       -1    1    3    3    0  502  0.17874474622E+03  0.42142145571E+03 -0.14494151046E+04  0.15199835108E+04  0.50400001928E-02 0.  1.
</event>
<event>
 5   0  0.6589193E-06  0.2103339E+04  0.7818609E-02  0.8559774E-01
       -1   -1    0    0    0  501  0.00000000000E+00  0.00000000000E+00  0.65928502066E+03  0.65928502068E+03  0.50400001928E-02 0.  1.
        1   -1    0    0  501    0  0.00000000000E+00  0.00000000000E+00 -0.16775879891E+04  0.16775879891E+04  0.50400001928E-02 0. -1.
    10030    2    1    2    0    0  0.00000000000E+00  0.00000000000E+00 -0.10183029684E+04  0.23368730098E+04  0.21033389000E+04 0.  0.
        3    1    3    3  502    0  0.86261610976E+03 -0.50229351419E+03 -0.14132951657E+03  0.10081564212E+04  0.10100000352E+00 0. -1.
       -3    1    3    3    0  502 -0.86261610976E+03  0.50229351419E+03 -0.87697345184E+03  0.13287165885E+04  0.10100000352E+00 0.  1.
</event>
<event>
 5   0  0.6599245E-06  0.2131296E+04  0.7818609E-02  0.8547581E-01
        1   -1    0    0  501    0  0.00000000000E+00  0.00000000000E+00  0.11282051759E+04  0.11282051759E+04  0.50400001928E-02 0.  1.
       -1   -1    0    0    0  501  0.00000000000E+00  0.00000000000E+00 -0.10065593914E+04  0.10065593914E+04  0.50400001928E-02 0. -1.
    10030    2    1    2    0    0  0.00000000000E+00  0.00000000000E+00  0.12164578456E+03  0.21347645673E+04  0.21312958643E+04 0.  0.
        2    1    3    3  502    0  0.29234001627E+03 -0.99005850638E+03 -0.20404458944E+03  0.10522892785E+04  0.25500000920E-02 0.  1.
       -2    1    3    3    0  502 -0.29234001627E+03  0.99005850638E+03  0.32569037401E+03  0.10824752888E+04  0.25500000920E-02 0. -1.
</event>
<event>
 5   0  0.6238363E-06  0.2094851E+04  0.7818609E-02  0.8563515E-01
       -1   -1    0    0    0  501  0.00000000000E+00  0.00000000000E+00  0.35884897731E+03  0.35884897734E+03  0.50400001928E-02 0.  1.
        1   -1    0    0  501    0  0.00000000000E+00  0.00000000000E+00 -0.30572748156E+04  0.30572748157E+04  0.50400001928E-02 0. -1.
    10030    2    1    2    0    0  0.00000000000E+00  0.00000000000E+00 -0.26984258383E+04  0.34161237930E+04  0.20948507737E+04 0.  0.
        4    1    3    3  502    0  0.32960523894E+03  0.74206685215E+03 -0.27022605863E+03  0.85576080902E+03  0.12699999809E+01 0.  1.
       -4    1    3    3    0  502 -0.32960523894E+03 -0.74206685215E+03 -0.24281997797E+04  0.25603629840E+04  0.12699999809E+01 0. -1.
</event>
<event>
 5   0  0.1441136E-05  0.2102752E+04  0.7818609E-02  0.8560032E-01
       -2   -1    0    0    0  501  0.00000000000E+00  0.00000000000E+00  0.58375213503E+03  0.58375213504E+03  0.25500000920E-02 0.  1.
        2   -1    0    0  501    0  0.00000000000E+00  0.00000000000E+00 -0.18935978603E+04  0.18935978603E+04  0.25500000920E-02 0. -1.
    10030    2    1    2    0    0  0.00000000000E+00  0.00000000000E+00 -0.13098457253E+04  0.24773499954E+04  0.21027522858E+04 0.  0.
        4    1    3    3  502    0  0.62788056326E+03  0.55402259401E+02 -0.16463082041E+04  0.17628487535E+04  0.12699999809E+01 0. -1.
       -4    1    3    3    0  502 -0.62788056326E+03 -0.55402259401E+02  0.33646247879E+03  0.71450124184E+03  0.12699999809E+01 0.  1.
</event>
<event>
 5   0  0.6917078E-06  0.2097610E+04  0.7818609E-02  0.8562297E-01
       -1   -1    0    0    0  501  0.00000000000E+00  0.00000000000E+00  0.16146964648E+04  0.16146964649E+04  0.50400001928E-02 0. -1.
        1   -1    0    0  501    0  0.00000000000E+00  0.00000000000E+00 -0.68123785308E+03  0.68123785310E+03  0.50400001928E-02 0.  1.
    10030    2    1    2    0    0  0.00000000000E+00  0.00000000000E+00  0.93345861176E+03  0.22959343180E+04  0.20976104053E+04 0.  0.
        5    1    3    3  502    0 -0.57695290131E+03  0.54445718743E+03  0.12176415597E+04  0.14532657490E+04  0.46999998093E+01 0. -1.
       -5    1    3    3    0  502  0.57695290131E+03 -0.54445718743E+03 -0.28418294792E+03  0.84266856899E+03  0.46999998093E+01 0.  1.
</event>
<event>
 5   0  0.6589193E-06  0.2076067E+04  0.7818609E-02  0.8571860E-01
       -1   -1    0    0    0  501  0.00000000000E+00  0.00000000000E+00  0.51311097828E+03  0.51311097831E+03  0.50400001928E-02 0.  1.
        1   -1    0    0  501    0  0.00000000000E+00  0.00000000000E+00 -0.20999615333E+04  0.20999615333E+04  0.50400001928E-02 0. -1.
    10030    2    1    2    0    0  0.00000000000E+00  0.00000000000E+00 -0.15868505551E+04  0.26130725117E+04  0.20760667781E+04 0.  0.
        3    1    3    3  502    0 -0.76439796529E+03  0.69985906870E+03 -0.71996472081E+03  0.12619255821E+04  0.10100000352E+00 0.  1.
       -3    1    3    3    0  502  0.76439796529E+03 -0.69985906870E+03 -0.86688583425E+03  0.13511469295E+04  0.10100000352E+00 0. -1.
</event>
<event>
 5   0  0.6917078E-06  0.2101965E+04  0.7818609E-02  0.8560378E-01
       -1   -1    0    0    0  501  0.00000000000E+00  0.00000000000E+00  0.22439515222E+04  0.22439515222E+04  0.50400001928E-02 0.  1.
        1   -1    0    0  501    0  0.00000000000E+00  0.00000000000E+00 -0.49224072840E+03  0.49224072843E+03  0.50400001928E-02 0. -1.
    10030    2    1    2    0    0  0.00000000000E+00  0.00000000000E+00  0.17517107938E+04  0.27361922507E+04  0.21019651109E+04 0.  0.
        5    1    3    3  502    0 -0.57380725641E+03  0.86203040641E+03  0.64230065178E+03  0.12185743335E+04  0.46999998093E+01 0. -1.
       -5    1    3    3    0  502  0.57380725641E+03 -0.86203040641E+03  0.11094101420E+04  0.15176179171E+04  0.46999998093E+01 0.  1.
</event>
<event>
 5   0  0.1390735E-05  0.2100595E+04  0.7818609E-02  0.8560981E-01
       -2   -1    0    0    0  501  0.00000000000E+00  0.00000000000E+00  0.54849544599E+03  0.54849544600E+03  0.25500000920E-02 0.  1.
        2   -1    0    0  501    0  0.00000000000E+00  0.00000000000E+00 -0.20111838970E+04  0.20111838970E+04  0.25500000920E-02 0. -1.
    10030    2    1    2    0    0  0.00000000000E+00  0.00000000000E+00 -0.14626884510E+04  0.25596793430E+04  0.21005953523E+04 0.  0.
        5    1    3    3  502    0  0.94219526863E+03 -0.44751187352E+03 -0.58158495534E+03  0.11942620950E+04  0.46999998093E+01 0.  1.
       -5    1    3    3    0  502 -0.94219526863E+03  0.44751187352E+03 -0.88110349566E+03  0.13654172480E+04  0.46999998093E+01 0. -1.
</event>
<event>
 5   0  0.1395356E-05  0.2102275E+04  0.7818609E-02  0.8560242E-01
       -2   -1    0    0    0  501  0.00000000000E+00  0.00000000000E+00  0.70009757562E+03  0.70009757563E+03  0.25500000920E-02 0.  1.
        2   -1    0    0  501    0  0.00000000000E+00  0.00000000000E+00 -0.15781947179E+04  0.15781947179E+04  0.25500000920E-02 0. -1.
    10030    2    1    2    0    0  0.00000000000E+00  0.00000000000E+00 -0.87809714223E+03  0.22782922935E+04  0.21022752397E+04 0.  0.
        1    1    3    3  502    0  0.58241414670E+03  0.66177732909E+03 -0.10594619596E+04  0.13782652558E+04  0.50400001928E-02 0. -1.
       -1    1    3    3    0  502 -0.58241414670E+03 -0.66177732909E+03  0.18136481732E+03  0.90002703769E+03  0.50400001928E-02 0.  1.
</event>
<event>
 5   0  0.6599245E-06  0.2099550E+04  0.7818609E-02  0.8561441E-01
        1   -1    0    0  501    0  0.00000000000E+00  0.00000000000E+00  0.12049830801E+04  0.12049830801E+04  0.50400001928E-02 0.  1.
       -1   -1    0    0    0  501  0.00000000000E+00  0.00000000000E+00 -0.91455885827E+03  0.91455885828E+03  0.50400001928E-02 0. -1.
    10030    2    1    2    0    0  0.00000000000E+00  0.00000000000E+00  0.29042422180E+03  0.21195419384E+04  0.20995503804E+04 0.  0.
        2    1    3    3  502    0 -0.11867922778E+03 -0.49400179608E+03  0.10726025216E+04  0.11868440096E+04  0.25500000920E-02 0.  1.
       -2    1    3    3    0  502  0.11867922778E+03  0.49400179608E+03 -0.78217829983E+03  0.93269792879E+03  0.25500000920E-02 0. -1.
</event>
<event>
 5   0  0.1390735E-05  0.2102490E+04  0.7818609E-02  0.8560147E-01
        2   -1    0    0  501    0  0.00000000000E+00  0.00000000000E+00  0.19264606284E+04  0.19264606284E+04  0.25500000920E-02 0. -1.
       -2   -1    0    0    0  501  0.00000000000E+00  0.00000000000E+00 -0.57365092714E+03  0.57365092715E+03  0.25500000920E-02 0.  1.
    10030    2    1    2    0    0  0.00000000000E+00  0.00000000000E+00  0.13528097012E+04  0.25001115555E+04  0.21024898816E+04 0.  0.
        5    1    3    3  502    0  0.81682282365E+03  0.51033126278E+03  0.17548158926E+03  0.97900633357E+03  0.46999998093E+01 0.  1.
       -5    1    3    3    0  502 -0.81682282365E+03 -0.51033126278E+03  0.11773281120E+04  0.15211052219E+04  0.46999998093E+01 0. -1.
</event>
<event>
 5   0  0.1395356E-05  0.2105057E+04  0.7818609E-02  0.8559019E-01
       -2   -1    0    0    0  501  0.00000000000E+00  0.00000000000E+00  0.63857389120E+03  0.63857389121E+03  0.25500000920E-02 0. -1.
        2   -1    0    0  501    0  0.00000000000E+00  0.00000000000E+00 -0.17348277789E+04  0.17348277789E+04  0.25500000920E-02 0.  1.
    10030    2    1    2    0    0  0.00000000000E+00  0.00000000000E+00 -0.10962538877E+04  0.23734016701E+04  0.21050565079E+04 0.  0.
        1    1    3    3  502    0 -0.40594167136E+01 -0.98280669431E+03 -0.12342547879E+03  0.99053486868E+03  0.50400001928E-02 0. -1.
       -1    1    3    3    0  502  0.40594167136E+01  0.98280669431E+03 -0.97282840886E+03  0.13828668014E+04  0.50400001928E-02 0.  1.
</event>
<event>
 5   0  0.5009125E-06  0.2093297E+04  0.7818609E-02  0.8564202E-01
        3   -1    0    0  501    0  0.00000000000E+00  0.00000000000E+00  0.10945938288E+04  0.10945938335E+04  0.10100000352E+00 0.  1.
       -3   -1    0    0    0  501  0.00000000000E+00  0.00000000000E+00 -0.10008030228E+04  0.10008030279E+04  0.10100000352E+00 0. -1.
    10030    2    1    2    0    0  0.00000000000E+00  0.00000000000E+00  0.93790806055E+02  0.20953968613E+04  0.20932967518E+04 0.  0.
        1    1    3    3  502    0  0.68586636433E+03  0.37358543711E+03  0.74436849296E+03  0.10789176066E+04  0.50400001928E-02 0.  1.
       -1    1    3    3    0  502 -0.68586636433E+03 -0.37358543711E+03 -0.65057768691E+03  0.10164792547E+04  0.50400001928E-02 0. -1.
</event>
<event>
 5   0  0.1395356E-05  0.2100359E+04  0.7818609E-02  0.8561085E-01
        2   -1    0    0  501    0  0.00000000000E+00  0.00000000000E+00  0.12728096024E+04  0.12728096024E+04  0.25500000920E-02 0. -1.
       -2   -1    0    0    0  501  0.00000000000E+00  0.00000000000E+00 -0.86649031841E+03  0.86649031841E+03  0.25500000920E-02 0.  1.
    10030    2    1    2    0    0  0.00000000000E+00  0.00000000000E+00  0.40631928402E+03  0.21392999208E+04  0.21003592052E+04 0.  0.
        1    1    3    3  502    0  0.81154242356E+03  0.54235966211E+02 -0.47348720990E+03  0.94113377542E+03  0.50400001928E-02 0.  1.
       -1    1    3    3    0  502 -0.81154242356E+03 -0.54235966211E+02  0.87980649392E+03  0.11981661454E+04  0.50400001928E-02 0. -1.
</event>
<event>
 5   0  0.1344501E-05  0.2103588E+04  0.7818609E-02  0.8559665E-01
        2   -1    0    0  501    0  0.00000000000E+00  0.00000000000E+00  0.96475738781E+03  0.96475738781E+03  0.25500000920E-02 0. -1.
       -2   -1    0    0    0  501  0.00000000000E+00  0.00000000000E+00 -0.11466826244E+04  0.11466826244E+04  0.25500000920E-02 0.  1.
    10030    2    1    2    0    0  0.00000000000E+00  0.00000000000E+00 -0.18192523660E+03  0.21114400122E+04  0.21035879191E+04 0.  0.
        3    1    3    3  502    0 -0.38958846374E+03 -0.95442426688E+03 -0.30046563573E+03  0.10737711398E+04  0.10100000352E+00 0. -1.
       -3    1    3    3    0  502  0.38958846374E+03  0.95442426688E+03  0.11854039913E+03  0.10376688724E+04  0.10100000352E+00 0.  1.
</event>
<event>
 5   0  0.6238363E-06  0.2105672E+04  0.7818609E-02  0.8558749E-01
       -1   -1    0    0    0  501  0.00000000000E+00  0.00000000000E+00  0.70900033300E+03  0.70900033302E+03  0.50400001928E-02 0.  1.
        1   -1    0    0  501    0  0.00000000000E+00  0.00000000000E+00 -0.15634171754E+04  0.15634171754E+04  0.50400001928E-02 0. -1.
    10030    2    1    2    0    0  0.00000000000E+00  0.00000000000E+00 -0.85441684240E+03  0.22724175084E+04  0.21056716724E+04 0.  0.
        4    1    3    3  502    0 -0.95973331609E+03 -0.42923146886E+03 -0.48762366041E+03  0.11589245614E+04  0.12699999809E+01 0.  1.
       -4    1    3    3    0  502  0.95973331609E+03  0.42923146886E+03 -0.36679318200E+03  0.11134929471E+04  0.12699999809E+01 0. -1.
</event>
<event>
 5   0  0.6238363E-06  0.2099155E+04  0.7818609E-02  0.8561616E-01
       -1   -1    0    0    0  501  0.00000000000E+00  0.00000000000E+00  0.62930020060E+03  0.62930020062E+03  0.50400001928E-02 0.  1.
        1   -1    0    0  501    0  0.00000000000E+00  0.00000000000E+00 -0.17505365182E+04  0.17505365182E+04  0.50400001928E-02 0. -1.
    10030    2    1    2    0    0  0.00000000000E+00  0.00000000000E+00 -0.11212363176E+04  0.23798367188E+04  0.20991550510E+04 0.  0.
        4    1    3    3  502    0 -0.85670151464E+03 -0.11066710738E+03 -0.12365106977E+04  0.15083583832E+04  0.12699999809E+01 0. -1.
       -4    1    3    3    0  502  0.85670151464E+03  0.11066710738E+03  0.11527438007E+03  0.87147833562E+03  0.12699999809E+01 0.  1.
</event>
<event>
 5   0  0.6283269E-06  0.2101064E+04  0.7818609E-02  0.8560775E-01
        1   -1    0    0  501    0  0.00000000000E+00  0.00000000000E+00  0.90033832695E+03  0.90033832696E+03  0.50400001928E-02 0. -1.
       -1   -1    0    0    0  501  0.00000000000E+00  0.00000000000E+00 -0.12257804023E+04  0.12257804024E+04  0.50400001928E-02 0.  1.
    10030    2    1    2    0    0  0.00000000000E+00  0.00000000000E+00 -0.32544207540E+03  0.21261187293E+04  0.21010636132E+04 0.  0.
        1    1    3    3  502    0 -0.57305754397E+03 -0.41057199585E+03  0.62544624316E+03  0.94241568088E+03  0.50400001928E-02 0. -1.
       -1    1    3    3    0  502  0.57305754397E+03  0.41057199585E+03 -0.95088831856E+03  0.11837030484E+04  0.50400001928E-02 0.  1.
</event>
<event>
 5   0  0.1390735E-05  0.2098599E+04  0.7818609E-02  0.8561861E-01
       -2   -1    0    0    0  501  0.00000000000E+00  0.00000000000E+00  0.68046319985E+03  0.68046319985E+03  0.25500000920E-02 0.  1.
        2   -1    0    0  501    0  0.00000000000E+00  0.00000000000E+00 -0.16180594997E+04  0.16180594997E+04  0.25500000920E-02 0. -1.
    10030    2    1    2    0    0  0.00000000000E+00  0.00000000000E+00 -0.93759629982E+03  0.22985226995E+04  0.20985994803E+04 0.  0.
        5    1    3    3  502    0 -0.70769302235E+03 -0.61609972698E+03 -0.98322255517E+03  0.13591015306E+04  0.46999998093E+01 0. -1.
       -5    1    3    3    0  502  0.70769302235E+03  0.61609972698E+03  0.45626255347E+02  0.93942116893E+03  0.46999998093E+01 0.  1.
</event>
<event>
 5   0  0.6283269E-06  0.2092280E+04  0.7818609E-02  0.8564652E-01
        1   -1    0    0  501    0  0.00000000000E+00  0.00000000000E+00  0.15900079060E+04  0.15900079060E+04  0.50400001928E-02 0. -1.
       -1   -1    0    0    0  501  0.00000000000E+00  0.00000000000E+00 -0.68830400564E+03  0.68830400566E+03  0.50400001928E-02 0.  1.
    10030    2    1    2    0    0  0.00000000000E+00  0.00000000000E+00  0.90170390032E+03  0.22783119116E+04  0.20922799150E+04 0.  0.
        1    1    3    3  502    0 -0.29562403693E+03  0.28687595659E+03  0.14979754721E+04  0.15535835673E+04  0.50400001928E-02 0. -1.
       -1    1    3    3    0  502  0.29562403693E+03 -0.28687595659E+03 -0.59627157177E+03  0.72472834429E+03  0.50400001928E-02 0.  1.
</event>
<event>
 5   0  0.5009125E-06  0.2096900E+04  0.7818609E-02  0.8562610E-01
       -3   -1    0    0    0  501  0.00000000000E+00  0.00000000000E+00  0.68481924489E+03  0.68481925234E+03  0.10100000352E+00 0.  1.
        3   -1    0    0  501    0  0.00000000000E+00  0.00000000000E+00 -0.16051643559E+04  0.16051643591E+04  0.10100000352E+00 0. -1.
    10030    2    1    2    0    0  0.00000000000E+00  0.00000000000E+00 -0.92034511104E+03  0.22899836114E+04  0.20969000494E+04 0.  0.
        5    1    3    3  502    0  0.16893738591E+03  0.56845918907E+03  0.48404434118E+03  0.76551074730E+03  0.46999998093E+01 0.  1.
       -5    1    3    3    0  502 -0.16893738591E+03 -0.56845918907E+03 -0.14043894522E+04  0.15244728641E+04  0.46999998093E+01 0. -1.
</event>
<event>
 5   0  0.1390735E-05  0.2097967E+04  0.7818609E-02  0.8562139E-01
       -2   -1    0    0    0  501  0.00000000000E+00  0.00000000000E+00  0.67757190544E+03  0.67757190545E+03  0.25500000920E-02 0.  1.
        2   -1    0    0  501    0  0.00000000000E+00  0.00000000000E+00 -0.16239847913E+04  0.16239847913E+04  0.25500000920E-02 0. -1.
    10030    2    1    2    0    0  0.00000000000E+00  0.00000000000E+00 -0.94641288588E+03  0.23015566968E+04  0.20979670822E+04 0.  0.
        5    1    3    3  502    0  0.10140487066E+04  0.68401358179E+02 -0.18845952285E+03  0.10336888347E+04  0.46999998093E+01 0. -1.
       -5    1    3    3    0  502 -0.10140487066E+04 -0.68401358179E+02 -0.75795336303E+03  0.12678678621E+04  0.46999998093E+01 0.  1.
</event>
<event>
 5   0  0.1395356E-05  0.2050670E+04  0.7818609E-02  0.8583290E-01
        2   -1    0    0  501    0  0.00000000000E+00  0.00000000000E+00  0.17353853038E+04  0.17353853038E+04  0.25500000920E-02 0. -1.
       -2   -1    0    0    0  501  0.00000000000E+00  0.00000000000E+00 -0.60580889149E+03  0.60580889149E+03  0.25500000920E-02 0.  1.
    10030    2    1    2    0    0  0.00000000000E+00  0.00000000000E+00  0.11295764124E+04  0.23411941953E+04  0.20506699854E+04 0.  0.
        1    1    3    3  502    0  0.14903698754E+03  0.98230101947E+03  0.27554920786E+03  0.10310454318E+04  0.50400001928E-02 0.  1.
       -1    1    3    3    0  502 -0.14903698754E+03 -0.98230101947E+03  0.85402720450E+03  0.13101487635E+04  0.50400001928E-02 0. -1.
</event>
<event>
 5   0  0.1441136E-05  0.2096479E+04  0.7818609E-02  0.8562796E-01
       -2   -1    0    0    0  501  0.00000000000E+00  0.00000000000E+00  0.63311146730E+03  0.63311146731E+03  0.25500000920E-02 0. -1.
        2   -1    0    0  501    0  0.00000000000E+00  0.00000000000E+00 -0.17355646528E+04  0.17355646528E+04  0.25500000920E-02 0.  1.
    10030    2    1    2    0    0  0.00000000000E+00  0.00000000000E+00 -0.11024531855E+04  0.23686761201E+04  0.20964788422E+04 0.  0.
        4    1    3    3  502    0  0.79453284897E+03  0.66991666538E+03 -0.39658565332E+03  0.11123635107E+04  0.12699999809E+01 0. -1.
       -4    1    3    3    0  502 -0.79453284897E+03 -0.66991666538E+03 -0.70586753216E+03  0.12563126094E+04  0.12699999809E+01 0.  1.
</event>
<event>
 5   0  0.1390735E-05  0.2101906E+04  0.7818609E-02  0.8560404E-01
        2   -1    0    0  501    0  0.00000000000E+00  0.00000000000E+00  0.84214194402E+03  0.84214194402E+03  0.25500000920E-02 0. -1.
       -2   -1    0    0    0  501  0.00000000000E+00  0.00000000000E+00 -0.13115394388E+04  0.13115394388E+04  0.25500000920E-02 0.  1.
    10030    2    1    2    0    0  0.00000000000E+00  0.00000000000E+00 -0.46939749476E+03  0.21536813828E+04  0.21019061565E+04 0.  0.
        5    1    3    3  502    0 -0.36029838180E+03  0.86680692379E+03  0.24949959933E+03  0.97130906879E+03  0.46999998093E+01 0.  1.
       -5    1    3    3    0  502  0.36029838180E+03 -0.86680692379E+03 -0.71889709409E+03  0.11823723140E+04  0.46999998093E+01 0. -1.
</event>
<event>
 5   0  0.6238363E-06  0.2104574E+04  0.7818609E-02  0.8559231E-01
        1   -1    0    0  501    0  0.00000000000E+00  0.00000000000E+00  0.99731708575E+03  0.99731708576E+03  0.50400001928E-02 0.  1.
       -1   -1    0    0    0  501  0.00000000000E+00  0.00000000000E+00 -0.11102865529E+04  0.11102865529E+04  0.50400001928E-02 0. -1.
    10030    2    1    2    0    0  0.00000000000E+00  0.00000000000E+00 -0.11296946712E+03  0.21076036386E+04  0.21045738279E+04 0.  0.
        4    1    3    3  502    0  0.10178743834E+04 -0.25317690100E+03  0.28131479714E+02  0.10492663135E+04  0.12699999809E+01 0. -1.
       -4    1    3    3    0  502 -0.10178743834E+04  0.25317690100E+03 -0.14110094683E+03  0.10583373251E+04  0.12699999809E+01 0.  1.
</event>
<event>
 5   0  0.1395356E-05  0.2092543E+04  0.7818609E-02  0.8564535E-01
        2   -1    0    0  501    0  0.00000000000E+00  0.00000000000E+00  0.10240467064E+04  0.10240467064E+04  0.25500000920E-02 0.  1.
       -2   -1    0    0    0  501  0.00000000000E+00  0.00000000000E+00 -0.10689784459E+04  0.10689784459E+04  0.25500000920E-02 0. -1.
    10030    2    1    2    0    0  0.00000000000E+00  0.00000000000E+00 -0.44931739453E+02  0.20930251523E+04  0.20925428137E+04 0.  0.
        1    1    3    3  502    0 -0.27727142654E+03 -0.41601564238E+03 -0.94177260419E+03  0.10662476714E+04  0.50400001928E-02 0. -1.
       -1    1    3    3    0  502  0.27727142654E+03  0.41601564238E+03  0.89684086474E+03  0.10267774809E+04  0.50400001928E-02 0.  1.
</event>
<event>
 5   0  0.6238363E-06  0.2107228E+04  0.7818609E-02  0.8558066E-01
       -1   -1    0    0    0  501  0.00000000000E+00  0.00000000000E+00  0.54549074483E+03  0.54549074486E+03  0.50400001928E-02 0. -1.
        1   -1    0    0  501    0  0.00000000000E+00  0.00000000000E+00 -0.20350527131E+04  0.20350527131E+04  0.50400001928E-02 0.  1.
    10030    2    1    2    0    0  0.00000000000E+00  0.00000000000E+00 -0.14895619683E+04  0.25805434580E+04  0.21072279614E+04 0.  0.
        4    1    3    3  502    0 -0.75496185597E+03 -0.46409733029E+03 -0.46914600974E+02  0.88744370449E+03  0.12699999809E+01 0.  1.
       -4    1    3    3    0  502  0.75496185597E+03  0.46409733029E+03 -0.14426473673E+04  0.16930997535E+04  0.12699999809E+01 0. -1.
</event>
<event>
 5   0  0.6599245E-06  0.2107505E+04  0.7818609E-02  0.8557945E-01
        1   -1    0    0  501    0  0.00000000000E+00  0.00000000000E+00  0.10948333921E+04  0.10948333921E+04  0.50400001928E-02 0.  1.
       -1   -1    0    0    0  501  0.00000000000E+00  0.00000000000E+00 -0.10142131424E+04  0.10142131424E+04  0.50400001928E-02 0. -1.
    10030    2    1    2    0    0  0.00000000000E+00  0.00000000000E+00  0.80620249683E+02  0.21090465346E+04  0.21075050795E+04 0.  0.
        2    1    3    3  502    0 -0.10141116171E+04 -0.71185282239E+02 -0.23720967254E+03  0.10439148170E+04  0.25500000920E-02 0.  1.
       -2    1    3    3    0  502  0.10141116171E+04  0.71185282239E+02  0.31782992222E+03  0.10651317176E+04  0.25500000920E-02 0. -1.
</event>
<event>
 5   0  0.5009125E-06  0.2100171E+04  0.7818609E-02  0.8561168E-01
        4   -1    0    0  501    0  0.00000000000E+00  0.00000000000E+00  0.13299366718E+04  0.13299372782E+04  0.12699999809E+01 0. -1.
       -4   -1    0    0    0  501  0.00000000000E+00  0.00000000000E+00 -0.82912048247E+03  0.82912145513E+03  0.12699999809E+01 0.  1.
    10030    2    1    2    0    0  0.00000000000E+00  0.00000000000E+00  0.50081618933E+03  0.21590587333E+04  0.21001708879E+04 0.  0.
        3    1    3    3  502    0  0.76113190047E+03 -0.66386944988E+03 -0.45115303855E+02  0.10109796325E+04  0.10100000352E+00 0.  1.
       -3    1    3    3    0  502 -0.76113190047E+03  0.66386944988E+03  0.54593149318E+03  0.11480791009E+04  0.10100000352E+00 0. -1.
</event>
<event>
 5   0  0.6283269E-06  0.2122170E+04  0.7818609E-02  0.8551540E-01
        1   -1    0    0  501    0  0.00000000000E+00  0.00000000000E+00  0.96923741430E+03  0.96923741432E+03  0.50400001928E-02 0.  1.
       -1   -1    0    0    0  501  0.00000000000E+00  0.00000000000E+00 -0.11616361356E+04  0.11616361356E+04  0.50400001928E-02 0. -1.
    10030    2    1    2    0    0  0.00000000000E+00  0.00000000000E+00 -0.19239872125E+03  0.21308735499E+04  0.21221698371E+04 0.  0.
        1    1    3    3  502    0  0.51034398561E+02 -0.26192385642E+03 -0.11273936234E+04  0.11585443446E+04  0.50400001928E-02 0. -1.
       -1    1    3    3    0  502 -0.51034398561E+02  0.26192385642E+03  0.93499490212E+03  0.97232920527E+03  0.50400001928E-02 0.  1.
</event>
<event>
 5   0  0.6238363E-06  0.2097248E+04  0.7818609E-02  0.8562457E-01
        1   -1    0    0  501    0  0.00000000000E+00  0.00000000000E+00  0.97955274962E+03  0.97955274963E+03  0.50400001928E-02 0.  1.
       -1   -1    0    0    0  501  0.00000000000E+00  0.00000000000E+00 -0.11225653072E+04  0.11225653072E+04  0.50400001928E-02 0. -1.
    10030    2    1    2    0    0  0.00000000000E+00  0.00000000000E+00 -0.14301255754E+03  0.21021180568E+04  0.20972476566E+04 0.  0.
        4    1    3    3  502    0  0.13789859960E+03 -0.54863792110E+03  0.81348851855E+03  0.99085053109E+03  0.12699999809E+01 0.  1.
       -4    1    3    3    0  502 -0.13789859960E+03  0.54863792110E+03 -0.95650107610E+03  0.11112675257E+04  0.12699999809E+01 0. -1.
</event>
<event>
 5   0  0.1441136E-05  0.2100347E+04  0.7818609E-02  0.8561091E-01
        2   -1    0    0  501    0  0.00000000000E+00  0.00000000000E+00  0.18649109133E+04  0.18649109133E+04  0.25500000920E-02 0.  1.
       -2   -1    0    0    0  501  0.00000000000E+00  0.00000000000E+00 -0.59137642273E+03  0.59137642273E+03  0.25500000920E-02 0. -1.
    10030    2    1    2    0    0  0.00000000000E+00  0.00000000000E+00  0.12735344906E+04  0.24562873360E+04  0.21003469662E+04 0.  0.
        4    1    3    3  502    0 -0.83833545216E+03  0.36796613812E+03  0.35136416049E+02  0.91621045060E+03  0.12699999809E+01 0. -1.
       -4    1    3    3    0  502  0.83833545216E+03 -0.36796613812E+03  0.12383980745E+04  0.15400768854E+04  0.12699999809E+01 0.  1.
</event>
<event>
 5   0  0.1441136E-05  0.2103096E+04  0.7818609E-02  0.8559881E-01
        2   -1    0    0  501    0  0.00000000000E+00  0.00000000000E+00  0.18497783772E+04  0.18497783772E+04  0.25500000920E-02 0. -1.
       -2   -1    0    0    0  501  0.00000000000E+00  0.00000000000E+00 -0.59777632232E+03  0.59777632232E+03  0.25500000920E-02 0.  1.
    10030    2    1    2    0    0  0.00000000000E+00  0.00000000000E+00  0.12520020549E+04  0.24475546995E+04  0.21030964937E+04 0.  0.
        4    1    3    3  502    0 -0.16129303149E+03 -0.98739635996E+03  0.10027247338E+04  0.14164835044E+04  0.12699999809E+01 0. -1.
       -4    1    3    3    0  502  0.16129303149E+03  0.98739635996E+03  0.24927732112E+03  0.10310711951E+04  0.12699999809E+01 0.  1.
</event>
<event>
 5   0  0.6589193E-06  0.2095756E+04  0.7818609E-02  0.8563115E-01
        1   -1    0    0  501    0  0.00000000000E+00  0.00000000000E+00  0.10337109888E+04  0.10337109889E+04  0.50400001928E-02 0. -1.
       -1   -1    0    0    0  501  0.00000000000E+00  0.00000000000E+00 -0.10622394990E+04  0.10622394990E+04  0.50400001928E-02 0.  1.
    10030    2    1    2    0    0  0.00000000000E+00  0.00000000000E+00 -0.28528510153E+02  0.20959504879E+04  0.20957563245E+04 0.  0.
        3    1    3    3  502    0  0.31542236038E+02  0.41694844347E+03 -0.97519025973E+03  0.10610546499E+04  0.10100000352E+00 0.  1.
       -3    1    3    3    0  502 -0.31542236038E+02 -0.41694844347E+03  0.94666174958E+03  0.10348958380E+04  0.10100000352E+00 0. -1.
</event>
<event>
 5   0  0.1398469E-05  0.2103425E+04  0.7818609E-02  0.8559736E-01
        2   -1    0    0  501    0  0.00000000000E+00  0.00000000000E+00  0.84490192276E+03  0.84490192276E+03  0.25500000920E-02 0.  1.
       -2   -1    0    0    0  501  0.00000000000E+00  0.00000000000E+00 -0.13091447628E+04  0.13091447628E+04  0.25500000920E-02 0. -1.
    10030    2    1    2    0    0  0.00000000000E+00  0.00000000000E+00 -0.46424284001E+03  0.21540466855E+04  0.21034247571E+04 0.  0.
        2    1    3    3  502    0 -0.25577501455E+03 -0.21279878611E+03 -0.12538270875E+04  0.12972226281E+04  0.25500000920E-02 0. -1.
       -2    1    3    3    0  502  0.25577501455E+03  0.21279878611E+03  0.78958424752E+03  0.85682405742E+03  0.25500000920E-02 0.  1.
</event>
<event>
 5   0  0.6917078E-06  0.2102110E+04  0.7818609E-02  0.8560315E-01
       -1   -1    0    0    0  501  0.00000000000E+00  0.00000000000E+00  0.71726190817E+03  0.71726190819E+03  0.50400001928E-02 0. -1.
        1   -1    0    0  501    0  0.00000000000E+00  0.00000000000E+00 -0.15401851692E+04  0.15401851693E+04  0.50400001928E-02 0.  1.
    10030    2    1    2    0    0  0.00000000000E+00  0.00000000000E+00 -0.82292326107E+03  0.22574470774E+04  0.21021095628E+04 0.  0.
        5    1    3    3  502    0  0.38990972576E+03  0.91951671550E+03 -0.76299403775E+03  0.12568701508E+04  0.46999998093E+01 0.  1.
       -5    1    3    3    0  502 -0.38990972576E+03 -0.91951671550E+03 -0.59929223328E+02  0.10005769266E+04  0.46999998093E+01 0. -1.
</event>
<event>
 5   0  0.1395356E-05  0.2086650E+04  0.7818609E-02  0.8567147E-01
       -2   -1    0    0    0  501  0.00000000000E+00  0.00000000000E+00  0.57779568059E+03  0.57779568060E+03  0.25500000920E-02 0.  1.
        2   -1    0    0  501    0  0.00000000000E+00  0.00000000000E+00 -0.18839315601E+04  0.18839315601E+04  0.25500000920E-02 0. -1.
    10030    2    1    2    0    0  0.00000000000E+00  0.00000000000E+00 -0.13061358795E+04  0.24617272407E+04  0.20866504431E+04 0.  0.
        1    1    3    3  502    0  0.98073748801E+03 -0.16945558120E+03 -0.28381106444E+03  0.10349444114E+04  0.50400001928E-02 0.  1.
       -1    1    3    3    0  502 -0.98073748801E+03  0.16945558120E+03 -0.10223248150E+04  0.14267828293E+04  0.50400001928E-02 0. -1.
</event>
<event>
 5   0  0.1441136E-05  0.2096522E+04  0.7818609E-02  0.8562777E-01
       -2   -1    0    0    0  501  0.00000000000E+00  0.00000000000E+00  0.83587107576E+03  0.83587107577E+03  0.25500000920E-02 0. -1.
        2   -1    0    0  501    0  0.00000000000E+00  0.00000000000E+00 -0.13146176325E+04  0.13146176325E+04  0.25500000920E-02 0.  1.
    10030    2    1    2    0    0  0.00000000000E+00  0.00000000000E+00 -0.47874655671E+03  0.21504887082E+04  0.20965217430E+04 0.  0.
        4    1    3    3  502    0 -0.59739008525E+02  0.78976232049E+03 -0.94374906650E+03  0.12320540513E+04  0.12699999809E+01 0.  1.
       -4    1    3    3    0  502  0.59739008525E+02 -0.78976232049E+03  0.46500250979E+03  0.91843465691E+03  0.12699999809E+01 0. -1.
</event>
<event>
 5   0  0.6589193E-06  0.2102616E+04  0.7818609E-02  0.8560092E-01
       -1   -1    0    0    0  501  0.00000000000E+00  0.00000000000E+00  0.49424511005E+03  0.49424511008E+03  0.50400001928E-02 0. -1.
        1   -1    0    0  501    0  0.00000000000E+00  0.00000000000E+00 -0.22362346271E+04  0.22362346271E+04  0.50400001928E-02 0.  1.
    10030    2    1    2    0    0  0.00000000000E+00  0.00000000000E+00 -0.17419895170E+04  0.27304797372E+04  0.21026155420E+04 0.  0.
        3    1    3    3  502    0  0.86964559085E+03 -0.52251503910E+03 -0.12288618939E+04  0.15935516886E+04  0.10100000352E+00 0.  1.
       -3    1    3    3    0  502 -0.86964559085E+03  0.52251503910E+03 -0.51312762310E+03  0.11369280485E+04  0.10100000352E+00 0. -1.
</event>
<event>
 5   0  0.1441136E-05  0.2101109E+04  0.7818609E-02  0.8560755E-01
       -2   -1    0    0    0  501  0.00000000000E+00  0.00000000000E+00  0.13735111377E+04  0.13735111377E+04  0.25500000920E-02 0.  1.
        2   -1    0    0  501    0  0.00000000000E+00  0.00000000000E+00 -0.80353537867E+03  0.80353537867E+03  0.25500000920E-02 0. -1.
    10030    2    1    2    0    0  0.00000000000E+00  0.00000000000E+00  0.56997575899E+03  0.21770465163E+04  0.21011090330E+04 0.  0.
        4    1    3    3  502    0  0.37896914265E+03 -0.77078353504E+03  0.91177932116E+03  0.12526244499E+04  0.12699999809E+01 0.  1.
       -4    1    3    3    0  502 -0.37896914265E+03  0.77078353504E+03 -0.34180356217E+03  0.92442206648E+03  0.12699999809E+01 0. -1.
</event>
<event>
 5   0  0.1390735E-05  0.2084945E+04  0.7818609E-02  0.8567905E-01
        2   -1    0    0  501    0  0.00000000000E+00  0.00000000000E+00  0.19300080305E+04  0.19300080305E+04  0.25500000920E-02 0.  1.
       -2   -1    0    0    0  501  0.00000000000E+00  0.00000000000E+00 -0.56307975208E+03  0.56307975209E+03  0.25500000920E-02 0. -1.
    10030    2    1    2    0    0  0.00000000000E+00  0.00000000000E+00  0.13669282784E+04  0.24930877826E+04  0.20849445492E+04 0.  0.
        5    1    3    3  502    0  0.10436229689E+03 -0.54040047959E+03  0.17420992569E+04  0.18269800432E+04  0.46999998093E+01 0.  1.
       -5    1    3    3    0  502 -0.10436229689E+03  0.54040047959E+03 -0.37517097849E+03  0.66610773937E+03  0.46999998093E+01 0. -1.
</event>
<event>
 5   0  0.1395356E-05  0.2100505E+04  0.7818609E-02  0.8561021E-01
       -2   -1    0    0    0  501  0.00000000000E+00  0.00000000000E+00  0.68001965644E+03  0.68001965644E+03  0.25500000920E-02 0. -1.
        2   -1    0    0  501    0  0.00000000000E+00  0.00000000000E+00 -0.16220561410E+04  0.16220561410E+04  0.25500000920E-02 0.  1.
    10030    2    1    2    0    0  0.00000000000E+00  0.00000000000E+00 -0.94203648452E+03  0.23020757974E+04  0.21005047581E+04 0.  0.
        1    1    3    3  502    0 -0.28950338661E+03 -0.81072250254E+02 -0.15738889207E+04  0.16023455481E+04  0.50400001928E-02 0.  1.
       -1    1    3    3    0  502  0.28950338661E+03  0.81072250254E+02  0.63185243623E+03  0.69973024932E+03  0.50400001928E-02 0. -1.
</event>
<event>
 5   0  0.6238363E-06  0.2098397E+04  0.7818609E-02  0.8561950E-01
       -1   -1    0    0    0  501  0.00000000000E+00  0.00000000000E+00  0.45640471573E+03  0.45640471575E+03  0.50400001928E-02 0. -1.
        1   -1    0    0  501    0  0.00000000000E+00  0.00000000000E+00 -0.24119325580E+04  0.24119325580E+04  0.50400001928E-02 0.  1.
    10030    2    1    2    0    0  0.00000000000E+00  0.00000000000E+00 -0.19555278423E+04  0.28683372738E+04  0.20983969058E+04 0.  0.
        4    1    3    3  502    0 -0.69541201594E+03 -0.19668411889E+02 -0.20513223776E+04  0.21660816762E+04  0.12699999809E+01 0.  1.
       -4    1    3    3    0  502  0.69541201594E+03  0.19668411889E+02  0.95794535351E+02  0.70225559751E+03  0.12699999809E+01 0. -1.
</event>
<event>
 5   0  0.1395356E-05  0.2099961E+04  0.7818609E-02  0.8561260E-01
       -2   -1    0    0    0  501  0.00000000000E+00  0.00000000000E+00  0.47380991855E+03  0.47380991856E+03  0.25500000920E-02 0. -1.
        2   -1    0    0  501    0  0.00000000000E+00  0.00000000000E+00 -0.23267967631E+04  0.23267967631E+04  0.25500000920E-02 0.  1.
    10030    2    1    2    0    0  0.00000000000E+00  0.00000000000E+00 -0.18529868445E+04  0.28006066816E+04  0.20999613185E+04 0.  0.
        1    1    3    3  502    0 -0.65176405548E+03 -0.35063102656E+03  0.66801198974E+02  0.74310221438E+03  0.50400001928E-02 0. -1.
       -1    1    3    3    0  502  0.65176405548E+03  0.35063102656E+03 -0.19197880435E+04  0.20575044673E+04  0.50400001928E-02 0.  1.
</event>
<event>
 5   0  0.6599245E-06  0.2102051E+04  0.7818609E-02  0.8560341E-01
        1   -1    0    0  501    0  0.00000000000E+00  0.00000000000E+00  0.10212809136E+04  0.10212809136E+04  0.50400001928E-02 0.  1.
       -1   -1    0    0    0  501  0.00000000000E+00  0.00000000000E+00 -0.10816361381E+04  0.10816361382E+04  0.50400001928E-02 0. -1.
    10030    2    1    2    0    0  0.00000000000E+00  0.00000000000E+00 -0.60355224567E+02  0.21029170517E+04  0.21020507542E+04 0.  0.
        2    1    3    3  502    0  0.24275673398E+03  0.20751044862E+03  0.97156563361E+03  0.10227077777E+04  0.25500000920E-02 0.  1.
       -2    1    3    3    0  502 -0.24275673398E+03 -0.20751044862E+03 -0.10319208582E+04  0.10802092740E+04  0.25500000920E-02 0. -1.
</event>
<event>
 5   0  0.1344501E-05  0.2101693E+04  0.7818609E-02  0.8560498E-01
       -2   -1    0    0    0  501  0.00000000000E+00  0.00000000000E+00  0.69023786801E+03  0.69023786802E+03  0.25500000920E-02 0. -1.
        2   -1    0    0  501    0  0.00000000000E+00  0.00000000000E+00 -0.15998517785E+04  0.15998517785E+04  0.25500000920E-02 0.  1.
    10030    2    1    2    0    0  0.00000000000E+00  0.00000000000E+00 -0.90961391052E+03  0.22900896466E+04  0.21016929184E+04 0.  0.
        3    1    3    3  502    0 -0.58274205326E+03  0.48901637725E+03  0.33512823740E+03  0.83128590963E+03  0.10100000352E+00 0. -1.
       -3    1    3    3    0  502  0.58274205326E+03 -0.48901637725E+03 -0.12447421479E+04  0.14588037369E+04  0.10100000352E+00 0.  1.
</event>
<event>
 5   0  0.6238363E-06  0.2101471E+04  0.7818609E-02  0.8560596E-01
        1   -1    0    0  501    0  0.00000000000E+00  0.00000000000E+00  0.17994742739E+04  0.17994742739E+04  0.50400001928E-02 0.  1.
       -1   -1    0    0    0  501  0.00000000000E+00  0.00000000000E+00 -0.61353770032E+03  0.61353770034E+03  0.50400001928E-02 0. -1.
    10030    2    1    2    0    0  0.00000000000E+00  0.00000000000E+00  0.11859365736E+04  0.24130119743E+04  0.21014712064E+04 0.  0.
        4    1    3    3  502    0 -0.12745798866E+03 -0.21343757757E+03  0.17652188075E+04  0.17826385471E+04  0.12699999809E+01 0.  1.
       -4    1    3    3    0  502  0.12745798866E+03  0.21343757757E+03 -0.57928223384E+03  0.63037342721E+03  0.12699999809E+01 0. -1.
</event>
<event>
 5   0  0.6238363E-06  0.2116317E+04  0.7818609E-02  0.8554089E-01
       -1   -1    0    0    0  501  0.00000000000E+00  0.00000000000E+00  0.85901721402E+03  0.85901721403E+03  0.50400001928E-02 0.  1.
        1   -1    0    0  501    0  0.00000000000E+00  0.00000000000E+00 -0.13034658398E+04  0.13034658398E+04  0.50400001928E-02 0. -1.
    10030    2    1    2    0    0  0.00000000000E+00  0.00000000000E+00 -0.44444862579E+03  0.21624830539E+04  0.21163171731E+04 0.  0.
        4    1    3    3  502    0 -0.37277309212E+03 -0.79558317746E+03  0.38037379217E+03  0.95739135422E+03  0.12699999809E+01 0.  1.
       -4    1    3    3    0  502  0.37277309212E+03  0.79558317746E+03 -0.82482241796E+03  0.12050916996E+04  0.12699999809E+01 0. -1.
</event>
<event>
 5   0  0.1395356E-05  0.2099670E+04  0.7818609E-02  0.8561389E-01
       -2   -1    0    0    0  501  0.00000000000E+00  0.00000000000E+00  0.61385719708E+03  0.61385719709E+03  0.25500000920E-02 0.  1.
        2   -1    0    0  501    0  0.00000000000E+00  0.00000000000E+00 -0.17954567445E+04  0.17954567445E+04  0.25500000920E-02 0. -1.
    10030    2    1    2    0    0  0.00000000000E+00  0.00000000000E+00 -0.11815995474E+04  0.24093139415E+04  0.20996704928E+04 0.  0.
        1    1    3    3  502    0  0.14377332181E+03 -0.10096213825E+04 -0.87685877574E+03  0.13449488528E+04  0.50400001928E-02 0. -1.
       -1    1    3    3    0  502 -0.14377332181E+03  0.10096213825E+04 -0.30474077163E+03  0.10643650887E+04  0.50400001928E-02 0.  1.
</event>
<event>
 5   0  0.1441136E-05  0.2097045E+04  0.7818609E-02  0.8562546E-01
        2   -1    0    0  501    0  0.00000000000E+00  0.00000000000E+00  0.16614042519E+04  0.16614042519E+04  0.25500000920E-02 0.  1.
       -2   -1    0    0    0  501  0.00000000000E+00  0.00000000000E+00 -0.66172886822E+03  0.66172886823E+03  0.25500000920E-02 0. -1.
    10030    2    1    2    0    0  0.00000000000E+00  0.00000000000E+00  0.99967538371E+03  0.23231331202E+04  0.20970447351E+04 0.  0.
        4    1    3    3  502    0 -0.62368516711E+03 -0.55345461213E+03 -0.20438836096E+03  0.85852863107E+03  0.12699999809E+01 0. -1.
       -4    1    3    3    0  502  0.62368516711E+03  0.55345461213E+03  0.12040637447E+04  0.14646044891E+04  0.12699999809E+01 0.  1.
</event>
<event>
 5   0  0.6917078E-06  0.2101094E+04  0.7818609E-02  0.8560762E-01
       -1   -1    0    0    0  501  0.00000000000E+00  0.00000000000E+00  0.93741454000E+03  0.93741454001E+03  0.50400001928E-02 0. -1.
        1   -1    0    0  501    0  0.00000000000E+00  0.00000000000E+00 -0.11773327080E+04  0.11773327080E+04  0.50400001928E-02 0.  1.
    10030    2    1    2    0    0  0.00000000000E+00  0.00000000000E+00 -0.23991816797E+03  0.21147472480E+04  0.21010938093E+04 0.  0.
        5    1    3    3  502    0  0.40126334492E+03  0.46095953698E+03  0.74007040497E+03  0.95980324078E+03  0.46999998093E+01 0. -1.
       -5    1    3    3    0  502 -0.40126334492E+03 -0.46095953698E+03 -0.97998857294E+03  0.11549440072E+04  0.46999998093E+01 0.  1.
</event>
<event>
 5   0  0.1395356E-05  0.2102058E+04  0.7818609E-02  0.8560337E-01
       -2   -1    0    0    0  501  0.00000000000E+00  0.00000000000E+00  0.98802586064E+03  0.98802586065E+03  0.25500000920E-02 0. -1.
        2   -1    0    0  501    0  0.00000000000E+00  0.00000000000E+00 -0.11180492922E+04  0.11180492922E+04  0.25500000920E-02 0.  1.
    10030    2    1    2    0    0  0.00000000000E+00  0.00000000000E+00 -0.13002343152E+03  0.21060751528E+04  0.21020576720E+04 0.  0.
        1    1    3    3  502    0 -0.22739754765E+03 -0.72656185439E+03 -0.79100673083E+03  0.10978585615E+04  0.50400001928E-02 0.  1.
       -1    1    3    3    0  502  0.22739754765E+03  0.72656185439E+03  0.66098329930E+03  0.10082165913E+04  0.50400001928E-02 0. -1.
</event>
<event>
 5   0  0.1344501E-05  0.2120130E+04  0.7818609E-02  0.8552428E-01
        2   -1    0    0  501    0  0.00000000000E+00  0.00000000000E+00  0.16852965679E+04  0.16852965679E+04  0.25500000920E-02 0. -1.
       -2   -1    0    0    0  501  0.00000000000E+00  0.00000000000E+00 -0.66678908379E+03  0.66678908379E+03  0.25500000920E-02 0.  1.
    10030    2    1    2    0    0  0.00000000000E+00  0.00000000000E+00  0.10185074841E+04  0.23520856517E+04  0.21201295757E+04 0.  0.
        3    1    3    3  502    0  0.71897371265E+02 -0.69011594401E+03 -0.37987044832E+03  0.79103148855E+03  0.10100000352E+00 0. -1.
       -3    1    3    3    0  502 -0.71897371265E+02  0.69011594401E+03  0.13983779324E+04  0.15610541632E+04  0.10100000352E+00 0.  1.
</event>
<event>
 5   0  0.6283269E-06  0.2099758E+04  0.7818609E-02  0.8561350E-01
        1   -1    0    0  501    0  0.00000000000E+00  0.00000000000E+00  0.13471694706E+04  0.13471694706E+04  0.50400001928E-02 0.  1.
       -1   -1    0    0    0  501  0.00000000000E+00  0.00000000000E+00 -0.81819421556E+03  0.81819421558E+03  0.50400001928E-02 0. -1.
    10030    2    1    2    0    0  0.00000000000E+00  0.00000000000E+00  0.52897525505E+03  0.21653636862E+04  0.20997583368E+04 0.  0.
        1    1    3    3  502    0  0.59501836870E+03  0.61249187281E+03  0.89435174852E+03  0.12365509304E+04  0.50400001928E-02 0.  1.
       -1    1    3    3    0  502 -0.59501836870E+03 -0.61249187281E+03 -0.36537649347E+03  0.92881275581E+03  0.50400001928E-02 0. -1.
</event>
<event>
 5   0  0.6238363E-06  0.2037606E+04  0.7818609E-02  0.8589238E-01
        1   -1    0    0  501    0  0.00000000000E+00  0.00000000000E+00  0.69473231674E+03  0.69473231676E+03  0.50400001928E-02 0. -1.
       -1   -1    0    0    0  501  0.00000000000E+00  0.00000000000E+00 -0.14940418226E+04  0.14940418226E+04  0.50400001928E-02 0.  1.
    10030    2    1    2    0    0  0.00000000000E+00  0.00000000000E+00 -0.79930950587E+03  0.21887741394E+04  0.20376055916E+04 0.  0.
        4    1    3    3  502    0 -0.15327900067E+03  0.98304567616E+03 -0.63520433632E+03  0.11804064619E+04  0.12699999809E+01 0.  1.
       -4    1    3    3    0  502  0.15327900067E+03 -0.98304567616E+03 -0.16410516954E+03  0.10083676775E+04  0.12699999809E+01 0. -1.
</event>
<event>
 5   0  0.6589193E-06  0.2102819E+04  0.7818609E-02  0.8560003E-01
        1   -1    0    0  501    0  0.00000000000E+00  0.00000000000E+00  0.18147603855E+04  0.18147603855E+04  0.50400001928E-02 0.  1.
       -1   -1    0    0    0  501  0.00000000000E+00  0.00000000000E+00 -0.60915036103E+03  0.60915036105E+03  0.50400001928E-02 0. -1.
    10030    2    1    2    0    0  0.00000000000E+00  0.00000000000E+00  0.12056100245E+04  0.24239107466E+04  0.21028190070E+04 0.  0.
        3    1    3    3  502    0 -0.14438917924E+03 -0.93634116878E+03  0.77247860408E+02  0.95055260853E+03  0.10100000352E+00 0. -1.
       -3    1    3    3    0  502  0.14438917924E+03  0.93634116878E+03  0.11283621641E+04  0.14733581381E+04  0.10100000352E+00 0.  1.
</event>
<event>
 5   0  0.6917078E-06  0.2097369E+04  0.7818609E-02  0.8562403E-01
       -1   -1    0    0    0  501  0.00000000000E+00  0.00000000000E+00  0.17583578784E+04  0.17583578785E+04  0.50400001928E-02 0.  1.
        1   -1    0    0  501    0  0.00000000000E+00  0.00000000000E+00 -0.62543519257E+03  0.62543519259E+03  0.50400001928E-02 0. -1.
    10030    2    1    2    0    0  0.00000000000E+00  0.00000000000E+00  0.11329226859E+04  0.23837930710E+04  0.20973687309E+04 0.  0.
        5    1    3    3  502    0  0.89551263278E+03 -0.43185329606E+03  0.18732465490E+03  0.10117078438E+04  0.46999998093E+01 0.  1.
       -5    1    3    3    0  502 -0.89551263278E+03  0.43185329606E+03  0.94559803097E+03  0.13720852273E+04  0.46999998093E+01 0. -1.
</event>
<event>
 5   0  0.6589193E-06  0.2092070E+04  0.7818609E-02  0.8564745E-01
        1   -1    0    0  501    0  0.00000000000E+00  0.00000000000E+00  0.81813657612E+03  0.81813657614E+03  0.50400001928E-02 0. -1.
       -1   -1    0    0    0  501  0.00000000000E+00  0.00000000000E+00 -0.13374167812E+04  0.13374167812E+04  0.50400001928E-02 0.  1.
    10030    2    1    2    0    0  0.00000000000E+00  0.00000000000E+00 -0.51928020506E+03  0.21555533573E+04  0.20920703489E+04 0.  0.
        3    1    3    3  502    0 -0.11111719555E+02 -0.87963560002E+03  0.32349062012E+03  0.93729848535E+03  0.10100000352E+00 0. -1.
       -3    1    3    3    0  502  0.11111719555E+02  0.87963560002E+03 -0.84277082518E+03  0.12182548720E+04  0.10100000352E+00 0.  1.
</event>
<event>
 5   0  0.1441136E-05  0.2108166E+04  0.7818609E-02  0.8557654E-01
        2   -1    0    0  501    0  0.00000000000E+00  0.00000000000E+00  0.12872495495E+04  0.12872495495E+04  0.25500000920E-02 0.  1.
       -2   -1    0    0    0  501  0.00000000000E+00  0.00000000000E+00 -0.86315157339E+03  0.86315157339E+03  0.25500000920E-02 0. -1.
    10030    2    1    2    0    0  0.00000000000E+00  0.00000000000E+00  0.42409797607E+03  0.21504011228E+04  0.21081664773E+04 0.  0.
        4    1    3    3  502    0  0.60062895112E+02 -0.74516577511E+03  0.97004481995E+03  0.12246910424E+04  0.12699999809E+01 0.  1.
       -4    1    3    3    0  502 -0.60062895112E+02  0.74516577511E+03 -0.54594684388E+03  0.92571008043E+03  0.12699999809E+01 0. -1.
</event>
<event>
 5   0  0.1395356E-05  0.2103007E+04  0.7818609E-02  0.8559920E-01
       -2   -1    0    0    0  501  0.00000000000E+00  0.00000000000E+00  0.67618932844E+03  0.67618932845E+03  0.25500000920E-02 0.  1.
        2   -1    0    0  501    0  0.00000000000E+00  0.00000000000E+00 -0.16351328913E+04  0.16351328913E+04  0.25500000920E-02 0. -1.
    10030    2    1    2    0    0  0.00000000000E+00  0.00000000000E+00 -0.95894356282E+03  0.23113222197E+04  0.21030068109E+04 0.  0.
        1    1    3    3  502    0 -0.75330154302E+03 -0.73361519234E+03 -0.47702740155E+03  0.11546469621E+04  0.50400001928E-02 0. -1.
       -1    1    3    3    0  502  0.75330154302E+03  0.73361519234E+03 -0.48191616127E+03  0.11566752576E+04  0.50400001928E-02 0.  1.
</event>
<event>
 5   0  0.6599245E-06  0.2102058E+04  0.7818609E-02  0.8560337E-01
       -1   -1    0    0    0  501  0.00000000000E+00  0.00000000000E+00  0.79724530114E+03  0.79724530115E+03  0.50400001928E-02 0. -1.
        1   -1    0    0  501    0  0.00000000000E+00  0.00000000000E+00 -0.13855983478E+04  0.13855983478E+04  0.50400001928E-02 0.  1.
    10030    2    1    2    0    0  0.00000000000E+00  0.00000000000E+00 -0.58835304670E+03  0.21828436490E+04  0.21020578223E+04 0.  0.
        2    1    3    3  502    0 -0.44884613543E+03  0.34522652190E+03 -0.12136535194E+04  0.13392531762E+04  0.25500000920E-02 0.  1.
       -2    1    3    3    0  502  0.44884613543E+03 -0.34522652190E+03  0.62530047269E+03  0.84359047284E+03  0.25500000920E-02 0. -1.
</event>
<event>
 5   0  0.1390735E-05  0.2099373E+04  0.7818609E-02  0.8561520E-01
        2   -1    0    0  501    0  0.00000000000E+00  0.00000000000E+00  0.13460986817E+04  0.13460986817E+04  0.25500000920E-02 0. -1.
       -2   -1    0    0    0  501  0.00000000000E+00  0.00000000000E+00 -0.81854439613E+03  0.81854439614E+03  0.25500000920E-02 0.  1.
    10030    2    1    2    0    0  0.00000000000E+00  0.00000000000E+00  0.52755428559E+03  0.21646430779E+04  0.20993727945E+04 0.  0.
        5    1    3    3  502    0  0.47168124811E+03 -0.32004235504E+03 -0.64505116469E+03  0.86082716262E+03  0.46999998093E+01 0.  1.
       -5    1    3    3    0  502 -0.47168124811E+03  0.32004235504E+03  0.11726054503E+04  0.13038159153E+04  0.46999998093E+01 0. -1.
</event>
<event>
 5   0  0.6599245E-06  0.2106043E+04  0.7818609E-02  0.8558586E-01
        1   -1    0    0  501    0  0.00000000000E+00  0.00000000000E+00  0.13399755489E+04  0.13399755489E+04  0.50400001928E-02 0. -1.
       -1   -1    0    0    0  501  0.00000000000E+00  0.00000000000E+00 -0.82751793959E+03  0.82751793961E+03  0.50400001928E-02 0.  1.
    10030    2    1    2    0    0  0.00000000000E+00  0.00000000000E+00  0.51245760929E+03  0.21674934885E+04  0.21060425498E+04 0.  0.
        2    1    3    3  502    0 -0.10526798005E+04 -0.24834104746E+02  0.26663879279E+03  0.10862079639E+04  0.25500000920E-02 0. -1.
       -2    1    3    3    0  502  0.10526798005E+04  0.24834104746E+02  0.24581881650E+03  0.10812855246E+04  0.25500000920E-02 0.  1.
</event>
<event>
 5   0  0.1398469E-05  0.2102046E+04  0.7818609E-02  0.8560343E-01
        2   -1    0    0  501    0  0.00000000000E+00  0.00000000000E+00  0.14439776034E+04  0.14439776034E+04  0.25500000920E-02 0.  1.
       -2   -1    0    0    0  501  0.00000000000E+00  0.00000000000E+00 -0.76500448086E+03  0.76500448087E+03  0.25500000920E-02 0. -1.
    10030    2    1    2    0    0  0.00000000000E+00  0.00000000000E+00  0.67897312259E+03  0.22089820843E+04  0.21020459908E+04 0.  0.
        2    1    3    3  502    0  0.48886762217E+03 -0.85475934666E+03 -0.46691874505E+02  0.98579167366E+03  0.25500000920E-02 0. -1.
       -2    1    3    3    0  502 -0.48886762217E+03  0.85475934666E+03  0.72566499709E+03  0.12231904107E+04  0.25500000920E-02 0.  1.
</event>
<event>
 5   0  0.1344501E-05  0.2107379E+04  0.7818609E-02  0.8558000E-01
       -2   -1    0    0    0  501  0.00000000000E+00  0.00000000000E+00  0.77877837960E+03  0.77877837960E+03  0.25500000920E-02 0.  1.
        2   -1    0    0  501    0  0.00000000000E+00  0.00000000000E+00 -0.14256453170E+04  0.14256453170E+04  0.25500000920E-02 0. -1.
    10030    2    1    2    0    0  0.00000000000E+00  0.00000000000E+00 -0.64686693741E+03  0.22044236966E+04  0.21073791779E+04 0.  0.
        3    1    3    3  502    0 -0.38071654196E+03  0.49960085492E+03  0.56152449141E+03  0.84252944412E+03  0.10100000352E+00 0.  1.
       -3    1    3    3    0  502  0.38071654196E+03 -0.49960085492E+03 -0.12083914288E+04  0.13618942525E+04  0.10100000352E+00 0. -1.
</event>
<event>
 5   0  0.5009125E-06  0.2091903E+04  0.7818609E-02  0.8564818E-01
       -3   -1    0    0    0  501  0.00000000000E+00  0.00000000000E+00  0.78728956283E+03  0.78728956931E+03  0.10100000352E+00 0. -1.
        3   -1    0    0  501    0  0.00000000000E+00  0.00000000000E+00 -0.13895964961E+04  0.13895964998E+04  0.10100000352E+00 0.  1.
    10030    2    1    2    0    0  0.00000000000E+00  0.00000000000E+00 -0.60230693330E+03  0.21768860691E+04  0.20919032760E+04 0.  0.
        1    1    3    3  502    0  0.67273775155E+03  0.67002368566E+03 -0.75773397923E+03  0.12147710093E+04  0.50400001928E-02 0.  1.
       -1    1    3    3    0  502 -0.67273775155E+03 -0.67002368566E+03  0.15542704593E+03  0.96211505982E+03  0.50400001928E-02 0. -1.
</event>
<event>
 5   0  0.1395356E-05  0.2100795E+04  0.7818609E-02  0.8560893E-01
       -2   -1    0    0    0  501  0.00000000000E+00  0.00000000000E+00  0.95307348219E+03  0.95307348219E+03  0.25500000920E-02 0. -1.
        2   -1    0    0  501    0  0.00000000000E+00  0.00000000000E+00 -0.11576593848E+04  0.11576593848E+04  0.25500000920E-02 0.  1.
    10030    2    1    2    0    0  0.00000000000E+00  0.00000000000E+00 -0.20458590262E+03  0.21107328670E+04  0.21007945745E+04 0.  0.
        1    1    3    3  502    0 -0.42571345462E+03 -0.13794160755E+02 -0.10669978312E+04  0.11488718797E+04  0.50400001928E-02 0.  1.
       -1    1    3    3    0  502  0.42571345462E+03  0.13794160755E+02  0.86241192854E+03  0.96186098727E+03  0.50400001928E-02 0. -1.
</event>
<event>
 5   0  0.1441136E-05  0.2102533E+04  0.7818609E-02  0.8560128E-01
        2   -1    0    0  501    0  0.00000000000E+00  0.00000000000E+00  0.21306483320E+04  0.21306483320E+04  0.25500000920E-02 0.  1.
       -2   -1    0    0    0  501  0.00000000000E+00  0.00000000000E+00 -0.51869733951E+03  0.51869733951E+03  0.25500000920E-02 0. -1.
    10030    2    1    2    0    0  0.00000000000E+00  0.00000000000E+00  0.16119509925E+04  0.26493456715E+04  0.21025333493E+04 0.  0.
        4    1    3    3  502    0  0.52872136885E+03  0.60738265485E+03 -0.45576663382E+02  0.80655986785E+03  0.12699999809E+01 0. -1.
       -4    1    3    3    0  502 -0.52872136885E+03 -0.60738265485E+03  0.16575276559E+04  0.18427858037E+04  0.12699999809E+01 0.  1.
</event>
<event>
 5   0  0.6917078E-06  0.2098101E+04  0.7818609E-02  0.8562080E-01
       -1   -1    0    0    0  501  0.00000000000E+00  0.00000000000E+00  0.11540731887E+04  0.11540731887E+04  0.50400001928E-02 0. -1.
        1   -1    0    0  501    0  0.00000000000E+00  0.00000000000E+00 -0.95358527818E+03  0.95358527819E+03  0.50400001928E-02 0.  1.
    10030    2    1    2    0    0  0.00000000000E+00  0.00000000000E+00  0.20048791052E+03  0.21076584669E+04  0.20981012394E+04 0.  0.
        5    1    3    3  502    0  0.30947125406E+03 -0.80666008942E+03 -0.49745553372E+03  0.99697394900E+03  0.46999998093E+01 0.  1.
       -5    1    3    3    0  502 -0.30947125406E+03  0.80666008942E+03  0.69794344424E+03  0.11106845179E+04  0.46999998093E+01 0. -1.
</event>
<event>
 5   0  0.6238363E-06  0.2102130E+04  0.7818609E-02  0.8560306E-01
       -1   -1    0    0    0  501  0.00000000000E+00  0.00000000000E+00  0.18355738665E+04  0.18355738666E+04  0.50400001928E-02 0.  1.
        1   -1    0    0  501    0  0.00000000000E+00  0.00000000000E+00 -0.60184868433E+03  0.60184868435E+03  0.50400001928E-02 0. -1.
    10030    2    1    2    0    0  0.00000000000E+00  0.00000000000E+00  0.12337251822E+04  0.24374225509E+04  0.21021300784E+04 0.  0.
        4    1    3    3  502    0  0.68708021210E+03 -0.74196885601E+03  0.28455044494E+03  0.10505082436E+04  0.12699999809E+01 0. -1.
       -4    1    3    3    0  502 -0.68708021210E+03  0.74196885601E+03  0.94917473728E+03  0.13869143074E+04  0.12699999809E+01 0.  1.
</event>
<event>
 5   0  0.6917078E-06  0.2102157E+04  0.7818609E-02  0.8560294E-01
       -1   -1    0    0    0  501  0.00000000000E+00  0.00000000000E+00  0.70970312940E+03  0.70970312942E+03  0.50400001928E-02 0.  1.
        1   -1    0    0  501    0  0.00000000000E+00  0.00000000000E+00 -0.15566589968E+04  0.15566589968E+04  0.50400001928E-02 0. -1.
    10030    2    1    2    0    0  0.00000000000E+00  0.00000000000E+00 -0.84695586742E+03  0.22663621263E+04  0.21021567606E+04 0.  0.
        5    1    3    3  502    0  0.83565917029E+03 -0.35011254503E+03 -0.99785878761E+03  0.13478313296E+04  0.46999998093E+01 0. -1.
       -5    1    3    3    0  502 -0.83565917029E+03  0.35011254503E+03  0.15090292019E+03  0.91853079665E+03  0.46999998093E+01 0.  1.
</event>
<event>
 5   0  0.1344501E-05  0.2098801E+04  0.7818609E-02  0.8561772E-01
       -2   -1    0    0    0  501  0.00000000000E+00  0.00000000000E+00  0.91528762748E+03  0.91528762748E+03  0.25500000920E-02 0. -1.
        2   -1    0    0  501    0  0.00000000000E+00  0.00000000000E+00 -0.12031641303E+04  0.12031641303E+04  0.25500000920E-02 0.  1.
    10030    2    1    2    0    0  0.00000000000E+00  0.00000000000E+00 -0.28787650284E+03  0.21184517578E+04  0.20988008408E+04 0.  0.
        3    1    3    3  502    0 -0.34943461957E+03 -0.63722728220E+03  0.62016886363E+03  0.95539132933E+03  0.10100000352E+00 0. -1.
       -3    1    3    3    0  502  0.34943461957E+03  0.63722728220E+03 -0.90804536646E+03  0.11630604285E+04  0.10100000352E+00 0.  1.
</event>
<event>
 5   0  0.1398469E-05  0.2103559E+04  0.7818609E-02  0.8559677E-01
       -2   -1    0    0    0  501  0.00000000000E+00  0.00000000000E+00  0.84292203987E+03  0.84292203988E+03  0.25500000920E-02 0. -1.
        2   -1    0    0  501    0  0.00000000000E+00  0.00000000000E+00 -0.13123866632E+04  0.13123866632E+04  0.25500000920E-02 0.  1.
    10030    2    1    2    0    0  0.00000000000E+00  0.00000000000E+00 -0.46946462330E+03  0.21553087031E+04  0.21035585499E+04 0.  0.
        2    1    3    3  502    0 -0.63335552435E+03 -0.82407558751E+03 -0.39994381817E+03  0.11136403602E+04  0.25500000920E-02 0.  1.
       -2    1    3    3    0  502  0.63335552435E+03  0.82407558751E+03 -0.69520805132E+02  0.10416683429E+04  0.25500000920E-02 0. -1.
</event>
<event>
 5   0  0.1390735E-05  0.2101393E+04  0.7818609E-02  0.8560630E-01
        2   -1    0    0  501    0  0.00000000000E+00  0.00000000000E+00  0.17083974126E+04  0.17083974126E+04  0.25500000920E-02 0. -1.
       -2   -1    0    0    0  501  0.00000000000E+00  0.00000000000E+00 -0.64619792013E+03  0.64619792013E+03  0.25500000920E-02 0.  1.
    10030    2    1    2    0    0  0.00000000000E+00  0.00000000000E+00  0.10621994925E+04  0.23545953328E+04  0.21013927332E+04 0.  0.
        5    1    3    3  502    0 -0.35844551481E+02  0.19320388848E+03  0.16876133947E+04  0.16990213755E+04  0.46999998093E+01 0. -1.
       -5    1    3    3    0  502  0.35844551481E+02 -0.19320388848E+03 -0.62541390220E+03  0.65557395727E+03  0.46999998093E+01 0.  1.
</event>
<event>
 5   0  0.6238363E-06  0.2102297E+04  0.7818609E-02  0.8560232E-01
        1   -1    0    0  501    0  0.00000000000E+00  0.00000000000E+00  0.98123142995E+03  0.98123142996E+03  0.50400001928E-02 0. -1.
       -1   -1    0    0    0  501  0.00000000000E+00  0.00000000000E+00 -0.11260479878E+04  0.11260479879E+04  0.50400001928E-02 0.  1.
    10030    2    1    2    0    0  0.00000000000E+00  0.00000000000E+00 -0.14481655790E+03  0.21072794178E+04  0.21022974835E+04 0.  0.
        4    1    3    3  502    0 -0.39372476339E+03  0.65393038345E+03  0.65198536946E+03  0.10038578936E+04  0.12699999809E+01 0. -1.
       -4    1    3    3    0  502  0.39372476339E+03 -0.65393038345E+03 -0.79680192736E+03  0.11034215242E+04  0.12699999809E+01 0.  1.
</event>
<event>
 5   0  0.6283269E-06  0.2093198E+04  0.7818609E-02  0.8564246E-01
        1   -1    0    0  501    0  0.00000000000E+00  0.00000000000E+00  0.21893338791E+04  0.21893338791E+04  0.50400001928E-02 0.  1.
       -1   -1    0    0    0  501  0.00000000000E+00  0.00000000000E+00 -0.50032085829E+03  0.50032085832E+03  0.50400001928E-02 0. -1.
    10030    2    1    2    0    0  0.00000000000E+00  0.00000000000E+00  0.16890130208E+04  0.26896547374E+04  0.20931979414E+04 0.  0.
        1    1    3    3  502    0  0.31812318646E+03 -0.88514161610E+03  0.14343130752E+04  0.17152061217E+04  0.50400001928E-02 0.  1.
       -1    1    3    3    0  502 -0.31812318646E+03  0.88514161610E+03  0.25469994563E+03  0.97444861570E+03  0.50400001928E-02 0. -1.
</event>
<event>
 5   0  0.1398469E-05  0.2104309E+04  0.7818609E-02  0.8559347E-01
       -2   -1    0    0    0  501  0.00000000000E+00  0.00000000000E+00  0.91439464712E+03  0.91439464713E+03  0.25500000920E-02 0.  1.
        2   -1    0    0  501    0  0.00000000000E+00  0.00000000000E+00 -0.12106691465E+04  0.12106691465E+04  0.25500000920E-02 0. -1.
    10030    2    1    2    0    0  0.00000000000E+00  0.00000000000E+00 -0.29627449938E+03  0.21250637936E+04  0.21043092805E+04 0.  0.
        2    1    3    3  502    0  0.75068651519E+03 -0.52393951303E+03  0.37561712965E+03  0.98951052824E+03  0.25500000920E-02 0.  1.
       -2    1    3    3    0  502 -0.75068651519E+03  0.52393951303E+03 -0.67189162903E+03  0.11355532654E+04  0.25500000920E-02 0. -1.
</event>
<event>
 5   0  0.5009125E-06  0.2135738E+04  0.7818609E-02  0.8545662E-01
       -3   -1    0    0    0  501  0.00000000000E+00  0.00000000000E+00  0.11661412251E+04  0.11661412295E+04  0.10100000352E+00 0.  1.
        3   -1    0    0  501    0  0.00000000000E+00  0.00000000000E+00 -0.97787817752E+03  0.97787818273E+03  0.10100000352E+00 0. -1.
    10030    2    1    2    0    0  0.00000000000E+00  0.00000000000E+00  0.18826304762E+03  0.21440194122E+04  0.21357378737E+04 0.  0.
        4    1    3    3  502    0 -0.77076085907E+03  0.20356869437E+03 -0.61913742018E+03  0.10093786570E+04  0.12699999809E+01 0. -1.
       -4    1    3    3    0  502  0.77076085907E+03 -0.20356869437E+03  0.80740046780E+03  0.11346407553E+04  0.12699999809E+01 0.  1.
</event>
<event>
 5   0  0.6238363E-06  0.2086151E+04  0.7818609E-02  0.8567368E-01
       -1   -1    0    0    0  501  0.00000000000E+00  0.00000000000E+00  0.10116526751E+04  0.10116526751E+04  0.50400001928E-02 0. -1.
        1   -1    0    0  501    0  0.00000000000E+00  0.00000000000E+00 -0.10754747804E+04  0.10754747804E+04  0.50400001928E-02 0.  1.
    10030    2    1    2    0    0  0.00000000000E+00  0.00000000000E+00 -0.63822105361E+02  0.20871274555E+04  0.20861514217E+04 0.  0.
        4    1    3    3  502    0  0.28403279786E+03  0.49456338127E+03  0.84184614379E+03  0.10168451756E+04  0.12699999809E+01 0. -1.
       -4    1    3    3    0  502 -0.28403279786E+03 -0.49456338127E+03 -0.90566824915E+03  0.10702822800E+04  0.12699999809E+01 0.  1.
</event>
<event>
 5   0  0.1441136E-05  0.2101976E+04  0.7818609E-02  0.8560374E-01
       -2   -1    0    0    0  501  0.00000000000E+00  0.00000000000E+00  0.16363418909E+04  0.16363418909E+04  0.25500000920E-02 0.  1.
        2   -1    0    0  501    0  0.00000000000E+00  0.00000000000E+00 -0.67502730654E+03  0.67502730655E+03  0.25500000920E-02 0. -1.
    10030    2    1    2    0    0  0.00000000000E+00  0.00000000000E+00  0.96131458433E+03  0.23113691974E+04  0.21019756984E+04 0.  0.
        4    1    3    3  502    0  0.37380681537E+03  0.13530877219E+03 -0.58916022541E+03  0.71074002501E+03  0.12699999809E+01 0. -1.
       -4    1    3    3    0  502 -0.37380681537E+03 -0.13530877219E+03  0.15504748097E+04  0.16006291724E+04  0.12699999809E+01 0.  1.
</event>
<event>
 5   0  0.6917078E-06  0.2090538E+04  0.7818609E-02  0.8565423E-01
       -1   -1    0    0    0  501  0.00000000000E+00  0.00000000000E+00  0.89731563413E+03  0.89731563415E+03  0.50400001928E-02 0.  1.
        1   -1    0    0  501    0  0.00000000000E+00  0.00000000000E+00 -0.12176174326E+04  0.12176174326E+04  0.50400001928E-02 0. -1.
    10030    2    1    2    0    0  0.00000000000E+00  0.00000000000E+00 -0.32030179850E+03  0.21149330668E+04  0.20905378817E+04 0.  0.
        5    1    3    3  502    0 -0.44557340290E+03 -0.11941117522E+03  0.78875523572E+03  0.91375685936E+03  0.46999998093E+01 0.  1.
       -5    1    3    3    0  502  0.44557340290E+03  0.11941117522E+03 -0.11090570342E+04  0.12011762074E+04  0.46999998093E+01 0. -1.
</event>
<event>
 5   0  0.1344501E-05  0.2089520E+04  0.7818609E-02  0.8565874E-01
        2   -1    0    0  501    0  0.00000000000E+00  0.00000000000E+00  0.12430363707E+04  0.12430363707E+04  0.25500000920E-02 0.  1.
       -2   -1    0    0    0  501  0.00000000000E+00  0.00000000000E+00 -0.87811069566E+03  0.87811069567E+03  0.25500000920E-02 0. -1.
    10030    2    1    2    0    0  0.00000000000E+00  0.00000000000E+00  0.36492567502E+03  0.21211470664E+04  0.20895200714E+04 0.  0.
        3    1    3    3  502    0 -0.23521826427E+03 -0.40203010934E+03 -0.76687533859E+03  0.89724781181E+03  0.10100000352E+00 0. -1.
       -3    1    3    3    0  502  0.23521826427E+03  0.40203010934E+03  0.11318010136E+04  0.12238992545E+04  0.10100000352E+00 0.  1.
</event>
<event>
 5   0  0.1395356E-05  0.2104294E+04  0.7818609E-02  0.8559354E-01
        2   -1    0    0  501    0  0.00000000000E+00  0.00000000000E+00  0.22221516505E+04  0.22221516505E+04  0.25500000920E-02 0. -1.
       -2   -1    0    0    0  501  0.00000000000E+00  0.00000000000E+00 -0.49817201705E+03  0.49817201706E+03  0.25500000920E-02 0.  1.
    10030    2    1    2    0    0  0.00000000000E+00  0.00000000000E+00  0.17239796335E+04  0.27203236676E+04  0.21042944375E+04 0.  0.
        1    1    3    3  502    0 -0.16437791112E+03 -0.33724022303E+03 -0.40876475651E+03  0.55483303063E+03  0.50400001928E-02 0.  1.
       -1    1    3    3    0  502  0.16437791112E+03  0.33724022303E+03  0.21327443900E+04  0.21654906369E+04  0.50400001928E-02 0. -1.
</event>
<event>
 5   0  0.6283269E-06  0.2104770E+04  0.7818609E-02  0.8559145E-01
       -1   -1    0    0    0  501  0.00000000000E+00  0.00000000000E+00  0.54131818278E+03  0.54131818281E+03  0.50400001928E-02 0.  1.
        1   -1    0    0  501    0  0.00000000000E+00  0.00000000000E+00 -0.20459585701E+04  0.20459585701E+04  0.50400001928E-02 0. -1.
    10030    2    1    2    0    0  0.00000000000E+00  0.00000000000E+00 -0.15046403873E+04  0.25872767529E+04  0.21047703678E+04 0.  0.
        1    1    3    3  502    0 -0.10257764696E+04 -0.20616326842E+03 -0.89136024498E+03  0.13744976338E+04  0.50400001928E-02 0. -1.
       -1    1    3    3    0  502  0.10257764696E+04  0.20616326842E+03 -0.61328014231E+03  0.12127791191E+04  0.50400001928E-02 0.  1.
</event>
<event>
 5   0  0.6599245E-06  0.2097210E+04  0.7818609E-02  0.8562473E-01
        1   -1    0    0  501    0  0.00000000000E+00  0.00000000000E+00  0.23907655114E+04  0.23907655114E+04  0.50400001928E-02 0.  1.
       -1   -1    0    0    0  501  0.00000000000E+00  0.00000000000E+00 -0.45992495727E+03  0.45992495730E+03  0.50400001928E-02 0. -1.
    10030    2    1    2    0    0  0.00000000000E+00  0.00000000000E+00  0.19308405541E+04  0.28506904687E+04  0.20972102667E+04 0.  0.
        2    1    3    3  502    0  0.46749929636E+03  0.78201968160E+03  0.25982261030E+03  0.94742712825E+03  0.25500000920E-02 0. -1.
       -2    1    3    3    0  502 -0.46749929636E+03 -0.78201968160E+03  0.16710179438E+04  0.19032633405E+04  0.25500000920E-02 0.  1.
</event>
<event>
 5   0  0.6238363E-06  0.2097326E+04  0.7818609E-02  0.8562422E-01
        1   -1    0    0  501    0  0.00000000000E+00  0.00000000000E+00  0.14553359275E+04  0.14553359275E+04  0.50400001928E-02 0. -1.
       -1   -1    0    0    0  501  0.00000000000E+00  0.00000000000E+00 -0.75562918372E+03  0.75562918373E+03  0.50400001928E-02 0.  1.
    10030    2    1    2    0    0  0.00000000000E+00  0.00000000000E+00  0.69970674374E+03  0.22109651112E+04  0.20973262016E+04 0.  0.
        4    1    3    3  502    0  0.96980997856E+03 -0.37054535165E+03  0.50570648933E+03  0.11548055760E+04  0.12699999809E+01 0. -1.
       -4    1    3    3    0  502 -0.96980997856E+03  0.37054535165E+03  0.19400025441E+03  0.10561595352E+04  0.12699999809E+01 0.  1.
</event>
<event>
 5   0  0.6238363E-06  0.2103311E+04  0.7818609E-02  0.8559786E-01
        1   -1    0    0  501    0  0.00000000000E+00  0.00000000000E+00  0.11383336752E+04  0.11383336752E+04  0.50400001928E-02 0.  1.
       -1   -1    0    0    0  501  0.00000000000E+00  0.00000000000E+00 -0.97157764287E+03  0.97157764289E+03  0.50400001928E-02 0. -1.
    10030    2    1    2    0    0  0.00000000000E+00  0.00000000000E+00  0.16675603233E+03  0.21099113181E+04  0.21033112456E+04 0.  0.
        4    1    3    3  502    0  0.30751405974E+03  0.48943278023E+03 -0.79793938050E+03  0.98530107640E+03  0.12699999809E+01 0. -1.
       -4    1    3    3    0  502 -0.30751405974E+03 -0.48943278023E+03  0.96469541283E+03  0.11246102417E+04  0.12699999809E+01 0.  1.
</event>
<event>
 5   0  0.6283269E-06  0.2103124E+04  0.7818609E-02  0.8559869E-01
        1   -1    0    0  501    0  0.00000000000E+00  0.00000000000E+00  0.12233775285E+04  0.12233775285E+04  0.50400001928E-02 0.  1.
       -1   -1    0    0    0  501  0.00000000000E+00  0.00000000000E+00 -0.90387671036E+03  0.90387671037E+03  0.50400001928E-02 0. -1.
    10030    2    1    2    0    0  0.00000000000E+00  0.00000000000E+00  0.31950081818E+03  0.21272542389E+04  0.21031238252E+04 0.  0.
        1    1    3    3  502    0  0.26684035297E+03  0.53417106596E+03  0.10352682871E+04  0.11951246496E+04  0.50400001928E-02 0.  1.
       -1    1    3    3    0  502 -0.26684035297E+03 -0.53417106596E+03 -0.71576746895E+03  0.93212958934E+03  0.50400001928E-02 0. -1.
</event>
<event>
 5   0  0.1390735E-05  0.2099420E+04  0.7818609E-02  0.8561499E-01
        2   -1    0    0  501    0  0.00000000000E+00  0.00000000000E+00  0.13312250350E+04  0.13312250350E+04  0.25500000920E-02 0. -1.
       -2   -1    0    0    0  501  0.00000000000E+00  0.00000000000E+00 -0.82772728335E+03  0.82772728335E+03  0.25500000920E-02 0.  1.
    10030    2    1    2    0    0  0.00000000000E+00  0.00000000000E+00  0.50349775166E+03  0.21589523184E+04  0.20994201883E+04 0.  0.
        5    1    3    3  502    0  0.19924416878E+03 -0.83469838628E+02  0.13081086192E+04  0.13258339649E+04  0.46999998093E+01 0. -1.
       -5    1    3    3    0  502 -0.19924416878E+03  0.83469838628E+02 -0.80461086755E+03  0.83311835350E+03  0.46999998093E+01 0.  1.
</event>
<event>
 5   0  0.1398469E-05  0.2099827E+04  0.7818609E-02  0.8561320E-01
       -2   -1    0    0    0  501  0.00000000000E+00  0.00000000000E+00  0.66688063789E+03  0.66688063790E+03  0.25500000920E-02 0. -1.
        2   -1    0    0  501    0  0.00000000000E+00  0.00000000000E+00 -0.16529466058E+04  0.16529466058E+04  0.25500000920E-02 0.  1.
    10030    2    1    2    0    0  0.00000000000E+00  0.00000000000E+00 -0.98606596789E+03  0.23198272437E+04  0.20998267423E+04 0.  0.
        2    1    3    3  502    0 -0.80456519160E+03  0.56645324457E+03 -0.89763205545E+03  0.13318925380E+04  0.25500000920E-02 0.  1.
       -2    1    3    3    0  502  0.80456519160E+03 -0.56645324457E+03 -0.88433912443E+02  0.98793470568E+03  0.25500000920E-02 0. -1.
</event>
<event>
 5   0  0.6599245E-06  0.2103582E+04  0.7818609E-02  0.8559667E-01
       -1   -1    0    0    0  501  0.00000000000E+00  0.00000000000E+00  0.14918777977E+04  0.14918777977E+04  0.50400001928E-02 0. -1.
        1   -1    0    0  501    0  0.00000000000E+00  0.00000000000E+00 -0.74152465328E+03  0.74152465330E+03  0.50400001928E-02 0.  1.
    10030    2    1    2    0    0  0.00000000000E+00  0.00000000000E+00  0.75035314443E+03  0.22334024510E+04  0.21035818660E+04 0.  0.
        2    1    3    3  502    0 -0.84254547819E+03  0.21843853588E+03  0.10020968268E+04  0.13273267597E+04  0.25500000920E-02 0. -1.
       -2    1    3    3    0  502  0.84254547819E+03 -0.21843853588E+03 -0.25174368235E+03  0.90607569132E+03  0.25500000920E-02 0.  1.
</event>
<event>
 5   0  0.6283269E-06  0.2097178E+04  0.7818609E-02  0.8562487E-01
        1   -1    0    0  501    0  0.00000000000E+00  0.00000000000E+00  0.16115649119E+04  0.16115649119E+04  0.50400001928E-02 0. -1.
       -1   -1    0    0    0  501  0.00000000000E+00  0.00000000000E+00 -0.68228029247E+03  0.68228029249E+03  0.50400001928E-02 0.  1.
    10030    2    1    2    0    0  0.00000000000E+00  0.00000000000E+00  0.92928461946E+03  0.22938452044E+04  0.20971780844E+04 0.  0.
        1    1    3    3  502    0  0.81927786855E+03  0.65207578984E+03  0.52573656501E+03  0.11716731615E+04  0.50400001928E-02 0. -1.
       -1    1    3    3    0  502 -0.81927786855E+03 -0.65207578984E+03  0.40354805445E+03  0.11221720429E+04  0.50400001928E-02 0.  1.
</event>
<event>
 5   0  0.6589193E-06  0.2105159E+04  0.7818609E-02  0.8558974E-01
       -1   -1    0    0    0  501  0.00000000000E+00  0.00000000000E+00  0.12693440003E+04  0.12693440003E+04  0.50400001928E-02 0. -1.
        1   -1    0    0  501    0  0.00000000000E+00  0.00000000000E+00 -0.87283124488E+03  0.87283124490E+03  0.50400001928E-02 0.  1.
    10030    2    1    2    0    0  0.00000000000E+00  0.00000000000E+00  0.39651275545E+03  0.21421752452E+04  0.21051585252E+04 0.  0.
        3    1    3    3  502    0  0.18711512759E+03  0.90283158888E+03 -0.31841787924E+03  0.97545215407E+03  0.10100000352E+00 0.  1.
       -3    1    3    3    0  502 -0.18711512759E+03 -0.90283158888E+03  0.71493063469E+03  0.11667230912E+04  0.10100000352E+00 0. -1.
</event>
<event>
 5   0  0.6283269E-06  0.2101833E+04  0.7818609E-02  0.8560436E-01
       -1   -1    0    0    0  501  0.00000000000E+00  0.00000000000E+00  0.84010788348E+03  0.84010788349E+03  0.50400001928E-02 0. -1.
        1   -1    0    0  501    0  0.00000000000E+00  0.00000000000E+00 -0.13146234697E+04  0.13146234697E+04  0.50400001928E-02 0.  1.
    10030    2    1    2    0    0  0.00000000000E+00  0.00000000000E+00 -0.47451558618E+03  0.21547313532E+04  0.21018330483E+04 0.  0.
        1    1    3    3  502    0  0.28184942891E+03  0.97967028727E+03 -0.49909246421E+03  0.11350269865E+04  0.50400001928E-02 0.  1.
       -1    1    3    3    0  502 -0.28184942891E+03 -0.97967028727E+03  0.24576878025E+02  0.10197043666E+04  0.50400001928E-02 0. -1.
</event>
<event>
 5   0  0.6238363E-06  0.2101291E+04  0.7818609E-02  0.8560675E-01
       -1   -1    0    0    0  501  0.00000000000E+00  0.00000000000E+00  0.96661100346E+03  0.96661100347E+03  0.50400001928E-02 0. -1.
        1   -1    0    0  501    0  0.00000000000E+00  0.00000000000E+00 -0.11419855207E+04  0.11419855207E+04  0.50400001928E-02 0.  1.
    10030    2    1    2    0    0  0.00000000000E+00  0.00000000000E+00 -0.17537451723E+03  0.21085965242E+04  0.21012908129E+04 0.  0.
        4    1    3    3  502    0 -0.76342011649E+03  0.31912133651E+03  0.56202459084E+03  0.10002609436E+04  0.12699999809E+01 0. -1.
       -4    1    3    3    0  502  0.76342011649E+03 -0.31912133651E+03 -0.73739910807E+03  0.11083355806E+04  0.12699999809E+01 0.  1.
</event>
<event>
 5   0  0.6238363E-06  0.2100464E+04  0.7818609E-02  0.8561039E-01
       -1   -1    0    0    0  501  0.00000000000E+00  0.00000000000E+00  0.11421133705E+04  0.11421133705E+04  0.50400001928E-02 0.  1.
        1   -1    0    0  501    0  0.00000000000E+00  0.00000000000E+00 -0.96574258123E+03  0.96574258124E+03  0.50400001928E-02 0. -1.
    10030    2    1    2    0    0  0.00000000000E+00  0.00000000000E+00  0.17637078922E+03  0.21078559517E+04  0.21004642482E+04 0.  0.
        4    1    3    3  502    0  0.24676146386E+03  0.14338567485E+03 -0.92608163657E+03  0.96906113444E+03  0.12699999809E+01 0. -1.
       -4    1    3    3    0  502 -0.24676146386E+03 -0.14338567485E+03  0.11024524258E+04  0.11387948173E+04  0.12699999809E+01 0.  1.
</event>
<event>
 5   0  0.6589193E-06  0.2100605E+04  0.7818609E-02  0.8560977E-01
        1   -1    0    0  501    0  0.00000000000E+00  0.00000000000E+00  0.57360811788E+03  0.57360811790E+03  0.50400001928E-02 0. -1.
       -1   -1    0    0    0  501  0.00000000000E+00  0.00000000000E+00 -0.19231521309E+04  0.19231521309E+04  0.50400001928E-02 0.  1.
    10030    2    1    2    0    0  0.00000000000E+00  0.00000000000E+00 -0.13495440130E+04  0.24967602488E+04  0.21006053168E+04 0.  0.
        3    1    3    3  502    0  0.31561396465E+02 -0.37112646932E+03  0.49247303270E+03  0.61746309697E+03  0.10100000352E+00 0. -1.
       -3    1    3    3    0  502 -0.31561396465E+02  0.37112646932E+03 -0.18420170457E+04  0.18792971519E+04  0.10100000352E+00 0.  1.
</event>
<event>
 5   0  0.1398469E-05  0.2077604E+04  0.7818609E-02  0.8571173E-01
       -2   -1    0    0    0  501  0.00000000000E+00  0.00000000000E+00  0.84275122593E+03  0.84275122593E+03  0.25500000920E-02 0.  1.
        2   -1    0    0  501    0  0.00000000000E+00  0.00000000000E+00 -0.12804608915E+04  0.12804608915E+04  0.25500000920E-02 0. -1.
    10030    2    1    2    0    0  0.00000000000E+00  0.00000000000E+00 -0.43770966558E+03  0.21232121174E+04  0.20776043763E+04 0.  0.
        2    1    3    3  502    0 -0.17795927867E+03  0.52509637316E+03 -0.11166118347E+04  0.12466826763E+04  0.25500000920E-02 0. -1.
       -2    1    3    3    0  502  0.17795927867E+03 -0.52509637316E+03  0.67890216912E+03  0.87652944115E+03  0.25500000920E-02 0.  1.
</event>
<event>
 5   0  0.6917078E-06  0.2113521E+04  0.7818609E-02  0.8555310E-01
        1   -1    0    0  501    0  0.00000000000E+00  0.00000000000E+00  0.10668251435E+04  0.10668251435E+04  0.50400001928E-02 0.  1.
       -1   -1    0    0    0  501  0.00000000000E+00  0.00000000000E+00 -0.10467911293E+04  0.10467911293E+04  0.50400001928E-02 0. -1.
    10030    2    1    2    0    0  0.00000000000E+00  0.00000000000E+00  0.20034014175E+02  0.21136162728E+04  0.21135213240E+04 0.  0.
        5    1    3    3  502    0 -0.54609966358E+03 -0.44955518377E+03  0.79516137897E+03  0.10642501653E+04  0.46999998093E+01 0.  1.
       -5    1    3    3    0  502  0.54609966358E+03  0.44955518377E+03 -0.77512736480E+03  0.10493661075E+04  0.46999998093E+01 0. -1.
</event>
<event>
 5   0  0.1395356E-05  0.2098725E+04  0.7818609E-02  0.8561805E-01
       -2   -1    0    0    0  501  0.00000000000E+00  0.00000000000E+00  0.10245496948E+04  0.10245496948E+04  0.25500000920E-02 0.  1.
        2   -1    0    0  501    0  0.00000000000E+00  0.00000000000E+00 -0.10747762250E+04  0.10747762250E+04  0.25500000920E-02 0. -1.
    10030    2    1    2    0    0  0.00000000000E+00  0.00000000000E+00 -0.50226530177E+02  0.20993259199E+04  0.20987249971E+04 0.  0.
        1    1    3    3  502    0  0.46423162956E+03  0.43281907013E+03 -0.86100695016E+03  0.10696617791E+04  0.50400001928E-02 0. -1.
       -1    1    3    3    0  502 -0.46423162956E+03 -0.43281907013E+03  0.81078041999E+03  0.10296641408E+04  0.50400001928E-02 0.  1.
</event>
<event>
 5   0  0.6589193E-06  0.2147423E+04  0.7818609E-02  0.8540636E-01
       -1   -1    0    0    0  501  0.00000000000E+00  0.00000000000E+00  0.83292753822E+03  0.83292753824E+03  0.50400001928E-02 0. -1.
        1   -1    0    0  501    0  0.00000000000E+00  0.00000000000E+00 -0.13841015860E+04  0.13841015860E+04  0.50400001928E-02 0.  1.
    10030    2    1    2    0    0  0.00000000000E+00  0.00000000000E+00 -0.55117404777E+03  0.22170291242E+04  0.21474229455E+04 0.  0.
        3    1    3    3  502    0  0.65129614799E+03  0.18542152910E+03  0.58466122078E+03  0.89464885241E+03  0.10100000352E+00 0. -1.
       -3    1    3    3    0  502 -0.65129614799E+03 -0.18542152910E+03 -0.11358352686E+04  0.13223802718E+04  0.10100000352E+00 0.  1.
</event>
<event>
 5   0  0.1395356E-05  0.2102516E+04  0.7818609E-02  0.8560136E-01
        2   -1    0    0  501    0  0.00000000000E+00  0.00000000000E+00  0.13184232712E+04  0.13184232712E+04  0.25500000920E-02 0.  1.
       -2   -1    0    0    0  501  0.00000000000E+00  0.00000000000E+00 -0.83823099127E+03  0.83823099127E+03  0.25500000920E-02 0. -1.
    10030    2    1    2    0    0  0.00000000000E+00  0.00000000000E+00  0.48019227988E+03  0.21566542624E+04  0.21025158696E+04 0.  0.
        1    1    3    3  502    0  0.76333466301E+03 -0.69028980025E+03  0.20184884538E+02  0.10293625434E+04  0.50400001928E-02 0.  1.
       -1    1    3    3    0  502 -0.76333466301E+03  0.69028980025E+03  0.46000739534E+03  0.11272917191E+04  0.50400001928E-02 0. -1.
</event>
<event>
 5   0  0.6283269E-06  0.2099477E+04  0.7818609E-02  0.8561474E-01
       -1   -1    0    0    0  501  0.00000000000E+00  0.00000000000E+00  0.12729804837E+04  0.12729804837E+04  0.50400001928E-02 0.  1.
        1   -1    0    0  501    0  0.00000000000E+00  0.00000000000E+00 -0.86564668999E+03  0.86564669000E+03  0.50400001928E-02 0. -1.
    10030    2    1    2    0    0  0.00000000000E+00  0.00000000000E+00  0.40733379369E+03  0.21386271737E+04  0.20994774037E+04 0.  0.
        1    1    3    3  502    0  0.90559806748E+03 -0.18976868142E+03 -0.30139254124E+03  0.97311740105E+03  0.50400001928E-02 0. -1.
       -1    1    3    3    0  502 -0.90559806748E+03  0.18976868142E+03  0.70872633493E+03  0.11655097726E+04  0.50400001928E-02 0.  1.
</event>
<event>
 5   0  0.1390735E-05  0.2077870E+04  0.7818609E-02  0.8571055E-01
        2   -1    0    0  501    0  0.00000000000E+00  0.00000000000E+00  0.53615279665E+03  0.53615279665E+03  0.25500000920E-02 0.  1.
       -2   -1    0    0    0  501  0.00000000000E+00  0.00000000000E+00 -0.20132054971E+04  0.20132054971E+04  0.25500000920E-02 0. -1.
    10030    2    1    2    0    0  0.00000000000E+00  0.00000000000E+00 -0.14770527004E+04  0.25493582937E+04  0.20778698299E+04 0.  0.
        5    1    3    3  502    0 -0.45173395717E+03  0.65868116385E+03  0.76643294719E+02  0.80238440182E+03  0.46999998093E+01 0.  1.
       -5    1    3    3    0  502  0.45173395717E+03 -0.65868116385E+03 -0.15536959951E+04  0.17469738919E+04  0.46999998093E+01 0. -1.
</event>
<event>
 5   0  0.6599245E-06  0.2099907E+04  0.7818609E-02  0.8561284E-01
       -1   -1    0    0    0  501  0.00000000000E+00  0.00000000000E+00  0.75243141916E+03  0.75243141918E+03  0.50400001928E-02 0.  1.
        1   -1    0    0  501    0  0.00000000000E+00  0.00000000000E+00 -0.14651199040E+04  0.14651199040E+04  0.50400001928E-02 0. -1.
    10030    2    1    2    0    0  0.00000000000E+00  0.00000000000E+00 -0.71268848483E+03  0.22175513232E+04  0.20999069014E+04 0.  0.
        2    1    3    3  502    0 -0.67249109731E+02  0.98683990686E+03  0.15560242428E+02  0.98925101247E+03  0.25500000920E-02 0.  1.
       -2    1    3    3    0  502  0.67249109731E+02 -0.98683990686E+03 -0.72824872726E+03  0.12283003107E+04  0.25500000920E-02 0. -1.
</event>
<event>
 5   0  0.1344501E-05  0.2099265E+04  0.7818609E-02  0.8561567E-01
        2   -1    0    0  501    0  0.00000000000E+00  0.00000000000E+00  0.17833886743E+04  0.17833886744E+04  0.25500000920E-02 0. -1.
       -2   -1    0    0    0  501  0.00000000000E+00  0.00000000000E+00 -0.61777264696E+03  0.61777264697E+03  0.25500000920E-02 0.  1.
    10030    2    1    2    0    0  0.00000000000E+00  0.00000000000E+00  0.11656160274E+04  0.24011613213E+04  0.20992653400E+04 0.  0.
        3    1    3    3  502    0  0.14459729749E+03 -0.63801643508E+02  0.17697005096E+04  0.17767439129E+04  0.10100000352E+00 0. -1.
       -3    1    3    3    0  502 -0.14459729749E+03  0.63801643508E+02 -0.60408448219E+03  0.62441740845E+03  0.10100000352E+00 0.  1.
</event>
<event>
 5   0  0.1398469E-05  0.2093739E+04  0.7818609E-02  0.8564007E-01
       -2   -1    0    0    0  501  0.00000000000E+00  0.00000000000E+00  0.85926407067E+03  0.85926407068E+03  0.25500000920E-02 0.  1.
        2   -1    0    0  501    0  0.00000000000E+00  0.00000000000E+00 -0.12754347657E+04  0.12754347657E+04  0.25500000920E-02 0. -1.
    10030    2    1    2    0    0  0.00000000000E+00  0.00000000000E+00 -0.41617069501E+03  0.21346988364E+04  0.20937385402E+04 0.  0.
        2    1    3    3  502    0 -0.84274573190E+03  0.20820203516E+03  0.38848270988E+03  0.95104535747E+03  0.25500000920E-02 0.  1.
       -2    1    3    3    0  502  0.84274573190E+03 -0.20820203516E+03 -0.80465340489E+03  0.11836534789E+04  0.25500000920E-02 0. -1.
</event>
<event>
 5   0  0.5009125E-06  0.2097327E+04  0.7818609E-02  0.8562422E-01
        4   -1    0    0  501    0  0.00000000000E+00  0.00000000000E+00  0.10175964498E+04  0.10175972423E+04  0.12699999809E+01 0. -1.
       -4   -1    0    0    0  501  0.00000000000E+00  0.00000000000E+00 -0.10806771972E+04  0.10806779435E+04  0.12699999809E+01 0.  1.
    10030    2    1    2    0    0  0.00000000000E+00  0.00000000000E+00 -0.63080747400E+02  0.20982751858E+04  0.20973267687E+04 0.  0.
        5    1    3    3  502    0  0.46124361117E+02  0.47466483410E+03  0.90281912789E+03  0.10210478094E+04  0.46999998093E+01 0. -1.
       -5    1    3    3    0  502 -0.46124361117E+02 -0.47466483410E+03 -0.96589987529E+03  0.10772273764E+04  0.46999998093E+01 0.  1.
</event>
<event>
 5   0  0.1390735E-05  0.2105462E+04  0.7818609E-02  0.8558841E-01
        2   -1    0    0  501    0  0.00000000000E+00  0.00000000000E+00  0.12154017736E+04  0.12154017736E+04  0.25500000920E-02 0.  1.
       -2   -1    0    0    0  501  0.00000000000E+00  0.00000000000E+00 -0.91183230844E+03  0.91183230844E+03  0.25500000920E-02 0. -1.
    10030    2    1    2    0    0  0.00000000000E+00  0.00000000000E+00  0.30356946514E+03  0.21272340820E+04  0.21054620442E+04 0.  0.
        5    1    3    3  502    0 -0.74213652416E+02  0.43547410710E+03  0.11172154831E+04  0.12013899824E+04  0.46999998093E+01 0.  1.
       -5    1    3    3    0  502  0.74213652416E+02 -0.43547410710E+03 -0.81364601799E+03  0.92584409959E+03  0.46999998093E+01 0. -1.
</event>
<event>
 5   0  0.1390735E-05  0.2099083E+04  0.7818609E-02  0.8561647E-01
       -2   -1    0    0    0  501  0.00000000000E+00  0.00000000000E+00  0.92304685401E+03  0.92304685402E+03  0.25500000920E-02 0.  1.
        2   -1    0    0  501    0  0.00000000000E+00  0.00000000000E+00 -0.11933709693E+04  0.11933709693E+04  0.25500000920E-02 0. -1.
    10030    2    1    2    0    0  0.00000000000E+00  0.00000000000E+00 -0.27032411524E+03  0.21164178233E+04  0.20990829606E+04 0.  0.
        5    1    3    3  502    0 -0.10160876903E+04  0.77062994481E+02 -0.38851858999E+03  0.10905694312E+04  0.46999998093E+01 0. -1.
       -5    1    3    3    0  502  0.10160876903E+04 -0.77062994481E+02  0.11819447474E+03  0.10258483920E+04  0.46999998093E+01 0.  1.
</event>
<event>
 5   0  0.1344501E-05  0.2102653E+04  0.7818609E-02  0.8560076E-01
        2   -1    0    0  501    0  0.00000000000E+00  0.00000000000E+00  0.16851103543E+04  0.16851103543E+04  0.25500000920E-02 0.  1.
       -2   -1    0    0    0  501  0.00000000000E+00  0.00000000000E+00 -0.65591390479E+03  0.65591390479E+03  0.25500000920E-02 0. -1.
    10030    2    1    2    0    0  0.00000000000E+00  0.00000000000E+00  0.10291964496E+04  0.23410242591E+04  0.21026529077E+04 0.  0.
        3    1    3    3  502    0 -0.23963022105E+03  0.57209630540E+02  0.16525179221E+04  0.16707815769E+04  0.10100000352E+00 0.  1.
       -3    1    3    3    0  502  0.23963022105E+03 -0.57209630540E+02 -0.62332147258E+03  0.67024268220E+03  0.10100000352E+00 0. -1.
</event>
<event>
 5   0  0.1395356E-05  0.2098344E+04  0.7818609E-02  0.8561973E-01
       -2   -1    0    0    0  501  0.00000000000E+00  0.00000000000E+00  0.92086594428E+03  0.92086594428E+03  0.25500000920E-02 0.  1.
        2   -1    0    0  501    0  0.00000000000E+00  0.00000000000E+00 -0.11953547907E+04  0.11953547907E+04  0.25500000920E-02 0. -1.
    10030    2    1    2    0    0  0.00000000000E+00  0.00000000000E+00 -0.27448884641E+03  0.21162207350E+04  0.20983436497E+04 0.  0.
        1    1    3    3  502    0 -0.10381010681E+04 -0.14640730874E+03 -0.95998677722E+02  0.10527605016E+04  0.50400001928E-02 0.  1.
       -1    1    3    3    0  502  0.10381010681E+04  0.14640730874E+03 -0.17849016869E+03  0.10634602334E+04  0.50400001928E-02 0. -1.
</event>
<event>
 5   0  0.6917078E-06  0.2097900E+04  0.7818609E-02  0.8562169E-01
        1   -1    0    0  501    0  0.00000000000E+00  0.00000000000E+00  0.13214821946E+04  0.13214821946E+04  0.50400001928E-02 0. -1.
       -1   -1    0    0    0  501  0.00000000000E+00  0.00000000000E+00 -0.83262257635E+03  0.83262257636E+03  0.50400001928E-02 0.  1.
    10030    2    1    2    0    0  0.00000000000E+00  0.00000000000E+00  0.48885961828E+03  0.21541047710E+04  0.20978998160E+04 0.  0.
        5    1    3    3  502    0 -0.45310094632E+02 -0.67970678769E+03  0.10634329456E+04  0.12629196497E+04  0.46999998093E+01 0. -1.
       -5    1    3    3    0  502  0.45310094632E+02  0.67970678769E+03 -0.57457332732E+03  0.89118512127E+03  0.46999998093E+01 0.  1.
</event>
<event>
 5   0  0.6283269E-06  0.2098175E+04  0.7818609E-02  0.8562048E-01
        1   -1    0    0  501    0  0.00000000000E+00  0.00000000000E+00  0.22155468174E+04  0.22155468174E+04  0.50400001928E-02 0.  1.
       -1   -1    0    0    0  501  0.00000000000E+00  0.00000000000E+00 -0.49675530230E+03  0.49675530232E+03  0.50400001928E-02 0. -1.
    10030    2    1    2    0    0  0.00000000000E+00  0.00000000000E+00  0.17187915151E+04  0.27123021197E+04  0.20981750442E+04 0.  0.
        1    1    3    3  502    0 -0.14331567206E+03 -0.62186433812E+03 -0.21698602748E+03  0.67404567578E+03  0.50400001928E-02 0. -1.
       -1    1    3    3    0  502  0.14331567206E+03  0.62186433812E+03  0.19357775425E+04  0.20382564439E+04  0.50400001928E-02 0.  1.
</event>
<event>
 5   0  0.1398469E-05  0.2100507E+04  0.7818609E-02  0.8561020E-01
        2   -1    0    0  501    0  0.00000000000E+00  0.00000000000E+00  0.13880550899E+04  0.13880550899E+04  0.25500000920E-02 0.  1.
       -2   -1    0    0    0  501  0.00000000000E+00  0.00000000000E+00 -0.79466022377E+03  0.79466022377E+03  0.25500000920E-02 0. -1.
    10030    2    1    2    0    0  0.00000000000E+00  0.00000000000E+00  0.59339486618E+03  0.21827153137E+04  0.21005067659E+04 0.  0.
        2    1    3    3  502    0  0.56494632937E+02  0.10466352263E+04  0.22780623963E+03  0.10726288376E+04  0.25500000920E-02 0.  1.
       -2    1    3    3    0  502 -0.56494632937E+02 -0.10466352263E+04  0.36558862655E+03  0.11100864761E+04  0.25500000920E-02 0. -1.
</event>
<event>
 5   0  0.6599245E-06  0.2105203E+04  0.7818609E-02  0.8558955E-01
        1   -1    0    0  501    0  0.00000000000E+00  0.00000000000E+00  0.21069442066E+04  0.21069442066E+04  0.50400001928E-02 0.  1.
       -1   -1    0    0    0  501  0.00000000000E+00  0.00000000000E+00 -0.52586567073E+03  0.52586567076E+03  0.50400001928E-02 0. -1.
    10030    2    1    2    0    0  0.00000000000E+00  0.00000000000E+00  0.15810785358E+04  0.26328098773E+04  0.21052027251E+04 0.  0.
        2    1    3    3  502    0  0.13099451321E+03  0.27985865514E+03  0.20489452513E+04  0.20721141552E+04  0.25500000920E-02 0.  1.
       -2    1    3    3    0  502 -0.13099451321E+03 -0.27985865514E+03 -0.46786671547E+03  0.56069572212E+03  0.25500000920E-02 0. -1.
</event>
<event>
 5   0  0.1395356E-05  0.2040793E+04  0.7818609E-02  0.8587782E-01
        2   -1    0    0  501    0  0.00000000000E+00  0.00000000000E+00  0.19172740247E+04  0.19172740247E+04  0.25500000920E-02 0. -1.
       -2   -1    0    0    0  501  0.00000000000E+00  0.00000000000E+00 -0.54306762887E+03  0.54306762888E+03  0.25500000920E-02 0.  1.
    10030    2    1    2    0    0  0.00000000000E+00  0.00000000000E+00  0.13742063958E+04  0.24603416536E+04  0.20407934325E+04 0.  0.
        1    1    3    3  502    0 -0.58356765445E+03  0.81834360218E+03  0.47493465391E+03  0.11116655900E+04  0.50400001928E-02 0.  1.
       -1    1    3    3    0  502  0.58356765445E+03 -0.81834360218E+03  0.89927174191E+03  0.13486760635E+04  0.50400001928E-02 0. -1.
</event>
<event>
 5   0  0.1390735E-05  0.2101363E+04  0.7818609E-02  0.8560643E-01
       -2   -1    0    0    0  501  0.00000000000E+00  0.00000000000E+00  0.45146896042E+03  0.45146896042E+03  0.25500000920E-02 0. -1.
        2   -1    0    0  501    0  0.00000000000E+00  0.00000000000E+00 -0.24451987503E+04  0.24451987503E+04  0.25500000920E-02 0.  1.
    10030    2    1    2    0    0  0.00000000000E+00  0.00000000000E+00 -0.19937297899E+04  0.28966677108E+04  0.21013627367E+04 0.  0.
        5    1    3    3  502    0 -0.11356698227E+03 -0.78639235538E+03 -0.19445062011E+04  0.21005801228E+04  0.46999998093E+01 0.  1.
       -5    1    3    3    0  502  0.11356698227E+03  0.78639235538E+03 -0.49223588827E+02  0.79608758800E+03  0.46999998093E+01 0. -1.
</event>
<event>
 5   0  0.6589193E-06  0.2100269E+04  0.7818609E-02  0.8561125E-01
       -1   -1    0    0    0  501  0.00000000000E+00  0.00000000000E+00  0.85248466258E+03  0.85248466260E+03  0.50400001928E-02 0. -1.
        1   -1    0    0  501    0  0.00000000000E+00  0.00000000000E+00 -0.12936100861E+04  0.12936100861E+04  0.50400001928E-02 0.  1.
    10030    2    1    2    0    0  0.00000000000E+00  0.00000000000E+00 -0.44112542352E+03  0.21460947487E+04  0.21002692759E+04 0.  0.
        3    1    3    3  502    0  0.41786293473E+03 -0.84773766237E+03  0.24715155150E+03  0.97690965602E+03  0.10100000352E+00 0. -1.
       -3    1    3    3    0  502 -0.41786293473E+03  0.84773766237E+03 -0.68827697502E+03  0.11691850927E+04  0.10100000352E+00 0.  1.
</event>
<event>
 5   0  0.6917078E-06  0.2105376E+04  0.7818609E-02  0.8558879E-01
        1   -1    0    0  501    0  0.00000000000E+00  0.00000000000E+00  0.17205265166E+04  0.17205265166E+04  0.50400001928E-02 0.  1.
       -1   -1    0    0    0  501  0.00000000000E+00  0.00000000000E+00 -0.64407696835E+03  0.64407696837E+03  0.50400001928E-02 0. -1.
    10030    2    1    2    0    0  0.00000000000E+00  0.00000000000E+00  0.10764495482E+04  0.23646034850E+04  0.21053755036E+04 0.  0.
        5    1    3    3  502    0 -0.37163051636E+03  0.50879715689E+03  0.14853513681E+04  0.16134666294E+04  0.46999998093E+01 0.  1.
       -5    1    3    3    0  502  0.37163051636E+03 -0.50879715689E+03 -0.40890181983E+03  0.75113685558E+03  0.46999998093E+01 0. -1.
</event>
<event>
 5   0  0.1395356E-05  0.2071010E+04  0.7818609E-02  0.8574122E-01
        2   -1    0    0  501    0  0.00000000000E+00  0.00000000000E+00  0.24773554594E+04  0.24773554594E+04  0.25500000920E-02 0.  1.
       -2   -1    0    0    0  501  0.00000000000E+00  0.00000000000E+00 -0.43282864789E+03  0.43282864790E+03  0.25500000920E-02 0. -1.
    10030    2    1    2    0    0  0.00000000000E+00  0.00000000000E+00  0.20445268115E+04  0.29101841073E+04  0.20710098154E+04 0.  0.
        1    1    3    3  502    0 -0.22369508821E+03  0.76342720054E+03  0.19537426711E+04  0.21094954392E+04  0.50400001928E-02 0.  1.
       -1    1    3    3    0  502  0.22369508821E+03 -0.76342720054E+03  0.90784140347E+02  0.80068866807E+03  0.50400001928E-02 0. -1.
</event>
<event>
 5   0  0.1441136E-05  0.2102719E+04  0.7818609E-02  0.8560046E-01
       -2   -1    0    0    0  501  0.00000000000E+00  0.00000000000E+00  0.43710954828E+03  0.43710954829E+03  0.25500000920E-02 0.  1.
        2   -1    0    0  501    0  0.00000000000E+00  0.00000000000E+00 -0.25287874495E+04  0.25287874495E+04  0.25500000920E-02 0. -1.
    10030    2    1    2    0    0  0.00000000000E+00  0.00000000000E+00 -0.20916779012E+04  0.29658969978E+04  0.21027193249E+04 0.  0.
        4    1    3    3  502    0 -0.15404632675E+03 -0.10026452564E+04 -0.14355260037E+04  0.17577725396E+04  0.12699999809E+01 0. -1.
       -4    1    3    3    0  502  0.15404632675E+03  0.10026452564E+04 -0.65615189758E+03  0.12081244582E+04  0.12699999809E+01 0.  1.
</event>
<event>
 5   0  0.5009125E-06  0.2101764E+04  0.7818609E-02  0.8560467E-01
       -4   -1    0    0    0  501  0.00000000000E+00  0.00000000000E+00  0.80759746885E+03  0.80759846742E+03  0.12699999809E+01 0. -1.
        4   -1    0    0  501    0  0.00000000000E+00  0.00000000000E+00 -0.13674525753E+04  0.13674531651E+04  0.12699999809E+01 0.  1.
    10030    2    1    2    0    0  0.00000000000E+00  0.00000000000E+00 -0.55985510647E+03  0.21750516325E+04  0.21017639886E+04 0.  0.
        4    1    3    3  502    0 -0.55317563947E+03  0.85775737250E+03 -0.21002531244E+02  0.10208788946E+04  0.12699999809E+01 0. -1.
       -4    1    3    3    0  502  0.55317563947E+03 -0.85775737250E+03 -0.53885257522E+03  0.11541727379E+04  0.12699999809E+01 0.  1.
</event>
<event>
 5   0  0.6238363E-06  0.2102852E+04  0.7818609E-02  0.8559988E-01
       -1   -1    0    0    0  501  0.00000000000E+00  0.00000000000E+00  0.14673905326E+04  0.14673905326E+04  0.50400001928E-02 0. -1.
        1   -1    0    0  501    0  0.00000000000E+00  0.00000000000E+00 -0.75337570793E+03  0.75337570795E+03  0.50400001928E-02 0.  1.
    10030    2    1    2    0    0  0.00000000000E+00  0.00000000000E+00  0.71401482463E+03  0.22207662405E+04  0.21028517602E+04 0.  0.
        4    1    3    3  502    0 -0.62320317529E+03  0.45186307316E+03  0.11133598776E+04  0.13535635429E+04  0.12699999809E+01 0. -1.
       -4    1    3    3    0  502  0.62320317529E+03 -0.45186307316E+03 -0.39934505299E+03  0.86720269765E+03  0.12699999809E+01 0.  1.
</event>
<event>
 5   0  0.1344501E-05  0.2089050E+04  0.7818609E-02  0.8566082E-01
        2   -1    0    0  501    0  0.00000000000E+00  0.00000000000E+00  0.27036214354E+04  0.27036214354E+04  0.25500000920E-02 0. -1.
       -2   -1    0    0    0  501  0.00000000000E+00  0.00000000000E+00 -0.40354485780E+03  0.40354485781E+03  0.25500000920E-02 0.  1.
    10030    2    1    2    0    0  0.00000000000E+00  0.00000000000E+00  0.23000765776E+04  0.31071662933E+04  0.20890500499E+04 0.  0.
        3    1    3    3  502    0 -0.32597787683E+01 -0.34994938717E+03  0.26138267365E+04  0.26371510040E+04  0.10100000352E+00 0. -1.
       -3    1    3    3    0  502  0.32597787683E+01  0.34994938717E+03 -0.31375015880E+03  0.47001528921E+03  0.10100000352E+00 0.  1.
</event>
<event>
 5   0  0.6283269E-06  0.2104839E+04  0.7818609E-02  0.8559115E-01
       -1   -1    0    0    0  501  0.00000000000E+00  0.00000000000E+00  0.73390912914E+03  0.73390912916E+03  0.50400001928E-02 0.  1.
        1   -1    0    0  501    0  0.00000000000E+00  0.00000000000E+00 -0.15091612938E+04  0.15091612938E+04  0.50400001928E-02 0. -1.
    10030    2    1    2    0    0  0.00000000000E+00  0.00000000000E+00 -0.77525216465E+03  0.22430704230E+04  0.21048394247E+04 0.  0.
        1    1    3    3  502    0 -0.27288035876E+02  0.86520750585E+03  0.25022932673E+03  0.90107900933E+03  0.50400001928E-02 0.  1.
       -1    1    3    3    0  502  0.27288035876E+02 -0.86520750585E+03 -0.10254814914E+04  0.13419914136E+04  0.50400001928E-02 0. -1.
</event>
<event>
 5   0  0.1344501E-05  0.2097782E+04  0.7818609E-02  0.8562221E-01
       -2   -1    0    0    0  501  0.00000000000E+00  0.00000000000E+00  0.52346246795E+03  0.52346246796E+03  0.25500000920E-02 0. -1.
        2   -1    0    0  501    0  0.00000000000E+00  0.00000000000E+00 -0.21017211373E+04  0.21017211373E+04  0.25500000920E-02 0.  1.
    10030    2    1    2    0    0  0.00000000000E+00  0.00000000000E+00 -0.15782586694E+04  0.26251836053E+04  0.20977818128E+04 0.  0.
        3    1    3    3  502    0  0.54494138031E+03  0.68180802597E+03 -0.15170460758E+04  0.17502148721E+04  0.10100000352E+00 0.  1.
       -3    1    3    3    0  502 -0.54494138031E+03 -0.68180802597E+03 -0.61212593601E+02  0.87496873319E+03  0.10100000352E+00 0. -1.
</event>
<event>
 5   0  0.6599245E-06  0.2101104E+04  0.7818609E-02  0.8560757E-01
        1   -1    0    0  501    0  0.00000000000E+00  0.00000000000E+00  0.14481597969E+04  0.14481597969E+04  0.50400001928E-02 0. -1.
       -1   -1    0    0    0  501  0.00000000000E+00  0.00000000000E+00 -0.76211177907E+03  0.76211177909E+03  0.50400001928E-02 0.  1.
    10030    2    1    2    0    0  0.00000000000E+00  0.00000000000E+00  0.68604801784E+03  0.22102715760E+04  0.21011041281E+04 0.  0.
        2    1    3    3  502    0  0.90480650511E+03 -0.52774952865E+03  0.25843943893E+03  0.10788815135E+04  0.25500000920E-02 0.  1.
       -2    1    3    3    0  502 -0.90480650511E+03  0.52774952865E+03  0.42760857891E+03  0.11313900625E+04  0.25500000920E-02 0. -1.
</event>
<event>
 5   0  0.1395356E-05  0.2100482E+04  0.7818609E-02  0.8561031E-01
        2   -1    0    0  501    0  0.00000000000E+00  0.00000000000E+00  0.12721179970E+04  0.12721179970E+04  0.25500000920E-02 0.  1.
       -2   -1    0    0    0  501  0.00000000000E+00  0.00000000000E+00 -0.86706249690E+03  0.86706249690E+03  0.25500000920E-02 0. -1.
    10030    2    1    2    0    0  0.00000000000E+00  0.00000000000E+00  0.40505550011E+03  0.21391804939E+04  0.21004816656E+04 0.  0.
        1    1    3    3  502    0 -0.86831684691E+03 -0.33721689931E+03  0.69655926476E+03  0.11631355008E+04  0.50400001928E-02 0.  1.
       -1    1    3    3    0  502  0.86831684691E+03  0.33721689931E+03 -0.29150376465E+03  0.97604499314E+03  0.50400001928E-02 0. -1.
</event>
<event>
 5   0  0.1398469E-05  0.2099264E+04  0.7818609E-02  0.8561568E-01
        2   -1    0    0  501    0  0.00000000000E+00  0.00000000000E+00  0.23087108613E+04  0.23087108613E+04  0.25500000920E-02 0. -1.
       -2   -1    0    0    0  501  0.00000000000E+00  0.00000000000E+00 -0.47720434912E+03  0.47720434913E+03  0.25500000920E-02 0.  1.
    10030    2    1    2    0    0  0.00000000000E+00  0.00000000000E+00  0.18315065122E+04  0.27859152104E+04  0.20992635507E+04 0.  0.
        2    1    3    3  502    0  0.79923029237E+02 -0.99641290973E+03  0.49087559976E+03  0.11136360410E+04  0.25500000920E-02 0.  1.
       -2    1    3    3    0  502 -0.79923029237E+02  0.99641290973E+03  0.13406309124E+04  0.16722791694E+04  0.25500000920E-02 0. -1.
</event>
<event>
 5   0  0.5009125E-06  0.2101294E+04  0.7818609E-02  0.8560673E-01
        3   -1    0    0  501    0  0.00000000000E+00  0.00000000000E+00  0.97100967455E+03  0.97100967980E+03  0.10100000352E+00 0. -1.
       -3   -1    0    0    0  501  0.00000000000E+00  0.00000000000E+00 -0.11368162365E+04  0.11368162410E+04  0.10100000352E+00 0.  1.
    10030    2    1    2    0    0  0.00000000000E+00  0.00000000000E+00 -0.16580656197E+03  0.21078259208E+04  0.21012944335E+04 0.  0.
        2    1    3    3  502    0 -0.10140944027E+04 -0.27458180731E+03 -0.74104039939E+02  0.10532207913E+04  0.25500000920E-02 0.  1.
       -2    1    3    3    0  502  0.10140944027E+04  0.27458180731E+03 -0.91702522033E+02  0.10546051295E+04  0.25500000920E-02 0. -1.
</event>
<event>
 5   0  0.6238363E-06  0.2110796E+04  0.7818609E-02  0.8556502E-01
       -1   -1    0    0    0  501  0.00000000000E+00  0.00000000000E+00  0.59179173077E+03  0.59179173079E+03  0.50400001928E-02 0. -1.
        1   -1    0    0  501    0  0.00000000000E+00  0.00000000000E+00 -0.18821911148E+04  0.18821911148E+04  0.50400001928E-02 0.  1.
    10030    2    1    2    0    0  0.00000000000E+00  0.00000000000E+00 -0.12903993840E+04  0.24739828456E+04  0.21107961887E+04 0.  0.
        4    1    3    3  502    0 -0.75008266908E+03  0.46533877591E+03 -0.13232748115E+04  0.15906671640E+04  0.12699999809E+01 0.  1.
       -4    1    3    3    0  502  0.75008266908E+03 -0.46533877591E+03  0.32875427455E+02  0.88331568166E+03  0.12699999809E+01 0. -1.
</event>
<event>
 5   0  0.5009125E-06  0.2099089E+04  0.7818609E-02  0.8561645E-01
        3   -1    0    0  501    0  0.00000000000E+00  0.00000000000E+00  0.65182022120E+03  0.65182022902E+03  0.10100000352E+00 0.  1.
       -3   -1    0    0    0  501  0.00000000000E+00  0.00000000000E+00 -0.16899497808E+04  0.16899497839E+04  0.10100000352E+00 0. -1.
    10030    2    1    2    0    0  0.00000000000E+00  0.00000000000E+00 -0.10381295596E+04  0.23417700129E+04  0.20990888048E+04 0.  0.
        3    1    3    3  502    0 -0.27000364087E+03 -0.88621434010E+03  0.31177294489E+02  0.92695731108E+03  0.10100000352E+00 0.  1.
       -3    1    3    3    0  502  0.27000364087E+03  0.88621434010E+03 -0.10693068541E+04  0.14148127018E+04  0.10100000352E+00 0. -1.
</event>
<event>
 5   0  0.1441136E-05  0.2099931E+04  0.7818609E-02  0.8561274E-01
       -2   -1    0    0    0  501  0.00000000000E+00  0.00000000000E+00  0.11633103103E+04  0.11633103103E+04  0.25500000920E-02 0. -1.
        2   -1    0    0  501    0  0.00000000000E+00  0.00000000000E+00 -0.94766432700E+03  0.94766432700E+03  0.25500000920E-02 0.  1.
    10030    2    1    2    0    0  0.00000000000E+00  0.00000000000E+00  0.21564598330E+03  0.21109746373E+04  0.20999311249E+04 0.  0.
        4    1    3    3  502    0  0.54767900743E+03  0.55590878873E+03  0.81396945052E+03  0.11276234992E+04  0.12699999809E+01 0. -1.
       -4    1    3    3    0  502 -0.54767900743E+03 -0.55590878873E+03 -0.59832346722E+03  0.98335113815E+03  0.12699999809E+01 0.  1.
</event>
<event>
 5   0  0.1390735E-05  0.2103135E+04  0.7818609E-02  0.8559864E-01
       -2   -1    0    0    0  501  0.00000000000E+00  0.00000000000E+00  0.67925526981E+03  0.67925526982E+03  0.25500000920E-02 0. -1.
        2   -1    0    0  501    0  0.00000000000E+00  0.00000000000E+00 -0.16279509240E+04  0.16279509240E+04  0.25500000920E-02 0.  1.
    10030    2    1    2    0    0  0.00000000000E+00  0.00000000000E+00 -0.94869565420E+03  0.23072061938E+04  0.21031350353E+04 0.  0.
        5    1    3    3  502    0 -0.25366148016E+03 -0.10002243376E+04 -0.25227193092E+03  0.10622881385E+04  0.46999998093E+01 0.  1.
       -5    1    3    3    0  502  0.25366148016E+03  0.10002243376E+04 -0.69642372328E+03  0.12449180553E+04  0.46999998093E+01 0. -1.
</event>
<event>
 5   0  0.6283269E-06  0.2106848E+04  0.7818609E-02  0.8558233E-01
       -1   -1    0    0    0  501  0.00000000000E+00  0.00000000000E+00  0.72386074336E+03  0.72386074338E+03  0.50400001928E-02 0. -1.
        1   -1    0    0  501    0  0.00000000000E+00  0.00000000000E+00 -0.15330318996E+04  0.15330318996E+04  0.50400001928E-02 0.  1.
    10030    2    1    2    0    0  0.00000000000E+00  0.00000000000E+00 -0.80917115620E+03  0.22568926430E+04  0.21068475127E+04 0.  0.
        1    1    3    3  502    0  0.28874053195E+03 -0.30954302621E+03  0.62874472756E+03  0.75796300195E+03  0.50400001928E-02 0. -1.
       -1    1    3    3    0  502 -0.28874053195E+03  0.30954302621E+03 -0.14379158838E+04  0.14989296410E+04  0.50400001928E-02 0.  1.
</event>
<event>
 5   0  0.1441136E-05  0.2095593E+04  0.7818609E-02  0.8563187E-01
       -2   -1    0    0    0  501  0.00000000000E+00  0.00000000000E+00  0.93673591618E+03  0.93673591619E+03  0.25500000920E-02 0.  1.
        2   -1    0    0  501    0  0.00000000000E+00  0.00000000000E+00 -0.11720240553E+04  0.11720240553E+04  0.25500000920E-02 0. -1.
    10030    2    1    2    0    0  0.00000000000E+00  0.00000000000E+00 -0.23528813909E+03  0.21087599715E+04  0.20955925436E+04 0.  0.
        4    1    3    3  502    0  0.59021280355E+02  0.33130299762E+03 -0.11161643421E+04  0.11657914218E+04  0.12699999809E+01 0. -1.
       -4    1    3    3    0  502 -0.59021280355E+02 -0.33130299762E+03  0.88087620298E+03  0.94296854965E+03  0.12699999809E+01 0.  1.
</event>
<event>
 5   0  0.5009125E-06  0.2102782E+04  0.7818609E-02  0.8560019E-01
       -3   -1    0    0    0  501  0.00000000000E+00  0.00000000000E+00  0.44664553814E+03  0.44664554956E+03  0.10100000352E+00 0.  1.
        3   -1    0    0  501    0  0.00000000000E+00  0.00000000000E+00 -0.24749453828E+04  0.24749453848E+04  0.10100000352E+00 0. -1.
    10030    2    1    2    0    0  0.00000000000E+00  0.00000000000E+00 -0.20282998446E+04  0.29215909344E+04  0.21027822827E+04 0.  0.
        3    1    3    3  502    0 -0.79581638919E+03 -0.65115216809E+03 -0.13188690184E+04  0.16723451704E+04  0.10100000352E+00 0.  1.
       -3    1    3    3    0  502  0.79581638919E+03  0.65115216809E+03 -0.70943082627E+03  0.12492457640E+04  0.10100000352E+00 0. -1.
</event>
<event>
 5   0  0.6589193E-06  0.2108715E+04  0.7818609E-02  0.8557414E-01
        1   -1    0    0  501    0  0.00000000000E+00  0.00000000000E+00  0.16001454135E+04  0.16001454135E+04  0.50400001928E-02 0.  1.
       -1   -1    0    0    0  501  0.00000000000E+00  0.00000000000E+00 -0.69473044038E+03  0.69473044040E+03  0.50400001928E-02 0. -1.
    10030    2    1    2    0    0  0.00000000000E+00  0.00000000000E+00  0.90541497312E+03  0.22948758539E+04  0.21087149905E+04 0.  0.
        3    1    3    3  502    0 -0.18449299725E+03 -0.36309185341E+03 -0.60566887050E+03  0.72986858470E+03  0.10100000352E+00 0. -1.
       -3    1    3    3    0  502  0.18449299725E+03  0.36309185341E+03  0.15110838436E+04  0.15650072692E+04  0.10100000352E+00 0.  1.
</event>
<event>
 5   0  0.6599245E-06  0.2098333E+04  0.7818609E-02  0.8561978E-01
       -1   -1    0    0    0  501  0.00000000000E+00  0.00000000000E+00  0.10080954984E+04  0.10080954984E+04  0.50400001928E-02 0. -1.
        1   -1    0    0  501    0  0.00000000000E+00  0.00000000000E+00 -0.10919107032E+04  0.10919107032E+04  0.50400001928E-02 0.  1.
    10030    2    1    2    0    0  0.00000000000E+00  0.00000000000E+00 -0.83815204811E+02  0.21000062016E+04  0.20983329236E+04 0.  0.
        2    1    3    3  502    0 -0.10178460520E+04 -0.43338060028E+02  0.20901427194E+03  0.10399883360E+04  0.25500000920E-02 0. -1.
       -2    1    3    3    0  502  0.10178460520E+04  0.43338060028E+02 -0.29282947675E+03  0.10600178657E+04  0.25500000920E-02 0.  1.
</event>
<event>
 5   0  0.6599245E-06  0.2102040E+04  0.7818609E-02  0.8560345E-01
        1   -1    0    0  501    0  0.00000000000E+00  0.00000000000E+00  0.18629781400E+04  0.18629781400E+04  0.50400001928E-02 0.  1.
       -1   -1    0    0    0  501  0.00000000000E+00  0.00000000000E+00 -0.59294495633E+03  0.59294495635E+03  0.50400001928E-02 0. -1.
    10030    2    1    2    0    0  0.00000000000E+00  0.00000000000E+00  0.12700331837E+04  0.24559230964E+04  0.21020404296E+04 0.  0.
        2    1    3    3  502    0 -0.97537317023E+02 -0.56729627210E+03 -0.39240592775E+03  0.69664984080E+03  0.25500000920E-02 0. -1.
       -2    1    3    3    0  502  0.97537317023E+02  0.56729627210E+03  0.16624391114E+04  0.17592732556E+04  0.25500000920E-02 0.  1.
</event>
<event>
 5   0  0.6283269E-06  0.2100006E+04  0.7818609E-02  0.8561241E-01
        1   -1    0    0  501    0  0.00000000000E+00  0.00000000000E+00  0.14234102724E+04  0.14234102724E+04  0.50400001928E-02 0.  1.
       -1   -1    0    0    0  501  0.00000000000E+00  0.00000000000E+00 -0.77455242592E+03  0.77455242594E+03  0.50400001928E-02 0. -1.
    10030    2    1    2    0    0  0.00000000000E+00  0.00000000000E+00  0.64885784649E+03  0.21979626984E+04  0.21000055996E+04 0.  0.
        1    1    3    3  502    0  0.53740709836E+03 -0.42284274733E+03 -0.50954740937E+03  0.85278422872E+03  0.50400001928E-02 0. -1.
       -1    1    3    3    0  502 -0.53740709836E+03  0.42284274733E+03  0.11584052559E+04  0.13451784696E+04  0.50400001928E-02 0.  1.
</event>
<event>
 5   0  0.6917078E-06  0.2090514E+04  0.7818609E-02  0.8565434E-01
       -1   -1    0    0    0  501  0.00000000000E+00  0.00000000000E+00  0.84197861366E+03  0.84197861368E+03  0.50400001928E-02 0.  1.
        1   -1    0    0  501    0  0.00000000000E+00  0.00000000000E+00 -0.12976128516E+04  0.12976128516E+04  0.50400001928E-02 0. -1.
    10030    2    1    2    0    0  0.00000000000E+00  0.00000000000E+00 -0.45563423795E+03  0.21395914653E+04  0.20905140706E+04 0.  0.
        5    1    3    3  502    0 -0.51808241649E+02 -0.30829876494E+03  0.79299868988E+03  0.85240907697E+03  0.46999998093E+01 0.  1.
       -5    1    3    3    0  502  0.51808241649E+02  0.30829876494E+03 -0.12486329278E+04  0.12871823883E+04  0.46999998093E+01 0. -1.
</event>
<event>
 5   0  0.6599245E-06  0.2096969E+04  0.7818609E-02  0.8562580E-01
        1   -1    0    0  501    0  0.00000000000E+00  0.00000000000E+00  0.14297883810E+04  0.14297883810E+04  0.50400001928E-02 0. -1.
       -1   -1    0    0    0  501  0.00000000000E+00  0.00000000000E+00 -0.76886869679E+03  0.76886869680E+03  0.50400001928E-02 0.  1.
    10030    2    1    2    0    0  0.00000000000E+00  0.00000000000E+00  0.66091968420E+03  0.21986570778E+04  0.20969687925E+04 0.  0.
        2    1    3    3  502    0 -0.86250890224E+03 -0.35829826729E+03  0.83003157065E+03  0.12495005655E+04  0.25500000920E-02 0. -1.
       -2    1    3    3    0  502  0.86250890224E+03  0.35829826729E+03 -0.16911188645E+03  0.94915651234E+03  0.25500000920E-02 0.  1.
</event>
<event>
 5   0  0.1441136E-05  0.2052275E+04  0.7818609E-02  0.8582563E-01
        2   -1    0    0  501    0  0.00000000000E+00  0.00000000000E+00  0.66840403331E+03  0.66840403332E+03  0.25500000920E-02 0. -1.
       -2   -1    0    0    0  501  0.00000000000E+00  0.00000000000E+00 -0.15753311221E+04  0.15753311221E+04  0.25500000920E-02 0.  1.
    10030    2    1    2    0    0  0.00000000000E+00  0.00000000000E+00 -0.90692708878E+03  0.22437351554E+04  0.20522745195E+04 0.  0.
        4    1    3    3  502    0 -0.80516448237E+02 -0.32399067797E+03  0.60736950397E+03  0.69307444412E+03  0.12699999809E+01 0. -1.
       -4    1    3    3    0  502  0.80516448237E+02  0.32399067797E+03 -0.15142965927E+04  0.15506607113E+04  0.12699999809E+01 0.  1.
</event>
<event>
 5   0  0.1441136E-05  0.2105232E+04  0.7818609E-02  0.8558942E-01
        2   -1    0    0  501    0  0.00000000000E+00  0.00000000000E+00  0.18963246904E+04  0.18963246904E+04  0.25500000920E-02 0. -1.
       -2   -1    0    0    0  501  0.00000000000E+00  0.00000000000E+00 -0.58428836111E+03  0.58428836111E+03  0.25500000920E-02 0.  1.
    10030    2    1    2    0    0  0.00000000000E+00  0.00000000000E+00  0.13120363293E+04  0.24806130516E+04  0.21052320020E+04 0.  0.
        4    1    3    3  502    0 -0.87509880976E+03 -0.33391798325E+02  0.13441805656E+04  0.16042867403E+04  0.12699999809E+01 0. -1.
       -4    1    3    3    0  502  0.87509880976E+03  0.33391798325E+02 -0.32144236299E+02  0.87632631130E+03  0.12699999809E+01 0.  1.
</event>
<event>
 5   0  0.1395356E-05  0.2101995E+04  0.7818609E-02  0.8560365E-01
       -2   -1    0    0    0  501  0.00000000000E+00  0.00000000000E+00  0.56675004930E+03  0.56675004931E+03  0.25500000920E-02 0. -1.
        2   -1    0    0  501    0  0.00000000000E+00  0.00000000000E+00 -0.19490001557E+04  0.19490001557E+04  0.25500000920E-02 0.  1.
    10030    2    1    2    0    0  0.00000000000E+00  0.00000000000E+00 -0.13822501064E+04  0.25157502050E+04  0.21019951802E+04 0.  0.
        1    1    3    3  502    0  0.89590352451E+03  0.53709063557E+03 -0.55213466832E+03  0.11815084291E+04  0.50400001928E-02 0. -1.
       -1    1    3    3    0  502 -0.89590352451E+03 -0.53709063557E+03 -0.83011543810E+03  0.13342417759E+04  0.50400001928E-02 0.  1.
</event>
<event>
 5   0  0.6238363E-06  0.2099918E+04  0.7818609E-02  0.8561280E-01
       -1   -1    0    0    0  501  0.00000000000E+00  0.00000000000E+00  0.11044528615E+04  0.11044528615E+04  0.50400001928E-02 0.  1.
        1   -1    0    0  501    0  0.00000000000E+00  0.00000000000E+00 -0.99815369320E+03  0.99815369321E+03  0.50400001928E-02 0. -1.
    10030    2    1    2    0    0  0.00000000000E+00  0.00000000000E+00  0.10629916828E+03  0.21026065547E+04  0.20999178105E+04 0.  0.
        4    1    3    3  502    0  0.94527491835E+03 -0.79867246678E+02 -0.39741396091E+03  0.10285246315E+04  0.12699999809E+01 0. -1.
       -4    1    3    3    0  502 -0.94527491835E+03  0.79867246678E+02  0.50371312919E+03  0.10740819232E+04  0.12699999809E+01 0.  1.
</event>
<event>
 5   0  0.6238363E-06  0.2100271E+04  0.7818609E-02  0.8561124E-01
        1   -1    0    0  501    0  0.00000000000E+00  0.00000000000E+00  0.18191616140E+04  0.18191616140E+04  0.50400001928E-02 0. -1.
       -1   -1    0    0    0  501  0.00000000000E+00  0.00000000000E+00 -0.60620465530E+03  0.60620465532E+03  0.50400001928E-02 0.  1.
    10030    2    1    2    0    0  0.00000000000E+00  0.00000000000E+00  0.12129569587E+04  0.24253662693E+04  0.21002706865E+04 0.  0.
        4    1    3    3  502    0  0.34727183428E+02 -0.10275561156E+04  0.35959939873E+03  0.10892157217E+04  0.12699999809E+01 0.  1.
       -4    1    3    3    0  502 -0.34727183428E+02  0.10275561156E+04  0.85335755998E+03  0.13361505476E+04  0.12699999809E+01 0. -1.
</event>
<event>
 5   0  0.1390735E-05  0.2093420E+04  0.7818609E-02  0.8564148E-01
        2   -1    0    0  501    0  0.00000000000E+00  0.00000000000E+00  0.75982342530E+03  0.75982342531E+03  0.25500000920E-02 0.  1.
       -2   -1    0    0    0  501  0.00000000000E+00  0.00000000000E+00 -0.14419162099E+04  0.14419162099E+04  0.25500000920E-02 0. -1.
    10030    2    1    2    0    0  0.00000000000E+00  0.00000000000E+00 -0.68209278462E+03  0.22017396352E+04  0.20934198945E+04 0.  0.
        5    1    3    3  502    0 -0.49240987950E+03 -0.88650604614E+03 -0.68364582305E+02  0.10163937551E+04  0.46999998093E+01 0. -1.
       -5    1    3    3    0  502  0.49240987950E+03  0.88650604614E+03 -0.61372820231E+03  0.11853458801E+04  0.46999998093E+01 0.  1.
</event>
<event>
 5   0  0.6917078E-06  0.2109470E+04  0.7818609E-02  0.8557083E-01
       -1   -1    0    0    0  501  0.00000000000E+00  0.00000000000E+00  0.12610831114E+04  0.12610831114E+04  0.50400001928E-02 0. -1.
        1   -1    0    0  501    0  0.00000000000E+00  0.00000000000E+00 -0.88215125623E+03  0.88215125625E+03  0.50400001928E-02 0.  1.
    10030    2    1    2    0    0  0.00000000000E+00  0.00000000000E+00  0.37893185514E+03  0.21432343676E+04  0.21094701239E+04 0.  0.
        5    1    3    3  502    0 -0.54406052359E+02  0.13900390026E+03  0.12502861190E+04  0.12591741627E+04  0.46999998093E+01 0. -1.
       -5    1    3    3    0  502  0.54406052359E+02 -0.13900390026E+03 -0.87135426382E+03  0.88406020490E+03  0.46999998093E+01 0.  1.
</event>
<event>
 5   0  0.6917078E-06  0.2098430E+04  0.7818609E-02  0.8561935E-01
       -1   -1    0    0    0  501  0.00000000000E+00  0.00000000000E+00  0.74122174876E+03  0.74122174877E+03  0.50400001928E-02 0.  1.
        1   -1    0    0  501    0  0.00000000000E+00  0.00000000000E+00 -0.14851853570E+04  0.14851853570E+04  0.50400001928E-02 0. -1.
    10030    2    1    2    0    0  0.00000000000E+00  0.00000000000E+00 -0.74396360825E+03  0.22264071058E+04  0.20984295915E+04 0.  0.
        5    1    3    3  502    0  0.73192690186E+02 -0.56380520352E+03  0.56361174778E+03  0.80057090232E+03  0.46999998093E+01 0.  1.
       -5    1    3    3    0  502 -0.73192690186E+02  0.56380520352E+03 -0.13075753560E+04  0.14258362035E+04  0.46999998093E+01 0. -1.
</event>
<event>
 5   0  0.1398469E-05  0.2096486E+04  0.7818609E-02  0.8562793E-01
        2   -1    0    0  501    0  0.00000000000E+00  0.00000000000E+00  0.25241078961E+04  0.25241078961E+04  0.25500000920E-02 0.  1.
       -2   -1    0    0    0  501  0.00000000000E+00  0.00000000000E+00 -0.43532746565E+03  0.43532746566E+03  0.25500000920E-02 0. -1.
    10030    2    1    2    0    0  0.00000000000E+00  0.00000000000E+00  0.20887804304E+04  0.29594353617E+04  0.20964861015E+04 0.  0.
        2    1    3    3  502    0 -0.60926553782E+03  0.48848473341E+03  0.20315048678E+04  0.21764268558E+04  0.25500000920E-02 0.  1.
       -2    1    3    3    0  502  0.60926553782E+03 -0.48848473341E+03  0.57275562566E+02  0.78300850598E+03  0.25500000920E-02 0. -1.
</event>
<event>
 5   0  0.6589193E-06  0.2085609E+04  0.7818609E-02  0.8567609E-01
        1   -1    0    0  501    0  0.00000000000E+00  0.00000000000E+00  0.10056376451E+04  0.10056376451E+04  0.50400001928E-02 0.  1.
       -1   -1    0    0    0  501  0.00000000000E+00  0.00000000000E+00 -0.10813447376E+04  0.10813447376E+04  0.50400001928E-02 0. -1.
    10030    2    1    2    0    0  0.00000000000E+00  0.00000000000E+00 -0.75707092560E+02  0.20869823827E+04  0.20856087605E+04 0.  0.
        3    1    3    3  502    0  0.60055539645E+03 -0.60011586954E+03 -0.64375636784E+03  0.10654708407E+04  0.10100000352E+00 0. -1.
       -3    1    3    3    0  502 -0.60055539645E+03  0.60011586954E+03  0.56804927528E+03  0.10215115420E+04  0.10100000352E+00 0.  1.
</event>
<event>
 5   0  0.1344501E-05  0.2101214E+04  0.7818609E-02  0.8560709E-01
       -2   -1    0    0    0  501  0.00000000000E+00  0.00000000000E+00  0.70108848863E+03  0.70108848864E+03  0.25500000920E-02 0.  1.
        2   -1    0    0  501    0  0.00000000000E+00  0.00000000000E+00 -0.15743738579E+04  0.15743738579E+04  0.25500000920E-02 0. -1.
    10030    2    1    2    0    0  0.00000000000E+00  0.00000000000E+00 -0.87328536925E+03  0.22754623465E+04  0.21012143047E+04 0.  0.
        3    1    3    3  502    0 -0.13942993799E+02  0.21618510519E+03  0.67663870027E+03  0.71047191899E+03  0.10100000352E+00 0.  1.
       -3    1    3    3    0  502  0.13942993799E+02 -0.21618510519E+03 -0.15499240695E+04  0.15649904275E+04  0.10100000352E+00 0. -1.
</event>
<event>
 5   0  0.5009125E-06  0.2095600E+04  0.7818609E-02  0.8563184E-01
       -3   -1    0    0    0  501  0.00000000000E+00  0.00000000000E+00  0.77868023343E+03  0.77868023998E+03  0.10100000352E+00 0. -1.
        3   -1    0    0  501    0  0.00000000000E+00  0.00000000000E+00 -0.14099305478E+04  0.14099305514E+04  0.10100000352E+00 0.  1.
    10030    2    1    2    0    0  0.00000000000E+00  0.00000000000E+00 -0.63125031435E+03  0.21886107914E+04  0.20956002092E+04 0.  0.
        3    1    3    3  502    0  0.50415584635E+03 -0.31997256708E+02 -0.12743490163E+04  0.13708254329E+04  0.10100000352E+00 0.  1.
       -3    1    3    3    0  502 -0.50415584635E+03  0.31997256708E+02  0.64309870199E+03  0.81778535848E+03  0.10100000352E+00 0. -1.
</event>
<event>
 5   0  0.1441136E-05  0.2104865E+04  0.7818609E-02  0.8559103E-01
       -2   -1    0    0    0  501  0.00000000000E+00  0.00000000000E+00  0.70214829425E+03  0.70214829425E+03  0.25500000920E-02 0. -1.
        2   -1    0    0  501    0  0.00000000000E+00  0.00000000000E+00 -0.15774645343E+04  0.15774645343E+04  0.25500000920E-02 0.  1.
    10030    2    1    2    0    0  0.00000000000E+00  0.00000000000E+00 -0.87531624001E+03  0.22796128285E+04  0.21048648717E+04 0.  0.
        4    1    3    3  502    0  0.26823334746E+03 -0.33345950968E+03  0.60365855820E+03  0.73996597292E+03  0.12699999809E+01 0. -1.
       -4    1    3    3    0  502 -0.26823334746E+03  0.33345950968E+03 -0.14789747982E+04  0.15396468556E+04  0.12699999809E+01 0.  1.
</event>
<event>
 5   0  0.1441136E-05  0.2098472E+04  0.7818609E-02  0.8561917E-01
        2   -1    0    0  501    0  0.00000000000E+00  0.00000000000E+00  0.17799587001E+04  0.17799587001E+04  0.25500000920E-02 0.  1.
       -2   -1    0    0    0  501  0.00000000000E+00  0.00000000000E+00 -0.61849514207E+03  0.61849514208E+03  0.25500000920E-02 0. -1.
    10030    2    1    2    0    0  0.00000000000E+00  0.00000000000E+00  0.11614635580E+04  0.23984538422E+04  0.20984716430E+04 0.  0.
        4    1    3    3  502    0  0.88959698746E+03 -0.26580574011E+03  0.22134524998E+02  0.92872333968E+03  0.12699999809E+01 0. -1.
       -4    1    3    3    0  502 -0.88959698746E+03  0.26580574011E+03  0.11393290330E+04  0.14697305025E+04  0.12699999809E+01 0.  1.
</event>
<event>
 5   0  0.6599245E-06  0.2105534E+04  0.7818609E-02  0.8558809E-01
        1   -1    0    0  501    0  0.00000000000E+00  0.00000000000E+00  0.23338229705E+04  0.23338229705E+04  0.50400001928E-02 0. -1.
       -1   -1    0    0    0  501  0.00000000000E+00  0.00000000000E+00 -0.47489395097E+03  0.47489395100E+03  0.50400001928E-02 0.  1.
    10030    2    1    2    0    0  0.00000000000E+00  0.00000000000E+00  0.18589290195E+04  0.28087169215E+04  0.21055340523E+04 0.  0.
        2    1    3    3  502    0  0.40000488318E+03  0.30324771520E+03 -0.30498321411E+03  0.58734814568E+03  0.25500000920E-02 0.  1.
       -2    1    3    3    0  502 -0.40000488318E+03 -0.30324771520E+03  0.21639122337E+04  0.22213687758E+04  0.25500000920E-02 0. -1.
</event>
<event>
 5   0  0.1395356E-05  0.2098937E+04  0.7818609E-02  0.8561712E-01
        2   -1    0    0  501    0  0.00000000000E+00  0.00000000000E+00  0.71242532502E+03  0.71242532503E+03  0.25500000920E-02 0.  1.
       -2   -1    0    0    0  501  0.00000000000E+00  0.00000000000E+00 -0.15459644562E+04  0.15459644562E+04  0.25500000920E-02 0. -1.
    10030    2    1    2    0    0  0.00000000000E+00  0.00000000000E+00 -0.83353913116E+03  0.22583897812E+04  0.20989370931E+04 0.  0.
        1    1    3    3  502    0 -0.75898536495E+03  0.18547522154E+03  0.33711834885E+03  0.85094572281E+03  0.50400001928E-02 0.  1.
       -1    1    3    3    0  502  0.75898536495E+03 -0.18547522154E+03 -0.11706574800E+04  0.14074440584E+04  0.50400001928E-02 0. -1.
</event>
<event>
 5   0  0.6283269E-06  0.2101328E+04  0.7818609E-02  0.8560659E-01
       -1   -1    0    0    0  501  0.00000000000E+00  0.00000000000E+00  0.62187682233E+03  0.62187682235E+03  0.50400001928E-02 0.  1.
        1   -1    0    0  501    0  0.00000000000E+00  0.00000000000E+00 -0.17751013816E+04  0.17751013816E+04  0.50400001928E-02 0. -1.
    10030    2    1    2    0    0  0.00000000000E+00  0.00000000000E+00 -0.11532245593E+04  0.23969782040E+04  0.21013275866E+04 0.  0.
        1    1    3    3  502    0 -0.95787871567E+03  0.26481392264E+03 -0.96551530503E+03  0.13855965689E+04  0.50400001928E-02 0. -1.
       -1    1    3    3    0  502  0.95787871567E+03 -0.26481392264E+03 -0.18770925426E+03  0.10113816350E+04  0.50400001928E-02 0.  1.
</event>
<event>
 5   0  0.6917078E-06  0.2114683E+04  0.7818609E-02  0.8554803E-01
       -1   -1    0    0    0  501  0.00000000000E+00  0.00000000000E+00  0.99982076312E+03  0.99982076313E+03  0.50400001928E-02 0. -1.
        1   -1    0    0  501    0  0.00000000000E+00  0.00000000000E+00 -0.11181710116E+04  0.11181710117E+04  0.50400001928E-02 0.  1.
    10030    2    1    2    0    0  0.00000000000E+00  0.00000000000E+00 -0.11835024852E+03  0.21179917748E+04  0.21146825711E+04 0.  0.
        5    1    3    3  502    0 -0.37323400962E+03  0.46581020736E+03  0.81492521899E+03  0.10101524527E+04  0.46999998093E+01 0. -1.
       -5    1    3    3    0  502  0.37323400962E+03 -0.46581020736E+03 -0.93327546751E+03  0.11078393220E+04  0.46999998093E+01 0.  1.
</event>
<event>
 5   0  0.1395356E-05  0.2105745E+04  0.7818609E-02  0.8558717E-01
       -2   -1    0    0    0  501  0.00000000000E+00  0.00000000000E+00  0.55597707231E+03  0.55597707232E+03  0.25500000920E-02 0. -1.
        2   -1    0    0  501    0  0.00000000000E+00  0.00000000000E+00 -0.19938607682E+04  0.19938607682E+04  0.25500000920E-02 0.  1.
    10030    2    1    2    0    0  0.00000000000E+00  0.00000000000E+00 -0.14378836959E+04  0.25498378405E+04  0.21057453526E+04 0.  0.
        1    1    3    3  502    0  0.16815764633E+03  0.37067142573E+03 -0.18947374476E+04  0.19379639561E+04  0.50400001928E-02 0.  1.
       -1    1    3    3    0  502 -0.16815764633E+03 -0.37067142573E+03  0.45685375174E+03  0.61187388437E+03  0.50400001928E-02 0. -1.
</event>
<event>
 5   0  0.6917078E-06  0.2105083E+04  0.7818609E-02  0.8559008E-01
        1   -1    0    0  501    0  0.00000000000E+00  0.00000000000E+00  0.66607277908E+03  0.66607277910E+03  0.50400001928E-02 0.  1.
       -1   -1    0    0    0  501  0.00000000000E+00  0.00000000000E+00 -0.16632472380E+04  0.16632472380E+04  0.50400001928E-02 0. -1.
    10030    2    1    2    0    0  0.00000000000E+00  0.00000000000E+00 -0.99717445894E+03  0.23293200171E+04  0.21050830959E+04 0.  0.
        5    1    3    3  502    0 -0.81786744591E+03 -0.29357700495E+03  0.15858510052E+03  0.88332663326E+03  0.46999998093E+01 0.  1.
       -5    1    3    3    0  502  0.81786744591E+03  0.29357700495E+03 -0.11557595595E+04  0.14459933839E+04  0.46999998093E+01 0. -1.
</event>
<event>
 5   0  0.6589193E-06  0.2098127E+04  0.7818609E-02  0.8562069E-01
       -1   -1    0    0    0  501  0.00000000000E+00  0.00000000000E+00  0.97678357829E+03  0.97678357830E+03  0.50400001928E-02 0. -1.
        1   -1    0    0  501    0  0.00000000000E+00  0.00000000000E+00 -0.11266921219E+04  0.11266921219E+04  0.50400001928E-02 0.  1.
    10030    2    1    2    0    0  0.00000000000E+00  0.00000000000E+00 -0.14990854358E+03  0.21034757002E+04  0.20981271291E+04 0.  0.
        3    1    3    3  502    0 -0.91654888704E+02 -0.86744211528E+03  0.50935039167E+03  0.10100961705E+04  0.10100000352E+00 0. -1.
       -3    1    3    3    0  502  0.91654888704E+02  0.86744211528E+03 -0.65925893525E+03  0.10933795297E+04  0.10100000352E+00 0.  1.
</event>
<event>
 5   0  0.6238363E-06  0.2104778E+04  0.7818609E-02  0.8559142E-01
       -1   -1    0    0    0  501  0.00000000000E+00  0.00000000000E+00  0.12826986825E+04  0.12826986825E+04  0.50400001928E-02 0.  1.
        1   -1    0    0  501    0  0.00000000000E+00  0.00000000000E+00 -0.86343152865E+03  0.86343152867E+03  0.50400001928E-02 0. -1.
    10030    2    1    2    0    0  0.00000000000E+00  0.00000000000E+00  0.41926715387E+03  0.21461302112E+04  0.21047778831E+04 0.  0.
        4    1    3    3  502    0  0.33642906502E+03 -0.69267751887E+03  0.94103689192E+03  0.12159517695E+04  0.12699999809E+01 0.  1.
       -4    1    3    3    0  502 -0.33642906502E+03  0.69267751887E+03 -0.52176973805E+03  0.93017844169E+03  0.12699999809E+01 0. -1.
</event>
<event>
 5   0  0.1390735E-05  0.2102292E+04  0.7818609E-02  0.8560234E-01
        2   -1    0    0  501    0  0.00000000000E+00  0.00000000000E+00  0.13738238380E+04  0.13738238380E+04  0.25500000920E-02 0.  1.
       -2   -1    0    0    0  501  0.00000000000E+00  0.00000000000E+00 -0.80425721285E+03  0.80425721285E+03  0.25500000920E-02 0. -1.
    10030    2    1    2    0    0  0.00000000000E+00  0.00000000000E+00  0.56956662519E+03  0.21780810509E+04  0.21022918265E+04 0.  0.
        5    1    3    3  502    0 -0.67355308723E+03 -0.19181209880E+02 -0.55104961198E+03  0.87047081800E+03  0.46999998093E+01 0. -1.
       -5    1    3    3    0  502  0.67355308723E+03  0.19181209880E+02  0.11206162372E+04  0.13076102329E+04  0.46999998093E+01 0.  1.
</event>
<event>
 5   0  0.1395356E-05  0.2103557E+04  0.7818609E-02  0.8559678E-01
        2   -1    0    0  501    0  0.00000000000E+00  0.00000000000E+00  0.19914108701E+04  0.19914108702E+04  0.25500000920E-02 0. -1.
       -2   -1    0    0    0  501  0.00000000000E+00  0.00000000000E+00 -0.55550446112E+03  0.55550446113E+03  0.25500000920E-02 0.  1.
    10030    2    1    2    0    0  0.00000000000E+00  0.00000000000E+00  0.14359064090E+04  0.25469153313E+04  0.21035566285E+04 0.  0.
        1    1    3    3  502    0 -0.52884572900E+03  0.47209824785E+03  0.16586827736E+04  0.18038245768E+04  0.50400001928E-02 0. -1.
       -1    1    3    3    0  502  0.52884572900E+03 -0.47209824785E+03 -0.22277636453E+03  0.74309075443E+03  0.50400001928E-02 0.  1.
</event>
<event>
 5   0  0.6599245E-06  0.2100444E+04  0.7818609E-02  0.8561048E-01
       -1   -1    0    0    0  501  0.00000000000E+00  0.00000000000E+00  0.56078352595E+03  0.56078352597E+03  0.50400001928E-02 0. -1.
        1   -1    0    0  501    0  0.00000000000E+00  0.00000000000E+00 -0.19668308682E+04  0.19668308682E+04  0.50400001928E-02 0.  1.
    10030    2    1    2    0    0  0.00000000000E+00  0.00000000000E+00 -0.14060473423E+04  0.25276143942E+04  0.21004440952E+04 0.  0.
        2    1    3    3  502    0  0.46129093469E+03 -0.88866901424E+03 -0.10844077597E+04  0.14759614266E+04  0.25500000920E-02 0.  1.
       -2    1    3    3    0  502 -0.46129093469E+03  0.88866901424E+03 -0.32163958252E+03  0.10516529676E+04  0.25500000920E-02 0. -1.
</event>
<event>
 5   0  0.6917078E-06  0.2100555E+04  0.7818609E-02  0.8560999E-01
       -1   -1    0    0    0  501  0.00000000000E+00  0.00000000000E+00  0.10213413321E+04  0.10213413321E+04  0.50400001928E-02 0.  1.
        1   -1    0    0  501    0  0.00000000000E+00  0.00000000000E+00 -0.10800332924E+04  0.10800332924E+04  0.50400001928E-02 0. -1.
    10030    2    1    2    0    0  0.00000000000E+00  0.00000000000E+00 -0.58691960300E+02  0.21013746245E+04  0.21005548235E+04 0.  0.
        5    1    3    3  502    0 -0.51878203223E+03 -0.13507047674E+03 -0.93284945609E+03  0.10759224082E+04  0.46999998093E+01 0. -1.
       -5    1    3    3    0  502  0.51878203223E+03  0.13507047674E+03  0.87415749579E+03  0.10254522164E+04  0.46999998093E+01 0.  1.
</event>
<event>
 5   0  0.1344501E-05  0.2098832E+04  0.7818609E-02  0.8561758E-01
        2   -1    0    0  501    0  0.00000000000E+00  0.00000000000E+00  0.16899168164E+04  0.16899168164E+04  0.25500000920E-02 0.  1.
       -2   -1    0    0    0  501  0.00000000000E+00  0.00000000000E+00 -0.65167321294E+03  0.65167321295E+03  0.25500000920E-02 0. -1.
    10030    2    1    2    0    0  0.00000000000E+00  0.00000000000E+00  0.10382436034E+04  0.23415900293E+04  0.20988316001E+04 0.  0.
        3    1    3    3  502    0  0.23719151128E+03  0.35035116676E+01 -0.62136878970E+03  0.66510996883E+03  0.10100000352E+00 0. -1.
       -3    1    3    3    0  502 -0.23719151128E+03 -0.35035116676E+01  0.16596123931E+04  0.16764800605E+04  0.10100000352E+00 0.  1.
</event>
<event>
 5   0  0.1395356E-05  0.2105059E+04  0.7818609E-02  0.8559018E-01
       -2   -1    0    0    0  501  0.00000000000E+00  0.00000000000E+00  0.82953927935E+03  0.82953927935E+03  0.25500000920E-02 0.  1.
        2   -1    0    0  501    0  0.00000000000E+00  0.00000000000E+00 -0.13354622130E+04  0.13354622130E+04  0.25500000920E-02 0. -1.
    10030    2    1    2    0    0  0.00000000000E+00  0.00000000000E+00 -0.50592293365E+03  0.21650014924E+04  0.21050590127E+04 0.  0.
        1    1    3    3  502    0  0.49494689958E+03 -0.34915762573E+03 -0.11382481776E+04  0.12893767467E+04  0.50400001928E-02 0. -1.
       -1    1    3    3    0  502 -0.49494689958E+03  0.34915762573E+03  0.63232524398E+03  0.87562474566E+03  0.50400001928E-02 0.  1.
</event>
<event>
 5   0  0.6917078E-06  0.2099842E+04  0.7818609E-02  0.8561313E-01
       -1   -1    0    0    0  501  0.00000000000E+00  0.00000000000E+00  0.19860823116E+04  0.19860823116E+04  0.50400001928E-02 0. -1.
        1   -1    0    0  501    0  0.00000000000E+00  0.00000000000E+00 -0.55502922589E+03  0.55502922592E+03  0.50400001928E-02 0.  1.
    10030    2    1    2    0    0  0.00000000000E+00  0.00000000000E+00  0.14310530857E+04  0.25411115375E+04  0.20998416398E+04 0.  0.
        5    1    3    3  502    0 -0.55787859480E+03  0.32293843919E+03 -0.28735673871E+03  0.70577173883E+03  0.46999998093E+01 0.  1.
       -5    1    3    3    0  502  0.55787859480E+03 -0.32293843919E+03  0.17184098244E+04  0.18353397987E+04  0.46999998093E+01 0. -1.
</event>
<event>
 5   0  0.6599245E-06  0.2103916E+04  0.7818609E-02  0.8559520E-01
       -1   -1    0    0    0  501  0.00000000000E+00  0.00000000000E+00  0.84948471370E+03  0.84948471372E+03  0.50400001928E-02 0.  1.
        1   -1    0    0  501    0  0.00000000000E+00  0.00000000000E+00 -0.13026909039E+04  0.13026909039E+04  0.50400001928E-02 0. -1.
    10030    2    1    2    0    0  0.00000000000E+00  0.00000000000E+00 -0.45320619020E+03  0.21521756176E+04  0.21039163572E+04 0.  0.
        2    1    3    3  502    0  0.76196323087E+03  0.68567182393E+03 -0.46841961237E+03  0.11270096488E+04  0.25500000920E-02 0. -1.
       -2    1    3    3    0  502 -0.76196323087E+03 -0.68567182393E+03  0.15213422174E+02  0.10251659688E+04  0.25500000920E-02 0.  1.
</event>
<event>
 5   0  0.6917078E-06  0.2101149E+04  0.7818609E-02  0.8560738E-01
       -1   -1    0    0    0  501  0.00000000000E+00  0.00000000000E+00  0.75244647227E+03  0.75244647228E+03  0.50400001928E-02 0. -1.
        1   -1    0    0  501    0  0.00000000000E+00  0.00000000000E+00 -0.14668236841E+04  0.14668236841E+04  0.50400001928E-02 0.  1.
    10030    2    1    2    0    0  0.00000000000E+00  0.00000000000E+00 -0.71437721179E+03  0.22192701564E+04  0.21011485493E+04 0.  0.
        5    1    3    3  502    0  0.80662344086E+03  0.59213030599E+03 -0.69521874994E+03  0.12184460903E+04  0.46999998093E+01 0.  1.
       -5    1    3    3    0  502 -0.80662344086E+03 -0.59213030599E+03 -0.19158461855E+02  0.10008240661E+04  0.46999998093E+01 0. -1.
</event>
<event>
 5   0  0.6599245E-06  0.2109669E+04  0.7818609E-02  0.8556996E-01
        1   -1    0    0  501    0  0.00000000000E+00  0.00000000000E+00  0.12415662927E+04  0.12415662927E+04  0.50400001928E-02 0. -1.
       -1   -1    0    0    0  501  0.00000000000E+00  0.00000000000E+00 -0.89618730259E+03  0.89618730261E+03  0.50400001928E-02 0.  1.
    10030    2    1    2    0    0  0.00000000000E+00  0.00000000000E+00  0.34537899007E+03  0.21377535953E+04  0.21096691180E+04 0.  0.
        2    1    3    3  502    0  0.89243598169E+03 -0.55174424210E+03  0.28282053463E+03  0.10866697497E+04  0.25500000920E-02 0.  1.
       -2    1    3    3    0  502 -0.89243598169E+03  0.55174424210E+03  0.62558455447E+02  0.10510838456E+04  0.25500000920E-02 0. -1.
</event>
<event>
 5   0  0.6917078E-06  0.2102439E+04  0.7818609E-02  0.8560170E-01
       -1   -1    0    0    0  501  0.00000000000E+00  0.00000000000E+00  0.16234007749E+04  0.16234007749E+04  0.50400001928E-02 0. -1.
        1   -1    0    0  501    0  0.00000000000E+00  0.00000000000E+00 -0.68070864097E+03  0.68070864099E+03  0.50400001928E-02 0.  1.
    10030    2    1    2    0    0  0.00000000000E+00  0.00000000000E+00  0.94269213390E+03  0.23041094159E+04  0.21024394738E+04 0.  0.
        5    1    3    3  502    0 -0.62493476752E+03 -0.47235512267E+03  0.12395693396E+04  0.14663618460E+04  0.46999998093E+01 0. -1.
       -5    1    3    3    0  502  0.62493476752E+03  0.47235512267E+03 -0.29687720575E+03  0.83774756989E+03  0.46999998093E+01 0.  1.
</event>
<event>
 5   0  0.6599245E-06  0.2105406E+04  0.7818609E-02  0.8558866E-01
       -1   -1    0    0    0  501  0.00000000000E+00  0.00000000000E+00  0.16224554209E+04  0.16224554209E+04  0.50400001928E-02 0. -1.
        1   -1    0    0  501    0  0.00000000000E+00  0.00000000000E+00 -0.68302884939E+03  0.68302884941E+03  0.50400001928E-02 0.  1.
    10030    2    1    2    0    0  0.00000000000E+00  0.00000000000E+00  0.93942657150E+03  0.23054842703E+04  0.21054062405E+04 0.  0.
        2    1    3    3  502    0  0.47957226126E+03  0.90610210208E+03  0.20788121817E+03  0.10460521851E+04  0.25500000920E-02 0.  1.
       -2    1    3    3    0  502 -0.47957226126E+03 -0.90610210208E+03  0.73154535334E+03  0.12594320852E+04  0.25500000920E-02 0. -1.
</event>
<event>
 5   0  0.1344501E-05  0.2099299E+04  0.7818609E-02  0.8561552E-01
       -2   -1    0    0    0  501  0.00000000000E+00  0.00000000000E+00  0.11482284197E+04  0.11482284197E+04  0.25500000920E-02 0. -1.
        2   -1    0    0  501    0  0.00000000000E+00  0.00000000000E+00 -0.95953362755E+03  0.95953362756E+03  0.25500000920E-02 0.  1.
    10030    2    1    2    0    0  0.00000000000E+00  0.00000000000E+00  0.18869479213E+03  0.21077620472E+04  0.20992987218E+04 0.  0.
        3    1    3    3  502    0 -0.69802540728E+03  0.45132483341E+03 -0.54919700667E+03  0.99626850637E+03  0.10100000352E+00 0.  1.
       -3    1    3    3    0  502  0.69802540728E+03 -0.45132483341E+03  0.73789179879E+03  0.11114935409E+04  0.10100000352E+00 0. -1.
</event>
<event>
 5   0  0.1398469E-05  0.2103512E+04  0.7818609E-02  0.8559698E-01
       -2   -1    0    0    0  501  0.00000000000E+00  0.00000000000E+00  0.17918574181E+04  0.17918574181E+04  0.25500000920E-02 0.  1.
        2   -1    0    0  501    0  0.00000000000E+00  0.00000000000E+00 -0.61734287768E+03  0.61734287768E+03  0.25500000920E-02 0. -1.
    10030    2    1    2    0    0  0.00000000000E+00  0.00000000000E+00  0.11745145404E+04  0.24092002958E+04  0.21035117446E+04 0.  0.
        2    1    3    3  502    0  0.29684059038E+03  0.10089040506E+04  0.57152437684E+03  0.11969301704E+04  0.25500000920E-02 0.  1.
       -2    1    3    3    0  502 -0.29684059038E+03 -0.10089040506E+04  0.60299016359E+03  0.12122701254E+04  0.25500000920E-02 0. -1.
</event>
<event>
 5   0  0.1395356E-05  0.2099543E+04  0.7818609E-02  0.8561445E-01
       -2   -1    0    0    0  501  0.00000000000E+00  0.00000000000E+00  0.84458577052E+03  0.84458577052E+03  0.25500000920E-02 0. -1.
        2   -1    0    0  501    0  0.00000000000E+00  0.00000000000E+00 -0.13048052534E+04  0.13048052534E+04  0.25500000920E-02 0.  1.
    10030    2    1    2    0    0  0.00000000000E+00  0.00000000000E+00 -0.46021948292E+03  0.21493910240E+04  0.20995427601E+04 0.  0.
        1    1    3    3  502    0  0.84688836206E+02  0.49377965104E+03  0.71430550707E+03  0.87248088817E+03  0.50400001928E-02 0. -1.
       -1    1    3    3    0  502 -0.84688836206E+02 -0.49377965104E+03 -0.11745249900E+04  0.12769101358E+04  0.50400001928E-02 0.  1.
</event>
<event>
 5   0  0.6599245E-06  0.2114180E+04  0.7818609E-02  0.8555023E-01
       -1   -1    0    0    0  501  0.00000000000E+00  0.00000000000E+00  0.90922913443E+03  0.90922913445E+03  0.50400001928E-02 0. -1.
        1   -1    0    0  501    0  0.00000000000E+00  0.00000000000E+00 -0.12289964361E+04  0.12289964361E+04  0.50400001928E-02 0.  1.
    10030    2    1    2    0    0  0.00000000000E+00  0.00000000000E+00 -0.31976730162E+03  0.21382255705E+04  0.21141800924E+04 0.  0.
        2    1    3    3  502    0 -0.41976272408E+03  0.56867817938E+03  0.63508658464E+03  0.95022659730E+03  0.25500000920E-02 0. -1.
       -2    1    3    3    0  502  0.41976272408E+03 -0.56867817938E+03 -0.95485388626E+03  0.11879989732E+04  0.25500000920E-02 0.  1.
</event>
<event>
 5   0  0.1441136E-05  0.2118165E+04  0.7818609E-02  0.8553284E-01
        2   -1    0    0  501    0  0.00000000000E+00  0.00000000000E+00  0.18873814018E+04  0.18873814018E+04  0.25500000920E-02 0. -1.
       -2   -1    0    0    0  501  0.00000000000E+00  0.00000000000E+00 -0.59429189126E+03  0.59429189127E+03  0.25500000920E-02 0.  1.
    10030    2    1    2    0    0  0.00000000000E+00  0.00000000000E+00  0.12930895105E+04  0.24816732931E+04  0.21181647366E+04 0.  0.
        4    1    3    3  502    0 -0.33771096072E+03  0.47232202069E+03  0.16842788150E+04  0.17815536825E+04  0.12699999809E+01 0. -1.
       -4    1    3    3    0  502  0.33771096072E+03 -0.47232202069E+03 -0.39118930446E+03  0.70011961053E+03  0.12699999809E+01 0.  1.
</event>
<event>
 5   0  0.6238363E-06  0.2102120E+04  0.7818609E-02  0.8560310E-01
       -1   -1    0    0    0  501  0.00000000000E+00  0.00000000000E+00  0.10542979713E+04  0.10542979713E+04  0.50400001928E-02 0. -1.
        1   -1    0    0  501    0  0.00000000000E+00  0.00000000000E+00 -0.10478321065E+04  0.10478321066E+04  0.50400001928E-02 0.  1.
    10030    2    1    2    0    0  0.00000000000E+00  0.00000000000E+00  0.64658647683E+01  0.21021300779E+04  0.21021201338E+04 0.  0.
        4    1    3    3  502    0 -0.25950156392E+02 -0.10500657297E+04 -0.34373150209E+02  0.10509493678E+04  0.12699999809E+01 0. -1.
       -4    1    3    3    0  502  0.25950156392E+02  0.10500657297E+04  0.40839014977E+02  0.10511807101E+04  0.12699999809E+01 0.  1.
</event>
<event>
 5   0  0.6238363E-06  0.2100716E+04  0.7818609E-02  0.8560928E-01
       -1   -1    0    0    0  501  0.00000000000E+00  0.00000000000E+00  0.68049566362E+03  0.68049566363E+03  0.50400001928E-02 0.  1.
        1   -1    0    0  501    0  0.00000000000E+00  0.00000000000E+00 -0.16212481666E+04  0.16212481666E+04  0.50400001928E-02 0. -1.
    10030    2    1    2    0    0  0.00000000000E+00  0.00000000000E+00 -0.94075250297E+03  0.23017438302E+04  0.21007163988E+04 0.  0.
        4    1    3    3  502    0 -0.37460707629E+03  0.13285533943E+03 -0.15356652397E+04  0.15862693164E+04  0.12699999809E+01 0. -1.
       -4    1    3    3    0  502  0.37460707629E+03 -0.13285533943E+03  0.59491273669E+03  0.71547451387E+03  0.12699999809E+01 0.  1.
</event>
<event>
 5   0  0.1344501E-05  0.2098560E+04  0.7818609E-02  0.8561878E-01
       -2   -1    0    0    0  501  0.00000000000E+00  0.00000000000E+00  0.79257613344E+03  0.79257613344E+03  0.25500000920E-02 0.  1.
        2   -1    0    0  501    0  0.00000000000E+00  0.00000000000E+00 -0.13891261793E+04  0.13891261793E+04  0.25500000920E-02 0. -1.
    10030    2    1    2    0    0  0.00000000000E+00  0.00000000000E+00 -0.59655004587E+03  0.21817023128E+04  0.20985597500E+04 0.  0.
        3    1    3    3  502    0  0.81581707540E+03  0.63928168942E+03 -0.12824197396E+03  0.10443584600E+04  0.10100000352E+00 0.  1.
       -3    1    3    3    0  502 -0.81581707540E+03 -0.63928168942E+03 -0.46830807191E+03  0.11373438527E+04  0.10100000352E+00 0. -1.
</event>
<event>
 5   0  0.6917078E-06  0.2081102E+04  0.7818609E-02  0.8569614E-01
       -1   -1    0    0    0  501  0.00000000000E+00  0.00000000000E+00  0.66544776847E+03  0.66544776848E+03  0.50400001928E-02 0.  1.
        1   -1    0    0  501    0  0.00000000000E+00  0.00000000000E+00 -0.16270944474E+04  0.16270944474E+04  0.50400001928E-02 0. -1.
    10030    2    1    2    0    0  0.00000000000E+00  0.00000000000E+00 -0.96164667897E+03  0.22925422159E+04  0.20811019861E+04 0.  0.
        5    1    3    3  502    0  0.89213094448E+02  0.10086517957E+04 -0.74471775595E+03  0.12569662077E+04  0.46999998093E+01 0.  1.
       -5    1    3    3    0  502 -0.89213094448E+02 -0.10086517957E+04 -0.21692892302E+03  0.10355760083E+04  0.46999998093E+01 0. -1.
</event>
<event>
 5   0  0.1344501E-05  0.2101092E+04  0.7818609E-02  0.8560762E-01
        2   -1    0    0  501    0  0.00000000000E+00  0.00000000000E+00  0.17927833431E+04  0.17927833431E+04  0.25500000920E-02 0. -1.
       -2   -1    0    0    0  501  0.00000000000E+00  0.00000000000E+00 -0.61560535743E+03  0.61560535744E+03  0.25500000920E-02 0.  1.
    10030    2    1    2    0    0  0.00000000000E+00  0.00000000000E+00  0.11771779857E+04  0.24083887006E+04  0.21010921263E+04 0.  0.
        3    1    3    3  502    0  0.23006127388E+03  0.13106200151E+03 -0.57673171201E+03  0.63460611076E+03  0.10100000352E+00 0.  1.
       -3    1    3    3    0  502 -0.23006127388E+03 -0.13106200151E+03  0.17539096977E+04  0.17737825898E+04  0.10100000352E+00 0. -1.
</event>
<event>
 5   0  0.6238363E-06  0.2100979E+04  0.7818609E-02  0.8560812E-01
        1   -1    0    0  501    0  0.00000000000E+00  0.00000000000E+00  0.10801796264E+04  0.10801796264E+04  0.50400001928E-02 0.  1.
       -1   -1    0    0    0  501  0.00000000000E+00  0.00000000000E+00 -0.10216152276E+04  0.10216152276E+04  0.50400001928E-02 0. -1.
    10030    2    1    2    0    0  0.00000000000E+00  0.00000000000E+00  0.58564398723E+02  0.21017948540E+04  0.21009787766E+04 0.  0.
        4    1    3    3  502    0  0.63820664720E+03 -0.41998643361E+03  0.75055463317E+03  0.10709949576E+04  0.12699999809E+01 0. -1.
       -4    1    3    3    0  502 -0.63820664720E+03  0.41998643361E+03 -0.69199023445E+03  0.10307998964E+04  0.12699999809E+01 0.  1.
</event>
<event>
 5   0  0.6917078E-06  0.2098092E+04  0.7818609E-02  0.8562084E-01
        1   -1    0    0  501    0  0.00000000000E+00  0.00000000000E+00  0.15530651514E+04  0.15530651514E+04  0.50400001928E-02 0.  1.
       -1   -1    0    0    0  501  0.00000000000E+00  0.00000000000E+00 -0.70859725684E+03  0.70859725686E+03  0.50400001928E-02 0. -1.
    10030    2    1    2    0    0  0.00000000000E+00  0.00000000000E+00  0.84446789452E+03  0.22616624082E+04  0.20980921867E+04 0.  0.
        5    1    3    3  502    0  0.74202898752E+03 -0.74107288344E+03  0.39413285400E+03  0.11203387137E+04  0.46999998093E+01 0. -1.
       -5    1    3    3    0  502 -0.74202898752E+03  0.74107288344E+03  0.45033504051E+03  0.11413236945E+04  0.46999998093E+01 0.  1.
</event>
<event>
 5   0  0.1390735E-05  0.2099800E+04  0.7818609E-02  0.8561332E-01
       -2   -1    0    0    0  501  0.00000000000E+00  0.00000000000E+00  0.86623112001E+03  0.86623112001E+03  0.25500000920E-02 0. -1.
        2   -1    0    0  501    0  0.00000000000E+00  0.00000000000E+00 -0.12725120287E+04  0.12725120287E+04  0.25500000920E-02 0.  1.
    10030    2    1    2    0    0  0.00000000000E+00  0.00000000000E+00 -0.40628090868E+03  0.21387431487E+04  0.20997995331E+04 0.  0.
        5    1    3    3  502    0  0.83546872245E+03 -0.62380633923E+03 -0.77875423717E+02  0.10455759210E+04  0.46999998093E+01 0.  1.
       -5    1    3    3    0  502 -0.83546872245E+03  0.62380633923E+03 -0.32840548497E+03  0.10931672277E+04  0.46999998093E+01 0. -1.
</event>
<event>
 5   0  0.6283269E-06  0.2102026E+04  0.7818609E-02  0.8560351E-01
       -1   -1    0    0    0  501  0.00000000000E+00  0.00000000000E+00  0.59343886850E+03  0.59343886852E+03  0.50400001928E-02 0. -1.
        1   -1    0    0  501    0  0.00000000000E+00  0.00000000000E+00 -0.18614018277E+04  0.18614018277E+04  0.50400001928E-02 0.  1.
    10030    2    1    2    0    0  0.00000000000E+00  0.00000000000E+00 -0.12679629592E+04  0.24548406962E+04  0.21020258747E+04 0.  0.
        1    1    3    3  502    0  0.10428784309E+04 -0.13048495891E+03 -0.63694706474E+03  0.12289521184E+04  0.50400001928E-02 0.  1.
       -1    1    3    3    0  502 -0.10428784309E+04  0.13048495891E+03 -0.63101589445E+03  0.12258885778E+04  0.50400001928E-02 0. -1.
</event>
<event>
 5   0  0.1390735E-05  0.2099665E+04  0.7818609E-02  0.8561391E-01
       -2   -1    0    0    0  501  0.00000000000E+00  0.00000000000E+00  0.86687242152E+03  0.86687242152E+03  0.25500000920E-02 0.  1.
        2   -1    0    0  501    0  0.00000000000E+00  0.00000000000E+00 -0.12714076426E+04  0.12714076426E+04  0.25500000920E-02 0. -1.
    10030    2    1    2    0    0  0.00000000000E+00  0.00000000000E+00 -0.40453522111E+03  0.21382800642E+04  0.20996649465E+04 0.  0.
        5    1    3    3  502    0 -0.84392796297E+03  0.40147907102E+03 -0.68931657371E+03  0.11612834624E+04  0.46999998093E+01 0. -1.
       -5    1    3    3    0  502  0.84392796297E+03 -0.40147907102E+03  0.28478135260E+03  0.97699660180E+03  0.46999998093E+01 0.  1.
</event>
<event>
 5   0  0.6599245E-06  0.2095295E+04  0.7818609E-02  0.8563319E-01
        1   -1    0    0  501    0  0.00000000000E+00  0.00000000000E+00  0.89509970243E+03  0.89509970245E+03  0.50400001928E-02 0. -1.
       -1   -1    0    0    0  501  0.00000000000E+00  0.00000000000E+00 -0.12261933812E+04  0.12261933812E+04  0.50400001928E-02 0.  1.
    10030    2    1    2    0    0  0.00000000000E+00  0.00000000000E+00 -0.33109367875E+03  0.21212930836E+04  0.20952950443E+04 0.  0.
        2    1    3    3  502    0 -0.66308236492E+03 -0.16960976859E+03  0.63746529848E+03  0.93531155400E+03  0.25500000920E-02 0. -1.
       -2    1    3    3    0  502  0.66308236492E+03  0.16960976859E+03 -0.96855897723E+03  0.11859815296E+04  0.25500000920E-02 0.  1.
</event>
<event>
 5   0  0.6589193E-06  0.2102107E+04  0.7818609E-02  0.8560316E-01
        1   -1    0    0  501    0  0.00000000000E+00  0.00000000000E+00  0.76054781888E+03  0.76054781889E+03  0.50400001928E-02 0. -1.
       -1   -1    0    0    0  501  0.00000000000E+00  0.00000000000E+00 -0.14525235199E+04  0.14525235200E+04  0.50400001928E-02 0.  1.
    10030    2    1    2    0    0  0.00000000000E+00  0.00000000000E+00 -0.69197570106E+03  0.22130713388E+04  0.21021071286E+04 0.  0.
        3    1    3    3  502    0 -0.34817842992E+03  0.84317718197E+03 -0.89559678845E+03  0.12783855431E+04  0.10100000352E+00 0.  1.
       -3    1    3    3    0  502  0.34817842992E+03 -0.84317718197E+03  0.20362108739E+03  0.93468579570E+03  0.10100000352E+00 0. -1.
</event>
<event>
 5   0  0.6917078E-06  0.2093030E+04  0.7818609E-02  0.8564320E-01
        1   -1    0    0  501    0  0.00000000000E+00  0.00000000000E+00  0.10468779955E+04  0.10468779955E+04  0.50400001928E-02 0.  1.
       -1   -1    0    0    0  501  0.00000000000E+00  0.00000000000E+00 -0.10461516761E+04  0.10461516761E+04  0.50400001928E-02 0. -1.
    10030    2    1    2    0    0  0.00000000000E+00  0.00000000000E+00  0.72631947497E+00  0.20930296716E+04  0.20930295456E+04 0.  0.
        5    1    3    3  502    0 -0.84286081070E+03  0.15761691897E+03 -0.59956490568E+03  0.10463066498E+04  0.46999998093E+01 0. -1.
       -5    1    3    3    0  502  0.84286081070E+03 -0.15761691897E+03  0.60029122515E+03  0.10467230218E+04  0.46999998093E+01 0.  1.
</event>
<event>
 5   0  0.1398469E-05  0.2100707E+04  0.7818609E-02  0.8560932E-01
       -2   -1    0    0    0  501  0.00000000000E+00  0.00000000000E+00  0.66036058114E+03  0.66036058114E+03  0.25500000920E-02 0. -1.
        2   -1    0    0  501    0  0.00000000000E+00  0.00000000000E+00 -0.16706667245E+04  0.16706667245E+04  0.25500000920E-02 0.  1.
    10030    2    1    2    0    0  0.00000000000E+00  0.00000000000E+00 -0.10103061434E+04  0.23310273056E+04  0.21007069754E+04 0.  0.
        2    1    3    3  502    0  0.70476291468E+02  0.64606173571E+01  0.65771189432E+03  0.66150856622E+03  0.25500000920E-02 0. -1.
       -2    1    3    3    0  502 -0.70476291468E+02 -0.64606173571E+01 -0.16680180377E+04  0.16695187394E+04  0.25500000920E-02 0.  1.
</event>
<event>
 5   0  0.1395356E-05  0.2100030E+04  0.7818609E-02  0.8561230E-01
       -2   -1    0    0    0  501  0.00000000000E+00  0.00000000000E+00  0.15495974855E+04  0.15495974855E+04  0.25500000920E-02 0. -1.
        2   -1    0    0  501    0  0.00000000000E+00  0.00000000000E+00 -0.71149531551E+03  0.71149531552E+03  0.25500000920E-02 0.  1.
    10030    2    1    2    0    0  0.00000000000E+00  0.00000000000E+00  0.83810217000E+03  0.22610928010E+04  0.21000298587E+04 0.  0.
        1    1    3    3  502    0  0.71279132248E+03  0.50926130606E+03  0.10423386016E+04  0.13615756710E+04  0.50400001928E-02 0.  1.
       -1    1    3    3    0  502 -0.71279132248E+03 -0.50926130606E+03 -0.20423643164E+03  0.89951713007E+03  0.50400001928E-02 0. -1.
</event>
<event>
 5   0  0.6283269E-06  0.2100225E+04  0.7818609E-02  0.8561144E-01
       -1   -1    0    0    0  501  0.00000000000E+00  0.00000000000E+00  0.72391926740E+03  0.72391926742E+03  0.50400001928E-02 0. -1.
        1   -1    0    0  501    0  0.00000000000E+00  0.00000000000E+00 -0.15232866891E+04  0.15232866891E+04  0.50400001928E-02 0.  1.
    10030    2    1    2    0    0  0.00000000000E+00  0.00000000000E+00 -0.79936742170E+03  0.22472059565E+04  0.21002253061E+04 0.  0.
        1    1    3    3  502    0 -0.99342049809E+03  0.27579205809E+03 -0.61312067170E+03  0.11995259495E+04  0.50400001928E-02 0. -1.
       -1    1    3    3    0  502  0.99342049809E+03 -0.27579205809E+03 -0.18624675000E+03  0.10476800071E+04  0.50400001928E-02 0.  1.
</event>
<event>
 5   0  0.6589193E-06  0.2086821E+04  0.7818609E-02  0.8567071E-01
        1   -1    0    0  501    0  0.00000000000E+00  0.00000000000E+00  0.16756968022E+04  0.16756968022E+04  0.50400001928E-02 0. -1.
       -1   -1    0    0    0  501  0.00000000000E+00  0.00000000000E+00 -0.64970328613E+03  0.64970328615E+03  0.50400001928E-02 0.  1.
    10030    2    1    2    0    0  0.00000000000E+00  0.00000000000E+00  0.10259935161E+04  0.23254000884E+04  0.20868212372E+04 0.  0.
        3    1    3    3  502    0 -0.79311680061E+03 -0.15946082365E+03 -0.22131282775E+03  0.83871412985E+03  0.10100000352E+00 0.  1.
       -3    1    3    3    0  502  0.79311680061E+03  0.15946082365E+03  0.12473063438E+04  0.14866859585E+04  0.10100000352E+00 0. -1.
</event>
<event>
 5   0  0.6589193E-06  0.2092812E+04  0.7818609E-02  0.8564416E-01
       -1   -1    0    0    0  501  0.00000000000E+00  0.00000000000E+00  0.51035950160E+03  0.51035950163E+03  0.50400001928E-02 0. -1.
        1   -1    0    0  501    0  0.00000000000E+00  0.00000000000E+00 -0.21454787791E+04  0.21454787791E+04  0.50400001928E-02 0.  1.
    10030    2    1    2    0    0  0.00000000000E+00  0.00000000000E+00 -0.16351192775E+04  0.26558382807E+04  0.20928119652E+04 0.  0.
        3    1    3    3  502    0  0.70250712844E+03  0.21810995467E+03  0.12688864421E+03  0.74645090667E+03  0.10100000352E+00 0. -1.
       -3    1    3    3    0  502 -0.70250712844E+03 -0.21810995467E+03 -0.17620079217E+04  0.19093873740E+04  0.10100000352E+00 0.  1.
</event>
<event>
 5   0  0.6599245E-06  0.2101250E+04  0.7818609E-02  0.8560693E-01
        1   -1    0    0  501    0  0.00000000000E+00  0.00000000000E+00  0.11791367809E+04  0.11791367809E+04  0.50400001928E-02 0. -1.
       -1   -1    0    0    0  501  0.00000000000E+00  0.00000000000E+00 -0.93611946439E+03  0.93611946440E+03  0.50400001928E-02 0.  1.
    10030    2    1    2    0    0  0.00000000000E+00  0.00000000000E+00  0.24301731652E+03  0.21152562453E+04  0.21012500011E+04 0.  0.
        2    1    3    3  502    0 -0.58975316221E+03 -0.29418140399E+03  0.94516876217E+03  0.11522566901E+04  0.25500000920E-02 0. -1.
       -2    1    3    3    0  502  0.58975316221E+03  0.29418140399E+03 -0.70215144565E+03  0.96299955526E+03  0.25500000920E-02 0.  1.
</event>
<event>
 5   0  0.1395356E-05  0.2101288E+04  0.7818609E-02  0.8560676E-01
        2   -1    0    0  501    0  0.00000000000E+00  0.00000000000E+00  0.18853677132E+04  0.18853677132E+04  0.25500000920E-02 0.  1.
       -2   -1    0    0    0  501  0.00000000000E+00  0.00000000000E+00 -0.58548390241E+03  0.58548390242E+03  0.25500000920E-02 0. -1.
    10030    2    1    2    0    0  0.00000000000E+00  0.00000000000E+00  0.12998838108E+04  0.24708516157E+04  0.21012876493E+04 0.  0.
        1    1    3    3  502    0  0.57302744144E+02 -0.79150061551E+03  0.14595859534E+04  0.16613693100E+04  0.50400001928E-02 0.  1.
       -1    1    3    3    0  502 -0.57302744144E+02  0.79150061551E+03 -0.15970214255E+03  0.80948230568E+03  0.50400001928E-02 0. -1.
</event>
<event>
 5   0  0.1344501E-05  0.2102488E+04  0.7818609E-02  0.8560148E-01
       -2   -1    0    0    0  501  0.00000000000E+00  0.00000000000E+00  0.38403403836E+03  0.38403403836E+03  0.25500000920E-02 0. -1.
        2   -1    0    0  501    0  0.00000000000E+00  0.00000000000E+00 -0.28776461225E+04  0.28776461225E+04  0.25500000920E-02 0.  1.
    10030    2    1    2    0    0  0.00000000000E+00  0.00000000000E+00 -0.24936120841E+04  0.32616801608E+04  0.21024881083E+04 0.  0.
        3    1    3    3  502    0 -0.34487669175E+03  0.60323179159E+03 -0.23027953019E+02  0.69524011947E+03  0.10100000352E+00 0. -1.
       -3    1    3    3    0  502  0.34487669175E+03 -0.60323179159E+03 -0.24705841311E+04  0.25664400413E+04  0.10100000352E+00 0.  1.
</event>
<event>
 5   0  0.6589193E-06  0.2098659E+04  0.7818609E-02  0.8561834E-01
        1   -1    0    0  501    0  0.00000000000E+00  0.00000000000E+00  0.99822112758E+03  0.99822112759E+03  0.50400001928E-02 0. -1.
       -1   -1    0    0    0  501  0.00000000000E+00  0.00000000000E+00 -0.11030542932E+04  0.11030542932E+04  0.50400001928E-02 0.  1.
    10030    2    1    2    0    0  0.00000000000E+00  0.00000000000E+00 -0.10483316560E+03  0.21012754208E+04  0.20986587148E+04 0.  0.
        3    1    3    3  502    0  0.46205287065E+03 -0.82983385672E+03  0.39420573768E+03  0.10283556091E+04  0.10100000352E+00 0. -1.
       -3    1    3    3    0  502 -0.46205287065E+03  0.82983385672E+03 -0.49903890329E+03  0.10729198116E+04  0.10100000352E+00 0.  1.
</event>
<event>
 5   0  0.1441136E-05  0.2098615E+04  0.7818609E-02  0.8561854E-01
       -2   -1    0    0    0  501  0.00000000000E+00  0.00000000000E+00  0.12934916501E+04  0.12934916501E+04  0.25500000920E-02 0. -1.
        2   -1    0    0  501    0  0.00000000000E+00  0.00000000000E+00 -0.85122048824E+03  0.85122048824E+03  0.25500000920E-02 0.  1.
    10030    2    1    2    0    0  0.00000000000E+00  0.00000000000E+00  0.44227116185E+03  0.21447121383E+04  0.20986153473E+04 0.  0.
        4    1    3    3  502    0 -0.45102339847E+03  0.11494385619E+02  0.11893045454E+04  0.12720067380E+04  0.12699999809E+01 0. -1.
       -4    1    3    3    0  502  0.45102339847E+03 -0.11494385619E+02 -0.74703338352E+03  0.87270540038E+03  0.12699999809E+01 0.  1.
</event>
<event>
 5   0  0.6589193E-06  0.2099350E+04  0.7818609E-02  0.8561530E-01
        1   -1    0    0  501    0  0.00000000000E+00  0.00000000000E+00  0.20323599135E+04  0.20323599135E+04  0.50400001928E-02 0. -1.
       -1   -1    0    0    0  501  0.00000000000E+00  0.00000000000E+00 -0.54213710086E+03  0.54213710088E+03  0.50400001928E-02 0.  1.
    10030    2    1    2    0    0  0.00000000000E+00  0.00000000000E+00  0.14902228126E+04  0.25744970144E+04  0.20993501008E+04 0.  0.
        3    1    3    3  502    0  0.22531150188E+03 -0.62753568934E+02 -0.50977551201E+03  0.56086929505E+03  0.10100000352E+00 0.  1.
       -3    1    3    3    0  502 -0.22531150188E+03  0.62753568934E+02  0.19999983246E+04  0.20136277193E+04  0.10100000352E+00 0. -1.
</event>
<event>
 5   0  0.6589193E-06  0.2098695E+04  0.7818609E-02  0.8561819E-01
        1   -1    0    0  501    0  0.00000000000E+00  0.00000000000E+00  0.17177730363E+04  0.17177730363E+04  0.50400001928E-02 0.  1.
       -1   -1    0    0    0  501  0.00000000000E+00  0.00000000000E+00 -0.64102171679E+03  0.64102171681E+03  0.50400001928E-02 0. -1.
    10030    2    1    2    0    0  0.00000000000E+00  0.00000000000E+00  0.10767513195E+04  0.23587947531E+04  0.20986946617E+04 0.  0.
        3    1    3    3  502    0 -0.60228928323E+03 -0.51431948338E+03  0.13120579683E+04  0.15325707272E+04  0.10100000352E+00 0.  1.
       -3    1    3    3    0  502  0.60228928323E+03  0.51431948338E+03 -0.23530664882E+03  0.82622402583E+03  0.10100000352E+00 0. -1.
</event>
<event>
 5   0  0.1344501E-05  0.2100702E+04  0.7818609E-02  0.8560934E-01
        2   -1    0    0  501    0  0.00000000000E+00  0.00000000000E+00  0.10863141176E+04  0.10863141176E+04  0.25500000920E-02 0.  1.
       -2   -1    0    0    0  501  0.00000000000E+00  0.00000000000E+00 -0.10155783080E+04  0.10155783080E+04  0.25500000920E-02 0. -1.
    10030    2    1    2    0    0  0.00000000000E+00  0.00000000000E+00  0.70735809528E+02  0.21018924256E+04  0.21007018385E+04 0.  0.
        3    1    3    3  502    0  0.17373690808E+03 -0.75764570232E+03  0.74218565526E+03  0.10747330276E+04  0.10100000352E+00 0.  1.
       -3    1    3    3    0  502 -0.17373690808E+03  0.75764570232E+03 -0.67144984573E+03  0.10271593981E+04  0.10100000352E+00 0. -1.
</event>
<event>
 5   0  0.6238363E-06  0.2099516E+04  0.7818609E-02  0.8561456E-01
        1   -1    0    0  501    0  0.00000000000E+00  0.00000000000E+00  0.10717015968E+04  0.10717015968E+04  0.50400001928E-02 0. -1.
       -1   -1    0    0    0  501  0.00000000000E+00  0.00000000000E+00 -0.10282639794E+04  0.10282639794E+04  0.50400001928E-02 0.  1.
    10030    2    1    2    0    0  0.00000000000E+00  0.00000000000E+00  0.43437617409E+02  0.20999655762E+04  0.20995162764E+04 0.  0.
        4    1    3    3  502    0  0.51507679484E+03  0.11353991729E+03 -0.88610702431E+03  0.10312044845E+04  0.12699999809E+01 0.  1.
       -4    1    3    3    0  502 -0.51507679484E+03 -0.11353991729E+03  0.92954464172E+03  0.10687610918E+04  0.12699999809E+01 0. -1.
</event>
<event>
 5   0  0.6589193E-06  0.2098705E+04  0.7818609E-02  0.8561814E-01
        1   -1    0    0  501    0  0.00000000000E+00  0.00000000000E+00  0.85897883469E+03  0.85897883471E+03  0.50400001928E-02 0.  1.
       -1   -1    0    0    0  501  0.00000000000E+00  0.00000000000E+00 -0.12819180091E+04  0.12819180091E+04  0.50400001928E-02 0. -1.
    10030    2    1    2    0    0  0.00000000000E+00  0.00000000000E+00 -0.42293917439E+03  0.21408968438E+04  0.20987047793E+04 0.  0.
        3    1    3    3  502    0  0.35122271854E+03  0.92565973547E+02 -0.12157485317E+04  0.12688460742E+04  0.10100000352E+00 0. -1.
       -3    1    3    3    0  502 -0.35122271854E+03 -0.92565973547E+02  0.79280935732E+03  0.87205076959E+03  0.10100000352E+00 0.  1.
</event>
<event>
 5   0  0.1398469E-05  0.2093181E+04  0.7818609E-02  0.8564253E-01
        2   -1    0    0  501    0  0.00000000000E+00  0.00000000000E+00  0.38353402576E+03  0.38353402577E+03  0.25500000920E-02 0. -1.
       -2   -1    0    0    0  501  0.00000000000E+00  0.00000000000E+00 -0.28559450866E+04  0.28559450867E+04  0.25500000920E-02 0.  1.
    10030    2    1    2    0    0  0.00000000000E+00  0.00000000000E+00 -0.24724110609E+04  0.32394791124E+04  0.20931814221E+04 0.  0.
        2    1    3    3  502    0  0.81118701289E+03  0.64724994070E+03 -0.10263012536E+04  0.14595379813E+04  0.25500000920E-02 0. -1.
       -2    1    3    3    0  502 -0.81118701289E+03 -0.64724994070E+03 -0.14461098073E+04  0.17799411311E+04  0.25500000920E-02 0.  1.
</event>
<event>
 5   0  0.6238363E-06  0.2098845E+04  0.7818609E-02  0.8561753E-01
        1   -1    0    0  501    0  0.00000000000E+00  0.00000000000E+00  0.10623906888E+04  0.10623906888E+04  0.50400001928E-02 0.  1.
       -1   -1    0    0    0  501  0.00000000000E+00  0.00000000000E+00 -0.10366121600E+04  0.10366121600E+04  0.50400001928E-02 0. -1.
    10030    2    1    2    0    0  0.00000000000E+00  0.00000000000E+00  0.25778528770E+02  0.20990028488E+04  0.20988445457E+04 0.  0.
        4    1    3    3  502    0 -0.19825783706E+03  0.93679711988E+03 -0.41655024943E+03  0.10442273397E+04  0.12699999809E+01 0. -1.
       -4    1    3    3    0  502  0.19825783706E+03 -0.93679711988E+03  0.44232877820E+03  0.10547755091E+04  0.12699999809E+01 0.  1.
</event>
<event>
 5   0  0.1395356E-05  0.2096364E+04  0.7818609E-02  0.8562847E-01
        2   -1    0    0  501    0  0.00000000000E+00  0.00000000000E+00  0.15102006281E+04  0.15102006281E+04  0.25500000920E-02 0. -1.
       -2   -1    0    0    0  501  0.00000000000E+00  0.00000000000E+00 -0.72750963078E+03  0.72750963078E+03  0.25500000920E-02 0.  1.
    10030    2    1    2    0    0  0.00000000000E+00  0.00000000000E+00  0.78269099729E+03  0.22377102589E+04  0.20963639964E+04 0.  0.
        1    1    3    3  502    0 -0.76104257925E+03 -0.70226615847E+03  0.56452483833E+03  0.11794286150E+04  0.50400001928E-02 0. -1.
       -1    1    3    3    0  502  0.76104257925E+03  0.70226615847E+03  0.21816615895E+03  0.10582816438E+04  0.50400001928E-02 0.  1.
</event>
<event>
 5   0  0.6599245E-06  0.2106698E+04  0.7818609E-02  0.8558299E-01
       -1   -1    0    0    0  501  0.00000000000E+00  0.00000000000E+00  0.16038789831E+04  0.16038789832E+04  0.50400001928E-02 0. -1.
        1   -1    0    0  501    0  0.00000000000E+00  0.00000000000E+00 -0.69178767027E+03  0.69178767029E+03  0.50400001928E-02 0.  1.
    10030    2    1    2    0    0  0.00000000000E+00  0.00000000000E+00  0.91209131287E+03  0.22956666534E+04  0.21066976102E+04 0.  0.
        2    1    3    3  502    0  0.24003450628E+03 -0.43460093276E+02 -0.66058412313E+03  0.70418515154E+03  0.25500000920E-02 0.  1.
       -2    1    3    3    0  502 -0.24003450628E+03  0.43460093276E+02  0.15726754360E+04  0.15914815019E+04  0.25500000920E-02 0. -1.
</event>
<event>
 5   0  0.6238363E-06  0.2100481E+04  0.7818609E-02  0.8561032E-01
       -1   -1    0    0    0  501  0.00000000000E+00  0.00000000000E+00  0.15465172857E+04  0.15465172857E+04  0.50400001928E-02 0.  1.
        1   -1    0    0  501    0  0.00000000000E+00  0.00000000000E+00 -0.71321854481E+03  0.71321854483E+03  0.50400001928E-02 0. -1.
    10030    2    1    2    0    0  0.00000000000E+00  0.00000000000E+00  0.83329874089E+03  0.22597358305E+04  0.21004807146E+04 0.  0.
        4    1    3    3  502    0 -0.67373596919E+03 -0.77419493740E+03  0.65649955211E+03  0.12183149150E+04  0.12699999809E+01 0. -1.
       -4    1    3    3    0  502  0.67373596919E+03  0.77419493740E+03  0.17679918878E+03  0.10414209155E+04  0.12699999809E+01 0.  1.
</event>
<event>
 5   0  0.1344501E-05  0.2082678E+04  0.7818609E-02  0.8568912E-01
       -2   -1    0    0    0  501  0.00000000000E+00  0.00000000000E+00  0.67177021538E+03  0.67177021538E+03  0.25500000920E-02 0.  1.
        2   -1    0    0  501    0  0.00000000000E+00  0.00000000000E+00 -0.16142231967E+04  0.16142231967E+04  0.25500000920E-02 0. -1.
    10030    2    1    2    0    0  0.00000000000E+00  0.00000000000E+00 -0.94245298130E+03  0.22859934121E+04  0.20826781456E+04 0.  0.
        3    1    3    3  502    0 -0.31316171032E+03  0.99237664469E+03 -0.42863942671E+03  0.11254392165E+04  0.10100000352E+00 0.  1.
       -3    1    3    3    0  502  0.31316171032E+03 -0.99237664469E+03 -0.51381355459E+03  0.11605541956E+04  0.10100000352E+00 0. -1.
</event>
<event>
 5   0  0.6589193E-06  0.2090445E+04  0.7818609E-02  0.8565464E-01
        1   -1    0    0  501    0  0.00000000000E+00  0.00000000000E+00  0.11898344191E+04  0.11898344191E+04  0.50400001928E-02 0. -1.
       -1   -1    0    0    0  501  0.00000000000E+00  0.00000000000E+00 -0.91818681316E+03  0.91818681318E+03  0.50400001928E-02 0.  1.
    10030    2    1    2    0    0  0.00000000000E+00  0.00000000000E+00  0.27164760591E+03  0.21080212323E+04  0.20904451904E+04 0.  0.
        3    1    3    3  502    0 -0.20681624309E+02 -0.53456854678E+03  0.10413150507E+04  0.11706956503E+04  0.10100000352E+00 0. -1.
       -3    1    3    3    0  502  0.20681624309E+02  0.53456854678E+03 -0.76966744476E+03  0.93732558191E+03  0.10100000352E+00 0.  1.
</event>
<event>
 5   0  0.1398469E-05  0.2098037E+04  0.7818609E-02  0.8562109E-01
        2   -1    0    0  501    0  0.00000000000E+00  0.00000000000E+00  0.14241067176E+04  0.14241067176E+04  0.25500000920E-02 0. -1.
       -2   -1    0    0    0  501  0.00000000000E+00  0.00000000000E+00 -0.77272290011E+03  0.77272290011E+03  0.25500000920E-02 0.  1.
    10030    2    1    2    0    0  0.00000000000E+00  0.00000000000E+00  0.65138381752E+03  0.21968296177E+04  0.20980370568E+04 0.  0.
        2    1    3    3  502    0  0.24876952394E+03  0.66910553672E+03 -0.47917180204E+03  0.85976398575E+03  0.25500000920E-02 0.  1.
       -2    1    3    3    0  502 -0.24876952394E+03 -0.66910553672E+03  0.11305556196E+04  0.13370656320E+04  0.25500000920E-02 0. -1.
</event>
<event>
 5   0  0.1344501E-05  0.2099796E+04  0.7818609E-02  0.8561333E-01
        2   -1    0    0  501    0  0.00000000000E+00  0.00000000000E+00  0.12356271997E+04  0.12356271997E+04  0.25500000920E-02 0.  1.
       -2   -1    0    0    0  501  0.00000000000E+00  0.00000000000E+00 -0.89208607152E+03  0.89208607152E+03  0.25500000920E-02 0. -1.
    10030    2    1    2    0    0  0.00000000000E+00  0.00000000000E+00  0.34354112814E+03  0.21277132712E+04  0.20997960038E+04 0.  0.
        3    1    3    3  502    0 -0.30758053512E+03 -0.80614049466E+02 -0.84212303788E+03  0.90015311569E+03  0.10100000352E+00 0. -1.
       -3    1    3    3    0  502  0.30758053512E+03  0.80614049466E+02  0.11856641660E+04  0.12275601555E+04  0.10100000352E+00 0.  1.
</event>
<event>
 5   0  0.1398469E-05  0.2106405E+04  0.7818609E-02  0.8558427E-01
        2   -1    0    0  501    0  0.00000000000E+00  0.00000000000E+00  0.96609157975E+03  0.96609157976E+03  0.25500000920E-02 0. -1.
       -2   -1    0    0    0  501  0.00000000000E+00  0.00000000000E+00 -0.11481681898E+04  0.11481681898E+04  0.25500000920E-02 0.  1.
    10030    2    1    2    0    0  0.00000000000E+00  0.00000000000E+00 -0.18207661002E+03  0.21142597695E+04  0.21064051085E+04 0.  0.
        2    1    3    3  502    0 -0.63205103865E+03 -0.52397504496E+03 -0.75319308944E+03  0.11141535770E+04  0.25500000920E-02 0.  1.
       -2    1    3    3    0  502  0.63205103865E+03  0.52397504496E+03  0.57111647943E+03  0.10001061925E+04  0.25500000920E-02 0. -1.
</event>
<event>
 5   0  0.1398469E-05  0.2097095E+04  0.7818609E-02  0.8562524E-01
       -2   -1    0    0    0  501  0.00000000000E+00  0.00000000000E+00  0.79303547003E+03  0.79303547004E+03  0.25500000920E-02 0.  1.
        2   -1    0    0  501    0  0.00000000000E+00  0.00000000000E+00 -0.13863847963E+04  0.13863847963E+04  0.25500000920E-02 0. -1.
    10030    2    1    2    0    0  0.00000000000E+00  0.00000000000E+00 -0.59334932625E+03  0.21794202663E+04  0.20970954376E+04 0.  0.
        2    1    3    3  502    0  0.68371502335E+03 -0.70095754708E+03  0.93073722349E+02  0.98360074917E+03  0.25500000920E-02 0.  1.
       -2    1    3    3    0  502 -0.68371502335E+03  0.70095754708E+03 -0.68642304860E+03  0.11958195172E+04  0.25500000920E-02 0. -1.
</event>
<event>
 5   0  0.6917078E-06  0.2100911E+04  0.7818609E-02  0.8560842E-01
        1   -1    0    0  501    0  0.00000000000E+00  0.00000000000E+00  0.11946345873E+04  0.11946345873E+04  0.50400001928E-02 0.  1.
       -1   -1    0    0    0  501  0.00000000000E+00  0.00000000000E+00 -0.92367698641E+03  0.92367698643E+03  0.50400001928E-02 0. -1.
    10030    2    1    2    0    0  0.00000000000E+00  0.00000000000E+00  0.27095760086E+03  0.21183115737E+04  0.21009107315E+04 0.  0.
        5    1    3    3  502    0  0.17938966182E+03 -0.66509101962E+03 -0.66412653874E+03  0.95687661932E+03  0.46999998093E+01 0. -1.
       -5    1    3    3    0  502 -0.17938966182E+03  0.66509101962E+03  0.93508413960E+03  0.11614349544E+04  0.46999998093E+01 0.  1.
</event>
<event>
 5   0  0.6238363E-06  0.2100724E+04  0.7818609E-02  0.8560924E-01
       -1   -1    0    0    0  501  0.00000000000E+00  0.00000000000E+00  0.73628569254E+03  0.73628569256E+03  0.50400001928E-02 0.  1.
        1   -1    0    0  501    0  0.00000000000E+00  0.00000000000E+00 -0.14984138620E+04  0.14984138620E+04  0.50400001928E-02 0. -1.
    10030    2    1    2    0    0  0.00000000000E+00  0.00000000000E+00 -0.76212816944E+03  0.22346995546E+04  0.21007243400E+04 0.  0.
        4    1    3    3  502    0  0.31573059933E+03  0.96911781614E+03 -0.65098639994E+03  0.12094048366E+04  0.12699999809E+01 0. -1.
       -4    1    3    3    0  502 -0.31573059933E+03 -0.96911781614E+03 -0.11114176949E+03  0.10252947180E+04  0.12699999809E+01 0.  1.
</event>
<event>
 5   0  0.1398469E-05  0.2098884E+04  0.7818609E-02  0.8561735E-01
        2   -1    0    0  501    0  0.00000000000E+00  0.00000000000E+00  0.20347849401E+04  0.20347849401E+04  0.25500000920E-02 0. -1.
       -2   -1    0    0    0  501  0.00000000000E+00  0.00000000000E+00 -0.54125060890E+03  0.54125060890E+03  0.25500000920E-02 0.  1.
    10030    2    1    2    0    0  0.00000000000E+00  0.00000000000E+00  0.14935343312E+04  0.25760355490E+04  0.20988840728E+04 0.  0.
        2    1    3    3  502    0  0.40076228267E+03  0.67152675800E+03 -0.11216622708E+03  0.79002522518E+03  0.25500000920E-02 0.  1.
       -2    1    3    3    0  502 -0.40076228267E+03 -0.67152675800E+03  0.16057005583E+04  0.17860103238E+04  0.25500000920E-02 0. -1.
</event>
<event>
 5   0  0.1398469E-05  0.2100345E+04  0.7818609E-02  0.8561091E-01
       -2   -1    0    0    0  501  0.00000000000E+00  0.00000000000E+00  0.70401331840E+03  0.70401331840E+03  0.25500000920E-02 0.  1.
        2   -1    0    0  501    0  0.00000000000E+00  0.00000000000E+00 -0.15665360380E+04  0.15665360380E+04  0.25500000920E-02 0. -1.
    10030    2    1    2    0    0  0.00000000000E+00  0.00000000000E+00 -0.86252271965E+03  0.22705493564E+04  0.21003449569E+04 0.  0.
        2    1    3    3  502    0 -0.45045796869E+03  0.59815600961E+03 -0.12272442836E+04  0.14376479141E+04  0.25500000920E-02 0. -1.
       -2    1    3    3    0  502  0.45045796869E+03 -0.59815600961E+03  0.36472156395E+03  0.83290144231E+03  0.25500000920E-02 0.  1.
</event>
<event>
 5   0  0.5009125E-06  0.2095270E+04  0.7818609E-02  0.8563330E-01
        3   -1    0    0  501    0  0.00000000000E+00  0.00000000000E+00  0.99850228832E+03  0.99850229343E+03  0.10100000352E+00 0.  1.
       -3   -1    0    0    0  501  0.00000000000E+00  0.00000000000E+00 -0.10991856011E+04  0.10991856057E+04  0.10100000352E+00 0. -1.
    10030    2    1    2    0    0  0.00000000000E+00  0.00000000000E+00 -0.10068331274E+03  0.20976878991E+04  0.20952702434E+04 0.  0.
        4    1    3    3  502    0 -0.67690349619E+03 -0.61601900253E+03  0.46001117501E+03  0.10243484020E+04  0.12699999809E+01 0.  1.
       -4    1    3    3    0  502  0.67690349619E+03  0.61601900253E+03 -0.56069448775E+03  0.10733394971E+04  0.12699999809E+01 0. -1.
</event>
<event>
 5   0  0.1344501E-05  0.2100130E+04  0.7818609E-02  0.8561186E-01
       -2   -1    0    0    0  501  0.00000000000E+00  0.00000000000E+00  0.13007161430E+04  0.13007161430E+04  0.25500000920E-02 0. -1.
        2   -1    0    0  501    0  0.00000000000E+00  0.00000000000E+00 -0.84771515736E+03  0.84771515737E+03  0.25500000920E-02 0.  1.
    10030    2    1    2    0    0  0.00000000000E+00  0.00000000000E+00  0.45300098564E+03  0.21484313004E+04  0.21001302720E+04 0.  0.
        3    1    3    3  502    0 -0.54921286123E+03 -0.11711649982E+03  0.11341985962E+04  0.12656055892E+04  0.10100000352E+00 0. -1.
       -3    1    3    3    0  502  0.54921286123E+03  0.11711649982E+03 -0.68119761059E+03  0.88282571119E+03  0.10100000352E+00 0.  1.
</event>
<event>
 5   0  0.5009125E-06  0.2098367E+04  0.7818609E-02  0.8561963E-01
       -4   -1    0    0    0  501  0.00000000000E+00  0.00000000000E+00  0.70205071828E+03  0.70205186698E+03  0.12699999809E+01 0. -1.
        4   -1    0    0  501    0  0.00000000000E+00  0.00000000000E+00 -0.15679545465E+04  0.15679550609E+04  0.12699999809E+01 0.  1.
    10030    2    1    2    0    0  0.00000000000E+00  0.00000000000E+00 -0.86590382827E+03  0.22700069279E+04  0.20983665106E+04 0.  0.
        1    1    3    3  502    0 -0.53538663574E+03 -0.88979965536E+03 -0.27103167988E+03  0.10732382997E+04  0.50400001928E-02 0. -1.
       -1    1    3    3    0  502  0.53538663574E+03  0.88979965536E+03 -0.59487214839E+03  0.11967686282E+04  0.50400001928E-02 0.  1.
</event>
<event>
 5   0  0.6283269E-06  0.2095547E+04  0.7818609E-02  0.8563208E-01
        1   -1    0    0  501    0  0.00000000000E+00  0.00000000000E+00  0.65910947235E+03  0.65910947237E+03  0.50400001928E-02 0. -1.
       -1   -1    0    0    0  501  0.00000000000E+00  0.00000000000E+00 -0.16656246858E+04  0.16656246858E+04  0.50400001928E-02 0.  1.
    10030    2    1    2    0    0  0.00000000000E+00  0.00000000000E+00 -0.10065152134E+04  0.23247341581E+04  0.20955467141E+04 0.  0.
        1    1    3    3  502    0  0.95342990906E+03  0.80583934986E+01 -0.98520842682E+03  0.13710321563E+04  0.50400001928E-02 0.  1.
       -1    1    3    3    0  502 -0.95342990906E+03 -0.80583934986E+01 -0.21306786593E+02  0.95370200187E+03  0.50400001928E-02 0. -1.
</event>
<event>
 5   0  0.1398469E-05  0.2094867E+04  0.7818609E-02  0.8563508E-01
        2   -1    0    0  501    0  0.00000000000E+00  0.00000000000E+00  0.11481624972E+04  0.11481624972E+04  0.25500000920E-02 0.  1.
       -2   -1    0    0    0  501  0.00000000000E+00  0.00000000000E+00 -0.95554150707E+03  0.95554150707E+03  0.25500000920E-02 0. -1.
    10030    2    1    2    0    0  0.00000000000E+00  0.00000000000E+00  0.19262099017E+03  0.21037040043E+04  0.20948669867E+04 0.  0.
        2    1    3    3  502    0  0.10294073856E+04  0.17593388638E+03  0.15443628229E+02  0.10444476069E+04  0.25500000920E-02 0. -1.
       -2    1    3    3    0  502 -0.10294073856E+04 -0.17593388638E+03  0.17717736195E+03  0.10592563974E+04  0.25500000920E-02 0.  1.
</event>
<event>
 5   0  0.1390735E-05  0.2106437E+04  0.7818609E-02  0.8558413E-01
       -2   -1    0    0    0  501  0.00000000000E+00  0.00000000000E+00  0.18614186617E+04  0.18614186617E+04  0.25500000920E-02 0.  1.
        2   -1    0    0  501    0  0.00000000000E+00  0.00000000000E+00 -0.59592648688E+03  0.59592648688E+03  0.25500000920E-02 0. -1.
    10030    2    1    2    0    0  0.00000000000E+00  0.00000000000E+00  0.12654921748E+04  0.24573451486E+04  0.21064365015E+04 0.  0.
        5    1    3    3  502    0  0.35390023414E+03  0.87257834736E+03  0.11831587438E+04  0.15121260037E+04  0.46999998093E+01 0. -1.
       -5    1    3    3    0  502 -0.35390023414E+03 -0.87257834736E+03  0.82333431008E+02  0.94521914489E+03  0.46999998093E+01 0.  1.
</event>
<event>
 5   0  0.5009125E-06  0.2093518E+04  0.7818609E-02  0.8564104E-01
       -4   -1    0    0    0  501  0.00000000000E+00  0.00000000000E+00  0.10242887219E+04  0.10242895092E+04  0.12699999809E+01 0. -1.
        4   -1    0    0  501    0  0.00000000000E+00  0.00000000000E+00 -0.10697203260E+04  0.10697210799E+04  0.12699999809E+01 0.  1.
    10030    2    1    2    0    0  0.00000000000E+00  0.00000000000E+00 -0.45431604095E+02  0.20940105891E+04  0.20935176895E+04 0.  0.
        4    1    3    3  502    0  0.36246554323E+03 -0.70256553056E+03 -0.70896980189E+03  0.10618942450E+04  0.12699999809E+01 0.  1.
       -4    1    3    3    0  502 -0.36246554323E+03  0.70256553056E+03  0.66353819779E+03  0.10321163440E+04  0.12699999809E+01 0. -1.
</event>
<event>
 5   0  0.6917078E-06  0.2100767E+04  0.7818609E-02  0.8560906E-01
       -1   -1    0    0    0  501  0.00000000000E+00  0.00000000000E+00  0.10483281367E+04  0.10483281367E+04  0.50400001928E-02 0.  1.
        1   -1    0    0  501    0  0.00000000000E+00  0.00000000000E+00 -0.10524429539E+04  0.10524429539E+04  0.50400001928E-02 0. -1.
    10030    2    1    2    0    0  0.00000000000E+00  0.00000000000E+00 -0.41148171386E+01  0.21007710906E+04  0.21007670607E+04 0.  0.
        5    1    3    3  502    0  0.10498296398E+04  0.31950024954E+02  0.89150366300E+01  0.10503640534E+04  0.46999998093E+01 0. -1.
       -5    1    3    3    0  502 -0.10498296398E+04 -0.31950024954E+02 -0.13029853769E+02  0.10504070372E+04  0.46999998093E+01 0.  1.
</event>
<event>
 5   0  0.1441136E-05  0.2101377E+04  0.7818609E-02  0.8560637E-01
       -2   -1    0    0    0  501  0.00000000000E+00  0.00000000000E+00  0.13935950010E+04  0.13935950010E+04  0.25500000920E-02 0. -1.
        2   -1    0    0  501    0  0.00000000000E+00  0.00000000000E+00 -0.79215692546E+03  0.79215692547E+03  0.25500000920E-02 0.  1.
    10030    2    1    2    0    0  0.00000000000E+00  0.00000000000E+00  0.60143807554E+03  0.21857519265E+04  0.21013766263E+04 0.  0.
        4    1    3    3  502    0 -0.83320100804E+03 -0.27021076243E+03  0.90428223462E+03  0.12589542282E+04  0.12699999809E+01 0. -1.
       -4    1    3    3    0  502  0.83320100804E+03  0.27021076243E+03 -0.30284415908E+03  0.92679769828E+03  0.12699999809E+01 0.  1.
</event>
<event>
 5   0  0.6589193E-06  0.2106993E+04  0.7818609E-02  0.8558169E-01
        1   -1    0    0  501    0  0.00000000000E+00  0.00000000000E+00  0.24088655603E+04  0.24088655603E+04  0.50400001928E-02 0. -1.
       -1   -1    0    0    0  501  0.00000000000E+00  0.00000000000E+00 -0.46073775528E+03  0.46073775531E+03  0.50400001928E-02 0.  1.
    10030    2    1    2    0    0  0.00000000000E+00  0.00000000000E+00  0.19481278050E+04  0.28696033156E+04  0.21069934134E+04 0.  0.
        3    1    3    3  502    0 -0.34209998732E+03 -0.79512730304E+02 -0.37865441172E+03  0.51646282472E+03  0.10100000352E+00 0.  1.
       -3    1    3    3    0  502  0.34209998732E+03  0.79512730304E+02  0.23267822167E+04  0.23531404909E+04  0.10100000352E+00 0. -1.
</event>
<event>
 5   0  0.6599245E-06  0.2100551E+04  0.7818609E-02  0.8561001E-01
        1   -1    0    0  501    0  0.00000000000E+00  0.00000000000E+00  0.18888643538E+04  0.18888643538E+04  0.50400001928E-02 0.  1.
       -1   -1    0    0    0  501  0.00000000000E+00  0.00000000000E+00 -0.58399060852E+03  0.58399060854E+03  0.50400001928E-02 0. -1.
    10030    2    1    2    0    0  0.00000000000E+00  0.00000000000E+00  0.13048737452E+04  0.24728549623E+04  0.21005513975E+04 0.  0.
        2    1    3    3  502    0 -0.81799355544E+02 -0.57174757667E+03  0.16851211408E+04  0.17813533297E+04  0.25500000920E-02 0.  1.
       -2    1    3    3    0  502  0.81799355544E+02  0.57174757667E+03 -0.38024739561E+03  0.69150163259E+03  0.25500000920E-02 0. -1.
</event>
<event>
 5   0  0.1398469E-05  0.2101230E+04  0.7818609E-02  0.8560702E-01
        2   -1    0    0  501    0  0.00000000000E+00  0.00000000000E+00  0.19802051606E+04  0.19802051606E+04  0.25500000920E-02 0.  1.
       -2   -1    0    0    0  501  0.00000000000E+00  0.00000000000E+00 -0.55741311042E+03  0.55741311043E+03  0.25500000920E-02 0. -1.
    10030    2    1    2    0    0  0.00000000000E+00  0.00000000000E+00  0.14227920501E+04  0.25376182710E+04  0.21012304184E+04 0.  0.
        2    1    3    3  502    0 -0.23352507625E+03  0.10122645723E+04  0.90073188768E+03  0.13749659847E+04  0.25500000920E-02 0.  1.
       -2    1    3    3    0  502  0.23352507625E+03 -0.10122645723E+04  0.52206016246E+03  0.11626522863E+04  0.25500000920E-02 0. -1.
</event>
<event>
 5   0  0.1344501E-05  0.2099966E+04  0.7818609E-02  0.8561258E-01
        2   -1    0    0  501    0  0.00000000000E+00  0.00000000000E+00  0.16606359548E+04  0.16606359548E+04  0.25500000920E-02 0.  1.
       -2   -1    0    0    0  501  0.00000000000E+00  0.00000000000E+00 -0.66388104395E+03  0.66388104395E+03  0.25500000920E-02 0. -1.
    10030    2    1    2    0    0  0.00000000000E+00  0.00000000000E+00  0.99675491088E+03  0.23245169988E+04  0.20999664105E+04 0.  0.
        3    1    3    3  502    0  0.29819983593E+01 -0.54221419883E+03 -0.49691230761E+03  0.73547738332E+03  0.10100000352E+00 0. -1.
       -3    1    3    3    0  502 -0.29819983593E+01  0.54221419883E+03  0.14936672185E+04  0.15890396155E+04  0.10100000352E+00 0.  1.
</event>
<event>
 5   0  0.6238363E-06  0.2092716E+04  0.7818609E-02  0.8564459E-01
        1   -1    0    0  501    0  0.00000000000E+00  0.00000000000E+00  0.74380183086E+03  0.74380183087E+03  0.50400001928E-02 0. -1.
       -1   -1    0    0    0  501  0.00000000000E+00  0.00000000000E+00 -0.14719848852E+04  0.14719848852E+04  0.50400001928E-02 0.  1.
    10030    2    1    2    0    0  0.00000000000E+00  0.00000000000E+00 -0.72818305433E+03  0.22157867161E+04  0.20927159890E+04 0.  0.
        4    1    3    3  502    0 -0.23479751563E+03 -0.77344420368E+03  0.33945315859E+03  0.87668458942E+03  0.12699999809E+01 0. -1.
       -4    1    3    3    0  502  0.23479751563E+03  0.77344420368E+03 -0.10676362129E+04  0.13391021266E+04  0.12699999809E+01 0.  1.
</event>
<event>
 5   0  0.1344501E-05  0.2100117E+04  0.7818609E-02  0.8561192E-01
        2   -1    0    0  501    0  0.00000000000E+00  0.00000000000E+00  0.12420734391E+04  0.12420734391E+04  0.25500000920E-02 0. -1.
       -2   -1    0    0    0  501  0.00000000000E+00  0.00000000000E+00 -0.88772769484E+03  0.88772769484E+03  0.25500000920E-02 0.  1.
    10030    2    1    2    0    0  0.00000000000E+00  0.00000000000E+00  0.35434574425E+03  0.21298011339E+04  0.21001171309E+04 0.  0.
        3    1    3    3  502    0  0.54401792401E+03  0.25517262635E+03 -0.69613434114E+03  0.91960404631E+03  0.10100000352E+00 0.  1.
       -3    1    3    3    0  502 -0.54401792401E+03 -0.25517262635E+03  0.10504800854E+04  0.12101970876E+04  0.10100000352E+00 0. -1.
</event>
<event>
 5   0  0.6589193E-06  0.2099765E+04  0.7818609E-02  0.8561347E-01
        1   -1    0    0  501    0  0.00000000000E+00  0.00000000000E+00  0.22974577603E+04  0.22974577603E+04  0.50400001928E-02 0.  1.
       -1   -1    0    0    0  501  0.00000000000E+00  0.00000000000E+00 -0.47977084692E+03  0.47977084695E+03  0.50400001928E-02 0. -1.
    10030    2    1    2    0    0  0.00000000000E+00  0.00000000000E+00  0.18176869134E+04  0.27772286072E+04  0.20997649921E+04 0.  0.
        3    1    3    3  502    0  0.10086965289E+04 -0.25714313815E+03  0.10895274233E+04  0.15068713606E+04  0.10100000352E+00 0.  1.
       -3    1    3    3    0  502 -0.10086965289E+04  0.25714313815E+03  0.72815949005E+03  0.12703572467E+04  0.10100000352E+00 0. -1.
</event>
<event>
 5   0  0.1398469E-05  0.2097149E+04  0.7818609E-02  0.8562500E-01
       -2   -1    0    0    0  501  0.00000000000E+00  0.00000000000E+00  0.84810491922E+03  0.84810491922E+03  0.25500000920E-02 0. -1.
        2   -1    0    0  501    0  0.00000000000E+00  0.00000000000E+00 -0.12964301000E+04  0.12964301000E+04  0.25500000920E-02 0.  1.
    10030    2    1    2    0    0  0.00000000000E+00  0.00000000000E+00 -0.44832518081E+03  0.21445350193E+04  0.20971492510E+04 0.  0.
        2    1    3    3  502    0  0.70697098890E+02  0.81151147570E+03 -0.89935417433E+03  0.12134195012E+04  0.25500000920E-02 0.  1.
       -2    1    3    3    0  502 -0.70697098890E+02 -0.81151147570E+03  0.45102899352E+03  0.93111551807E+03  0.25500000920E-02 0. -1.
</event>
<event>
 5   0  0.1344501E-05  0.2099180E+04  0.7818609E-02  0.8561605E-01
        2   -1    0    0  501    0  0.00000000000E+00  0.00000000000E+00  0.12463098154E+04  0.12463098154E+04  0.25500000920E-02 0.  1.
       -2   -1    0    0    0  501  0.00000000000E+00  0.00000000000E+00 -0.88392105788E+03  0.88392105788E+03  0.25500000920E-02 0. -1.
    10030    2    1    2    0    0  0.00000000000E+00  0.00000000000E+00  0.36238875756E+03  0.21302308733E+04  0.20991803072E+04 0.  0.
        3    1    3    3  502    0 -0.68931565617E+03  0.79008119878E+03  0.13300399418E+03  0.10569174268E+04  0.10100000352E+00 0. -1.
       -3    1    3    3    0  502  0.68931565617E+03 -0.79008119878E+03  0.22938476338E+03  0.10733134465E+04  0.10100000352E+00 0.  1.
</event>
<event>
 5   0  0.1395356E-05  0.2101421E+04  0.7818609E-02  0.8560618E-01
        2   -1    0    0  501    0  0.00000000000E+00  0.00000000000E+00  0.10652649405E+04  0.10652649405E+04  0.25500000920E-02 0.  1.
       -2   -1    0    0    0  501  0.00000000000E+00  0.00000000000E+00 -0.10363549257E+04  0.10363549257E+04  0.25500000920E-02 0. -1.
    10030    2    1    2    0    0  0.00000000000E+00  0.00000000000E+00  0.28910014803E+02  0.21016198662E+04  0.21014210128E+04 0.  0.
        1    1    3    3  502    0 -0.10428707887E+04  0.11169744663E+03 -0.48294589750E+02  0.10499467457E+04  0.50400001928E-02 0. -1.
       -1    1    3    3    0  502  0.10428707887E+04 -0.11169744663E+03  0.77204604553E+02  0.10516731205E+04  0.50400001928E-02 0.  1.
</event>
<event>
 5   0  0.6283269E-06  0.2101076E+04  0.7818609E-02  0.8560770E-01
       -1   -1    0    0    0  501  0.00000000000E+00  0.00000000000E+00  0.41066505839E+03  0.41066505842E+03  0.50400001928E-02 0.  1.
        1   -1    0    0  501    0  0.00000000000E+00  0.00000000000E+00 -0.26874204476E+04  0.26874204476E+04  0.50400001928E-02 0. -1.
    10030    2    1    2    0    0  0.00000000000E+00  0.00000000000E+00 -0.22767553892E+04  0.30980855060E+04  0.21010756056E+04 0.  0.
        1    1    3    3  502    0 -0.63371024749E+03  0.75927176558E+03 -0.61591467971E+03  0.11650893461E+04  0.50400001928E-02 0.  1.
       -1    1    3    3    0  502  0.63371024749E+03 -0.75927176558E+03 -0.16608407095E+04  0.19329961599E+04  0.50400001928E-02 0. -1.
</event>
<event>
 5   0  0.1344501E-05  0.2098301E+04  0.7818609E-02  0.8561992E-01
        2   -1    0    0  501    0  0.00000000000E+00  0.00000000000E+00  0.20561284752E+04  0.20561284752E+04  0.25500000920E-02 0.  1.
       -2   -1    0    0    0  501  0.00000000000E+00  0.00000000000E+00 -0.53533478466E+03  0.53533478466E+03  0.25500000920E-02 0. -1.
    10030    2    1    2    0    0  0.00000000000E+00  0.00000000000E+00  0.15207936906E+04  0.25914632599E+04  0.20983013077E+04 0.  0.
        3    1    3    3  502    0 -0.47057693180E+03  0.75589313464E+03  0.14456989292E+04  0.16978994328E+04  0.10100000352E+00 0.  1.
       -3    1    3    3    0  502  0.47057693180E+03 -0.75589313464E+03  0.75094761374E+02  0.89356382711E+03  0.10100000352E+00 0. -1.
</event>
<event>
 5   0  0.6238363E-06  0.2105418E+04  0.7818609E-02  0.8558860E-01
        1   -1    0    0  501    0  0.00000000000E+00  0.00000000000E+00  0.11836558380E+04  0.11836558381E+04  0.50400001928E-02 0. -1.
       -1   -1    0    0    0  501  0.00000000000E+00  0.00000000000E+00 -0.93624878044E+03  0.93624878046E+03  0.50400001928E-02 0.  1.
    10030    2    1    2    0    0  0.00000000000E+00  0.00000000000E+00  0.24740705760E+03  0.21199046185E+04  0.21054180914E+04 0.  0.
        4    1    3    3  502    0 -0.24381632464E+03  0.36289619325E+03  0.10879223070E+04  0.11724830942E+04  0.12699999809E+01 0. -1.
       -4    1    3    3    0  502  0.24381632464E+03 -0.36289619325E+03 -0.84051524943E+03  0.94742152427E+03  0.12699999809E+01 0.  1.
</event>
<event>
 5   0  0.1390735E-05  0.2078753E+04  0.7818609E-02  0.8570661E-01
       -2   -1    0    0    0  501  0.00000000000E+00  0.00000000000E+00  0.52373100890E+03  0.52373100891E+03  0.25500000920E-02 0. -1.
        2   -1    0    0  501    0  0.00000000000E+00  0.00000000000E+00 -0.20627077801E+04  0.20627077801E+04  0.25500000920E-02 0.  1.
    10030    2    1    2    0    0  0.00000000000E+00  0.00000000000E+00 -0.15389767712E+04  0.25864387890E+04  0.20787534984E+04 0.  0.
        5    1    3    3  502    0  0.38740227221E+02  0.18836314340E+03  0.50138975750E+03  0.53702444816E+03  0.46999998093E+01 0. -1.
       -5    1    3    3    0  502 -0.38740227221E+02 -0.18836314340E+03 -0.20403665287E+04  0.20494143408E+04  0.46999998093E+01 0.  1.
</event>
<event>
 5   0  0.6238363E-06  0.2099507E+04  0.7818609E-02  0.8561460E-01
        1   -1    0    0  501    0  0.00000000000E+00  0.00000000000E+00  0.15722102142E+04  0.15722102142E+04  0.50400001928E-02 0.  1.
       -1   -1    0    0    0  501  0.00000000000E+00  0.00000000000E+00 -0.70091310389E+03  0.70091310391E+03  0.50400001928E-02 0. -1.
    10030    2    1    2    0    0  0.00000000000E+00  0.00000000000E+00  0.87129711028E+03  0.22731233181E+04  0.20995073148E+04 0.  0.
        4    1    3    3  502    0  0.15108037645E+03  0.10383715715E+04  0.40244800862E+03  0.11238357590E+04  0.12699999809E+01 0. -1.
       -4    1    3    3    0  502 -0.15108037645E+03 -0.10383715715E+04  0.46884910167E+03  0.11492875591E+04  0.12699999809E+01 0.  1.
</event>
<event>
 5   0  0.6589193E-06  0.2100660E+04  0.7818609E-02  0.8560953E-01
       -1   -1    0    0    0  501  0.00000000000E+00  0.00000000000E+00  0.97776709582E+03  0.97776709583E+03  0.50400001928E-02 0.  1.
        1   -1    0    0  501    0  0.00000000000E+00  0.00000000000E+00 -0.11282776456E+04  0.11282776456E+04  0.50400001928E-02 0. -1.
    10030    2    1    2    0    0  0.00000000000E+00  0.00000000000E+00 -0.15051054977E+03  0.21060447414E+04  0.21006596648E+04 0.  0.
        3    1    3    3  502    0  0.32404341411E+03 -0.50989808490E+03  0.78612857961E+03  0.99146273005E+03  0.10100000352E+00 0.  1.
       -3    1    3    3    0  502 -0.32404341411E+03  0.50989808490E+03 -0.93663912938E+03  0.11145820114E+04  0.10100000352E+00 0. -1.
</event>
<event>
 5   0  0.1395356E-05  0.2093648E+04  0.7818609E-02  0.8564047E-01
       -2   -1    0    0    0  501  0.00000000000E+00  0.00000000000E+00  0.61047424582E+03  0.61047424583E+03  0.25500000920E-02 0. -1.
        2   -1    0    0  501    0  0.00000000000E+00  0.00000000000E+00 -0.17950639030E+04  0.17950639030E+04  0.25500000920E-02 0.  1.
    10030    2    1    2    0    0  0.00000000000E+00  0.00000000000E+00 -0.11845896572E+04  0.24055381488E+04  0.20936478046E+04 0.  0.
        1    1    3    3  502    0  0.10199841545E+04  0.22695360435E+03 -0.51994923955E+03  0.11671430185E+04  0.50400001928E-02 0. -1.
       -1    1    3    3    0  502 -0.10199841545E+04 -0.22695360435E+03 -0.66464041761E+03  0.12383951303E+04  0.50400001928E-02 0.  1.
</event>
<event>
 5   0  0.1441136E-05  0.2098065E+04  0.7818609E-02  0.8562096E-01
       -2   -1    0    0    0  501  0.00000000000E+00  0.00000000000E+00  0.98083703224E+03  0.98083703225E+03  0.25500000920E-02 0.  1.
        2   -1    0    0  501    0  0.00000000000E+00  0.00000000000E+00 -0.11219691201E+04  0.11219691202E+04  0.25500000920E-02 0. -1.
    10030    2    1    2    0    0  0.00000000000E+00  0.00000000000E+00 -0.14113208791E+03  0.21028061524E+04  0.20980646912E+04 0.  0.
        4    1    3    3  502    0 -0.99256341278E+03  0.15603803954E+03  0.23167349270E+03  0.10311179459E+04  0.12699999809E+01 0. -1.
       -4    1    3    3    0  502  0.99256341278E+03 -0.15603803954E+03 -0.37280558061E+03  0.10716882065E+04  0.12699999809E+01 0.  1.
</event>
<event>
 5   0  0.1344501E-05  0.2098650E+04  0.7818609E-02  0.8561838E-01
        2   -1    0    0  501    0  0.00000000000E+00  0.00000000000E+00  0.88649438460E+03  0.88649438461E+03  0.25500000920E-02 0. -1.
       -2   -1    0    0    0  501  0.00000000000E+00  0.00000000000E+00 -0.12420644891E+04  0.12420644891E+04  0.25500000920E-02 0.  1.
    10030    2    1    2    0    0  0.00000000000E+00  0.00000000000E+00 -0.35557010453E+03  0.21285588737E+04  0.20986502281E+04 0.  0.
        3    1    3    3  502    0  0.86963998562E+03  0.34895737590E+03  0.30121466701E+03  0.98426380641E+03  0.10100000352E+00 0. -1.
       -3    1    3    3    0  502 -0.86963998562E+03 -0.34895737590E+03 -0.65678477154E+03  0.11442950673E+04  0.10100000352E+00 0.  1.
</event>
<event>
 5   0  0.6599245E-06  0.2100296E+04  0.7818609E-02  0.8561113E-01
        1   -1    0    0  501    0  0.00000000000E+00  0.00000000000E+00  0.84721909378E+03  0.84721909380E+03  0.50400001928E-02 0.  1.
       -1   -1    0    0    0  501  0.00000000000E+00  0.00000000000E+00 -0.13016831244E+04  0.13016831244E+04  0.50400001928E-02 0. -1.
    10030    2    1    2    0    0  0.00000000000E+00  0.00000000000E+00 -0.45446403059E+03  0.21489022182E+04  0.21002959763E+04 0.  0.
        2    1    3    3  502    0 -0.12883485390E+03  0.97409902020E+03 -0.60640743104E+03  0.11546416298E+04  0.25500000920E-02 0. -1.
       -2    1    3    3    0  502  0.12883485390E+03 -0.97409902020E+03  0.15194340045E+03  0.99426058842E+03  0.25500000920E-02 0.  1.
</event>
<event>
 5   0  0.6599245E-06  0.2098885E+04  0.7818609E-02  0.8561735E-01
        1   -1    0    0  501    0  0.00000000000E+00  0.00000000000E+00  0.89092593710E+03  0.89092593711E+03  0.50400001928E-02 0.  1.
       -1   -1    0    0    0  501  0.00000000000E+00  0.00000000000E+00 -0.12361628078E+04  0.12361628078E+04  0.50400001928E-02 0. -1.
    10030    2    1    2    0    0  0.00000000000E+00  0.00000000000E+00 -0.34523687072E+03  0.21270887449E+04  0.20988849497E+04 0.  0.
        2    1    3    3  502    0  0.75667202174E+03  0.49124332270E+02 -0.90787678705E+03  0.11828803866E+04  0.25500000920E-02 0. -1.
       -2    1    3    3    0  502 -0.75667202174E+03 -0.49124332270E+02  0.56263991633E+03  0.94420835834E+03  0.25500000920E-02 0.  1.
</event>
<event>
 5   0  0.1390735E-05  0.2095296E+04  0.7818609E-02  0.8563318E-01
        2   -1    0    0  501    0  0.00000000000E+00  0.00000000000E+00  0.13949068584E+04  0.13949068584E+04  0.25500000920E-02 0.  1.
       -2   -1    0    0    0  501  0.00000000000E+00  0.00000000000E+00 -0.78683877738E+03  0.78683877738E+03  0.25500000920E-02 0. -1.
    10030    2    1    2    0    0  0.00000000000E+00  0.00000000000E+00  0.60806808100E+03  0.21817456358E+04  0.20952964535E+04 0.  0.
        5    1    3    3  502    0 -0.40769446599E+03  0.64616333552E+03  0.10504087351E+04  0.12988927726E+04  0.46999998093E+01 0.  1.
       -5    1    3    3    0  502  0.40769446599E+03 -0.64616333552E+03 -0.44234065414E+03  0.88285286320E+03  0.46999998093E+01 0. -1.
</event>
<event>
 5   0  0.6283269E-06  0.2102862E+04  0.7818609E-02  0.8559984E-01
       -1   -1    0    0    0  501  0.00000000000E+00  0.00000000000E+00  0.10011122181E+04  0.10011122182E+04  0.50400001928E-02 0.  1.
        1   -1    0    0  501    0  0.00000000000E+00  0.00000000000E+00 -0.11042787531E+04  0.11042787531E+04  0.50400001928E-02 0. -1.
    10030    2    1    2    0    0  0.00000000000E+00  0.00000000000E+00 -0.10316653494E+03  0.21053909713E+04  0.21028618138E+04 0.  0.
        1    1    3    3  502    0 -0.10679335645E+03  0.10428086873E+04 -0.13324221526E+03  0.10566968663E+04  0.50400001928E-02 0. -1.
       -1    1    3    3    0  502  0.10679335645E+03 -0.10428086873E+04  0.30075680314E+02  0.10486941050E+04  0.50400001928E-02 0.  1.
</event>
<event>
 5   0  0.1344501E-05  0.2098576E+04  0.7818609E-02  0.8561871E-01
        2   -1    0    0  501    0  0.00000000000E+00  0.00000000000E+00  0.88847198141E+03  0.88847198141E+03  0.25500000920E-02 0. -1.
       -2   -1    0    0    0  501  0.00000000000E+00  0.00000000000E+00 -0.12392123146E+04  0.12392123146E+04  0.25500000920E-02 0.  1.
    10030    2    1    2    0    0  0.00000000000E+00  0.00000000000E+00 -0.35074033323E+03  0.21276842961E+04  0.20985761083E+04 0.  0.
        3    1    3    3  502    0 -0.42873094684E+03  0.91350335027E+03  0.11620673141E+03  0.10157768507E+04  0.10100000352E+00 0. -1.
       -3    1    3    3    0  502  0.42873094684E+03 -0.91350335027E+03 -0.46694706463E+03  0.11119074454E+04  0.10100000352E+00 0.  1.
</event>
<event>
 5   0  0.6599245E-06  0.2075633E+04  0.7818609E-02  0.8572054E-01
        1   -1    0    0  501    0  0.00000000000E+00  0.00000000000E+00  0.14641593229E+04  0.14641593229E+04  0.50400001928E-02 0.  1.
       -1   -1    0    0    0  501  0.00000000000E+00  0.00000000000E+00 -0.73561888661E+03  0.73561888663E+03  0.50400001928E-02 0. -1.
    10030    2    1    2    0    0  0.00000000000E+00  0.00000000000E+00  0.72854043631E+03  0.21997782096E+04  0.20756331574E+04 0.  0.
        2    1    3    3  502    0  0.22709510437E+03  0.30279472197E+03  0.13884040754E+04  0.14390700840E+04  0.25500000920E-02 0.  1.
       -2    1    3    3    0  502 -0.22709510437E+03 -0.30279472197E+03 -0.65986363909E+03  0.76070812556E+03  0.25500000920E-02 0. -1.
</event>
<event>
 5   0  0.6238363E-06  0.2100848E+04  0.7818609E-02  0.8560870E-01
       -1   -1    0    0    0  501  0.00000000000E+00  0.00000000000E+00  0.58919715803E+03  0.58919715805E+03  0.50400001928E-02 0. -1.
        1   -1    0    0  501    0  0.00000000000E+00  0.00000000000E+00 -0.18727013535E+04  0.18727013535E+04  0.50400001928E-02 0.  1.
    10030    2    1    2    0    0  0.00000000000E+00  0.00000000000E+00 -0.12835041954E+04  0.24618985115E+04  0.21008477483E+04 0.  0.
        4    1    3    3  502    0 -0.42790333226E+03  0.91232169494E+03 -0.98929601982E+03  0.14121403487E+04  0.12699999809E+01 0. -1.
       -4    1    3    3    0  502  0.42790333226E+03 -0.91232169494E+03 -0.29420817560E+03  0.10497581628E+04  0.12699999809E+01 0.  1.
</event>
<event>
 5   0  0.6917078E-06  0.2097775E+04  0.7818609E-02  0.8562224E-01
       -1   -1    0    0    0  501  0.00000000000E+00  0.00000000000E+00  0.77908463515E+03  0.77908463516E+03  0.50400001928E-02 0.  1.
        1   -1    0    0  501    0  0.00000000000E+00  0.00000000000E+00 -0.14121254841E+04  0.14121254841E+04  0.50400001928E-02 0. -1.
    10030    2    1    2    0    0  0.00000000000E+00  0.00000000000E+00 -0.63304084898E+03  0.21912101193E+04  0.20977752669E+04 0.  0.
        5    1    3    3  502    0 -0.38738885660E+03  0.35892119800E+03 -0.12631114701E+04  0.13690753188E+04  0.46999998093E+01 0. -1.
       -5    1    3    3    0  502  0.38738885660E+03 -0.35892119800E+03  0.63007062113E+03  0.82213480051E+03  0.46999998093E+01 0.  1.
</event>
<event>
 5   0  0.1441136E-05  0.2099812E+04  0.7818609E-02  0.8561326E-01
        2   -1    0    0  501    0  0.00000000000E+00  0.00000000000E+00  0.21747368882E+04  0.21747368882E+04  0.25500000920E-02 0.  1.
       -2   -1    0    0    0  501  0.00000000000E+00  0.00000000000E+00 -0.50686715845E+03  0.50686715846E+03  0.25500000920E-02 0. -1.
    10030    2    1    2    0    0  0.00000000000E+00  0.00000000000E+00  0.16678697298E+04  0.26816040467E+04  0.20998120934E+04 0.  0.
        4    1    3    3  502    0  0.32086086509E+03  0.51208656881E+02  0.21089118550E+04  0.21337958773E+04  0.12699999809E+01 0.  1.
       -4    1    3    3    0  502 -0.32086086509E+03 -0.51208656881E+02 -0.44104212520E+03  0.54780816933E+03  0.12699999809E+01 0. -1.
</event>
<event>
 5   0  0.6917078E-06  0.2097126E+04  0.7818609E-02  0.8562510E-01
        1   -1    0    0  501    0  0.00000000000E+00  0.00000000000E+00  0.18832834864E+04  0.18832834864E+04  0.50400001928E-02 0. -1.
       -1   -1    0    0    0  501  0.00000000000E+00  0.00000000000E+00 -0.58381249337E+03  0.58381249339E+03  0.50400001928E-02 0.  1.
    10030    2    1    2    0    0  0.00000000000E+00  0.00000000000E+00  0.12994709930E+04  0.24670959798E+04  0.20971260601E+04 0.  0.
        5    1    3    3  502    0  0.31831921540E+03  0.82594404406E+03  0.13109948424E+04  0.15818471018E+04  0.46999998093E+01 0. -1.
       -5    1    3    3    0  502 -0.31831921540E+03 -0.82594404406E+03 -0.11523849383E+02  0.88524887795E+03  0.46999998093E+01 0.  1.
</event>
<event>
 5   0  0.1398469E-05  0.2100385E+04  0.7818609E-02  0.8561074E-01
        2   -1    0    0  501    0  0.00000000000E+00  0.00000000000E+00  0.10912142168E+04  0.10912142168E+04  0.25500000920E-02 0.  1.
       -2   -1    0    0    0  501  0.00000000000E+00  0.00000000000E+00 -0.10107129657E+04  0.10107129657E+04  0.25500000920E-02 0. -1.
    10030    2    1    2    0    0  0.00000000000E+00  0.00000000000E+00  0.80501251036E+02  0.21019271825E+04  0.21003850669E+04 0.  0.
        2    1    3    3  502    0 -0.26981151177E+03  0.23041147477E+03 -0.94891662405E+03  0.10130796903E+04  0.25500000920E-02 0. -1.
       -2    1    3    3    0  502  0.26981151177E+03 -0.23041147477E+03  0.10294178751E+04  0.10888474921E+04  0.25500000920E-02 0.  1.
</event>
<event>
 5   0  0.6599245E-06  0.2105302E+04  0.7818609E-02  0.8558911E-01
       -1   -1    0    0    0  501  0.00000000000E+00  0.00000000000E+00  0.55657394563E+03  0.55657394565E+03  0.50400001928E-02 0. -1.
        1   -1    0    0  501    0  0.00000000000E+00  0.00000000000E+00 -0.19908847212E+04  0.19908847212E+04  0.50400001928E-02 0.  1.
    10030    2    1    2    0    0  0.00000000000E+00  0.00000000000E+00 -0.14343107756E+04  0.25474586668E+04  0.21053024149E+04 0.  0.
        2    1    3    3  502    0 -0.30600862770E+03 -0.42290743129E+03 -0.18232374482E+04  0.18964932819E+04  0.25500000920E-02 0.  1.
       -2    1    3    3    0  502  0.30600862770E+03  0.42290743129E+03  0.38892667267E+03  0.65096538494E+03  0.25500000920E-02 0. -1.
</event>
<event>
 5   0  0.6283269E-06  0.2100143E+04  0.7818609E-02  0.8561180E-01
        1   -1    0    0  501    0  0.00000000000E+00  0.00000000000E+00  0.74635279811E+03  0.74635279813E+03  0.50400001928E-02 0. -1.
       -1   -1    0    0    0  501  0.00000000000E+00  0.00000000000E+00 -0.14773843597E+04  0.14773843597E+04  0.50400001928E-02 0.  1.
    10030    2    1    2    0    0  0.00000000000E+00  0.00000000000E+00 -0.73103156160E+03  0.22237371579E+04  0.21001428054E+04 0.  0.
        1    1    3    3  502    0  0.88349181585E+03  0.38978374899E+03  0.71265858757E+02  0.96828094182E+03  0.50400001928E-02 0. -1.
       -1    1    3    3    0  502 -0.88349181585E+03 -0.38978374899E+03 -0.80229742036E+03  0.12554562160E+04  0.50400001928E-02 0.  1.
</event>
<event>
 5   0  0.1398469E-05  0.2102015E+04  0.7818609E-02  0.8560356E-01
        2   -1    0    0  501    0  0.00000000000E+00  0.00000000000E+00  0.11729930945E+04  0.11729930945E+04  0.25500000920E-02 0. -1.
       -2   -1    0    0    0  501  0.00000000000E+00  0.00000000000E+00 -0.94170742230E+03  0.94170742230E+03  0.25500000920E-02 0.  1.
    10030    2    1    2    0    0  0.00000000000E+00  0.00000000000E+00  0.23128567225E+03  0.21147005169E+04  0.21020145608E+04 0.  0.
        2    1    3    3  502    0  0.99157498972E+03 -0.27339321774E+03 -0.10165025540E+03  0.10335848229E+04  0.25500000920E-02 0. -1.
       -2    1    3    3    0  502 -0.99157498972E+03  0.27339321774E+03  0.33293592765E+03  0.10811156939E+04  0.25500000920E-02 0.  1.
</event>
<event>
 5   0  0.1395356E-05  0.2098500E+04  0.7818609E-02  0.8561904E-01
       -2   -1    0    0    0  501  0.00000000000E+00  0.00000000000E+00  0.57323711543E+03  0.57323711543E+03  0.25500000920E-02 0. -1.
        2   -1    0    0  501    0  0.00000000000E+00  0.00000000000E+00 -0.19205417414E+04  0.19205417414E+04  0.25500000920E-02 0.  1.
    10030    2    1    2    0    0  0.00000000000E+00  0.00000000000E+00 -0.13473046260E+04  0.24937788568E+04  0.20985002339E+04 0.  0.
        1    1    3    3  502    0 -0.65385195463E+03  0.68184078173E+03 -0.13102908334E+03  0.95372839473E+03  0.50400001928E-02 0. -1.
       -1    1    3    3    0  502  0.65385195463E+03 -0.68184078173E+03 -0.12162755426E+04  0.15400504621E+04  0.50400001928E-02 0.  1.
</event>
<event>
 5   0  0.6599245E-06  0.2098689E+04  0.7818609E-02  0.8561821E-01
        1   -1    0    0  501    0  0.00000000000E+00  0.00000000000E+00  0.14764090686E+04  0.14764090686E+04  0.50400001928E-02 0.  1.
       -1   -1    0    0    0  501  0.00000000000E+00  0.00000000000E+00 -0.74581248382E+03  0.74581248384E+03  0.50400001928E-02 0. -1.
    10030    2    1    2    0    0  0.00000000000E+00  0.00000000000E+00  0.73059658473E+03  0.22222215524E+04  0.20986894145E+04 0.  0.
        2    1    3    3  502    0  0.69689781274E+03 -0.25426075435E+02  0.11955506022E+04  0.13840716344E+04  0.25500000920E-02 0.  1.
       -2    1    3    3    0  502 -0.69689781274E+03  0.25426075435E+02 -0.46495401746E+03  0.83814991802E+03  0.25500000920E-02 0. -1.
</event>
<event>
 5   0  0.6283269E-06  0.2103089E+04  0.7818609E-02  0.8559884E-01
        1   -1    0    0  501    0  0.00000000000E+00  0.00000000000E+00  0.11658709553E+04  0.11658709553E+04  0.50400001928E-02 0.  1.
       -1   -1    0    0    0  501  0.00000000000E+00  0.00000000000E+00 -0.94842925398E+03  0.94842925399E+03  0.50400001928E-02 0. -1.
    10030    2    1    2    0    0  0.00000000000E+00  0.00000000000E+00  0.21744170130E+03  0.21143002093E+04  0.21030892709E+04 0.  0.
        1    1    3    3  502    0 -0.95275343009E+03 -0.40709697112E+03  0.28934237579E+03  0.10757258261E+04  0.50400001928E-02 0.  1.
       -1    1    3    3    0  502  0.95275343009E+03  0.40709697112E+03 -0.71900674487E+02  0.10385743832E+04  0.50400001928E-02 0. -1.
</event>
<event>
 5   0  0.6238363E-06  0.2100292E+04  0.7818609E-02  0.8561115E-01
       -1   -1    0    0    0  501  0.00000000000E+00  0.00000000000E+00  0.81959060852E+03  0.81959060854E+03  0.50400001928E-02 0.  1.
        1   -1    0    0  501    0  0.00000000000E+00  0.00000000000E+00 -0.13455585320E+04  0.13455585320E+04  0.50400001928E-02 0. -1.
    10030    2    1    2    0    0  0.00000000000E+00  0.00000000000E+00 -0.52596792343E+03  0.21651491405E+04  0.21002924901E+04 0.  0.
        4    1    3    3  502    0 -0.93918078101E+03 -0.21896175297E+03 -0.69151356561E+03  0.11866749399E+04  0.12699999809E+01 0.  1.
       -4    1    3    3    0  502  0.93918078101E+03  0.21896175297E+03  0.16554564218E+03  0.97847420060E+03  0.12699999809E+01 0. -1.
</event>
<event>
 5   0  0.1441136E-05  0.2099117E+04  0.7818609E-02  0.8561633E-01
        2   -1    0    0  501    0  0.00000000000E+00  0.00000000000E+00  0.24344718973E+04  0.24344718973E+04  0.25500000920E-02 0.  1.
       -2   -1    0    0    0  501  0.00000000000E+00  0.00000000000E+00 -0.45248940873E+03  0.45248940874E+03  0.25500000920E-02 0. -1.
    10030    2    1    2    0    0  0.00000000000E+00  0.00000000000E+00  0.19819824886E+04  0.28869613060E+04  0.20991167184E+04 0.  0.
        4    1    3    3  502    0  0.14961167762E+03  0.93683389982E+03  0.37358085483E+03  0.10196105521E+04  0.12699999809E+01 0. -1.
       -4    1    3    3    0  502 -0.14961167762E+03 -0.93683389982E+03  0.16084016337E+04  0.18673507539E+04  0.12699999809E+01 0.  1.
</event>
<event>
 5   0  0.6589193E-06  0.2126628E+04  0.7818609E-02  0.8549604E-01
       -1   -1    0    0    0  501  0.00000000000E+00  0.00000000000E+00  0.86915560387E+03  0.86915560389E+03  0.50400001928E-02 0. -1.
        1   -1    0    0  501    0  0.00000000000E+00  0.00000000000E+00 -0.13008443646E+04  0.13008443646E+04  0.50400001928E-02 0.  1.
    10030    2    1    2    0    0  0.00000000000E+00  0.00000000000E+00 -0.43168876072E+03  0.21699999685E+04  0.21266275361E+04 0.  0.
        3    1    3    3  502    0  0.27329650399E+03  0.10272803148E+04 -0.19002345203E+03  0.10798633000E+04  0.10100000352E+00 0.  1.
       -3    1    3    3    0  502 -0.27329650399E+03 -0.10272803148E+04 -0.24166530869E+03  0.10901366684E+04  0.10100000352E+00 0. -1.
</event>
<event>
 5   0  0.6283269E-06  0.2089136E+04  0.7818609E-02  0.8566044E-01
       -1   -1    0    0    0  501  0.00000000000E+00  0.00000000000E+00  0.61155873245E+03  0.61155873247E+03  0.50400001928E-02 0. -1.
        1   -1    0    0  501    0  0.00000000000E+00  0.00000000000E+00 -0.17841666848E+04  0.17841666848E+04  0.50400001928E-02 0.  1.
    10030    2    1    2    0    0  0.00000000000E+00  0.00000000000E+00 -0.11726079524E+04  0.23957254173E+04  0.20891363922E+04 0.  0.
        1    1    3    3  502    0  0.50643919865E+03  0.41943036602E+03 -0.15170276146E+04  0.16534132204E+04  0.50400001928E-02 0.  1.
       -1    1    3    3    0  502 -0.50643919865E+03 -0.41943036602E+03  0.34441966226E+03  0.74231219689E+03  0.50400001928E-02 0. -1.
</event>
<event>
 5   0  0.6283269E-06  0.2151475E+04  0.7818609E-02  0.8538901E-01
       -1   -1    0    0    0  501  0.00000000000E+00  0.00000000000E+00  0.47797041147E+03  0.47797041150E+03  0.50400001928E-02 0.  1.
        1   -1    0    0  501    0  0.00000000000E+00  0.00000000000E+00 -0.24210948245E+04  0.24210948245E+04  0.50400001928E-02 0. -1.
    10030    2    1    2    0    0  0.00000000000E+00  0.00000000000E+00 -0.19431244130E+04  0.28990652360E+04  0.21514754840E+04 0.  0.
        1    1    3    3  502    0  0.34898758026E+02 -0.10751201089E+04 -0.98572787974E+03  0.14590272872E+04  0.50400001928E-02 0. -1.
       -1    1    3    3    0  502 -0.34898758026E+02  0.10751201089E+04 -0.95739653330E+03  0.14400379488E+04  0.50400001928E-02 0.  1.
</event>
<event>
 5   0  0.1441136E-05  0.2100386E+04  0.7818609E-02  0.8561073E-01
        2   -1    0    0  501    0  0.00000000000E+00  0.00000000000E+00  0.16220295843E+04  0.16220295843E+04  0.25500000920E-02 0. -1.
       -2   -1    0    0    0  501  0.00000000000E+00  0.00000000000E+00 -0.67995415452E+03  0.67995415453E+03  0.25500000920E-02 0.  1.
    10030    2    1    2    0    0  0.00000000000E+00  0.00000000000E+00  0.94207542979E+03  0.23019837388E+04  0.21003863974E+04 0.  0.
        4    1    3    3  502    0 -0.10601637575E+03 -0.10448189710E+04  0.46638946424E+03  0.11490895959E+04  0.12699999809E+01 0.  1.
       -4    1    3    3    0  502  0.10601637575E+03  0.10448189710E+04  0.47568596556E+03  0.11528941430E+04  0.12699999809E+01 0. -1.
</event>
<event>
 5   0  0.1344501E-05  0.2100628E+04  0.7818609E-02  0.8560967E-01
        2   -1    0    0  501    0  0.00000000000E+00  0.00000000000E+00  0.19675554063E+04  0.19675554063E+04  0.25500000920E-02 0.  1.
       -2   -1    0    0    0  501  0.00000000000E+00  0.00000000000E+00 -0.56067541443E+03  0.56067541444E+03  0.25500000920E-02 0. -1.
    10030    2    1    2    0    0  0.00000000000E+00  0.00000000000E+00  0.14068799919E+04  0.25282308207E+04  0.21006284230E+04 0.  0.
        3    1    3    3  502    0  0.26360213809E+02 -0.63895512998E+03  0.17062305415E+04  0.18221364356E+04  0.10100000352E+00 0.  1.
       -3    1    3    3    0  502 -0.26360213809E+02  0.63895512998E+03 -0.29935054961E+03  0.70609438516E+03  0.10100000352E+00 0. -1.
</event>
<event>
 5   0  0.1390735E-05  0.2099289E+04  0.7818609E-02  0.8561557E-01
        2   -1    0    0  501    0  0.00000000000E+00  0.00000000000E+00  0.17047789834E+04  0.17047789834E+04  0.25500000920E-02 0. -1.
       -2   -1    0    0    0  501  0.00000000000E+00  0.00000000000E+00 -0.64627370109E+03  0.64627370109E+03  0.25500000920E-02 0.  1.
    10030    2    1    2    0    0  0.00000000000E+00  0.00000000000E+00  0.10585052823E+04  0.23510526845E+04  0.20992892351E+04 0.  0.
        5    1    3    3  502    0 -0.27772806969E+03  0.21781980846E+03 -0.57780810666E+03  0.67709869869E+03  0.46999998093E+01 0.  1.
       -5    1    3    3    0  502  0.27772806969E+03 -0.21781980846E+03  0.16363133890E+04  0.16739539858E+04  0.46999998093E+01 0. -1.
</event>
<event>
 5   0  0.1344501E-05  0.2100334E+04  0.7818609E-02  0.8561096E-01
       -2   -1    0    0    0  501  0.00000000000E+00  0.00000000000E+00  0.83152666190E+03  0.83152666191E+03  0.25500000920E-02 0. -1.
        2   -1    0    0  501    0  0.00000000000E+00  0.00000000000E+00 -0.13262962058E+04  0.13262962058E+04  0.25500000920E-02 0.  1.
    10030    2    1    2    0    0  0.00000000000E+00  0.00000000000E+00 -0.49476954386E+03  0.21578228677E+04  0.21003339322E+04 0.  0.
        3    1    3    3  502    0 -0.30488723425E+03  0.17319328791E+03 -0.12643778342E+04  0.13120988753E+04  0.10100000352E+00 0.  1.
       -3    1    3    3    0  502  0.30488723425E+03 -0.17319328791E+03  0.76960829035E+03  0.84572399243E+03  0.10100000352E+00 0. -1.
</event>
<event>
 5   0  0.6589193E-06  0.2100634E+04  0.7818609E-02  0.8560964E-01
        1   -1    0    0  501    0  0.00000000000E+00  0.00000000000E+00  0.16077196754E+04  0.16077196754E+04  0.50400001928E-02 0.  1.
       -1   -1    0    0    0  501  0.00000000000E+00  0.00000000000E+00 -0.68616792354E+03  0.68616792356E+03  0.50400001928E-02 0. -1.
    10030    2    1    2    0    0  0.00000000000E+00  0.00000000000E+00  0.92155175186E+03  0.22938875990E+04  0.21006338770E+04 0.  0.
        3    1    3    3  502    0 -0.71359388410E+03  0.73489763033E+03  0.20731261516E+03  0.10451168782E+04  0.10100000352E+00 0. -1.
       -3    1    3    3    0  502  0.71359388410E+03 -0.73489763033E+03  0.71423913670E+03  0.12487707208E+04  0.10100000352E+00 0.  1.
</event>
<event>
 5   0  0.1390735E-05  0.2099051E+04  0.7818609E-02  0.8561662E-01
        2   -1    0    0  501    0  0.00000000000E+00  0.00000000000E+00  0.21902253434E+04  0.21902253434E+04  0.25500000920E-02 0.  1.
       -2   -1    0    0    0  501  0.00000000000E+00  0.00000000000E+00 -0.50291794884E+03  0.50291794884E+03  0.25500000920E-02 0. -1.
    10030    2    1    2    0    0  0.00000000000E+00  0.00000000000E+00  0.16873073946E+04  0.26931432923E+04  0.20990508686E+04 0.  0.
        5    1    3    3  502    0 -0.53930770198E+03  0.36973498329E+03 -0.20962236569E+03  0.68667341691E+03  0.46999998093E+01 0. -1.
       -5    1    3    3    0  502  0.53930770198E+03 -0.36973498329E+03  0.18969297603E+04  0.20064698754E+04  0.46999998093E+01 0.  1.
</event>
<event>
 5   0  0.1398469E-05  0.2097751E+04  0.7818609E-02  0.8562235E-01
        2   -1    0    0  501    0  0.00000000000E+00  0.00000000000E+00  0.15204925081E+04  0.15204925081E+04  0.25500000920E-02 0.  1.
       -2   -1    0    0    0  501  0.00000000000E+00  0.00000000000E+00 -0.72354142710E+03  0.72354142710E+03  0.25500000920E-02 0. -1.
    10030    2    1    2    0    0  0.00000000000E+00  0.00000000000E+00  0.79695108097E+03  0.22440339352E+04  0.20977505278E+04 0.  0.
        2    1    3    3  502    0  0.33041669733E+03 -0.16545583818E+02 -0.66626686654E+03  0.74388203882E+03  0.25500000920E-02 0. -1.
       -2    1    3    3    0  502 -0.33041669733E+03  0.16545583818E+02  0.14632179475E+04  0.15001518964E+04  0.25500000920E-02 0.  1.
</event>
<event>
 5   0  0.1390735E-05  0.2116044E+04  0.7818609E-02  0.8554209E-01
        2   -1    0    0  501    0  0.00000000000E+00  0.00000000000E+00  0.16290882925E+04  0.16290882925E+04  0.25500000920E-02 0.  1.
       -2   -1    0    0    0  501  0.00000000000E+00  0.00000000000E+00 -0.68713912103E+03  0.68713912104E+03  0.25500000920E-02 0. -1.
    10030    2    1    2    0    0  0.00000000000E+00  0.00000000000E+00  0.94194917144E+03  0.23162274135E+04  0.21160437589E+04 0.  0.
        5    1    3    3  502    0  0.99984056613E+03  0.34559183888E+03  0.45287783149E+03  0.11507542296E+04  0.46999998093E+01 0. -1.
       -5    1    3    3    0  502 -0.99984056613E+03 -0.34559183888E+03  0.48907133995E+03  0.11654731839E+04  0.46999998093E+01 0.  1.
</event>
<event>
 5   0  0.6283269E-06  0.2122736E+04  0.7818609E-02  0.8551293E-01
        1   -1    0    0  501    0  0.00000000000E+00  0.00000000000E+00  0.14121434958E+04  0.14121434958E+04  0.50400001928E-02 0. -1.
       -1   -1    0    0    0  501  0.00000000000E+00  0.00000000000E+00 -0.79772512054E+03  0.79772512056E+03  0.50400001928E-02 0.  1.
    10030    2    1    2    0    0  0.00000000000E+00  0.00000000000E+00  0.61441837528E+03  0.22098686164E+04  0.21227362912E+04 0.  0.
        1    1    3    3  502    0 -0.65386681827E+03  0.73734663751E+03  0.71744050785E+03  0.12189925193E+04  0.50400001928E-02 0. -1.
       -1    1    3    3    0  502  0.65386681827E+03 -0.73734663751E+03 -0.10302213257E+03  0.99087609705E+03  0.50400001928E-02 0.  1.
</event>
<event>
 5   0  0.1398469E-05  0.2106914E+04  0.7818609E-02  0.8558204E-01
        2   -1    0    0  501    0  0.00000000000E+00  0.00000000000E+00  0.91937080827E+03  0.91937080827E+03  0.25500000920E-02 0. -1.
       -2   -1    0    0    0  501  0.00000000000E+00  0.00000000000E+00 -0.12070985115E+04  0.12070985115E+04  0.25500000920E-02 0.  1.
    10030    2    1    2    0    0  0.00000000000E+00  0.00000000000E+00 -0.28772770325E+03  0.21264693198E+04  0.21069135096E+04 0.  0.
        2    1    3    3  502    0  0.40439034450E+03 -0.85621341793E+03 -0.60981783199E+03  0.11262818280E+04  0.25500000920E-02 0.  1.
       -2    1    3    3    0  502 -0.40439034450E+03  0.85621341793E+03  0.32209012874E+03  0.10001874918E+04  0.25500000920E-02 0. -1.
</event>
<event>
 5   0  0.6917078E-06  0.2102920E+04  0.7818609E-02  0.8559958E-01
       -1   -1    0    0    0  501  0.00000000000E+00  0.00000000000E+00  0.17512153810E+04  0.17512153810E+04  0.50400001928E-02 0.  1.
        1   -1    0    0  501    0  0.00000000000E+00  0.00000000000E+00 -0.63131477799E+03  0.63131477801E+03  0.50400001928E-02 0. -1.
    10030    2    1    2    0    0  0.00000000000E+00  0.00000000000E+00  0.11199006030E+04  0.23825301590E+04  0.21029200170E+04 0.  0.
        5    1    3    3  502    0 -0.22913545912E+03  0.62680517538E+02  0.17204018836E+04  0.17367315961E+04  0.46999998093E+01 0.  1.
       -5    1    3    3    0  502  0.22913545912E+03 -0.62680517538E+02 -0.60050128057E+03  0.64579856292E+03  0.46999998093E+01 0. -1.
</event>
<event>
 5   0  0.6589193E-06  0.2098722E+04  0.7818609E-02  0.8561807E-01
       -1   -1    0    0    0  501  0.00000000000E+00  0.00000000000E+00  0.14603171260E+04  0.14603171260E+04  0.50400001928E-02 0. -1.
        1   -1    0    0  501    0  0.00000000000E+00  0.00000000000E+00 -0.75405440912E+03  0.75405440913E+03  0.50400001928E-02 0.  1.
    10030    2    1    2    0    0  0.00000000000E+00  0.00000000000E+00  0.70626271683E+03  0.22143715351E+04  0.20987220565E+04 0.  0.
        3    1    3    3  502    0  0.53505247613E+03  0.88040608322E+03  0.56352498945E+03  0.11742897630E+04  0.10100000352E+00 0. -1.
       -3    1    3    3    0  502 -0.53505247613E+03 -0.88040608322E+03  0.14273772739E+03  0.10400817721E+04  0.10100000352E+00 0.  1.
</event>
<event>
 5   0  0.1441136E-05  0.2101138E+04  0.7818609E-02  0.8560742E-01
       -2   -1    0    0    0  501  0.00000000000E+00  0.00000000000E+00  0.81859315906E+03  0.81859315906E+03  0.25500000920E-02 0. -1.
        2   -1    0    0  501    0  0.00000000000E+00  0.00000000000E+00 -0.13482824721E+04  0.13482824721E+04  0.25500000920E-02 0.  1.
    10030    2    1    2    0    0  0.00000000000E+00  0.00000000000E+00 -0.52968931305E+03  0.21668756312E+04  0.21011376044E+04 0.  0.
        4    1    3    3  502    0 -0.16109540405E+03 -0.43884824251E+03 -0.12351062286E+04  0.13206167188E+04  0.12699999809E+01 0.  1.
       -4    1    3    3    0  502  0.16109540405E+03  0.43884824251E+03  0.70541691553E+03  0.84625891238E+03  0.12699999809E+01 0. -1.
</event>
<event>
 5   0  0.6589193E-06  0.2098303E+04  0.7818609E-02  0.8561991E-01
       -1   -1    0    0    0  501  0.00000000000E+00  0.00000000000E+00  0.65984103733E+03  0.65984103735E+03  0.50400001928E-02 0. -1.
        1   -1    0    0  501    0  0.00000000000E+00  0.00000000000E+00 -0.16681581149E+04  0.16681581149E+04  0.50400001928E-02 0.  1.
    10030    2    1    2    0    0  0.00000000000E+00  0.00000000000E+00 -0.10083170775E+04  0.23279991522E+04  0.20983032964E+04 0.  0.
        3    1    3    3  502    0 -0.75226114405E+03  0.35216513700E+03  0.20694175872E+03  0.85600351300E+03  0.10100000352E+00 0. -1.
       -3    1    3    3    0  502  0.75226114405E+03 -0.35216513700E+03 -0.12152588362E+04  0.14719956392E+04  0.10100000352E+00 0.  1.
</event>
<event>
 5   0  0.6238363E-06  0.2097011E+04  0.7818609E-02  0.8562561E-01
        1   -1    0    0  501    0  0.00000000000E+00  0.00000000000E+00  0.63452956730E+03  0.63452956732E+03  0.50400001928E-02 0. -1.
       -1   -1    0    0    0  501  0.00000000000E+00  0.00000000000E+00 -0.17325646093E+04  0.17325646093E+04  0.50400001928E-02 0.  1.
    10030    2    1    2    0    0  0.00000000000E+00  0.00000000000E+00 -0.10980350420E+04  0.23670941766E+04  0.20970107028E+04 0.  0.
        4    1    3    3  502    0  0.30518248583E+03  0.99326377324E+03 -0.39077443495E+03  0.11101421282E+04  0.12699999809E+01 0. -1.
       -4    1    3    3    0  502 -0.30518248583E+03 -0.99326377324E+03 -0.70726060707E+03  0.12569520484E+04  0.12699999809E+01 0.  1.
</event>
<event>
 5   0  0.6589193E-06  0.2101613E+04  0.7818609E-02  0.8560533E-01
        1   -1    0    0  501    0  0.00000000000E+00  0.00000000000E+00  0.12850137349E+04  0.12850137349E+04  0.50400001928E-02 0. -1.
       -1   -1    0    0    0  501  0.00000000000E+00  0.00000000000E+00 -0.85928581312E+03  0.85928581313E+03  0.50400001928E-02 0.  1.
    10030    2    1    2    0    0  0.00000000000E+00  0.00000000000E+00  0.42572792178E+03  0.21442995480E+04  0.21016127827E+04 0.  0.
        3    1    3    3  502    0  0.74907025092E+03  0.25935859447E+03 -0.49094457271E+03  0.93241605789E+03  0.10100000352E+00 0.  1.
       -3    1    3    3    0  502 -0.74907025092E+03 -0.25935859447E+03  0.91667249448E+03  0.12118834901E+04  0.10100000352E+00 0. -1.
</event>
<event>
 5   0  0.1344501E-05  0.2099207E+04  0.7818609E-02  0.8561593E-01
       -2   -1    0    0    0  501  0.00000000000E+00  0.00000000000E+00  0.93848564144E+03  0.93848564144E+03  0.25500000920E-02 0. -1.
        2   -1    0    0  501    0  0.00000000000E+00  0.00000000000E+00 -0.11738772961E+04  0.11738772961E+04  0.25500000920E-02 0.  1.
    10030    2    1    2    0    0  0.00000000000E+00  0.00000000000E+00 -0.23539165466E+03  0.21123629375E+04  0.20992065046E+04 0.  0.
        3    1    3    3  502    0 -0.47728118556E+03 -0.72630966505E+03 -0.70989412954E+03  0.11221732241E+04  0.10100000352E+00 0.  1.
       -3    1    3    3    0  502  0.47728118556E+03  0.72630966505E+03  0.47450247488E+03  0.99018971339E+03  0.10100000352E+00 0. -1.
</event>
<event>
 5   0  0.6238363E-06  0.2099300E+04  0.7818609E-02  0.8561552E-01
        1   -1    0    0  501    0  0.00000000000E+00  0.00000000000E+00  0.20479527323E+04  0.20479527323E+04  0.50400001928E-02 0.  1.
       -1   -1    0    0    0  501  0.00000000000E+00  0.00000000000E+00 -0.53798389725E+03  0.53798389727E+03  0.50400001928E-02 0. -1.
    10030    2    1    2    0    0  0.00000000000E+00  0.00000000000E+00  0.15099688350E+04  0.25859366295E+04  0.20993004476E+04 0.  0.
        4    1    3    3  502    0 -0.32410624285E+03 -0.95330291968E+03  0.38971072058E+03  0.10796792912E+04  0.12699999809E+01 0.  1.
       -4    1    3    3    0  502  0.32410624285E+03  0.95330291968E+03  0.11202581144E+04  0.15062573383E+04  0.12699999809E+01 0. -1.
</event>
<event>
 5   0  0.6917078E-06  0.2101886E+04  0.7818609E-02  0.8560413E-01
        1   -1    0    0  501    0  0.00000000000E+00  0.00000000000E+00  0.11104309193E+04  0.11104309193E+04  0.50400001928E-02 0.  1.
       -1   -1    0    0    0  501  0.00000000000E+00  0.00000000000E+00 -0.99464227313E+03  0.99464227314E+03  0.50400001928E-02 0. -1.
    10030    2    1    2    0    0  0.00000000000E+00  0.00000000000E+00  0.11578864618E+03  0.21050731925E+04  0.21018863278E+04 0.  0.
        5    1    3    3  502    0 -0.28871719748E+03 -0.11053179870E+03  0.10638496855E+04  0.11078687386E+04  0.46999998093E+01 0.  1.
       -5    1    3    3    0  502  0.28871719748E+03  0.11053179870E+03 -0.94806103929E+03  0.99720445389E+03  0.46999998093E+01 0. -1.
</event>
<event>
 5   0  0.1390735E-05  0.2100411E+04  0.7818609E-02  0.8561062E-01
       -2   -1    0    0    0  501  0.00000000000E+00  0.00000000000E+00  0.11116362046E+04  0.11116362046E+04  0.25500000920E-02 0. -1.
        2   -1    0    0  501    0  0.00000000000E+00  0.00000000000E+00 -0.99216971635E+03  0.99216971635E+03  0.25500000920E-02 0.  1.
    10030    2    1    2    0    0  0.00000000000E+00  0.00000000000E+00  0.11946648827E+03  0.21038059210E+04  0.21004111767E+04 0.  0.
        5    1    3    3  502    0 -0.29602148032E+03  0.64763674020E+03  0.83289249808E+03  0.10958074956E+04  0.46999998093E+01 0. -1.
       -5    1    3    3    0  502  0.29602148032E+03 -0.64763674020E+03 -0.71342600981E+03  0.10079984254E+04  0.46999998093E+01 0.  1.
</event>
<event>
 5   0  0.6917078E-06  0.2100451E+04  0.7818609E-02  0.8561045E-01
        1   -1    0    0  501    0  0.00000000000E+00  0.00000000000E+00  0.50504477776E+03  0.50504477779E+03  0.50400001928E-02 0.  1.
       -1   -1    0    0    0  501  0.00000000000E+00  0.00000000000E+00 -0.21839130691E+04  0.21839130691E+04  0.50400001928E-02 0. -1.
    10030    2    1    2    0    0  0.00000000000E+00  0.00000000000E+00 -0.16788682914E+04  0.26889578469E+04  0.21004512760E+04 0.  0.
        5    1    3    3  502    0  0.78095926295E+03  0.50166863424E+03 -0.21047167386E+03  0.95178212027E+03  0.46999998093E+01 0.  1.
       -5    1    3    3    0  502 -0.78095926295E+03 -0.50166863424E+03 -0.14683966175E+04  0.17371757267E+04  0.46999998093E+01 0. -1.
</event>
<event>
 5   0  0.1441136E-05  0.2103399E+04  0.7818609E-02  0.8559748E-01
        2   -1    0    0  501    0  0.00000000000E+00  0.00000000000E+00  0.13347126137E+04  0.13347126137E+04  0.25500000920E-02 0.  1.
       -2   -1    0    0    0  501  0.00000000000E+00  0.00000000000E+00 -0.82869636626E+03  0.82869636626E+03  0.25500000920E-02 0. -1.
    10030    2    1    2    0    0  0.00000000000E+00  0.00000000000E+00  0.50601624748E+03  0.21634089800E+04  0.21033986717E+04 0.  0.
        4    1    3    3  502    0  0.61142671715E+03 -0.91498718130E+02 -0.62206207199E+03  0.87702763934E+03  0.12699999809E+01 0. -1.
       -4    1    3    3    0  502 -0.61142671715E+03  0.91498718130E+02  0.11280783195E+04  0.12863813407E+04  0.12699999809E+01 0.  1.
</event>
<event>
 5   0  0.6599245E-06  0.2100850E+04  0.7818609E-02  0.8560869E-01
        1   -1    0    0  501    0  0.00000000000E+00  0.00000000000E+00  0.16076246572E+04  0.16076246572E+04  0.50400001928E-02 0.  1.
       -1   -1    0    0    0  501  0.00000000000E+00  0.00000000000E+00 -0.68634978287E+03  0.68634978289E+03  0.50400001928E-02 0. -1.
    10030    2    1    2    0    0  0.00000000000E+00  0.00000000000E+00  0.92127487432E+03  0.22939744401E+04  0.21008501464E+04 0.  0.
        2    1    3    3  502    0 -0.70125405097E+03  0.32627604788E+03  0.12367350936E+04  0.14586730254E+04  0.25500000920E-02 0.  1.
       -2    1    3    3    0  502  0.70125405097E+03 -0.32627604788E+03 -0.31546021924E+03  0.83530141467E+03  0.25500000920E-02 0. -1.
</event>
<event>
 5   0  0.6599245E-06  0.2095386E+04  0.7818609E-02  0.8563279E-01
        1   -1    0    0  501    0  0.00000000000E+00  0.00000000000E+00  0.15073298968E+04  0.15073298968E+04  0.50400001928E-02 0. -1.
       -1   -1    0    0    0  501  0.00000000000E+00  0.00000000000E+00 -0.72821535988E+03  0.72821535989E+03  0.50400001928E-02 0.  1.
    10030    2    1    2    0    0  0.00000000000E+00  0.00000000000E+00  0.77911453688E+03  0.22355452567E+04  0.20953861537E+04 0.  0.
        2    1    3    3  502    0 -0.17412713331E+03 -0.44325625787E+03 -0.60606515395E+03  0.77078618276E+03  0.25500000920E-02 0.  1.
       -2    1    3    3    0  502  0.17412713331E+03  0.44325625787E+03  0.13851796908E+04  0.14647590739E+04  0.25500000920E-02 0. -1.
</event>
<event>
 5   0  0.6283269E-06  0.2122512E+04  0.7818609E-02  0.8551391E-01
       -1   -1    0    0    0  501  0.00000000000E+00  0.00000000000E+00  0.59395090499E+03  0.59395090502E+03  0.50400001928E-02 0.  1.
        1   -1    0    0  501    0  0.00000000000E+00  0.00000000000E+00 -0.18962241917E+04  0.18962241917E+04  0.50400001928E-02 0. -1.
    10030    2    1    2    0    0  0.00000000000E+00  0.00000000000E+00 -0.13022732867E+04  0.24901750967E+04  0.21225117901E+04 0.  0.
        1    1    3    3  502    0  0.80930013335E+03  0.11962081202E+03  0.14197126743E+03  0.83032023057E+03  0.50400001928E-02 0.  1.
       -1    1    3    3    0  502 -0.80930013335E+03 -0.11962081202E+03 -0.14442445541E+04  0.16598548661E+04  0.50400001928E-02 0. -1.
</event>
<event>
 5   0  0.1344501E-05  0.2099013E+04  0.7818609E-02  0.8561678E-01
        2   -1    0    0  501    0  0.00000000000E+00  0.00000000000E+00  0.10516786190E+04  0.10516786190E+04  0.25500000920E-02 0.  1.
       -2   -1    0    0    0  501  0.00000000000E+00  0.00000000000E+00 -0.10473390427E+04  0.10473390427E+04  0.25500000920E-02 0. -1.
    10030    2    1    2    0    0  0.00000000000E+00  0.00000000000E+00  0.43395763043E+01  0.20990176617E+04  0.20990131758E+04 0.  0.
        3    1    3    3  502    0  0.48664438841E+03 -0.87604625971E+03 -0.30957477613E+03  0.10488643202E+04  0.10100000352E+00 0. -1.
       -3    1    3    3    0  502 -0.48664438841E+03  0.87604625971E+03  0.31391435243E+03  0.10501533416E+04  0.10100000352E+00 0.  1.
</event>
<event>
 5   0  0.6599245E-06  0.2100032E+04  0.7818609E-02  0.8561229E-01
        1   -1    0    0  501    0  0.00000000000E+00  0.00000000000E+00  0.25617043083E+04  0.25617043083E+04  0.50400001928E-02 0.  1.
       -1   -1    0    0    0  501  0.00000000000E+00  0.00000000000E+00 -0.43039070778E+03  0.43039070781E+03  0.50400001928E-02 0. -1.
    10030    2    1    2    0    0  0.00000000000E+00  0.00000000000E+00  0.21313136005E+04  0.29920950161E+04  0.21000321240E+04 0.  0.
        2    1    3    3  502    0  0.72473852989E+02  0.83257420888E+03  0.15993535444E+03  0.85088870616E+03  0.25500000920E-02 0. -1.
       -2    1    3    3    0  502 -0.72473852989E+02 -0.83257420888E+03  0.19713782461E+04  0.21412063099E+04  0.25500000920E-02 0.  1.
</event>
<event>
 5   0  0.6599245E-06  0.2098125E+04  0.7818609E-02  0.8562070E-01
        1   -1    0    0  501    0  0.00000000000E+00  0.00000000000E+00  0.94336272256E+03  0.94336272257E+03  0.50400001928E-02 0.  1.
       -1   -1    0    0    0  501  0.00000000000E+00  0.00000000000E+00 -0.11666053483E+04  0.11666053483E+04  0.50400001928E-02 0. -1.
    10030    2    1    2    0    0  0.00000000000E+00  0.00000000000E+00 -0.22324262572E+03  0.21099680709E+04  0.20981248748E+04 0.  0.
        2    1    3    3  502    0 -0.75033277977E+03 -0.38574362581E+03 -0.73862650036E+03  0.11213235627E+04  0.25500000920E-02 0. -1.
       -2    1    3    3    0  502  0.75033277977E+03  0.38574362581E+03  0.51538387464E+03  0.98864450815E+03  0.25500000920E-02 0.  1.
</event>
<event>
 5   0  0.1390735E-05  0.2104270E+04  0.7818609E-02  0.8559365E-01
       -2   -1    0    0    0  501  0.00000000000E+00  0.00000000000E+00  0.10982457908E+04  0.10982457908E+04  0.25500000920E-02 0. -1.
        2   -1    0    0  501    0  0.00000000000E+00  0.00000000000E+00 -0.10079604385E+04  0.10079604385E+04  0.25500000920E-02 0.  1.
    10030    2    1    2    0    0  0.00000000000E+00  0.00000000000E+00  0.90285352263E+02  0.21062062293E+04  0.21042702382E+04 0.  0.
        5    1    3    3  502    0 -0.58870673331E+03 -0.53680491668E+03 -0.64268027737E+03  0.10236186621E+04  0.46999998093E+01 0.  1.
       -5    1    3    3    0  502  0.58870673331E+03  0.53680491668E+03  0.73296562963E+03  0.10825875672E+04  0.46999998093E+01 0. -1.
</event>
<event>
 5   0  0.1441136E-05  0.2104490E+04  0.7818609E-02  0.8559268E-01
       -2   -1    0    0    0  501  0.00000000000E+00  0.00000000000E+00  0.13996259072E+04  0.13996259072E+04  0.25500000920E-02 0. -1.
        2   -1    0    0  501    0  0.00000000000E+00  0.00000000000E+00 -0.79108269878E+03  0.79108269878E+03  0.25500000920E-02 0.  1.
    10030    2    1    2    0    0  0.00000000000E+00  0.00000000000E+00  0.60854320842E+03  0.21907086060E+04  0.21044902850E+04 0.  0.
        4    1    3    3  502    0 -0.18159749380E+03  0.59757718007E+03 -0.57726488919E+03  0.85047780752E+03  0.12699999809E+01 0.  1.
       -4    1    3    3    0  502  0.18159749380E+03 -0.59757718007E+03  0.11858080976E+04  0.13402307985E+04  0.12699999809E+01 0. -1.
</event>
<event>
 5   0  0.6599245E-06  0.2099204E+04  0.7818609E-02  0.8561594E-01
        1   -1    0    0  501    0  0.00000000000E+00  0.00000000000E+00  0.13836365908E+04  0.13836365908E+04  0.50400001928E-02 0. -1.
       -1   -1    0    0    0  501  0.00000000000E+00  0.00000000000E+00 -0.79620948900E+03  0.79620948902E+03  0.50400001928E-02 0.  1.
    10030    2    1    2    0    0  0.00000000000E+00  0.00000000000E+00  0.58742710183E+03  0.21798460799E+04  0.20992042140E+04 0.  0.
        2    1    3    3  502    0  0.71710517689E+03  0.51587261964E+03  0.88232218677E+03  0.12485418838E+04  0.25500000920E-02 0. -1.
       -2    1    3    3    0  502 -0.71710517689E+03 -0.51587261964E+03 -0.29489508494E+03  0.93130419603E+03  0.25500000920E-02 0.  1.
</event>
<event>
 5   0  0.6283269E-06  0.2094027E+04  0.7818609E-02  0.8563879E-01
        1   -1    0    0  501    0  0.00000000000E+00  0.00000000000E+00  0.17092300946E+04  0.17092300946E+04  0.50400001928E-02 0.  1.
       -1   -1    0    0    0  501  0.00000000000E+00  0.00000000000E+00 -0.64136330039E+03  0.64136330041E+03  0.50400001928E-02 0. -1.
    10030    2    1    2    0    0  0.00000000000E+00  0.00000000000E+00  0.10678667942E+04  0.23505933950E+04  0.20940271771E+04 0.  0.
        1    1    3    3  502    0  0.46260111188E+03  0.93926459903E+03  0.53891300777E+03  0.11775589181E+04  0.50400001928E-02 0.  1.
       -1    1    3    3    0  502 -0.46260111188E+03 -0.93926459903E+03  0.52895378641E+03  0.11730344769E+04  0.50400001928E-02 0. -1.
</event>
<event>
 5   0  0.6589193E-06  0.2100786E+04  0.7818609E-02  0.8560897E-01
       -1   -1    0    0    0  501  0.00000000000E+00  0.00000000000E+00  0.68121368013E+03  0.68121368015E+03  0.50400001928E-02 0. -1.
        1   -1    0    0  501    0  0.00000000000E+00  0.00000000000E+00 -0.16196459952E+04  0.16196459952E+04  0.50400001928E-02 0.  1.
    10030    2    1    2    0    0  0.00000000000E+00  0.00000000000E+00 -0.93843231506E+03  0.23008596753E+04  0.21007855758E+04 0.  0.
        3    1    3    3  502    0 -0.25327947710E+03  0.24833976899E+03  0.61363110532E+03  0.70877801743E+03  0.10100000352E+00 0. -1.
       -3    1    3    3    0  502  0.25327947710E+03 -0.24833976899E+03 -0.15520634204E+04  0.15920816579E+04  0.10100000352E+00 0.  1.
</event>
<event>
 5   0  0.1398469E-05  0.2095879E+04  0.7818609E-02  0.8563061E-01
        2   -1    0    0  501    0  0.00000000000E+00  0.00000000000E+00  0.19478208169E+04  0.19478208169E+04  0.25500000920E-02 0.  1.
       -2   -1    0    0    0  501  0.00000000000E+00  0.00000000000E+00 -0.56379807493E+03  0.56379807494E+03  0.25500000920E-02 0. -1.
    10030    2    1    2    0    0  0.00000000000E+00  0.00000000000E+00  0.13840227420E+04  0.25116188918E+04  0.20958794115E+04 0.  0.
        2    1    3    3  502    0  0.15611446077E+03  0.37501427879E+03  0.18496363215E+04  0.18937164403E+04  0.25500000920E-02 0.  1.
       -2    1    3    3    0  502 -0.15611446077E+03 -0.37501427879E+03 -0.46561357958E+03  0.61790245157E+03  0.25500000920E-02 0. -1.
</event>
<event>
 5   0  0.6283269E-06  0.2099285E+04  0.7818609E-02  0.8561559E-01
       -1   -1    0    0    0  501  0.00000000000E+00  0.00000000000E+00  0.67095752780E+03  0.67095752782E+03  0.50400001928E-02 0. -1.
        1   -1    0    0  501    0  0.00000000000E+00  0.00000000000E+00 -0.16420548948E+04  0.16420548948E+04  0.50400001928E-02 0.  1.
    10030    2    1    2    0    0  0.00000000000E+00  0.00000000000E+00 -0.97109736704E+03  0.23130124227E+04  0.20992847285E+04 0.  0.
        1    1    3    3  502    0  0.22764946162E+03  0.98385742430E+03 -0.80096159380E+03  0.12889294719E+04  0.50400001928E-02 0.  1.
       -1    1    3    3    0  502 -0.22764946162E+03 -0.98385742430E+03 -0.17013577324E+03  0.10240829508E+04  0.50400001928E-02 0. -1.
</event>
<event>
 5   0  0.1390735E-05  0.2099831E+04  0.7818609E-02  0.8561318E-01
        2   -1    0    0  501    0  0.00000000000E+00  0.00000000000E+00  0.17048112115E+04  0.17048112115E+04  0.25500000920E-02 0. -1.
       -2   -1    0    0    0  501  0.00000000000E+00  0.00000000000E+00 -0.64659488617E+03  0.64659488617E+03  0.25500000920E-02 0.  1.
    10030    2    1    2    0    0  0.00000000000E+00  0.00000000000E+00  0.10582163253E+04  0.23514060977E+04  0.20998306706E+04 0.  0.
        5    1    3    3  502    0 -0.71367864412E+03  0.46311728644E+03 -0.15981037274E+03  0.86566522011E+03  0.46999998093E+01 0.  1.
       -5    1    3    3    0  502  0.71367864412E+03 -0.46311728644E+03  0.12180266981E+04  0.14857408776E+04  0.46999998093E+01 0. -1.
</event>
<event>
 5   0  0.6283269E-06  0.2100299E+04  0.7818609E-02  0.8561112E-01
        1   -1    0    0  501    0  0.00000000000E+00  0.00000000000E+00  0.12913464517E+04  0.12913464517E+04  0.50400001928E-02 0.  1.
       -1   -1    0    0    0  501  0.00000000000E+00  0.00000000000E+00 -0.85400302268E+03  0.85400302269E+03  0.50400001928E-02 0. -1.
    10030    2    1    2    0    0  0.00000000000E+00  0.00000000000E+00  0.43734342903E+03  0.21453494744E+04  0.21002988103E+04 0.  0.
        1    1    3    3  502    0  0.24591395098E+03 -0.24220127352E+03  0.12317513455E+04  0.12791976021E+04  0.50400001928E-02 0.  1.
       -1    1    3    3    0  502 -0.24591395098E+03  0.24220127352E+03 -0.79440791643E+03  0.86615187230E+03  0.50400001928E-02 0. -1.
</event>
<event>
 5   0  0.1398469E-05  0.2098604E+04  0.7818609E-02  0.8561858E-01
       -2   -1    0    0    0  501  0.00000000000E+00  0.00000000000E+00  0.81160975851E+03  0.81160975851E+03  0.25500000920E-02 0.  1.
        2   -1    0    0  501    0  0.00000000000E+00  0.00000000000E+00 -0.13566063391E+04  0.13566063391E+04  0.25500000920E-02 0. -1.
    10030    2    1    2    0    0  0.00000000000E+00  0.00000000000E+00 -0.54499658059E+03  0.21682160976E+04  0.20986042440E+04 0.  0.
        2    1    3    3  502    0  0.41032556597E+03  0.11768687085E+03  0.71784710770E+03  0.83517766954E+03  0.25500000920E-02 0.  1.
       -2    1    3    3    0  502 -0.41032556597E+03 -0.11768687085E+03 -0.12628436883E+04  0.13330384281E+04  0.25500000920E-02 0. -1.
</event>
<event>
 5   0  0.5009125E-06  0.2073188E+04  0.7818609E-02  0.8573147E-01
        3   -1    0    0  501    0  0.00000000000E+00  0.00000000000E+00  0.18725299046E+04  0.18725299073E+04  0.10100000352E+00 0. -1.
       -3   -1    0    0    0  501  0.00000000000E+00  0.00000000000E+00 -0.57383697585E+03  0.57383698474E+03  0.10100000352E+00 0.  1.
    10030    2    1    2    0    0  0.00000000000E+00  0.00000000000E+00  0.12986929287E+04  0.24463668920E+04  0.20731877984E+04 0.  0.
        4    1    3    3  502    0 -0.68850750182E+03 -0.11719190184E+03  0.15532228555E+04  0.17030206615E+04  0.12699999809E+01 0. -1.
       -4    1    3    3    0  502  0.68850750182E+03  0.11719190184E+03 -0.25452992674E+03  0.74334623052E+03  0.12699999809E+01 0.  1.
</event>
<event>
 5   0  0.1390735E-05  0.2101953E+04  0.7818609E-02  0.8560383E-01
        2   -1    0    0  501    0  0.00000000000E+00  0.00000000000E+00  0.14136986834E+04  0.14136986834E+04  0.25500000920E-02 0.  1.
       -2   -1    0    0    0  501  0.00000000000E+00  0.00000000000E+00 -0.78132057140E+03  0.78132057140E+03  0.25500000920E-02 0. -1.
    10030    2    1    2    0    0  0.00000000000E+00  0.00000000000E+00  0.63237811197E+03  0.21950192548E+04  0.21019532469E+04 0.  0.
        5    1    3    3  502    0 -0.39087837491E+03  0.94392805673E+03  0.57356377035E+03  0.11716584694E+04  0.46999998093E+01 0.  1.
       -5    1    3    3    0  502  0.39087837491E+03 -0.94392805673E+03  0.58814341619E+02  0.10233607854E+04  0.46999998093E+01 0. -1.
</event>
<event>
 5   0  0.6283269E-06  0.2102445E+04  0.7818609E-02  0.8560167E-01
       -1   -1    0    0    0  501  0.00000000000E+00  0.00000000000E+00  0.14762812912E+04  0.14762812912E+04  0.50400001928E-02 0. -1.
        1   -1    0    0  501    0  0.00000000000E+00  0.00000000000E+00 -0.74854899035E+03  0.74854899036E+03  0.50400001928E-02 0.  1.
    10030    2    1    2    0    0  0.00000000000E+00  0.00000000000E+00  0.72773230086E+03  0.22248302816E+04  0.21024451194E+04 0.  0.
        1    1    3    3  502    0  0.21977879746E+03  0.36521464773E+03 -0.65299929132E+03  0.77980288101E+03  0.50400001928E-02 0.  1.
       -1    1    3    3    0  502 -0.21977879746E+03 -0.36521464773E+03  0.13807315922E+04  0.14450274006E+04  0.50400001928E-02 0. -1.
</event>
<event>
 5   0  0.6599245E-06  0.2114121E+04  0.7818609E-02  0.8555048E-01
        1   -1    0    0  501    0  0.00000000000E+00  0.00000000000E+00  0.11225878417E+04  0.11225878417E+04  0.50400001928E-02 0. -1.
       -1   -1    0    0    0  501  0.00000000000E+00  0.00000000000E+00 -0.99535780139E+03  0.99535780140E+03  0.50400001928E-02 0.  1.
    10030    2    1    2    0    0  0.00000000000E+00  0.00000000000E+00  0.12723004030E+03  0.21179456431E+04  0.21141206834E+04 0.  0.
        2    1    3    3  502    0  0.30668030279E+03 -0.32714649977E+03 -0.89535189336E+03  0.10013653945E+04  0.25500000920E-02 0.  1.
       -2    1    3    3    0  502 -0.30668030279E+03  0.32714649977E+03  0.10225819337E+04  0.11165802486E+04  0.25500000920E-02 0. -1.
</event>
<event>
 5   0  0.1344501E-05  0.2103836E+04  0.7818609E-02  0.8559556E-01
        2   -1    0    0  501    0  0.00000000000E+00  0.00000000000E+00  0.28169248306E+04  0.28169248306E+04  0.25500000920E-02 0. -1.
       -2   -1    0    0    0  501  0.00000000000E+00  0.00000000000E+00 -0.39281525773E+03  0.39281525774E+03  0.25500000920E-02 0.  1.
    10030    2    1    2    0    0  0.00000000000E+00  0.00000000000E+00  0.24241095729E+04  0.32097400884E+04  0.21038355956E+04 0.  0.
        3    1    3    3  502    0  0.24991519893E+03 -0.93910314189E+03  0.18264222796E+04  0.20688621683E+04  0.10100000352E+00 0. -1.
       -3    1    3    3    0  502 -0.24991519893E+03  0.93910314189E+03  0.59768729329E+03  0.11408779201E+04  0.10100000352E+00 0.  1.
</event>
<event>
 5   0  0.6589193E-06  0.2106893E+04  0.7818609E-02  0.8558213E-01
       -1   -1    0    0    0  501  0.00000000000E+00  0.00000000000E+00  0.10131665792E+04  0.10131665792E+04  0.50400001928E-02 0.  1.
        1   -1    0    0  501    0  0.00000000000E+00  0.00000000000E+00 -0.10953273339E+04  0.10953273339E+04  0.50400001928E-02 0. -1.
    10030    2    1    2    0    0  0.00000000000E+00  0.00000000000E+00 -0.82160754748E+02  0.21084939131E+04  0.21068925440E+04 0.  0.
        3    1    3    3  502    0  0.21264781683E+03  0.98696229610E+03  0.25987293319E+03  0.10425198413E+04  0.10100000352E+00 0.  1.
       -3    1    3    3    0  502 -0.21264781683E+03 -0.98696229610E+03 -0.34203368793E+03  0.10659740718E+04  0.10100000352E+00 0. -1.
</event>
<event>
 5   0  0.1395356E-05  0.2105638E+04  0.7818609E-02  0.8558764E-01
        2   -1    0    0  501    0  0.00000000000E+00  0.00000000000E+00  0.10845952771E+04  0.10845952771E+04  0.25500000920E-02 0.  1.
       -2   -1    0    0    0  501  0.00000000000E+00  0.00000000000E+00 -0.10219739969E+04  0.10219739970E+04  0.25500000920E-02 0. -1.
    10030    2    1    2    0    0  0.00000000000E+00  0.00000000000E+00  0.62621280126E+02  0.21065692740E+04  0.21056383074E+04 0.  0.
        1    1    3    3  502    0 -0.19303865282E+03 -0.71179008675E+03 -0.72036642739E+03  0.10309397843E+04  0.50400001928E-02 0. -1.
       -1    1    3    3    0  502  0.19303865282E+03  0.71179008675E+03  0.78298770752E+03  0.10756294898E+04  0.50400001928E-02 0.  1.
</event>
<event>
 5   0  0.6283269E-06  0.2099666E+04  0.7818609E-02  0.8561391E-01
       -1   -1    0    0    0  501  0.00000000000E+00  0.00000000000E+00  0.11596907138E+04  0.11596907138E+04  0.50400001928E-02 0.  1.
        1   -1    0    0  501    0  0.00000000000E+00  0.00000000000E+00 -0.95038186818E+03  0.95038186819E+03  0.50400001928E-02 0. -1.
    10030    2    1    2    0    0  0.00000000000E+00  0.00000000000E+00  0.20930884558E+03  0.21100725820E+04  0.20996657135E+04 0.  0.
        1    1    3    3  502    0  0.84299209371E+03 -0.34207946879E+03  0.63117391308E+03  0.11072644407E+04  0.50400001928E-02 0.  1.
       -1    1    3    3    0  502 -0.84299209371E+03  0.34207946879E+03 -0.42186506750E+03  0.10028081413E+04  0.50400001928E-02 0. -1.
</event>
<event>
 5   0  0.1398469E-05  0.2095541E+04  0.7818609E-02  0.8563210E-01
       -2   -1    0    0    0  501  0.00000000000E+00  0.00000000000E+00  0.12283079634E+04  0.12283079634E+04  0.25500000920E-02 0.  1.
        2   -1    0    0  501    0  0.00000000000E+00  0.00000000000E+00 -0.89376874928E+03  0.89376874928E+03  0.25500000920E-02 0. -1.
    10030    2    1    2    0    0  0.00000000000E+00  0.00000000000E+00  0.33453921412E+03  0.21220767127E+04  0.20955412400E+04 0.  0.
        2    1    3    3  502    0 -0.68213223932E+03  0.54063841701E+03 -0.42340801854E+03  0.96791974876E+03  0.25500000920E-02 0.  1.
       -2    1    3    3    0  502  0.68213223932E+03 -0.54063841701E+03  0.75794723266E+03  0.11541569639E+04  0.25500000920E-02 0. -1.
</event>
<event>
 5   0  0.6589193E-06  0.2101723E+04  0.7818609E-02  0.8560485E-01
        1   -1    0    0  501    0  0.00000000000E+00  0.00000000000E+00  0.16237077194E+04  0.16237077194E+04  0.50400001928E-02 0. -1.
       -1   -1    0    0    0  501  0.00000000000E+00  0.00000000000E+00 -0.68011632177E+03  0.68011632179E+03  0.50400001928E-02 0.  1.
    10030    2    1    2    0    0  0.00000000000E+00  0.00000000000E+00  0.94359139763E+03  0.23038240412E+04  0.21017232185E+04 0.  0.
        3    1    3    3  502    0 -0.14784950880E+03  0.59562578879E+03 -0.46327439787E+03  0.76892960369E+03  0.10100000352E+00 0.  1.
       -3    1    3    3    0  502  0.14784950880E+03 -0.59562578879E+03  0.14068657955E+04  0.15348944375E+04  0.10100000352E+00 0. -1.
</event>
<event>
 5   0  0.1441136E-05  0.2101003E+04  0.7818609E-02  0.8560802E-01
       -2   -1    0    0    0  501  0.00000000000E+00  0.00000000000E+00  0.83456719350E+03  0.83456719350E+03  0.25500000920E-02 0.  1.
        2   -1    0    0  501    0  0.00000000000E+00  0.00000000000E+00 -0.13223064585E+04  0.13223064585E+04  0.25500000920E-02 0. -1.
    10030    2    1    2    0    0  0.00000000000E+00  0.00000000000E+00 -0.48773926496E+03  0.21568736520E+04  0.21010031794E+04 0.  0.
        4    1    3    3  502    0  0.57525980648E+03  0.23185071617E+03  0.62654101663E+03  0.88160867620E+03  0.12699999809E+01 0.  1.
       -4    1    3    3    0  502 -0.57525980648E+03 -0.23185071617E+03 -0.11142802816E+04  0.12752649758E+04  0.12699999809E+01 0. -1.
</event>
<event>
 5   0  0.1395356E-05  0.2101924E+04  0.7818609E-02  0.8560397E-01
       -2   -1    0    0    0  501  0.00000000000E+00  0.00000000000E+00  0.48853872280E+03  0.48853872280E+03  0.25500000920E-02 0. -1.
        2   -1    0    0  501    0  0.00000000000E+00  0.00000000000E+00 -0.22608660883E+04  0.22608660883E+04  0.25500000920E-02 0.  1.
    10030    2    1    2    0    0  0.00000000000E+00  0.00000000000E+00 -0.17723273655E+04  0.27494048111E+04  0.21019235297E+04 0.  0.
        1    1    3    3  502    0  0.63780510404E+03 -0.82188703518E+03 -0.10811759915E+04  0.15004116681E+04  0.50400001928E-02 0.  1.
       -1    1    3    3    0  502 -0.63780510404E+03  0.82188703518E+03 -0.69115137406E+03  0.12489931430E+04  0.50400001928E-02 0. -1.
</event>
<event>
 5   0  0.6589193E-06  0.2092913E+04  0.7818609E-02  0.8564372E-01
        1   -1    0    0  501    0  0.00000000000E+00  0.00000000000E+00  0.11152848045E+04  0.11152848045E+04  0.50400001928E-02 0. -1.
       -1   -1    0    0    0  501  0.00000000000E+00  0.00000000000E+00 -0.98187606065E+03  0.98187606067E+03  0.50400001928E-02 0.  1.
    10030    2    1    2    0    0  0.00000000000E+00  0.00000000000E+00  0.13340874386E+03  0.20971608652E+04  0.20929132332E+04 0.  0.
        3    1    3    3  502    0  0.26852350782E+02  0.32348318743E+03  0.10635646357E+04  0.11119946789E+04  0.10100000352E+00 0. -1.
       -3    1    3    3    0  502 -0.26852350782E+02 -0.32348318743E+03 -0.93015589186E+03  0.98516618632E+03  0.10100000352E+00 0.  1.
</event>
<event>
 5   0  0.6917078E-06  0.2099066E+04  0.7818609E-02  0.8561655E-01
        1   -1    0    0  501    0  0.00000000000E+00  0.00000000000E+00  0.65953092479E+03  0.65953092481E+03  0.50400001928E-02 0. -1.
       -1   -1    0    0    0  501  0.00000000000E+00  0.00000000000E+00 -0.16701564817E+04  0.16701564817E+04  0.50400001928E-02 0.  1.
    10030    2    1    2    0    0  0.00000000000E+00  0.00000000000E+00 -0.10106255569E+04  0.23296874065E+04  0.20990663152E+04 0.  0.
        5    1    3    3  502    0 -0.23118301037E+02  0.58804076582E+03 -0.14697950483E+04  0.15832390761E+04  0.46999998093E+01 0.  1.
       -5    1    3    3    0  502  0.23118301037E+02 -0.58804076582E+03  0.45916949141E+03  0.74644833040E+03  0.46999998093E+01 0. -1.
</event>
<event>
 5   0  0.6589193E-06  0.2093395E+04  0.7818609E-02  0.8564158E-01
       -1   -1    0    0    0  501  0.00000000000E+00  0.00000000000E+00  0.11379926483E+04  0.11379926483E+04  0.50400001928E-02 0. -1.
        1   -1    0    0  501    0  0.00000000000E+00  0.00000000000E+00 -0.96272657011E+03  0.96272657012E+03  0.50400001928E-02 0.  1.
    10030    2    1    2    0    0  0.00000000000E+00  0.00000000000E+00  0.17526607821E+03  0.21007192185E+04  0.20933950981E+04 0.  0.
        3    1    3    3  502    0 -0.19286722236E+03 -0.96553921575E+03  0.44399802232E+03  0.10800916612E+04  0.10100000352E+00 0. -1.
       -3    1    3    3    0  502  0.19286722236E+03  0.96553921575E+03 -0.26873194411E+03  0.10206275572E+04  0.10100000352E+00 0.  1.
</event>
<event>
 5   0  0.6917078E-06  0.2098190E+04  0.7818609E-02  0.8562041E-01
       -1   -1    0    0    0  501  0.00000000000E+00  0.00000000000E+00  0.76223283329E+03  0.76223283331E+03  0.50400001928E-02 0. -1.
        1   -1    0    0  501    0  0.00000000000E+00  0.00000000000E+00 -0.14439157856E+04  0.14439157856E+04  0.50400001928E-02 0.  1.
    10030    2    1    2    0    0  0.00000000000E+00  0.00000000000E+00 -0.68168295234E+03  0.22061486190E+04  0.20981897153E+04 0.  0.
        5    1    3    3  502    0  0.28062517151E+03  0.34838574434E+03 -0.13385897257E+04  0.14113708433E+04  0.46999998093E+01 0.  1.
       -5    1    3    3    0  502 -0.28062517151E+03 -0.34838574434E+03  0.65690677334E+03  0.79477777561E+03  0.46999998093E+01 0. -1.
</event>
<event>
 5   0  0.1398469E-05  0.2098134E+04  0.7818609E-02  0.8562066E-01
        2   -1    0    0  501    0  0.00000000000E+00  0.00000000000E+00  0.18500631947E+04  0.18500631947E+04  0.25500000920E-02 0. -1.
       -2   -1    0    0    0  501  0.00000000000E+00  0.00000000000E+00 -0.59486719157E+03  0.59486719158E+03  0.25500000920E-02 0.  1.
    10030    2    1    2    0    0  0.00000000000E+00  0.00000000000E+00  0.12551960031E+04  0.24449303863E+04  0.20981343111E+04 0.  0.
        2    1    3    3  502    0  0.10423533253E+04  0.66025133950E+02  0.51293626112E+03  0.11635993215E+04  0.25500000920E-02 0.  1.
       -2    1    3    3    0  502 -0.10423533253E+04 -0.66025133950E+02  0.74225974202E+03  0.12813310648E+04  0.25500000920E-02 0. -1.
</event>
<event>
 5   0  0.6589193E-06  0.2103890E+04  0.7818609E-02  0.8559532E-01
       -1   -1    0    0    0  501  0.00000000000E+00  0.00000000000E+00  0.13532247191E+04  0.13532247191E+04  0.50400001928E-02 0.  1.
        1   -1    0    0  501    0  0.00000000000E+00  0.00000000000E+00 -0.81774145068E+03  0.81774145069E+03  0.50400001928E-02 0. -1.
    10030    2    1    2    0    0  0.00000000000E+00  0.00000000000E+00  0.53548326839E+03  0.21709661698E+04  0.21038896786E+04 0.  0.
        3    1    3    3  502    0  0.59641464971E+03 -0.84542108733E+03  0.71573579642E+02  0.10370969274E+04  0.10100000352E+00 0. -1.
       -3    1    3    3    0  502 -0.59641464971E+03  0.84542108733E+03  0.46390968875E+03  0.11338692424E+04  0.10100000352E+00 0.  1.
</event>
<event>
 5   0  0.1395356E-05  0.2137656E+04  0.7818609E-02  0.8544835E-01
        2   -1    0    0  501    0  0.00000000000E+00  0.00000000000E+00  0.21376777662E+04  0.21376777662E+04  0.25500000920E-02 0. -1.
       -2   -1    0    0    0  501  0.00000000000E+00  0.00000000000E+00 -0.53440852877E+03  0.53440852877E+03  0.25500000920E-02 0.  1.
    10030    2    1    2    0    0  0.00000000000E+00  0.00000000000E+00  0.16032692375E+04  0.26720862950E+04  0.21376559406E+04 0.  0.
        1    1    3    3  502    0  0.25870681494E+03 -0.75299724703E+03 -0.89699870285E+02  0.80123662977E+03  0.50400001928E-02 0.  1.
       -1    1    3    3    0  502 -0.25870681494E+03  0.75299724703E+03  0.16929691078E+04  0.18708496652E+04  0.50400001928E-02 0. -1.
</event>
<event>
 5   0  0.1441136E-05  0.2098601E+04  0.7818609E-02  0.8561860E-01
        2   -1    0    0  501    0  0.00000000000E+00  0.00000000000E+00  0.22581381621E+04  0.22581381621E+04  0.25500000920E-02 0.  1.
       -2   -1    0    0    0  501  0.00000000000E+00  0.00000000000E+00 -0.48758370137E+03  0.48758370138E+03  0.25500000920E-02 0. -1.
    10030    2    1    2    0    0  0.00000000000E+00  0.00000000000E+00  0.17705544608E+04  0.27457218635E+04  0.20986008323E+04 0.  0.
        4    1    3    3  502    0 -0.26478687606E+03  0.11900669909E+03  0.22045508359E+04  0.22235828488E+04  0.12699999809E+01 0.  1.
       -4    1    3    3    0  502  0.26478687606E+03 -0.11900669909E+03 -0.43399637518E+03  0.52213901475E+03  0.12699999809E+01 0. -1.
</event>
<event>
 5   0  0.6589193E-06  0.2099803E+04  0.7818609E-02  0.8561330E-01
        1   -1    0    0  501    0  0.00000000000E+00  0.00000000000E+00  0.84488372748E+03  0.84488372750E+03  0.50400001928E-02 0. -1.
       -1   -1    0    0    0  501  0.00000000000E+00  0.00000000000E+00 -0.13046679004E+04  0.13046679004E+04  0.50400001928E-02 0.  1.
    10030    2    1    2    0    0  0.00000000000E+00  0.00000000000E+00 -0.45978417293E+03  0.21495516279E+04  0.20998025420E+04 0.  0.
        3    1    3    3  502    0  0.52105924951E+03 -0.83802619063E+03  0.13707272311E+03  0.99628288117E+03  0.10100000352E+00 0. -1.
       -3    1    3    3    0  502 -0.52105924951E+03  0.83802619063E+03 -0.59685689604E+03  0.11532687468E+04  0.10100000352E+00 0.  1.
</event>
<event>
 5   0  0.1344501E-05  0.2098882E+04  0.7818609E-02  0.8561736E-01
        2   -1    0    0  501    0  0.00000000000E+00  0.00000000000E+00  0.13048792172E+04  0.13048792172E+04  0.25500000920E-02 0.  1.
       -2   -1    0    0    0  501  0.00000000000E+00  0.00000000000E+00 -0.84400640191E+03  0.84400640191E+03  0.25500000920E-02 0. -1.
    10030    2    1    2    0    0  0.00000000000E+00  0.00000000000E+00  0.46087281531E+03  0.21488856191E+04  0.20988820005E+04 0.  0.
        3    1    3    3  502    0 -0.10152905399E+04 -0.26553148846E+03  0.23262053431E+03  0.10749112405E+04  0.10100000352E+00 0.  1.
       -3    1    3    3    0  502  0.10152905399E+04  0.26553148846E+03  0.22825228101E+03  0.10739743786E+04  0.10100000352E+00 0. -1.
</event>
<event>
 5   0  0.1344501E-05  0.2114322E+04  0.7818609E-02  0.8554960E-01
        2   -1    0    0  501    0  0.00000000000E+00  0.00000000000E+00  0.19005142652E+04  0.19005142652E+04  0.25500000920E-02 0. -1.
       -2   -1    0    0    0  501  0.00000000000E+00  0.00000000000E+00 -0.58804597661E+03  0.58804597661E+03  0.25500000920E-02 0.  1.
    10030    2    1    2    0    0  0.00000000000E+00  0.00000000000E+00  0.13124682886E+04  0.24885602419E+04  0.21143223663E+04 0.  0.
        3    1    3    3  502    0  0.99396834176E+03  0.35018690346E+03  0.55785890294E+03  0.11923969547E+04  0.10100000352E+00 0.  1.
       -3    1    3    3    0  502 -0.99396834176E+03 -0.35018690346E+03  0.75460938569E+03  0.12961632872E+04  0.10100000352E+00 0. -1.
</event>
<event>
 5   0  0.6599245E-06  0.2137820E+04  0.7818609E-02  0.8544764E-01
        1   -1    0    0  501    0  0.00000000000E+00  0.00000000000E+00  0.13542033949E+04  0.13542033950E+04  0.50400001928E-02 0. -1.
       -1   -1    0    0    0  501  0.00000000000E+00  0.00000000000E+00 -0.84372030918E+03  0.84372030920E+03  0.50400001928E-02 0.  1.
    10030    2    1    2    0    0  0.00000000000E+00  0.00000000000E+00  0.51048308576E+03  0.21979237042E+04  0.21378202984E+04 0.  0.
        2    1    3    3  502    0  0.25591016703E+03 -0.13664191788E+03 -0.80247171664E+03  0.85330058205E+03  0.25500000920E-02 0.  1.
       -2    1    3    3    0  502 -0.25591016703E+03  0.13664191788E+03  0.13129548024E+04  0.13446231221E+04  0.25500000920E-02 0. -1.
</event>
<event>
 5   0  0.6917078E-06  0.2098802E+04  0.7818609E-02  0.8561771E-01
        1   -1    0    0  501    0  0.00000000000E+00  0.00000000000E+00  0.11634386709E+04  0.11634386709E+04  0.50400001928E-02 0.  1.
       -1   -1    0    0    0  501  0.00000000000E+00  0.00000000000E+00 -0.94654066560E+03  0.94654066561E+03  0.50400001928E-02 0. -1.
    10030    2    1    2    0    0  0.00000000000E+00  0.00000000000E+00  0.21689800528E+03  0.21099793365E+04  0.20988015761E+04 0.  0.
        5    1    3    3  502    0 -0.87242481247E+03  0.41970618610E+03  0.51550240495E+03  0.10968332396E+04  0.46999998093E+01 0.  1.
       -5    1    3    3    0  502  0.87242481247E+03 -0.41970618610E+03 -0.29860439967E+03  0.10131460969E+04  0.46999998093E+01 0. -1.
</event>
<event>
 5   0  0.6283269E-06  0.2101541E+04  0.7818609E-02  0.8560565E-01
       -1   -1    0    0    0  501  0.00000000000E+00  0.00000000000E+00  0.13610586441E+04  0.13610586441E+04  0.50400001928E-02 0. -1.
        1   -1    0    0  501    0  0.00000000000E+00  0.00000000000E+00 -0.81122049102E+03  0.81122049104E+03  0.50400001928E-02 0.  1.
    10030    2    1    2    0    0  0.00000000000E+00  0.00000000000E+00  0.54983815304E+03  0.21722791351E+04  0.21015410170E+04 0.  0.
        1    1    3    3  502    0  0.39700870773E+03 -0.45836108731E+03 -0.61210818603E+03  0.86161895975E+03  0.50400001928E-02 0.  1.
       -1    1    3    3    0  502 -0.39700870773E+03  0.45836108731E+03  0.11619463391E+04  0.13106601754E+04  0.50400001928E-02 0. -1.
</event>
<event>
 5   0  0.1390735E-05  0.2104255E+04  0.7818609E-02  0.8559371E-01
       -2   -1    0    0    0  501  0.00000000000E+00  0.00000000000E+00  0.63673779655E+03  0.63673779655E+03  0.25500000920E-02 0.  1.
        2   -1    0    0  501    0  0.00000000000E+00  0.00000000000E+00 -0.17385057862E+04  0.17385057862E+04  0.25500000920E-02 0. -1.
    10030    2    1    2    0    0  0.00000000000E+00  0.00000000000E+00 -0.11017679897E+04  0.23752435828E+04  0.21042550640E+04 0.  0.
        5    1    3    3  502    0 -0.64696697839E+03 -0.82372543936E+03 -0.43879662838E+03  0.11356295354E+04  0.46999998093E+01 0.  1.
       -5    1    3    3    0  502  0.64696697839E+03  0.82372543936E+03 -0.66297136128E+03  0.12396140474E+04  0.46999998093E+01 0. -1.
</event>
<event>
 5   0  0.1344501E-05  0.2096399E+04  0.7818609E-02  0.8562831E-01
        2   -1    0    0  501    0  0.00000000000E+00  0.00000000000E+00  0.16889341653E+04  0.16889341653E+04  0.25500000920E-02 0.  1.
       -2   -1    0    0    0  501  0.00000000000E+00  0.00000000000E+00 -0.65054188353E+03  0.65054188353E+03  0.25500000920E-02 0. -1.
    10030    2    1    2    0    0  0.00000000000E+00  0.00000000000E+00  0.10383922818E+04  0.23394760489E+04  0.20963992111E+04 0.  0.
        3    1    3    3  502    0  0.10065527913E+04 -0.56304847090E+02  0.19885123097E+03  0.10275507675E+04  0.10100000352E+00 0. -1.
       -3    1    3    3    0  502 -0.10065527913E+04  0.56304847090E+02  0.83954105082E+03  0.13119252813E+04  0.10100000352E+00 0.  1.
</event>
<event>
 5   0  0.1441136E-05  0.2099360E+04  0.7818609E-02  0.8561525E-01
        2   -1    0    0  501    0  0.00000000000E+00  0.00000000000E+00  0.21537382856E+04  0.21537382856E+04  0.25500000920E-02 0. -1.
       -2   -1    0    0    0  501  0.00000000000E+00  0.00000000000E+00 -0.51158887424E+03  0.51158887425E+03  0.25500000920E-02 0.  1.
    10030    2    1    2    0    0  0.00000000000E+00  0.00000000000E+00  0.16421494114E+04  0.26653271599E+04  0.20993604216E+04 0.  0.
        4    1    3    3  502    0 -0.44952329636E+03 -0.21603265401E+01 -0.38319761797E+03  0.59069271902E+03  0.12699999809E+01 0.  1.
       -4    1    3    3    0  502  0.44952329636E+03  0.21603265401E+01  0.20253470294E+04  0.20746344409E+04  0.12699999809E+01 0. -1.
</event>
<event>
 5   0  0.1344501E-05  0.2102678E+04  0.7818609E-02  0.8560065E-01
        2   -1    0    0  501    0  0.00000000000E+00  0.00000000000E+00  0.25898798638E+04  0.25898798638E+04  0.25500000920E-02 0. -1.
       -2   -1    0    0    0  501  0.00000000000E+00  0.00000000000E+00 -0.42678186774E+03  0.42678186775E+03  0.25500000920E-02 0.  1.
    10030    2    1    2    0    0  0.00000000000E+00  0.00000000000E+00  0.21630979961E+04  0.30166617316E+04  0.21026780691E+04 0.  0.
        3    1    3    3  502    0  0.15187388316E+03  0.50788789896E+03 -0.22100561640E+03  0.57433377663E+03  0.10100000352E+00 0.  1.
       -3    1    3    3    0  502 -0.15187388316E+03 -0.50788789896E+03  0.23841036125E+04  0.24423279549E+04  0.10100000352E+00 0. -1.
</event>
<event>
 5   0  0.6917078E-06  0.2097709E+04  0.7818609E-02  0.8562253E-01
       -1   -1    0    0    0  501  0.00000000000E+00  0.00000000000E+00  0.47057798592E+03  0.47057798595E+03  0.50400001928E-02 0. -1.
        1   -1    0    0  501    0  0.00000000000E+00  0.00000000000E+00 -0.23377553941E+04  0.23377553941E+04  0.50400001928E-02 0.  1.
    10030    2    1    2    0    0  0.00000000000E+00  0.00000000000E+00 -0.18671774082E+04  0.28083333801E+04  0.20977094413E+04 0.  0.
        5    1    3    3  502    0  0.70407909986E+03  0.72251213018E+03 -0.54947140622E+03  0.11487785136E+04  0.46999998093E+01 0. -1.
       -5    1    3    3    0  502 -0.70407909986E+03 -0.72251213018E+03 -0.13177060020E+04  0.16595548665E+04  0.46999998093E+01 0.  1.
</event>
<event>
 5   0  0.6238363E-06  0.2099218E+04  0.7818609E-02  0.8561588E-01
        1   -1    0    0  501    0  0.00000000000E+00  0.00000000000E+00  0.97418140698E+03  0.97418140699E+03  0.50400001928E-02 0. -1.
       -1   -1    0    0    0  501  0.00000000000E+00  0.00000000000E+00 -0.11308766937E+04  0.11308766937E+04  0.50400001928E-02 0.  1.
    10030    2    1    2    0    0  0.00000000000E+00  0.00000000000E+00 -0.15669528671E+03  0.21050581007E+04  0.20992179959E+04 0.  0.
        4    1    3    3  502    0 -0.38440815792E+03  0.35764920260E+02  0.90039468547E+03  0.97967390693E+03  0.12699999809E+01 0. -1.
       -4    1    3    3    0  502  0.38440815792E+03 -0.35764920260E+02 -0.10570899722E+04  0.11253841938E+04  0.12699999809E+01 0.  1.
</event>
<event>
 5   0  0.6917078E-06  0.2095403E+04  0.7818609E-02  0.8563271E-01
       -1   -1    0    0    0  501  0.00000000000E+00  0.00000000000E+00  0.97273554062E+03  0.97273554063E+03  0.50400001928E-02 0.  1.
        1   -1    0    0  501    0  0.00000000000E+00  0.00000000000E+00 -0.11284450970E+04  0.11284450970E+04  0.50400001928E-02 0. -1.
    10030    2    1    2    0    0  0.00000000000E+00  0.00000000000E+00 -0.15570955642E+03  0.21011806377E+04  0.20954032085E+04 0.  0.
        5    1    3    3  502    0  0.47049416017E+03 -0.87182599933E+03 -0.41969238662E+03  0.10759224495E+04  0.46999998093E+01 0.  1.
       -5    1    3    3    0  502 -0.47049416017E+03  0.87182599933E+03  0.26398283020E+03  0.10252581882E+04  0.46999998093E+01 0. -1.
</event>
<event>
 5   0  0.6238363E-06  0.2106886E+04  0.7818609E-02  0.8558216E-01
       -1   -1    0    0    0  501  0.00000000000E+00  0.00000000000E+00  0.10992452741E+04  0.10992452741E+04  0.50400001928E-02 0.  1.
        1   -1    0    0  501    0  0.00000000000E+00  0.00000000000E+00 -0.10095487546E+04  0.10095487546E+04  0.50400001928E-02 0. -1.
    10030    2    1    2    0    0  0.00000000000E+00  0.00000000000E+00  0.89696519494E+02  0.21087940286E+04  0.21068855663E+04 0.  0.
        4    1    3    3  502    0  0.38854540332E+03 -0.94561313431E+03  0.29922085720E+03  0.10652166280E+04  0.12699999809E+01 0.  1.
       -4    1    3    3    0  502 -0.38854540332E+03  0.94561313431E+03 -0.20952433771E+03  0.10435774007E+04  0.12699999809E+01 0. -1.
</event>
<event>
 5   0  0.1344501E-05  0.2102037E+04  0.7818609E-02  0.8560346E-01
        2   -1    0    0  501    0  0.00000000000E+00  0.00000000000E+00  0.18282136618E+04  0.18282136618E+04  0.25500000920E-02 0. -1.
       -2   -1    0    0    0  501  0.00000000000E+00  0.00000000000E+00 -0.60421843028E+03  0.60421843028E+03  0.25500000920E-02 0.  1.
    10030    2    1    2    0    0  0.00000000000E+00  0.00000000000E+00  0.12239952315E+04  0.24324320921E+04  0.21020374773E+04 0.  0.
        3    1    3    3  502    0  0.37120678197E+03 -0.21641049590E+03  0.17219315017E+04  0.17747326797E+04  0.10100000352E+00 0. -1.
       -3    1    3    3    0  502 -0.37120678197E+03  0.21641049590E+03 -0.49793627015E+03  0.65769941238E+03  0.10100000352E+00 0.  1.
</event>
<event>
 5   0  0.6589193E-06  0.2100262E+04  0.7818609E-02  0.8561128E-01
       -1   -1    0    0    0  501  0.00000000000E+00  0.00000000000E+00  0.57742629028E+03  0.57742629030E+03  0.50400001928E-02 0.  1.
        1   -1    0    0  501    0  0.00000000000E+00  0.00000000000E+00 -0.19098116647E+04  0.19098116647E+04  0.50400001928E-02 0. -1.
    10030    2    1    2    0    0  0.00000000000E+00  0.00000000000E+00 -0.13323853744E+04  0.24872379550E+04  0.21002623310E+04 0.  0.
        3    1    3    3  502    0  0.28993968943E+03 -0.77517621926E+03 -0.14316736298E+04  0.16536785017E+04  0.10100000352E+00 0.  1.
       -3    1    3    3    0  502 -0.28993968943E+03  0.77517621926E+03  0.99288255381E+02  0.83355945335E+03  0.10100000352E+00 0. -1.
</event>
<event>
 5   0  0.1390735E-05  0.2098553E+04  0.7818609E-02  0.8561881E-01
        2   -1    0    0  501    0  0.00000000000E+00  0.00000000000E+00  0.97350269740E+03  0.97350269741E+03  0.25500000920E-02 0.  1.
       -2   -1    0    0    0  501  0.00000000000E+00  0.00000000000E+00 -0.11309483329E+04  0.11309483329E+04  0.25500000920E-02 0. -1.
    10030    2    1    2    0    0  0.00000000000E+00  0.00000000000E+00 -0.15744563546E+03  0.21044510303E+04  0.20985530755E+04 0.  0.
        5    1    3    3  502    0 -0.72325553898E+03  0.75648498165E+03 -0.37392734060E+01  0.10466155809E+04  0.46999998093E+01 0.  1.
       -5    1    3    3    0  502  0.72325553898E+03 -0.75648498165E+03 -0.15370636205E+03  0.10578354493E+04  0.46999998093E+01 0. -1.
</event>
<event>
 5   0  0.1344501E-05  0.2088554E+04  0.7818609E-02  0.8566302E-01
       -2   -1    0    0    0  501  0.00000000000E+00  0.00000000000E+00  0.63496194799E+03  0.63496194799E+03  0.25500000920E-02 0.  1.
        2   -1    0    0  501    0  0.00000000000E+00  0.00000000000E+00 -0.17174478103E+04  0.17174478103E+04  0.25500000920E-02 0. -1.
    10030    2    1    2    0    0  0.00000000000E+00  0.00000000000E+00 -0.10824858623E+04  0.23524097583E+04  0.20885535733E+04 0.  0.
        3    1    3    3  502    0  0.39514286613E+03  0.81336008748E+03  0.47067614186E+02  0.90548765153E+03  0.10100000352E+00 0.  1.
       -3    1    3    3    0  502 -0.39514286613E+03 -0.81336008748E+03 -0.11295534765E+04  0.14469221067E+04  0.10100000352E+00 0. -1.
</event>
<event>
 5   0  0.6589193E-06  0.2097460E+04  0.7818609E-02  0.8562363E-01
       -1   -1    0    0    0  501  0.00000000000E+00  0.00000000000E+00  0.69892054394E+03  0.69892054395E+03  0.50400001928E-02 0.  1.
        1   -1    0    0  501    0  0.00000000000E+00  0.00000000000E+00 -0.15736193128E+04  0.15736193128E+04  0.50400001928E-02 0. -1.
    10030    2    1    2    0    0  0.00000000000E+00  0.00000000000E+00 -0.87469876889E+03  0.22725398568E+04  0.20974602414E+04 0.  0.
        3    1    3    3  502    0 -0.48975187659E+03  0.26580565222E+02 -0.14416944665E+04  0.15228415452E+04  0.10100000352E+00 0. -1.
       -3    1    3    3    0  502  0.48975187659E+03 -0.26580565222E+02  0.56699569757E+03  0.74969831155E+03  0.10100000352E+00 0.  1.
</event>
<event>
 5   0  0.1441136E-05  0.2095686E+04  0.7818609E-02  0.8563146E-01
       -2   -1    0    0    0  501  0.00000000000E+00  0.00000000000E+00  0.78082559224E+03  0.78082559225E+03  0.25500000920E-02 0.  1.
        2   -1    0    0  501    0  0.00000000000E+00  0.00000000000E+00 -0.14061719116E+04  0.14061719116E+04  0.25500000920E-02 0. -1.
    10030    2    1    2    0    0  0.00000000000E+00  0.00000000000E+00 -0.62534631934E+03  0.21869975038E+04  0.20956860601E+04 0.  0.
        4    1    3    3  502    0  0.45196274500E+03 -0.81791135722E+03  0.18203250070E+03  0.95204346295E+03  0.12699999809E+01 0.  1.
       -4    1    3    3    0  502 -0.45196274500E+03  0.81791135722E+03 -0.80737882004E+03  0.12349540409E+04  0.12699999809E+01 0. -1.
</event>
<event>
 5   0  0.1390735E-05  0.2093335E+04  0.7818609E-02  0.8564185E-01
       -2   -1    0    0    0  501  0.00000000000E+00  0.00000000000E+00  0.62562087152E+03  0.62562087153E+03  0.25500000920E-02 0. -1.
        2   -1    0    0  501    0  0.00000000000E+00  0.00000000000E+00 -0.17510808797E+04  0.17510808797E+04  0.25500000920E-02 0.  1.
    10030    2    1    2    0    0  0.00000000000E+00  0.00000000000E+00 -0.11254600082E+04  0.23767017512E+04  0.20933348954E+04 0.  0.
        5    1    3    3  502    0 -0.15172467898E+03  0.30175944529E+03 -0.16874943672E+04  0.17209702119E+04  0.46999998093E+01 0.  1.
       -5    1    3    3    0  502  0.15172467898E+03 -0.30175944529E+03  0.56203435897E+03  0.65573153935E+03  0.46999998093E+01 0. -1.
</event>
<event>
 5   0  0.6599245E-06  0.2106472E+04  0.7818609E-02  0.8558398E-01
        1   -1    0    0  501    0  0.00000000000E+00  0.00000000000E+00  0.23338863020E+04  0.23338863020E+04  0.50400001928E-02 0. -1.
       -1   -1    0    0    0  501  0.00000000000E+00  0.00000000000E+00 -0.47530410298E+03  0.47530410301E+03  0.50400001928E-02 0.  1.
    10030    2    1    2    0    0  0.00000000000E+00  0.00000000000E+00  0.18585821990E+04  0.28091904050E+04  0.21064716806E+04 0.  0.
        2    1    3    3  502    0  0.82495495536E+03 -0.28800189785E+03  0.17135226360E+04  0.19234488804E+04  0.25500000920E-02 0. -1.
       -2    1    3    3    0  502 -0.82495495536E+03  0.28800189785E+03  0.14505956303E+03  0.88574152459E+03  0.25500000920E-02 0.  1.
</event>
<event>
 5   0  0.6238363E-06  0.2104413E+04  0.7818609E-02  0.8559302E-01
       -1   -1    0    0    0  501  0.00000000000E+00  0.00000000000E+00  0.75924490834E+03  0.75924490836E+03  0.50400001928E-02 0. -1.
        1   -1    0    0  501    0  0.00000000000E+00  0.00000000000E+00 -0.14582101092E+04  0.14582101092E+04  0.50400001928E-02 0.  1.
    10030    2    1    2    0    0  0.00000000000E+00  0.00000000000E+00 -0.69896520088E+03  0.22174550176E+04  0.21044130780E+04 0.  0.
        4    1    3    3  502    0 -0.53243547980E+03 -0.46334772609E+03  0.47279340084E+03  0.84953744367E+03  0.12699999809E+01 0. -1.
       -4    1    3    3    0  502  0.53243547980E+03  0.46334772609E+03 -0.11717586017E+04  0.13679175739E+04  0.12699999809E+01 0.  1.
</event>
<event>
 5   0  0.6589193E-06  0.2099855E+04  0.7818609E-02  0.8561307E-01
        1   -1    0    0  501    0  0.00000000000E+00  0.00000000000E+00  0.31328506466E+04  0.31328506466E+04  0.50400001928E-02 0.  1.
       -1   -1    0    0    0  501  0.00000000000E+00  0.00000000000E+00 -0.35186725625E+03  0.35186725629E+03  0.50400001928E-02 0. -1.
    10030    2    1    2    0    0  0.00000000000E+00  0.00000000000E+00  0.27809833904E+04  0.34847179029E+04  0.20998548153E+04 0.  0.
        3    1    3    3  502    0  0.60415398493E+03 -0.56523604904E+03  0.31776152345E+03  0.88626532406E+03  0.10100000352E+00 0. -1.
       -3    1    3    3    0  502 -0.60415398493E+03  0.56523604904E+03  0.24632218669E+04  0.25984525788E+04  0.10100000352E+00 0.  1.
</event>
<event>
 5   0  0.6917078E-06  0.2087963E+04  0.7818609E-02  0.8566564E-01
       -1   -1    0    0    0  501  0.00000000000E+00  0.00000000000E+00  0.50555169839E+03  0.50555169841E+03  0.50400001928E-02 0.  1.
        1   -1    0    0  501    0  0.00000000000E+00  0.00000000000E+00 -0.21558580081E+04  0.21558580081E+04  0.50400001928E-02 0. -1.
    10030    2    1    2    0    0  0.00000000000E+00  0.00000000000E+00 -0.16503063098E+04  0.26614097066E+04  0.20879632923E+04 0.  0.
        5    1    3    3  502    0 -0.19806535905E+03  0.10247538132E+04 -0.85436791262E+03  0.13488205530E+04  0.46999998093E+01 0. -1.
       -5    1    3    3    0  502  0.19806535905E+03 -0.10247538132E+04 -0.79593839714E+03  0.13125891536E+04  0.46999998093E+01 0.  1.
</event>
<event>
 5   0  0.1344501E-05  0.2113003E+04  0.7818609E-02  0.8555537E-01
        2   -1    0    0  501    0  0.00000000000E+00  0.00000000000E+00  0.18102185583E+04  0.18102185583E+04  0.25500000920E-02 0.  1.
       -2   -1    0    0    0  501  0.00000000000E+00  0.00000000000E+00 -0.61660832333E+03  0.61660832334E+03  0.25500000920E-02 0. -1.
    10030    2    1    2    0    0  0.00000000000E+00  0.00000000000E+00  0.11936102350E+04  0.24268268816E+04  0.21130033886E+04 0.  0.
        3    1    3    3  502    0  0.12050521258E+03 -0.98225556393E+03  0.17193289381E+03  0.10044443386E+04  0.10100000352E+00 0. -1.
       -3    1    3    3    0  502 -0.12050521258E+03  0.98225556393E+03  0.10216773411E+04  0.14223825430E+04  0.10100000352E+00 0.  1.
</event>
<event>
 5   0  0.6283269E-06  0.2102466E+04  0.7818609E-02  0.8560158E-01
        1   -1    0    0  501    0  0.00000000000E+00  0.00000000000E+00  0.25700702844E+04  0.25700702844E+04  0.50400001928E-02 0.  1.
       -1   -1    0    0    0  501  0.00000000000E+00  0.00000000000E+00 -0.42998450679E+03  0.42998450682E+03  0.50400001928E-02 0. -1.
    10030    2    1    2    0    0  0.00000000000E+00  0.00000000000E+00  0.21400857776E+04  0.30000547912E+04  0.21024656037E+04 0.  0.
        1    1    3    3  502    0 -0.70854779721E+03 -0.48357718021E+03  0.20301471205E+03  0.88153380167E+03  0.50400001928E-02 0. -1.
       -1    1    3    3    0  502  0.70854779721E+03  0.48357718021E+03  0.19370710656E+04  0.21185209896E+04  0.50400001928E-02 0.  1.
</event>
<event>
 5   0  0.1395356E-05  0.2098857E+04  0.7818609E-02  0.8561747E-01
       -2   -1    0    0    0  501  0.00000000000E+00  0.00000000000E+00  0.14094325274E+04  0.14094325274E+04  0.25500000920E-02 0.  1.
        2   -1    0    0  501    0  0.00000000000E+00  0.00000000000E+00 -0.78137855273E+03  0.78137855274E+03  0.25500000920E-02 0. -1.
    10030    2    1    2    0    0  0.00000000000E+00  0.00000000000E+00  0.62805397468E+03  0.21908110802E+04  0.20988571637E+04 0.  0.
        1    1    3    3  502    0  0.12122403005E+03 -0.10423237167E+04  0.32748983297E+03  0.10992650211E+04  0.50400001928E-02 0.  1.
       -1    1    3    3    0  502 -0.12122403005E+03  0.10423237167E+04  0.30056414171E+03  0.10915460591E+04  0.50400001928E-02 0. -1.
</event>
<event>
 5   0  0.6589193E-06  0.2099297E+04  0.7818609E-02  0.8561553E-01
       -1   -1    0    0    0  501  0.00000000000E+00  0.00000000000E+00  0.49377583424E+03  0.49377583426E+03  0.50400001928E-02 0. -1.
        1   -1    0    0  501    0  0.00000000000E+00  0.00000000000E+00 -0.22312994283E+04  0.22312994283E+04  0.50400001928E-02 0.  1.
    10030    2    1    2    0    0  0.00000000000E+00  0.00000000000E+00 -0.17375235941E+04  0.27250752626E+04  0.20992967744E+04 0.  0.
        3    1    3    3  502    0 -0.98399297617E+03 -0.17950993521E+03 -0.12819046437E+04  0.16259598764E+04  0.10100000352E+00 0.  1.
       -3    1    3    3    0  502  0.98399297617E+03  0.17950993521E+03 -0.45561895041E+03  0.10991153862E+04  0.10100000352E+00 0. -1.
</event>
<event>
 5   0  0.6599245E-06  0.2096586E+04  0.7818609E-02  0.8562749E-01
        1   -1    0    0  501    0  0.00000000000E+00  0.00000000000E+00  0.17625065294E+04  0.17625065294E+04  0.50400001928E-02 0.  1.
       -1   -1    0    0    0  501  0.00000000000E+00  0.00000000000E+00 -0.62349712520E+03  0.62349712522E+03  0.50400001928E-02 0. -1.
    10030    2    1    2    0    0  0.00000000000E+00  0.00000000000E+00  0.11390094042E+04  0.23860036546E+04  0.20965855616E+04 0.  0.
        2    1    3    3  502    0  0.25920785511E+03 -0.50204384068E+02 -0.58503855474E+03  0.64185613876E+03  0.25500000920E-02 0. -1.
       -2    1    3    3    0  502 -0.25920785511E+03  0.50204384068E+02  0.17240479589E+04  0.17441475158E+04  0.25500000920E-02 0.  1.
</event>
<event>
 5   0  0.6917078E-06  0.2101333E+04  0.7818609E-02  0.8560657E-01
       -1   -1    0    0    0  501  0.00000000000E+00  0.00000000000E+00  0.58671659106E+03  0.58671659108E+03  0.50400001928E-02 0.  1.
        1   -1    0    0  501    0  0.00000000000E+00  0.00000000000E+00 -0.18814872557E+04  0.18814872557E+04  0.50400001928E-02 0. -1.
    10030    2    1    2    0    0  0.00000000000E+00  0.00000000000E+00 -0.12947706647E+04  0.24682038468E+04  0.21013327093E+04 0.  0.
        5    1    3    3  502    0  0.56836315158E+03  0.24267402309E+03 -0.16454067658E+04  0.17576441245E+04  0.46999998093E+01 0. -1.
       -5    1    3    3    0  502 -0.56836315158E+03 -0.24267402309E+03  0.35063610112E+03  0.71055972230E+03  0.46999998093E+01 0.  1.
</event>
<event>
 5   0  0.1390735E-05  0.2100885E+04  0.7818609E-02  0.8560853E-01
       -2   -1    0    0    0  501  0.00000000000E+00  0.00000000000E+00  0.13005797043E+04  0.13005797043E+04  0.25500000920E-02 0. -1.
        2   -1    0    0  501    0  0.00000000000E+00  0.00000000000E+00 -0.84841392842E+03  0.84841392842E+03  0.25500000920E-02 0.  1.
    10030    2    1    2    0    0  0.00000000000E+00  0.00000000000E+00  0.45216577588E+03  0.21489936327E+04  0.21008854668E+04 0.  0.
        5    1    3    3  502    0  0.10010793614E+04 -0.12508003380E+03  0.52536247866E+03  0.11374676816E+04  0.46999998093E+01 0.  1.
       -5    1    3    3    0  502 -0.10010793614E+04  0.12508003380E+03 -0.73196702784E+02  0.10115259512E+04  0.46999998093E+01 0. -1.
</event>
<event>
 5   0  0.1390735E-05  0.2102953E+04  0.7818609E-02  0.8559944E-01
        2   -1    0    0  501    0  0.00000000000E+00  0.00000000000E+00  0.13004566317E+04  0.13004566317E+04  0.25500000920E-02 0. -1.
       -2   -1    0    0    0  501  0.00000000000E+00  0.00000000000E+00 -0.85016495017E+03  0.85016495017E+03  0.25500000920E-02 0.  1.
    10030    2    1    2    0    0  0.00000000000E+00  0.00000000000E+00  0.45029168151E+03  0.21506215819E+04  0.21029528264E+04 0.  0.
        5    1    3    3  502    0  0.84174918184E+03 -0.14787280898E+03 -0.40125159383E+03  0.94415728792E+03  0.46999998093E+01 0.  1.
       -5    1    3    3    0  502 -0.84174918184E+03  0.14787280898E+03  0.85154327534E+03  0.12064642939E+04  0.46999998093E+01 0. -1.
</event>
<event>
 5   0  0.1390735E-05  0.2098332E+04  0.7818609E-02  0.8561978E-01
       -2   -1    0    0    0  501  0.00000000000E+00  0.00000000000E+00  0.64190534073E+03  0.64190534073E+03  0.25500000920E-02 0.  1.
        2   -1    0    0  501    0  0.00000000000E+00  0.00000000000E+00 -0.17148158870E+04  0.17148158870E+04  0.25500000920E-02 0. -1.
    10030    2    1    2    0    0  0.00000000000E+00  0.00000000000E+00 -0.10729105463E+04  0.23567212277E+04  0.20983321722E+04 0.  0.
        5    1    3    3  502    0  0.97849149903E+03 -0.11474531293E+03 -0.94158875274E+03  0.13627999009E+04  0.46999998093E+01 0. -1.
       -5    1    3    3    0  502 -0.97849149903E+03  0.11474531293E+03 -0.13132179351E+03  0.99392132685E+03  0.46999998093E+01 0.  1.
</event>
<event>
 5   0  0.6238363E-06  0.2100834E+04  0.7818609E-02  0.8560876E-01
        1   -1    0    0  501    0  0.00000000000E+00  0.00000000000E+00  0.10979919360E+04  0.10979919360E+04  0.50400001928E-02 0.  1.
       -1   -1    0    0    0  501  0.00000000000E+00  0.00000000000E+00 -0.10049032906E+04  0.10049032906E+04  0.50400001928E-02 0. -1.
    10030    2    1    2    0    0  0.00000000000E+00  0.00000000000E+00  0.93088645424E+02  0.21028952266E+04  0.21008338435E+04 0.  0.
        4    1    3    3  502    0  0.73278797922E+03  0.54614000815E+03 -0.47177354078E+03  0.10285032901E+04  0.12699999809E+01 0. -1.
       -4    1    3    3    0  502 -0.73278797922E+03 -0.54614000815E+03  0.56486218620E+03  0.10743919365E+04  0.12699999809E+01 0.  1.
</event>
<event>
 5   0  0.1398469E-05  0.2100226E+04  0.7818609E-02  0.8561144E-01
       -2   -1    0    0    0  501  0.00000000000E+00  0.00000000000E+00  0.69879607311E+03  0.69879607311E+03  0.25500000920E-02 0.  1.
        2   -1    0    0  501    0  0.00000000000E+00  0.00000000000E+00 -0.15780527332E+04  0.15780527332E+04  0.25500000920E-02 0. -1.
    10030    2    1    2    0    0  0.00000000000E+00  0.00000000000E+00 -0.87925666008E+03  0.22768488063E+04  0.21002257527E+04 0.  0.
        2    1    3    3  502    0 -0.93778909569E+03 -0.43923237624E+03 -0.25072277255E+03  0.10654742498E+04  0.25500000920E-02 0.  1.
       -2    1    3    3    0  502  0.93778909569E+03  0.43923237624E+03 -0.62853388753E+03  0.12113745565E+04  0.25500000920E-02 0. -1.
</event>
<event>
 5   0  0.1344501E-05  0.2099095E+04  0.7818609E-02  0.8561642E-01
        2   -1    0    0  501    0  0.00000000000E+00  0.00000000000E+00  0.11590721469E+04  0.11590721469E+04  0.25500000920E-02 0. -1.
       -2   -1    0    0    0  501  0.00000000000E+00  0.00000000000E+00 -0.95037229946E+03  0.95037229947E+03  0.25500000920E-02 0.  1.
    10030    2    1    2    0    0  0.00000000000E+00  0.00000000000E+00  0.20869984748E+03  0.21094444464E+04  0.20990951017E+04 0.  0.
        3    1    3    3  502    0  0.75977757172E+02 -0.52744485698E+03  0.10130089297E+04  0.11446212467E+04  0.10100000352E+00 0. -1.
       -3    1    3    3    0  502 -0.75977757172E+02  0.52744485698E+03 -0.80430908218E+03  0.96482319967E+03  0.10100000352E+00 0.  1.
</event>
<event>
 5   0  0.6283269E-06  0.2092458E+04  0.7818609E-02  0.8564573E-01
        1   -1    0    0  501    0  0.00000000000E+00  0.00000000000E+00  0.19301094029E+04  0.19301094029E+04  0.50400001928E-02 0. -1.
       -1   -1    0    0    0  501  0.00000000000E+00  0.00000000000E+00 -0.56711575092E+03  0.56711575094E+03  0.50400001928E-02 0.  1.
    10030    2    1    2    0    0  0.00000000000E+00  0.00000000000E+00  0.13629936520E+04  0.24972251538E+04  0.20924583087E+04 0.  0.
        1    1    3    3  502    0  0.73770271481E+03 -0.62796844882E+03  0.11529373325E+04  0.15059263465E+04  0.50400001928E-02 0.  1.
       -1    1    3    3    0  502 -0.73770271481E+03  0.62796844882E+03  0.21005631941E+03  0.99129880737E+03  0.50400001928E-02 0. -1.
</event>
<event>
 5   0  0.1344501E-05  0.2096477E+04  0.7818609E-02  0.8562797E-01
       -2   -1    0    0    0  501  0.00000000000E+00  0.00000000000E+00  0.48083321062E+03  0.48083321063E+03  0.25500000920E-02 0.  1.
        2   -1    0    0  501    0  0.00000000000E+00  0.00000000000E+00 -0.22852073790E+04  0.22852073790E+04  0.25500000920E-02 0. -1.
    10030    2    1    2    0    0  0.00000000000E+00  0.00000000000E+00 -0.18043741684E+04  0.27660405897E+04  0.20964766643E+04 0.  0.
        3    1    3    3  502    0  0.35604373605E+03  0.10135079242E+03 -0.21960935399E+04  0.22270756546E+04  0.10100000352E+00 0. -1.
       -3    1    3    3    0  502 -0.35604373605E+03 -0.10135079242E+03  0.39171937145E+03  0.53896493510E+03  0.10100000352E+00 0.  1.
</event>
<event>
 5   0  0.6238363E-06  0.2103129E+04  0.7818609E-02  0.8559866E-01
       -1   -1    0    0    0  501  0.00000000000E+00  0.00000000000E+00  0.12128312472E+04  0.12128312472E+04  0.50400001928E-02 0. -1.
        1   -1    0    0  501    0  0.00000000000E+00  0.00000000000E+00 -0.91174061006E+03  0.91174061007E+03  0.50400001928E-02 0.  1.
    10030    2    1    2    0    0  0.00000000000E+00  0.00000000000E+00  0.30109063718E+03  0.21245718573E+04  0.21031286231E+04 0.  0.
        4    1    3    3  502    0  0.95536106133E+03 -0.39984417458E+03  0.33460003200E+03  0.10883698433E+04  0.12699999809E+01 0. -1.
       -4    1    3    3    0  502 -0.95536106133E+03  0.39984417458E+03 -0.33509394827E+02  0.10362020140E+04  0.12699999809E+01 0.  1.
</event>
<event>
 5   0  0.1390735E-05  0.2104195E+04  0.7818609E-02  0.8559398E-01
        2   -1    0    0  501    0  0.00000000000E+00  0.00000000000E+00  0.20331003165E+04  0.20331003165E+04  0.25500000920E-02 0. -1.
       -2   -1    0    0    0  501  0.00000000000E+00  0.00000000000E+00 -0.54444379199E+03  0.54444379200E+03  0.25500000920E-02 0.  1.
    10030    2    1    2    0    0  0.00000000000E+00  0.00000000000E+00  0.14886565246E+04  0.25775441085E+04  0.21041947114E+04 0.  0.
        5    1    3    3  502    0  0.76841820530E+02  0.26185381229E+03  0.19889783241E+04  0.20076177296E+04  0.46999998093E+01 0. -1.
       -5    1    3    3    0  502 -0.76841820530E+02 -0.26185381229E+03 -0.50032179952E+03  0.56992637899E+03  0.46999998093E+01 0.  1.
</event>
<event>
 5   0  0.6589193E-06  0.2106313E+04  0.7818609E-02  0.8558467E-01
        1   -1    0    0  501    0  0.00000000000E+00  0.00000000000E+00  0.75618119545E+03  0.75618119546E+03  0.50400001928E-02 0.  1.
       -1   -1    0    0    0  501  0.00000000000E+00  0.00000000000E+00 -0.14667635275E+04  0.14667635275E+04  0.50400001928E-02 0. -1.
    10030    2    1    2    0    0  0.00000000000E+00  0.00000000000E+00 -0.71058233202E+03  0.22229447229E+04  0.21063133648E+04 0.  0.
        3    1    3    3  502    0 -0.96113520694E+02 -0.10044382374E+04 -0.36916633076E+02  0.10097013567E+04  0.10100000352E+00 0.  1.
       -3    1    3    3    0  502  0.96113520694E+02  0.10044382374E+04 -0.67366569894E+03  0.12132433663E+04  0.10100000352E+00 0. -1.
</event>
<event>
 5   0  0.1398469E-05  0.2100456E+04  0.7818609E-02  0.8561042E-01
       -2   -1    0    0    0  501  0.00000000000E+00  0.00000000000E+00  0.15735678125E+04  0.15735678125E+04  0.25500000920E-02 0.  1.
        2   -1    0    0  501    0  0.00000000000E+00  0.00000000000E+00 -0.70094157204E+03  0.70094157205E+03  0.25500000920E-02 0. -1.
    10030    2    1    2    0    0  0.00000000000E+00  0.00000000000E+00  0.87262624043E+03  0.22745093845E+04  0.21004562325E+04 0.  0.
        2    1    3    3  502    0  0.88565819081E+03 -0.42517994556E+03  0.83830338253E+03  0.12914801501E+04  0.25500000920E-02 0.  1.
       -2    1    3    3    0  502 -0.88565819081E+03  0.42517994556E+03  0.34322857891E+02  0.98302923437E+03  0.25500000920E-02 0. -1.
</event>
<event>
 5   0  0.6917078E-06  0.2099608E+04  0.7818609E-02  0.8561416E-01
       -1   -1    0    0    0  501  0.00000000000E+00  0.00000000000E+00  0.77852367905E+03  0.77852367906E+03  0.50400001928E-02 0. -1.
        1   -1    0    0  501    0  0.00000000000E+00  0.00000000000E+00 -0.14156138372E+04  0.14156138372E+04  0.50400001928E-02 0.  1.
    10030    2    1    2    0    0  0.00000000000E+00  0.00000000000E+00 -0.63709015818E+03  0.21941375163E+04  0.20996084327E+04 0.  0.
        5    1    3    3  502    0 -0.69662613792E+03  0.57059407237E+03  0.24538094687E+03  0.93332709729E+03  0.46999998093E+01 0. -1.
       -5    1    3    3    0  502  0.69662613792E+03 -0.57059407237E+03 -0.88247110505E+03  0.12608104190E+04  0.46999998093E+01 0.  1.
</event>
<event>
 5   0  0.6599245E-06  0.2099796E+04  0.7818609E-02  0.8561333E-01
        1   -1    0    0  501    0  0.00000000000E+00  0.00000000000E+00  0.21458422375E+04  0.21458422375E+04  0.50400001928E-02 0.  1.
       -1   -1    0    0    0  501  0.00000000000E+00  0.00000000000E+00 -0.51368461768E+03  0.51368461770E+03  0.50400001928E-02 0. -1.
    10030    2    1    2    0    0  0.00000000000E+00  0.00000000000E+00  0.16321576198E+04  0.26595268552E+04  0.20997963229E+04 0.  0.
        2    1    3    3  502    0  0.70671100851E+03  0.75332604558E+03  0.10541981648E+04  0.14758978119E+04  0.25500000920E-02 0.  1.
       -2    1    3    3    0  502 -0.70671100851E+03 -0.75332604558E+03  0.57795945500E+03  0.11836290433E+04  0.25500000920E-02 0. -1.
</event>
<event>
 5   0  0.6917078E-06  0.2106112E+04  0.7818609E-02  0.8558556E-01
       -1   -1    0    0    0  501  0.00000000000E+00  0.00000000000E+00  0.42354261067E+03  0.42354261070E+03  0.50400001928E-02 0.  1.
        1   -1    0    0  501    0  0.00000000000E+00  0.00000000000E+00 -0.26182176937E+04  0.26182176937E+04  0.50400001928E-02 0. -1.
    10030    2    1    2    0    0  0.00000000000E+00  0.00000000000E+00 -0.21946750831E+04  0.30417603044E+04  0.21061118274E+04 0.  0.
        5    1    3    3  502    0  0.14380198444E+03  0.10431799904E+04 -0.10988958486E+04  0.15220044938E+04  0.46999998093E+01 0. -1.
       -5    1    3    3    0  502 -0.14380198444E+03 -0.10431799904E+04 -0.10957792345E+04  0.15197558106E+04  0.46999998093E+01 0.  1.
</event>
<event>
 5   0  0.1390735E-05  0.2107893E+04  0.7818609E-02  0.8557775E-01
       -2   -1    0    0    0  501  0.00000000000E+00  0.00000000000E+00  0.83015330829E+03  0.83015330829E+03  0.25500000920E-02 0. -1.
        2   -1    0    0  501    0  0.00000000000E+00  0.00000000000E+00 -0.13380694153E+04  0.13380694153E+04  0.25500000920E-02 0.  1.
    10030    2    1    2    0    0  0.00000000000E+00  0.00000000000E+00 -0.50791610702E+03  0.21682227236E+04  0.21078925512E+04 0.  0.
        5    1    3    3  502    0  0.69374295671E+03  0.11644802475E+03  0.55332355826E+03  0.89500194557E+03  0.46999998093E+01 0. -1.
       -5    1    3    3    0  502 -0.69374295671E+03 -0.11644802475E+03 -0.10612396653E+04  0.12732207780E+04  0.46999998093E+01 0.  1.
</event>
<event>
 5   0  0.6917078E-06  0.2099710E+04  0.7818609E-02  0.8561371E-01
       -1   -1    0    0    0  501  0.00000000000E+00  0.00000000000E+00  0.69871166016E+03  0.69871166018E+03  0.50400001928E-02 0.  1.
        1   -1    0    0  501    0  0.00000000000E+00  0.00000000000E+00 -0.15774680884E+04  0.15774680884E+04  0.50400001928E-02 0. -1.
    10030    2    1    2    0    0  0.00000000000E+00  0.00000000000E+00 -0.87875642827E+03  0.22761797486E+04  0.20997098342E+04 0.  0.
        5    1    3    3  502    0 -0.94444757805E+03 -0.29164904553E+03 -0.55906827165E+02  0.99004447211E+03  0.46999998093E+01 0.  1.
       -5    1    3    3    0  502  0.94444757805E+03  0.29164904553E+03 -0.82284960110E+03  0.12861352765E+04  0.46999998093E+01 0. -1.
</event>
<event>
 5   0  0.1395356E-05  0.2099901E+04  0.7818609E-02  0.8561287E-01
        2   -1    0    0  501    0  0.00000000000E+00  0.00000000000E+00  0.23350879727E+04  0.23350879727E+04  0.25500000920E-02 0. -1.
       -2   -1    0    0    0  501  0.00000000000E+00  0.00000000000E+00 -0.47210056841E+03  0.47210056842E+03  0.25500000920E-02 0.  1.
    10030    2    1    2    0    0  0.00000000000E+00  0.00000000000E+00  0.18629874043E+04  0.28071885411E+04  0.20999012922E+04 0.  0.
        1    1    3    3  502    0 -0.38389497187E+02 -0.36644341712E+03  0.22458269480E+04  0.22758499977E+04  0.50400001928E-02 0. -1.
       -1    1    3    3    0  502  0.38389497187E+02  0.36644341712E+03 -0.38283954375E+03  0.53133854343E+03  0.50400001928E-02 0.  1.
</event>
<event>
 5   0  0.1390735E-05  0.2106684E+04  0.7818609E-02  0.8558305E-01
        2   -1    0    0  501    0  0.00000000000E+00  0.00000000000E+00  0.17610196396E+04  0.17610196396E+04  0.25500000920E-02 0. -1.
       -2   -1    0    0    0  501  0.00000000000E+00  0.00000000000E+00 -0.63004947307E+03  0.63004947307E+03  0.25500000920E-02 0.  1.
    10030    2    1    2    0    0  0.00000000000E+00  0.00000000000E+00  0.11309701666E+04  0.23910691127E+04  0.21066841206E+04 0.  0.
        5    1    3    3  502    0 -0.10857528775E+03 -0.15118792043E+03 -0.61122334866E+03  0.63895418642E+03  0.46999998093E+01 0.  1.
       -5    1    3    3    0  502  0.10857528775E+03  0.15118792043E+03  0.17421935152E+04  0.17521149263E+04  0.46999998093E+01 0. -1.
</event>
<event>
 5   0  0.1390735E-05  0.2099395E+04  0.7818609E-02  0.8561510E-01
       -2   -1    0    0    0  501  0.00000000000E+00  0.00000000000E+00  0.44207917026E+03  0.44207917027E+03  0.25500000920E-02 0. -1.
        2   -1    0    0  501    0  0.00000000000E+00  0.00000000000E+00 -0.24924599869E+04  0.24924599869E+04  0.25500000920E-02 0.  1.
    10030    2    1    2    0    0  0.00000000000E+00  0.00000000000E+00 -0.20503808166E+04  0.29345391571E+04  0.20993948108E+04 0.  0.
        5    1    3    3  502    0 -0.51306263016E+02  0.81998918246E+03 -0.11197712411E+03  0.82920175970E+03  0.46999998093E+01 0. -1.
       -5    1    3    3    0  502  0.51306263016E+02 -0.81998918246E+03 -0.19384036925E+04  0.21053373974E+04  0.46999998093E+01 0.  1.
</event>
<event>
 5   0  0.6589193E-06  0.2098867E+04  0.7818609E-02  0.8561743E-01
        1   -1    0    0  501    0  0.00000000000E+00  0.00000000000E+00  0.13181833748E+04  0.13181833749E+04  0.50400001928E-02 0. -1.
       -1   -1    0    0    0  501  0.00000000000E+00  0.00000000000E+00 -0.83547619638E+03  0.83547619640E+03  0.50400001928E-02 0.  1.
    10030    2    1    2    0    0  0.00000000000E+00  0.00000000000E+00  0.48270717847E+03  0.21536595713E+04  0.20988671537E+04 0.  0.
        3    1    3    3  502    0 -0.57648858326E+02  0.10464445297E+04  0.18570423976E+03  0.10643569042E+04  0.10100000352E+00 0. -1.
       -3    1    3    3    0  502  0.57648858326E+02 -0.10464445297E+04  0.29700293871E+03  0.10893026671E+04  0.10100000352E+00 0.  1.
</event>
<event>
 5   0  0.6917078E-06  0.2100258E+04  0.7818609E-02  0.8561130E-01
       -1   -1    0    0    0  501  0.00000000000E+00  0.00000000000E+00  0.46848859958E+03  0.46848859961E+03  0.50400001928E-02 0. -1.
        1   -1    0    0  501    0  0.00000000000E+00  0.00000000000E+00 -0.23538910650E+04  0.23538910650E+04  0.50400001928E-02 0.  1.
    10030    2    1    2    0    0  0.00000000000E+00  0.00000000000E+00 -0.18854024654E+04  0.28223796646E+04  0.21002582019E+04 0.  0.
        5    1    3    3  502    0  0.20796234729E+03 -0.10231912214E+04 -0.10934280065E+04  0.15118781396E+04  0.46999998093E+01 0.  1.
       -5    1    3    3    0  502 -0.20796234729E+03  0.10231912214E+04 -0.79197445893E+03  0.13105015250E+04  0.46999998093E+01 0. -1.
</event>
<event>
 5   0  0.1390735E-05  0.2163830E+04  0.7818609E-02  0.8533635E-01
        2   -1    0    0  501    0  0.00000000000E+00  0.00000000000E+00  0.13641819487E+04  0.13641819487E+04  0.25500000920E-02 0. -1.
       -2   -1    0    0    0  501  0.00000000000E+00  0.00000000000E+00 -0.85805278122E+03  0.85805278122E+03  0.25500000920E-02 0.  1.
    10030    2    1    2    0    0  0.00000000000E+00  0.00000000000E+00  0.50612916747E+03  0.22222347299E+04  0.21638300443E+04 0.  0.
        5    1    3    3  502    0  0.13964133723E+03 -0.10724390871E+04  0.28374957635E+03  0.11181060820E+04  0.46999998093E+01 0. -1.
       -5    1    3    3    0  502 -0.13964133723E+03  0.10724390871E+04  0.22237959112E+03  0.11041286479E+04  0.46999998093E+01 0.  1.
</event>
<event>
 5   0  0.6238363E-06  0.2099258E+04  0.7818609E-02  0.8561571E-01
       -1   -1    0    0    0  501  0.00000000000E+00  0.00000000000E+00  0.61646530562E+03  0.61646530564E+03  0.50400001928E-02 0.  1.
        1   -1    0    0  501    0  0.00000000000E+00  0.00000000000E+00 -0.17871573972E+04  0.17871573972E+04  0.50400001928E-02 0. -1.
    10030    2    1    2    0    0  0.00000000000E+00  0.00000000000E+00 -0.11706920916E+04  0.24036227028E+04  0.20992575174E+04 0.  0.
        4    1    3    3  502    0  0.78652301556E+03 -0.46185311990E+03  0.93776502249E+01  0.91214928142E+03  0.12699999809E+01 0.  1.
       -4    1    3    3    0  502 -0.78652301556E+03  0.46185311990E+03 -0.11800697418E+04  0.14914734214E+04  0.12699999809E+01 0. -1.
</event>
<event>
 5   0  0.1395356E-05  0.2107283E+04  0.7818609E-02  0.8558042E-01
       -2   -1    0    0    0  501  0.00000000000E+00  0.00000000000E+00  0.74054291703E+03  0.74054291703E+03  0.25500000920E-02 0.  1.
        2   -1    0    0  501    0  0.00000000000E+00  0.00000000000E+00 -0.14991174909E+04  0.14991174909E+04  0.25500000920E-02 0. -1.
    10030    2    1    2    0    0  0.00000000000E+00  0.00000000000E+00 -0.75857457391E+03  0.22396604080E+04  0.21072834073E+04 0.  0.
        1    1    3    3  502    0  0.64150425155E+03 -0.58677429347E+03  0.25336140342E+03  0.90555164237E+03  0.50400001928E-02 0.  1.
       -1    1    3    3    0  502 -0.64150425155E+03  0.58677429347E+03 -0.10119359773E+04  0.13341087656E+04  0.50400001928E-02 0. -1.
</event>
<event>
 5   0  0.6917078E-06  0.2099390E+04  0.7818609E-02  0.8561512E-01
       -1   -1    0    0    0  501  0.00000000000E+00  0.00000000000E+00  0.66531352312E+03  0.66531352314E+03  0.50400001928E-02 0. -1.
        1   -1    0    0  501    0  0.00000000000E+00  0.00000000000E+00 -0.16561512631E+04  0.16561512631E+04  0.50400001928E-02 0.  1.
    10030    2    1    2    0    0  0.00000000000E+00  0.00000000000E+00 -0.99083773996E+03  0.23214647862E+04  0.20993902274E+04 0.  0.
        5    1    3    3  502    0  0.43249380734E+03 -0.94867587888E+03 -0.62994707886E+03  0.12181511518E+04  0.46999998093E+01 0.  1.
       -5    1    3    3    0  502 -0.43249380734E+03  0.94867587888E+03 -0.36089066111E+03  0.11033136344E+04  0.46999998093E+01 0. -1.
</event>
<event>
 5   0  0.6283269E-06  0.2099299E+04  0.7818609E-02  0.8561552E-01
       -1   -1    0    0    0  501  0.00000000000E+00  0.00000000000E+00  0.39044171818E+03  0.39044171821E+03  0.50400001928E-02 0. -1.
        1   -1    0    0  501    0  0.00000000000E+00  0.00000000000E+00 -0.28218400175E+04  0.28218400175E+04  0.50400001928E-02 0.  1.
    10030    2    1    2    0    0  0.00000000000E+00  0.00000000000E+00 -0.24313982993E+04  0.32122817357E+04  0.20992989924E+04 0.  0.
        1    1    3    3  502    0  0.29893968818E+03 -0.10022465133E+04 -0.13517125987E+04  0.17090903897E+04  0.50400001928E-02 0. -1.
       -1    1    3    3    0  502 -0.29893968818E+03  0.10022465133E+04 -0.10796857006E+04  0.15031913460E+04  0.50400001928E-02 0.  1.
</event>
<event>
 5   0  0.6283269E-06  0.2102227E+04  0.7818609E-02  0.8560263E-01
        1   -1    0    0  501    0  0.00000000000E+00  0.00000000000E+00  0.68305135606E+03  0.68305135607E+03  0.50400001928E-02 0.  1.
       -1   -1    0    0    0  501  0.00000000000E+00  0.00000000000E+00 -0.16175052508E+04  0.16175052508E+04  0.50400001928E-02 0. -1.
    10030    2    1    2    0    0  0.00000000000E+00  0.00000000000E+00 -0.93445389478E+03  0.23005566069E+04  0.21022265863E+04 0.  0.
        1    1    3    3  502    0 -0.90513429004E+03  0.16813882478E+03  0.87876132301E+02  0.92480320180E+03  0.50400001928E-02 0.  1.
       -1    1    3    3    0  502  0.90513429004E+03 -0.16813882478E+03 -0.10223300271E+04  0.13757534051E+04  0.50400001928E-02 0. -1.
</event>
<event>
 5   0  0.6238363E-06  0.2103016E+04  0.7818609E-02  0.8559916E-01
        1   -1    0    0  501    0  0.00000000000E+00  0.00000000000E+00  0.22013043417E+04  0.22013043417E+04  0.50400001928E-02 0. -1.
       -1   -1    0    0    0  501  0.00000000000E+00  0.00000000000E+00 -0.50227896647E+03  0.50227896649E+03  0.50400001928E-02 0.  1.
    10030    2    1    2    0    0  0.00000000000E+00  0.00000000000E+00  0.16990253752E+04  0.27035833082E+04  0.21030158056E+04 0.  0.
        4    1    3    3  502    0 -0.78417712617E+03 -0.51567869408E+03  0.23997011528E+03  0.96873399335E+03  0.12699999809E+01 0.  1.
       -4    1    3    3    0  502  0.78417712617E+03  0.51567869408E+03  0.14590552599E+04  0.17348493148E+04  0.12699999809E+01 0. -1.
</event>
<event>
 5   0  0.1441136E-05  0.2101678E+04  0.7818609E-02  0.8560505E-01
        2   -1    0    0  501    0  0.00000000000E+00  0.00000000000E+00  0.21900320197E+04  0.21900320197E+04  0.25500000920E-02 0. -1.
       -2   -1    0    0    0  501  0.00000000000E+00  0.00000000000E+00 -0.50422201309E+03  0.50422201309E+03  0.25500000920E-02 0.  1.
    10030    2    1    2    0    0  0.00000000000E+00  0.00000000000E+00  0.16858100066E+04  0.26942540328E+04  0.21016777619E+04 0.  0.
        4    1    3    3  502    0  0.77370191261E+03  0.43201779300E+03  0.11884871944E+03  0.89408089906E+03  0.12699999809E+01 0.  1.
       -4    1    3    3    0  502 -0.77370191261E+03 -0.43201779300E+03  0.15669612872E+04  0.18001731338E+04  0.12699999809E+01 0. -1.
</event>
<event>
 5   0  0.1344501E-05  0.2100510E+04  0.7818609E-02  0.8561019E-01
       -2   -1    0    0    0  501  0.00000000000E+00  0.00000000000E+00  0.10990952600E+04  0.10990952600E+04  0.25500000920E-02 0.  1.
        2   -1    0    0  501    0  0.00000000000E+00  0.00000000000E+00 -0.10035846068E+04  0.10035846068E+04  0.25500000920E-02 0. -1.
    10030    2    1    2    0    0  0.00000000000E+00  0.00000000000E+00  0.95510653188E+02  0.21026798668E+04  0.21005095423E+04 0.  0.
        3    1    3    3  502    0 -0.51498501757E+03  0.69255965467E+03 -0.55135000336E+03  0.10241265937E+04  0.10100000352E+00 0. -1.
       -3    1    3    3    0  502  0.51498501757E+03 -0.69255965467E+03  0.64686065655E+03  0.10785532730E+04  0.10100000352E+00 0.  1.
</event>
<event>
 5   0  0.6238363E-06  0.2096435E+04  0.7818609E-02  0.8562815E-01
       -1   -1    0    0    0  501  0.00000000000E+00  0.00000000000E+00  0.58584788896E+03  0.58584788898E+03  0.50400001928E-02 0. -1.
        1   -1    0    0  501    0  0.00000000000E+00  0.00000000000E+00 -0.18755045358E+04  0.18755045358E+04  0.50400001928E-02 0.  1.
    10030    2    1    2    0    0  0.00000000000E+00  0.00000000000E+00 -0.12896566468E+04  0.24613524248E+04  0.20964354253E+04 0.  0.
        4    1    3    3  502    0  0.79826358386E+03  0.67934076024E+03 -0.63838246613E+03  0.12272988242E+04  0.12699999809E+01 0. -1.
       -4    1    3    3    0  502 -0.79826358386E+03 -0.67934076024E+03 -0.65127418071E+03  0.12340536006E+04  0.12699999809E+01 0.  1.
</event>
<event>
 5   0  0.1390735E-05  0.2102859E+04  0.7818609E-02  0.8559985E-01
        2   -1    0    0  501    0  0.00000000000E+00  0.00000000000E+00  0.16388122304E+04  0.16388122304E+04  0.25500000920E-02 0. -1.
       -2   -1    0    0    0  501  0.00000000000E+00  0.00000000000E+00 -0.67457637907E+03  0.67457637907E+03  0.25500000920E-02 0.  1.
    10030    2    1    2    0    0  0.00000000000E+00  0.00000000000E+00  0.96423585129E+03  0.23133886094E+04  0.21028590255E+04 0.  0.
        5    1    3    3  502    0  0.92964856714E+02  0.69627500388E+03 -0.37853598169E+03  0.79796799750E+03  0.46999998093E+01 0.  1.
       -5    1    3    3    0  502 -0.92964856714E+02 -0.69627500388E+03  0.13427718330E+04  0.15154206119E+04  0.46999998093E+01 0. -1.
</event>
<event>
 5   0  0.1344501E-05  0.2092356E+04  0.7818609E-02  0.8564618E-01
       -2   -1    0    0    0  501  0.00000000000E+00  0.00000000000E+00  0.84081766420E+03  0.84081766420E+03  0.25500000920E-02 0. -1.
        2   -1    0    0  501    0  0.00000000000E+00  0.00000000000E+00 -0.13016952989E+04  0.13016952989E+04  0.25500000920E-02 0.  1.
    10030    2    1    2    0    0  0.00000000000E+00  0.00000000000E+00 -0.46087763472E+03  0.21425129631E+04  0.20923559934E+04 0.  0.
        3    1    3    3  502    0 -0.97625722881E+03 -0.10314136730E+03 -0.60073171615E+03  0.11509104759E+04  0.10100000352E+00 0. -1.
       -3    1    3    3    0  502  0.97625722881E+03  0.10314136730E+03  0.13985408144E+03  0.99160248726E+03  0.10100000352E+00 0.  1.
</event>
<event>
 5   0  0.1441136E-05  0.2097256E+04  0.7818609E-02  0.8562453E-01
        2   -1    0    0  501    0  0.00000000000E+00  0.00000000000E+00  0.11417732185E+04  0.11417732185E+04  0.25500000920E-02 0. -1.
       -2   -1    0    0    0  501  0.00000000000E+00  0.00000000000E+00 -0.96308168521E+03  0.96308168521E+03  0.25500000920E-02 0.  1.
    10030    2    1    2    0    0  0.00000000000E+00  0.00000000000E+00  0.17869153324E+03  0.21048549037E+04  0.20972561840E+04 0.  0.
        4    1    3    3  502    0 -0.63747883880E+03  0.35460603511E+03 -0.66670599268E+03  0.98824248220E+03  0.12699999809E+01 0.  1.
       -4    1    3    3    0  502  0.63747883880E+03 -0.35460603511E+03  0.84539752592E+03  0.11166124215E+04  0.12699999809E+01 0. -1.
</event>
<event>
 5   0  0.1398469E-05  0.2095144E+04  0.7818609E-02  0.8563386E-01
        2   -1    0    0  501    0  0.00000000000E+00  0.00000000000E+00  0.11530816031E+04  0.11530816031E+04  0.25500000920E-02 0. -1.
       -2   -1    0    0    0  501  0.00000000000E+00  0.00000000000E+00 -0.95171651362E+03  0.95171651362E+03  0.25500000920E-02 0.  1.
    10030    2    1    2    0    0  0.00000000000E+00  0.00000000000E+00  0.20136508947E+03  0.21047981167E+04  0.20951437213E+04 0.  0.
        2    1    3    3  502    0  0.98352832160E+03 -0.87761531452E+02 -0.25075333416E+03  0.10187773458E+04  0.25500000920E-02 0.  1.
       -2    1    3    3    0  502 -0.98352832160E+03  0.87761531452E+02  0.45211842363E+03  0.10860207709E+04  0.25500000920E-02 0. -1.
</event>
<event>
 5   0  0.1398469E-05  0.2097420E+04  0.7818609E-02  0.8562381E-01
        2   -1    0    0  501    0  0.00000000000E+00  0.00000000000E+00  0.14450394051E+04  0.14450394051E+04  0.25500000920E-02 0.  1.
       -2   -1    0    0    0  501  0.00000000000E+00  0.00000000000E+00 -0.76108179464E+03  0.76108179464E+03  0.25500000920E-02 0. -1.
    10030    2    1    2    0    0  0.00000000000E+00  0.00000000000E+00  0.68395761050E+03  0.22061211998E+04  0.20974204955E+04 0.  0.
        2    1    3    3  502    0 -0.54439330614E+03  0.81670218725E+03  0.73048099139E+03  0.12235068505E+04  0.25500000920E-02 0. -1.
       -2    1    3    3    0  502  0.54439330614E+03 -0.81670218725E+03 -0.46523380887E+02  0.98261434928E+03  0.25500000920E-02 0.  1.
</event>
<event>
 5   0  0.1398469E-05  0.2103517E+04  0.7818609E-02  0.8559696E-01
        2   -1    0    0  501    0  0.00000000000E+00  0.00000000000E+00  0.77172452574E+03  0.77172452575E+03  0.25500000920E-02 0. -1.
       -2   -1    0    0    0  501  0.00000000000E+00  0.00000000000E+00 -0.14334077526E+04  0.14334077526E+04  0.25500000920E-02 0.  1.
    10030    2    1    2    0    0  0.00000000000E+00  0.00000000000E+00 -0.66168322682E+03  0.22051322783E+04  0.21035169769E+04 0.  0.
        2    1    3    3  502    0  0.19430840478E+03  0.51326121017E+03  0.60972032282E+03  0.82033633230E+03  0.25500000920E-02 0. -1.
       -2    1    3    3    0  502 -0.19430840478E+03 -0.51326121017E+03 -0.12714035496E+04  0.13847959460E+04  0.25500000920E-02 0.  1.
</event>
<event>
 5   0  0.1344501E-05  0.2101608E+04  0.7818609E-02  0.8560536E-01
       -2   -1    0    0    0  501  0.00000000000E+00  0.00000000000E+00  0.56422036156E+03  0.56422036157E+03  0.25500000920E-02 0.  1.
        2   -1    0    0  501    0  0.00000000000E+00  0.00000000000E+00 -0.19570167081E+04  0.19570167081E+04  0.25500000920E-02 0. -1.
    10030    2    1    2    0    0  0.00000000000E+00  0.00000000000E+00 -0.13927963466E+04  0.25212370697E+04  0.21016076462E+04 0.  0.
        3    1    3    3  502    0 -0.41849603374E+03 -0.40111950195E+03 -0.17478415157E+04  0.18414629400E+04  0.10100000352E+00 0. -1.
       -3    1    3    3    0  502  0.41849603374E+03  0.40111950195E+03  0.35504516913E+03  0.67977412972E+03  0.10100000352E+00 0.  1.
</event>
<event>
 5   0  0.1441136E-05  0.2100865E+04  0.7818609E-02  0.8560862E-01
       -2   -1    0    0    0  501  0.00000000000E+00  0.00000000000E+00  0.86885133921E+03  0.86885133921E+03  0.25500000920E-02 0. -1.
        2   -1    0    0  501    0  0.00000000000E+00  0.00000000000E+00 -0.12699624014E+04  0.12699624015E+04  0.25500000920E-02 0.  1.
    10030    2    1    2    0    0  0.00000000000E+00  0.00000000000E+00 -0.40111106224E+03  0.21388137407E+04  0.21008650916E+04 0.  0.
        4    1    3    3  502    0  0.10244732650E+04  0.23030121898E+03 -0.17135293634E+03  0.10639302439E+04  0.12699999809E+01 0. -1.
       -4    1    3    3    0  502 -0.10244732650E+04 -0.23030121898E+03 -0.22975812590E+03  0.10748834967E+04  0.12699999809E+01 0.  1.
</event>
<event>
 5   0  0.1395356E-05  0.2099041E+04  0.7818609E-02  0.8561666E-01
       -2   -1    0    0    0  501  0.00000000000E+00  0.00000000000E+00  0.70510995868E+03  0.70510995869E+03  0.25500000920E-02 0. -1.
        2   -1    0    0  501    0  0.00000000000E+00  0.00000000000E+00 -0.15621579269E+04  0.15621579269E+04  0.25500000920E-02 0.  1.
    10030    2    1    2    0    0  0.00000000000E+00  0.00000000000E+00 -0.85704796825E+03  0.22672678856E+04  0.20990408394E+04 0.  0.
        1    1    3    3  502    0 -0.50459885838E+03  0.13680765179E+03  0.55444140517E+03  0.76206404800E+03  0.50400001928E-02 0. -1.
       -1    1    3    3    0  502  0.50459885838E+03 -0.13680765179E+03 -0.14114893734E+04  0.15052038376E+04  0.50400001928E-02 0.  1.
</event>
<event>
 5   0  0.6283269E-06  0.2102711E+04  0.7818609E-02  0.8560050E-01
       -1   -1    0    0    0  501  0.00000000000E+00  0.00000000000E+00  0.95454797684E+03  0.95454797686E+03  0.50400001928E-02 0. -1.
        1   -1    0    0  501    0  0.00000000000E+00  0.00000000000E+00 -0.11579808195E+04  0.11579808195E+04  0.50400001928E-02 0.  1.
    10030    2    1    2    0    0  0.00000000000E+00  0.00000000000E+00 -0.20343284268E+03  0.21125287964E+04  0.21027108679E+04 0.  0.
        1    1    3    3  502    0 -0.23900160719E+03  0.36202779782E+02 -0.11296829252E+04  0.11552557816E+04  0.50400001928E-02 0.  1.
       -1    1    3    3    0  502  0.23900160719E+03 -0.36202779782E+02  0.92625008248E+03  0.95727301478E+03  0.50400001928E-02 0. -1.
</event>
<event>
 5   0  0.6589193E-06  0.2098734E+04  0.7818609E-02  0.8561801E-01
       -1   -1    0    0    0  501  0.00000000000E+00  0.00000000000E+00  0.10744393697E+04  0.10744393698E+04  0.50400001928E-02 0.  1.
        1   -1    0    0  501    0  0.00000000000E+00  0.00000000000E+00 -0.10248798448E+04  0.10248798448E+04  0.50400001928E-02 0. -1.
    10030    2    1    2    0    0  0.00000000000E+00  0.00000000000E+00  0.49559524970E+02  0.20993192145E+04  0.20987341466E+04 0.  0.
        3    1    3    3  502    0 -0.14298253723E+03  0.92818657928E+03 -0.44353545324E+03  0.10386038900E+04  0.10100000352E+00 0. -1.
       -3    1    3    3    0  502  0.14298253723E+03 -0.92818657928E+03  0.49309497821E+03  0.10607153245E+04  0.10100000352E+00 0.  1.
</event>
<event>
 5   0  0.6283269E-06  0.2110399E+04  0.7818609E-02  0.8556676E-01
        1   -1    0    0  501    0  0.00000000000E+00  0.00000000000E+00  0.24493861947E+04  0.24493861947E+04  0.50400001928E-02 0. -1.
       -1   -1    0    0    0  501  0.00000000000E+00  0.00000000000E+00 -0.45458184770E+03  0.45458184773E+03  0.50400001928E-02 0.  1.
    10030    2    1    2    0    0  0.00000000000E+00  0.00000000000E+00  0.19948043470E+04  0.29039680424E+04  0.21103994903E+04 0.  0.
        1    1    3    3  502    0 -0.95740497652E+03  0.38910471021E+03  0.70414444275E+03  0.12505383484E+04  0.50400001928E-02 0.  1.
       -1    1    3    3    0  502  0.95740497652E+03 -0.38910471021E+03  0.12906599042E+04  0.16534296940E+04  0.50400001928E-02 0. -1.
</event>
<event>
 5   0  0.1441136E-05  0.2100018E+04  0.7818609E-02  0.8561235E-01
        2   -1    0    0  501    0  0.00000000000E+00  0.00000000000E+00  0.40576763298E+03  0.40576763299E+03  0.25500000920E-02 0. -1.
       -2   -1    0    0    0  501  0.00000000000E+00  0.00000000000E+00 -0.27171195298E+04  0.27171195298E+04  0.25500000920E-02 0.  1.
    10030    2    1    2    0    0  0.00000000000E+00  0.00000000000E+00 -0.23113518968E+04  0.31228871628E+04  0.21000182477E+04 0.  0.
        4    1    3    3  502    0  0.30241790392E+03  0.58167011233E+02 -0.26484497932E+04  0.26662947905E+04  0.12699999809E+01 0.  1.
       -4    1    3    3    0  502 -0.30241790392E+03 -0.58167011233E+02  0.33709789638E+03  0.45659237230E+03  0.12699999809E+01 0. -1.
</event>
<event>
 5   0  0.1398469E-05  0.2090759E+04  0.7818609E-02  0.8565325E-01
        2   -1    0    0  501    0  0.00000000000E+00  0.00000000000E+00  0.12055367014E+04  0.12055367014E+04  0.25500000920E-02 0.  1.
       -2   -1    0    0    0  501  0.00000000000E+00  0.00000000000E+00 -0.90649974847E+03  0.90649974847E+03  0.25500000920E-02 0. -1.
    10030    2    1    2    0    0  0.00000000000E+00  0.00000000000E+00  0.29903695292E+03  0.21120364499E+04  0.20907593994E+04 0.  0.
        2    1    3    3  502    0 -0.17572064180E+03  0.59052582160E+03  0.10026366168E+04  0.11768086825E+04  0.25500000920E-02 0.  1.
       -2    1    3    3    0  502  0.17572064180E+03 -0.59052582160E+03 -0.70359966383E+03  0.93522776738E+03  0.25500000920E-02 0. -1.
</event>
<event>
 5   0  0.1398469E-05  0.2101623E+04  0.7818609E-02  0.8560529E-01
       -2   -1    0    0    0  501  0.00000000000E+00  0.00000000000E+00  0.12303920618E+04  0.12303920618E+04  0.25500000920E-02 0.  1.
        2   -1    0    0  501    0  0.00000000000E+00  0.00000000000E+00 -0.89744141772E+03  0.89744141772E+03  0.25500000920E-02 0. -1.
    10030    2    1    2    0    0  0.00000000000E+00  0.00000000000E+00  0.33295064409E+03  0.21278334795E+04  0.21016229884E+04 0.  0.
        2    1    3    3  502    0 -0.93731520658E+03  0.21873052311E+03  0.59339984051E+03  0.11307193325E+04  0.25500000920E-02 0.  1.
       -2    1    3    3    0  502  0.93731520658E+03 -0.21873052311E+03 -0.26044919643E+03  0.99711414700E+03  0.25500000920E-02 0. -1.
</event>
<event>
 5   0  0.1395356E-05  0.2097937E+04  0.7818609E-02  0.8562153E-01
        2   -1    0    0  501    0  0.00000000000E+00  0.00000000000E+00  0.15537920412E+04  0.15537920412E+04  0.25500000920E-02 0. -1.
       -2   -1    0    0    0  501  0.00000000000E+00  0.00000000000E+00 -0.70816125731E+03  0.70816125731E+03  0.25500000920E-02 0.  1.
    10030    2    1    2    0    0  0.00000000000E+00  0.00000000000E+00  0.84563078392E+03  0.22619532985E+04  0.20979373923E+04 0.  0.
        1    1    3    3  502    0  0.47186236371E+03  0.13343175721E+03 -0.57697584878E+03  0.75720489580E+03  0.50400001928E-02 0.  1.
       -1    1    3    3    0  502 -0.47186236371E+03 -0.13343175721E+03  0.14226066327E+04  0.15047484027E+04  0.50400001928E-02 0. -1.
</event>
<event>
 5   0  0.1390735E-05  0.2103968E+04  0.7818609E-02  0.8559497E-01
       -2   -1    0    0    0  501  0.00000000000E+00  0.00000000000E+00  0.82846015127E+03  0.82846015128E+03  0.25500000920E-02 0.  1.
        2   -1    0    0  501    0  0.00000000000E+00  0.00000000000E+00 -0.13358161785E+04  0.13358161785E+04  0.25500000920E-02 0. -1.
    10030    2    1    2    0    0  0.00000000000E+00  0.00000000000E+00 -0.50735602721E+03  0.21642763298E+04  0.21039681303E+04 0.  0.
        5    1    3    3  502    0 -0.51494907779E+03 -0.14775931824E+02  0.68981356427E+03  0.86096209227E+03  0.46999998093E+01 0.  1.
       -5    1    3    3    0  502  0.51494907779E+03  0.14775931824E+02 -0.11971695915E+04  0.13033142375E+04  0.46999998093E+01 0. -1.
</event>
<event>
 5   0  0.6599245E-06  0.2102130E+04  0.7818609E-02  0.8560306E-01
       -1   -1    0    0    0  501  0.00000000000E+00  0.00000000000E+00  0.10868057844E+04  0.10868057845E+04  0.50400001928E-02 0. -1.
        1   -1    0    0  501    0  0.00000000000E+00  0.00000000000E+00 -0.10164995016E+04  0.10164995016E+04  0.50400001928E-02 0.  1.
    10030    2    1    2    0    0  0.00000000000E+00  0.00000000000E+00  0.70306282839E+02  0.21033052861E+04  0.21021299087E+04 0.  0.
        2    1    3    3  502    0 -0.11412301372E+03 -0.88875125314E+03  0.58485516427E+03  0.10700272966E+04  0.25500000920E-02 0. -1.
       -2    1    3    3    0  502  0.11412301372E+03  0.88875125314E+03 -0.51454888143E+03  0.10332779895E+04  0.25500000920E-02 0.  1.
</event>
<event>
 5   0  0.6589193E-06  0.2099230E+04  0.7818609E-02  0.8561583E-01
       -1   -1    0    0    0  501  0.00000000000E+00  0.00000000000E+00  0.96492681954E+03  0.96492681955E+03  0.50400001928E-02 0. -1.
        1   -1    0    0  501    0  0.00000000000E+00  0.00000000000E+00 -0.11417361630E+04  0.11417361631E+04  0.50400001928E-02 0.  1.
    10030    2    1    2    0    0  0.00000000000E+00  0.00000000000E+00 -0.17680934351E+03  0.21066629826E+04  0.20992301871E+04 0.  0.
        3    1    3    3  502    0 -0.80625391836E+03  0.49870904304E+03  0.36367426730E+03  0.10153891241E+04  0.10100000352E+00 0.  1.
       -3    1    3    3    0  502  0.80625391836E+03 -0.49870904304E+03 -0.54048361081E+03  0.10912738585E+04  0.10100000352E+00 0. -1.
</event>
<event>
 5   0  0.6283269E-06  0.2102156E+04  0.7818609E-02  0.8560294E-01
        1   -1    0    0  501    0  0.00000000000E+00  0.00000000000E+00  0.12687285999E+04  0.12687285999E+04  0.50400001928E-02 0.  1.
       -1   -1    0    0    0  501  0.00000000000E+00  0.00000000000E+00 -0.87076551018E+03  0.87076551020E+03  0.50400001928E-02 0. -1.
    10030    2    1    2    0    0  0.00000000000E+00  0.00000000000E+00  0.39796308973E+03  0.21394941101E+04  0.21021561375E+04 0.  0.
        1    1    3    3  502    0  0.84745068024E+03 -0.31851799610E+03  0.74244986866E+03  0.11708365286E+04  0.50400001928E-02 0.  1.
       -1    1    3    3    0  502 -0.84745068024E+03  0.31851799610E+03 -0.34448677893E+03  0.96865758148E+03  0.50400001928E-02 0. -1.
</event>
<event>
 5   0  0.6599245E-06  0.2104513E+04  0.7818609E-02  0.8559258E-01
        1   -1    0    0  501    0  0.00000000000E+00  0.00000000000E+00  0.69355101005E+03  0.69355101007E+03  0.50400001928E-02 0. -1.
       -1   -1    0    0    0  501  0.00000000000E+00  0.00000000000E+00 -0.15964843959E+04  0.15964843959E+04  0.50400001928E-02 0.  1.
    10030    2    1    2    0    0  0.00000000000E+00  0.00000000000E+00 -0.90293338588E+03  0.22900354060E+04  0.21045126423E+04 0.  0.
        2    1    3    3  502    0  0.11217283052E+03  0.61458609101E+03  0.46990198511E+03  0.78173312761E+03  0.25500000920E-02 0. -1.
       -2    1    3    3    0  502 -0.11217283052E+03 -0.61458609101E+03 -0.13728353710E+04  0.15083022784E+04  0.25500000920E-02 0.  1.
</event>
<event>
 5   0  0.1344501E-05  0.2099295E+04  0.7818609E-02  0.8561554E-01
        2   -1    0    0  501    0  0.00000000000E+00  0.00000000000E+00  0.88837229167E+03  0.88837229168E+03  0.25500000920E-02 0.  1.
       -2   -1    0    0    0  501  0.00000000000E+00  0.00000000000E+00 -0.12402009152E+04  0.12402009152E+04  0.25500000920E-02 0. -1.
    10030    2    1    2    0    0  0.00000000000E+00  0.00000000000E+00 -0.35182862354E+03  0.21285732069E+04  0.20992952429E+04 0.  0.
        3    1    3    3  502    0  0.11620869853E+03 -0.98780702599E+02 -0.12289055262E+04  0.12383339176E+04  0.10100000352E+00 0. -1.
       -3    1    3    3    0  502 -0.11620869853E+03  0.98780702599E+02  0.87707690269E+03  0.89023928932E+03  0.10100000352E+00 0.  1.
</event>
<event>
 5   0  0.6599245E-06  0.2102308E+04  0.7818609E-02  0.8560227E-01
       -1   -1    0    0    0  501  0.00000000000E+00  0.00000000000E+00  0.76124873882E+03  0.76124873884E+03  0.50400001928E-02 0. -1.
        1   -1    0    0  501    0  0.00000000000E+00  0.00000000000E+00 -0.14514631328E+04  0.14514631328E+04  0.50400001928E-02 0.  1.
    10030    2    1    2    0    0  0.00000000000E+00  0.00000000000E+00 -0.69021439393E+03  0.22127118716E+04  0.21023077599E+04 0.  0.
        2    1    3    3  502    0 -0.29634654508E+03 -0.34787060382E+03  0.65122509326E+03  0.79556857271E+03  0.25500000920E-02 0. -1.
       -2    1    3    3    0  502  0.29634654508E+03  0.34787060382E+03 -0.13414394872E+04  0.14171432989E+04  0.25500000920E-02 0.  1.
</event>
<event>
 5   0  0.1390735E-05  0.2102363E+04  0.7818609E-02  0.8560203E-01
        2   -1    0    0  501    0  0.00000000000E+00  0.00000000000E+00  0.17983027186E+04  0.17983027186E+04  0.25500000920E-02 0. -1.
       -2   -1    0    0    0  501  0.00000000000E+00  0.00000000000E+00 -0.61445836734E+03  0.61445836734E+03  0.25500000920E-02 0.  1.
    10030    2    1    2    0    0  0.00000000000E+00  0.00000000000E+00  0.11838443513E+04  0.24127610859E+04  0.21023626257E+04 0.  0.
        5    1    3    3  502    0  0.20982150754E+03  0.87002911671E+03  0.12246723789E+04  0.15168454946E+04  0.46999998093E+01 0.  1.
       -5    1    3    3    0  502 -0.20982150754E+03 -0.87002911671E+03 -0.40828027620E+02  0.89591559132E+03  0.46999998093E+01 0. -1.
</event>
<event>
 5   0  0.1395356E-05  0.2103492E+04  0.7818609E-02  0.8559707E-01
       -2   -1    0    0    0  501  0.00000000000E+00  0.00000000000E+00  0.40968146553E+03  0.40968146553E+03  0.25500000920E-02 0. -1.
        2   -1    0    0  501    0  0.00000000000E+00  0.00000000000E+00 -0.27000715522E+04  0.27000715522E+04  0.25500000920E-02 0.  1.
    10030    2    1    2    0    0  0.00000000000E+00  0.00000000000E+00 -0.22903900867E+04  0.31097530177E+04  0.21034916406E+04 0.  0.
        1    1    3    3  502    0  0.59207093824E+03  0.68070334690E+03 -0.34596290555E+03  0.96622739271E+03  0.50400001928E-02 0. -1.
       -1    1    3    3    0  502 -0.59207093824E+03 -0.68070334690E+03 -0.19444271811E+04  0.21435256250E+04  0.50400001928E-02 0.  1.
</event>
<event>
 5   0  0.6917078E-06  0.2101307E+04  0.7818609E-02  0.8560668E-01
       -1   -1    0    0    0  501  0.00000000000E+00  0.00000000000E+00  0.85771145469E+03  0.85771145470E+03  0.50400001928E-02 0.  1.
        1   -1    0    0  501    0  0.00000000000E+00  0.00000000000E+00 -0.12869978410E+04  0.12869978410E+04  0.50400001928E-02 0. -1.
    10030    2    1    2    0    0  0.00000000000E+00  0.00000000000E+00 -0.42928638632E+03  0.21447092957E+04  0.21013070127E+04 0.  0.
        5    1    3    3  502    0 -0.53616100395E+03 -0.58280709438E+03 -0.91935197785E+03  0.12134096096E+04  0.46999998093E+01 0. -1.
       -5    1    3    3    0  502  0.53616100395E+03  0.58280709438E+03  0.49006559154E+03  0.93129968615E+03  0.46999998093E+01 0.  1.
</event>
<event>
 5   0  0.6589193E-06  0.2099150E+04  0.7818609E-02  0.8561618E-01
       -1   -1    0    0    0  501  0.00000000000E+00  0.00000000000E+00  0.70013206460E+03  0.70013206461E+03  0.50400001928E-02 0. -1.
        1   -1    0    0  501    0  0.00000000000E+00  0.00000000000E+00 -0.15734288308E+04  0.15734288308E+04  0.50400001928E-02 0.  1.
    10030    2    1    2    0    0  0.00000000000E+00  0.00000000000E+00 -0.87329676621E+03  0.22735608954E+04  0.20991502813E+04 0.  0.
        3    1    3    3  502    0 -0.45635721792E+03  0.26936634912E+03  0.54459900195E+03  0.75987382078E+03  0.10100000352E+00 0. -1.
       -3    1    3    3    0  502  0.45635721792E+03 -0.26936634912E+03 -0.14178957682E+04  0.15136870746E+04  0.10100000352E+00 0.  1.
</event>
<event>
 5   0  0.6238363E-06  0.2096445E+04  0.7818609E-02  0.8562811E-01
       -1   -1    0    0    0  501  0.00000000000E+00  0.00000000000E+00  0.13243828725E+04  0.13243828725E+04  0.50400001928E-02 0. -1.
        1   -1    0    0  501    0  0.00000000000E+00  0.00000000000E+00 -0.82964701305E+03  0.82964701307E+03  0.50400001928E-02 0.  1.
    10030    2    1    2    0    0  0.00000000000E+00  0.00000000000E+00  0.49473585945E+03  0.21540298856E+04  0.20964448901E+04 0.  0.
        4    1    3    3  502    0 -0.47097456175E+03  0.31885866295E+03  0.11520537585E+04  0.12848024596E+04  0.12699999809E+01 0. -1.
       -4    1    3    3    0  502  0.47097456175E+03 -0.31885866295E+03 -0.65731789907E+03  0.86922742599E+03  0.12699999809E+01 0.  1.
</event>
<event>
 5   0  0.6917078E-06  0.2102212E+04  0.7818609E-02  0.8560270E-01
        1   -1    0    0  501    0  0.00000000000E+00  0.00000000000E+00  0.11723784201E+04  0.11723784201E+04  0.50400001928E-02 0.  1.
       -1   -1    0    0    0  501  0.00000000000E+00  0.00000000000E+00 -0.94237784283E+03  0.94237784285E+03  0.50400001928E-02 0. -1.
    10030    2    1    2    0    0  0.00000000000E+00  0.00000000000E+00  0.23000057723E+03  0.21147562629E+04  0.21022116416E+04 0.  0.
        5    1    3    3  502    0 -0.88316844295E+03 -0.44404167054E+03 -0.24440166434E+03  0.10182896284E+04  0.46999998093E+01 0. -1.
       -5    1    3    3    0  502  0.88316844295E+03  0.44404167054E+03  0.47440224156E+03  0.10964666345E+04  0.46999998093E+01 0.  1.
</event>
<event>
 5   0  0.1398469E-05  0.2096630E+04  0.7818609E-02  0.8562729E-01
       -2   -1    0    0    0  501  0.00000000000E+00  0.00000000000E+00  0.83800283033E+03  0.83800283033E+03  0.25500000920E-02 0.  1.
        2   -1    0    0  501    0  0.00000000000E+00  0.00000000000E+00 -0.13114092176E+04  0.13114092176E+04  0.25500000920E-02 0. -1.
    10030    2    1    2    0    0  0.00000000000E+00  0.00000000000E+00 -0.47340638726E+03  0.21494120479E+04  0.20966302832E+04 0.  0.
        2    1    3    3  502    0  0.74944436231E+03  0.28972071870E+03  0.45356724596E+03  0.92267447871E+03  0.25500000920E-02 0.  1.
       -2    1    3    3    0  502 -0.74944436231E+03 -0.28972071870E+03 -0.92697363322E+03  0.12267375692E+04  0.25500000920E-02 0. -1.
</event>
<event>
 5   0  0.6599245E-06  0.2100997E+04  0.7818609E-02  0.8560804E-01
       -1   -1    0    0    0  501  0.00000000000E+00  0.00000000000E+00  0.12032003777E+04  0.12032003777E+04  0.50400001928E-02 0. -1.
        1   -1    0    0  501    0  0.00000000000E+00  0.00000000000E+00 -0.91717613197E+03  0.91717613199E+03  0.50400001928E-02 0.  1.
    10030    2    1    2    0    0  0.00000000000E+00  0.00000000000E+00  0.28602424575E+03  0.21203765097E+04  0.21009965906E+04 0.  0.
        2    1    3    3  502    0  0.56728207847E+03 -0.15300606548E+03  0.10218643446E+04  0.11787393908E+04  0.25500000920E-02 0. -1.
       -2    1    3    3    0  502 -0.56728207847E+03  0.15300606548E+03 -0.73584009886E+03  0.94163711892E+03  0.25500000920E-02 0.  1.
</event>
<event>
 5   0  0.1390735E-05  0.2100496E+04  0.7818609E-02  0.8561025E-01
        2   -1    0    0  501    0  0.00000000000E+00  0.00000000000E+00  0.17273713716E+04  0.17273713716E+04  0.25500000920E-02 0. -1.
       -2   -1    0    0    0  501  0.00000000000E+00  0.00000000000E+00 -0.63855461264E+03  0.63855461265E+03  0.25500000920E-02 0.  1.
    10030    2    1    2    0    0  0.00000000000E+00  0.00000000000E+00  0.10888167590E+04  0.23659259843E+04  0.21004960910E+04 0.  0.
        5    1    3    3  502    0  0.11025060306E+03  0.18074132303E+03 -0.61425766654E+03  0.64973624820E+03  0.46999998093E+01 0.  1.
       -5    1    3    3    0  502 -0.11025060306E+03 -0.18074132303E+03  0.17030744255E+04  0.17161897361E+04  0.46999998093E+01 0. -1.
</event>
<event>
 5   0  0.6283269E-06  0.2098179E+04  0.7818609E-02  0.8562046E-01
        1   -1    0    0  501    0  0.00000000000E+00  0.00000000000E+00  0.16421903712E+04  0.16421903712E+04  0.50400001928E-02 0. -1.
       -1   -1    0    0    0  501  0.00000000000E+00  0.00000000000E+00 -0.67019564199E+03  0.67019564200E+03  0.50400001928E-02 0.  1.
    10030    2    1    2    0    0  0.00000000000E+00  0.00000000000E+00  0.97199472923E+03  0.23123860132E+04  0.20981790487E+04 0.  0.
        1    1    3    3  502    0 -0.99336246766E+02  0.42043293851E+03 -0.56761470502E+03  0.71331479663E+03  0.50400001928E-02 0.  1.
       -1    1    3    3    0  502  0.99336246766E+02 -0.42043293851E+03  0.15396094343E+04  0.15990712166E+04  0.50400001928E-02 0. -1.
</event>
<event>
 5   0  0.1344501E-05  0.2100360E+04  0.7818609E-02  0.8561085E-01
        2   -1    0    0  501    0  0.00000000000E+00  0.00000000000E+00  0.83096921663E+03  0.83096921663E+03  0.25500000920E-02 0. -1.
       -2   -1    0    0    0  501  0.00000000000E+00  0.00000000000E+00 -0.13272187590E+04  0.13272187590E+04  0.25500000920E-02 0.  1.
    10030    2    1    2    0    0  0.00000000000E+00  0.00000000000E+00 -0.49624954241E+03  0.21581879757E+04  0.21003599049E+04 0.  0.
        3    1    3    3  502    0  0.81658616886E+03  0.59739580655E+03  0.41017825998E+02  0.10126091018E+04  0.10100000352E+00 0. -1.
       -3    1    3    3    0  502 -0.81658616886E+03 -0.59739580655E+03 -0.53726736841E+03  0.11455788739E+04  0.10100000352E+00 0.  1.
</event>
<event>
 5   0  0.1390735E-05  0.2098515E+04  0.7818609E-02  0.8561898E-01
        2   -1    0    0  501    0  0.00000000000E+00  0.00000000000E+00  0.12747384201E+04  0.12747384201E+04  0.25500000920E-02 0. -1.
       -2   -1    0    0    0  501  0.00000000000E+00  0.00000000000E+00 -0.86366066365E+03  0.86366066365E+03  0.25500000920E-02 0.  1.
    10030    2    1    2    0    0  0.00000000000E+00  0.00000000000E+00  0.41107775644E+03  0.21383990837E+04  0.20985151225E+04 0.  0.
        5    1    3    3  502    0  0.34708108419E+03 -0.21801742764E+03  0.11897752982E+04  0.12584054307E+04  0.46999998093E+01 0. -1.
       -5    1    3    3    0  502 -0.34708108419E+03  0.21801742764E+03 -0.77869754180E+03  0.87999365302E+03  0.46999998093E+01 0.  1.
</event>
<event>
 5   0  0.1390735E-05  0.2094573E+04  0.7818609E-02  0.8563638E-01
       -2   -1    0    0    0  501  0.00000000000E+00  0.00000000000E+00  0.93006360034E+03  0.93006360035E+03  0.25500000920E-02 0. -1.
        2   -1    0    0  501    0  0.00000000000E+00  0.00000000000E+00 -0.11792835344E+04  0.11792835344E+04  0.25500000920E-02 0.  1.
    10030    2    1    2    0    0  0.00000000000E+00  0.00000000000E+00 -0.24921993404E+03  0.21093471347E+04  0.20945726913E+04 0.  0.
        5    1    3    3  502    0  0.76909395864E+03 -0.44071283549E+03  0.43704552835E+03  0.98831381880E+03  0.46999998093E+01 0. -1.
       -5    1    3    3    0  502 -0.76909395864E+03  0.44071283549E+03 -0.68626546240E+03  0.11210333159E+04  0.46999998093E+01 0.  1.
</event>
<event>
 5   0  0.1344501E-05  0.2100764E+04  0.7818609E-02  0.8560907E-01
        2   -1    0    0  501    0  0.00000000000E+00  0.00000000000E+00  0.13210160058E+04  0.13210160058E+04  0.25500000920E-02 0. -1.
       -2   -1    0    0    0  501  0.00000000000E+00  0.00000000000E+00 -0.83519212036E+03  0.83519212036E+03  0.25500000920E-02 0.  1.
    10030    2    1    2    0    0  0.00000000000E+00  0.00000000000E+00  0.48582388540E+03  0.21562081261E+04  0.21007638219E+04 0.  0.
        3    1    3    3  502    0  0.43838497118E+03  0.60479731174E+03  0.10008740855E+04  0.12488835480E+04  0.10100000352E+00 0. -1.
       -3    1    3    3    0  502 -0.43838497118E+03 -0.60479731174E+03 -0.51505020010E+03  0.90732457812E+03  0.10100000352E+00 0.  1.
</event>
<event>
 5   0  0.6283269E-06  0.2103026E+04  0.7818609E-02  0.8559912E-01
       -1   -1    0    0    0  501  0.00000000000E+00  0.00000000000E+00  0.13029547430E+04  0.13029547430E+04  0.50400001928E-02 0. -1.
        1   -1    0    0  501    0  0.00000000000E+00  0.00000000000E+00 -0.84859408699E+03  0.84859408701E+03  0.50400001928E-02 0.  1.
    10030    2    1    2    0    0  0.00000000000E+00  0.00000000000E+00  0.45436065601E+03  0.21515488300E+04  0.21030260964E+04 0.  0.
        1    1    3    3  502    0  0.70686503618E+03 -0.65520322068E+03 -0.20291229341E+03  0.98494814006E+03  0.50400001928E-02 0.  1.
       -1    1    3    3    0  502 -0.70686503618E+03  0.65520322068E+03  0.65727294942E+03  0.11666006900E+04  0.50400001928E-02 0. -1.
</event>
<event>
 5   0  0.6599245E-06  0.2096671E+04  0.7818609E-02  0.8562711E-01
        1   -1    0    0  501    0  0.00000000000E+00  0.00000000000E+00  0.10509342375E+04  0.10509342375E+04  0.50400001928E-02 0. -1.
       -1   -1    0    0    0  501  0.00000000000E+00  0.00000000000E+00 -0.10457430789E+04  0.10457430790E+04  0.50400001928E-02 0.  1.
    10030    2    1    2    0    0  0.00000000000E+00  0.00000000000E+00  0.51911585919E+01  0.20966773165E+04  0.20966708901E+04 0.  0.
        2    1    3    3  502    0  0.88840481633E+03  0.34380867762E+03 -0.43505822796E+03  0.10472550722E+04  0.25500000920E-02 0.  1.
       -2    1    3    3    0  502 -0.88840481633E+03 -0.34380867762E+03  0.44024938656E+03  0.10494222443E+04  0.25500000920E-02 0. -1.
</event>
<event>
 5   0  0.6917078E-06  0.2098755E+04  0.7818609E-02  0.8561792E-01
       -1   -1    0    0    0  501  0.00000000000E+00  0.00000000000E+00  0.25243564048E+04  0.25243564048E+04  0.50400001928E-02 0. -1.
        1   -1    0    0  501    0  0.00000000000E+00  0.00000000000E+00 -0.43622719137E+03  0.43622719140E+03  0.50400001928E-02 0.  1.
    10030    2    1    2    0    0  0.00000000000E+00  0.00000000000E+00  0.20881292134E+04  0.29605835962E+04  0.20987547780E+04 0.  0.
        5    1    3    3  502    0 -0.22328521668E+03 -0.31961308641E+03  0.24183780743E+04  0.24496088286E+04  0.46999998093E+01 0. -1.
       -5    1    3    3    0  502  0.22328521668E+03  0.31961308641E+03 -0.33024886088E+03  0.51097476758E+03  0.46999998093E+01 0.  1.
</event>
<event>
 5   0  0.1398469E-05  0.2099595E+04  0.7818609E-02  0.8561422E-01
        2   -1    0    0  501    0  0.00000000000E+00  0.00000000000E+00  0.11464790387E+04  0.11464790387E+04  0.25500000920E-02 0. -1.
       -2   -1    0    0    0  501  0.00000000000E+00  0.00000000000E+00 -0.96126944416E+03  0.96126944416E+03  0.25500000920E-02 0.  1.
    10030    2    1    2    0    0  0.00000000000E+00  0.00000000000E+00  0.18520959455E+03  0.21077484829E+04  0.20995954546E+04 0.  0.
        2    1    3    3  502    0  0.21994315917E+03 -0.30438151303E+03 -0.89153465727E+03  0.96739709730E+03  0.25500000920E-02 0.  1.
       -2    1    3    3    0  502 -0.21994315917E+03  0.30438151303E+03  0.10767442518E+04  0.11403513856E+04  0.25500000920E-02 0. -1.
</event>
<event>
 5   0  0.6589193E-06  0.2101827E+04  0.7818609E-02  0.8560439E-01
        1   -1    0    0  501    0  0.00000000000E+00  0.00000000000E+00  0.50711248252E+03  0.50711248255E+03  0.50400001928E-02 0. -1.
       -1   -1    0    0    0  501  0.00000000000E+00  0.00000000000E+00 -0.21778592750E+04  0.21778592750E+04  0.50400001928E-02 0.  1.
    10030    2    1    2    0    0  0.00000000000E+00  0.00000000000E+00 -0.16707467925E+04  0.26849717576E+04  0.21018274178E+04 0.  0.
        3    1    3    3  502    0  0.46237642796E+03  0.40921509522E+03  0.25095984073E+03  0.66650566926E+03  0.10100000352E+00 0. -1.
       -3    1    3    3    0  502 -0.46237642796E+03 -0.40921509522E+03 -0.19217066332E+04  0.20184660883E+04  0.10100000352E+00 0.  1.
</event>
<event>
 5   0  0.6238363E-06  0.2098770E+04  0.7818609E-02  0.8561785E-01
        1   -1    0    0  501    0  0.00000000000E+00  0.00000000000E+00  0.18946872274E+04  0.18946872274E+04  0.50400001928E-02 0. -1.
       -1   -1    0    0    0  501  0.00000000000E+00  0.00000000000E+00 -0.58120907056E+03  0.58120907058E+03  0.50400001928E-02 0.  1.
    10030    2    1    2    0    0  0.00000000000E+00  0.00000000000E+00  0.13134781569E+04  0.24758962980E+04  0.20987704996E+04 0.  0.
        4    1    3    3  502    0  0.33483189606E+03  0.64551673660E+03 -0.23578235131E+03  0.76446006171E+03  0.12699999809E+01 0.  1.
       -4    1    3    3    0  502 -0.33483189606E+03 -0.64551673660E+03  0.15492605082E+04  0.17114362363E+04  0.12699999809E+01 0. -1.
</event>
<event>
 5   0  0.1441136E-05  0.2098196E+04  0.7818609E-02  0.8562038E-01
        2   -1    0    0  501    0  0.00000000000E+00  0.00000000000E+00  0.22246595127E+04  0.22246595127E+04  0.25500000920E-02 0.  1.
       -2   -1    0    0    0  501  0.00000000000E+00  0.00000000000E+00 -0.49473049617E+03  0.49473049618E+03  0.25500000920E-02 0. -1.
    10030    2    1    2    0    0  0.00000000000E+00  0.00000000000E+00  0.17299290165E+04  0.27193900089E+04  0.20981962773E+04 0.  0.
        4    1    3    3  502    0  0.66091231465E+03  0.17712747413E+03  0.18956597349E+04  0.20153676273E+04  0.12699999809E+01 0.  1.
       -4    1    3    3    0  502 -0.66091231465E+03 -0.17712747413E+03 -0.16573071843E+03  0.70402238152E+03  0.12699999809E+01 0. -1.
</event>
<event>
 5   0  0.6238363E-06  0.2095366E+04  0.7818609E-02  0.8563287E-01
        1   -1    0    0  501    0  0.00000000000E+00  0.00000000000E+00  0.16433876027E+04  0.16433876027E+04  0.50400001928E-02 0.  1.
       -1   -1    0    0    0  501  0.00000000000E+00  0.00000000000E+00 -0.66791294356E+03  0.66791294358E+03  0.50400001928E-02 0. -1.
    10030    2    1    2    0    0  0.00000000000E+00  0.00000000000E+00  0.97547465914E+03  0.23113005463E+04  0.20953661744E+04 0.  0.
        4    1    3    3  502    0  0.87877870748E+03  0.46453424154E+03  0.85290321604E+03  0.13097669973E+04  0.12699999809E+01 0.  1.
       -4    1    3    3    0  502 -0.87877870748E+03 -0.46453424154E+03  0.12257144310E+03  0.10015335490E+04  0.12699999809E+01 0. -1.
</event>
<event>
 5   0  0.6238363E-06  0.2102431E+04  0.7818609E-02  0.8560173E-01
        1   -1    0    0  501    0  0.00000000000E+00  0.00000000000E+00  0.85893314902E+03  0.85893314903E+03  0.50400001928E-02 0.  1.
       -1   -1    0    0    0  501  0.00000000000E+00  0.00000000000E+00 -0.12865421541E+04  0.12865421541E+04  0.50400001928E-02 0. -1.
    10030    2    1    2    0    0  0.00000000000E+00  0.00000000000E+00 -0.42760900510E+03  0.21454753032E+04  0.21024306921E+04 0.  0.
        4    1    3    3  502    0  0.39851008910E+03  0.13905933997E+03  0.76866545717E+03  0.87692416382E+03  0.12699999809E+01 0.  1.
       -4    1    3    3    0  502 -0.39851008910E+03 -0.13905933997E+03 -0.11962744623E+04  0.12685511393E+04  0.12699999809E+01 0. -1.
</event>
<event>
 5   0  0.6283269E-06  0.2097409E+04  0.7818609E-02  0.8562386E-01
        1   -1    0    0  501    0  0.00000000000E+00  0.00000000000E+00  0.61053954383E+03  0.61053954385E+03  0.50400001928E-02 0.  1.
       -1   -1    0    0    0  501  0.00000000000E+00  0.00000000000E+00 -0.18013269304E+04  0.18013269304E+04  0.50400001928E-02 0. -1.
    10030    2    1    2    0    0  0.00000000000E+00  0.00000000000E+00 -0.11907873866E+04  0.24118664743E+04  0.20974091851E+04 0.  0.
        1    1    3    3  502    0 -0.29642303682E+03 -0.57601172284E+03  0.35294731051E+03  0.73771805294E+03  0.50400001928E-02 0.  1.
       -1    1    3    3    0  502  0.29642303682E+03  0.57601172284E+03 -0.15437346971E+04  0.16741484213E+04  0.50400001928E-02 0. -1.
</event>
<event>
 5   0  0.1395356E-05  0.2092405E+04  0.7818609E-02  0.8564596E-01
        2   -1    0    0  501    0  0.00000000000E+00  0.00000000000E+00  0.19124133003E+04  0.19124133003E+04  0.25500000920E-02 0. -1.
       -2   -1    0    0    0  501  0.00000000000E+00  0.00000000000E+00 -0.57233451292E+03  0.57233451293E+03  0.25500000920E-02 0.  1.
    10030    2    1    2    0    0  0.00000000000E+00  0.00000000000E+00  0.13400787873E+04  0.24847478132E+04  0.20924054432E+04 0.  0.
        1    1    3    3  502    0  0.61896147148E+03  0.43535974723E+03  0.15279171985E+04  0.17050461514E+04  0.50400001928E-02 0. -1.
       -1    1    3    3    0  502 -0.61896147148E+03 -0.43535974723E+03 -0.18783841121E+03  0.77970166181E+03  0.50400001928E-02 0.  1.
</event>
<event>
 5   0  0.6589193E-06  0.2099967E+04  0.7818609E-02  0.8561258E-01
        1   -1    0    0  501    0  0.00000000000E+00  0.00000000000E+00  0.12276203933E+04  0.12276203933E+04  0.50400001928E-02 0.  1.
       -1   -1    0    0    0  501  0.00000000000E+00  0.00000000000E+00 -0.89805041393E+03  0.89805041394E+03  0.50400001928E-02 0. -1.
    10030    2    1    2    0    0  0.00000000000E+00  0.00000000000E+00  0.32956997937E+03  0.21256708072E+04  0.20999666687E+04 0.  0.
        3    1    3    3  502    0  0.64781036601E+03 -0.82626988028E+03  0.15546320756E+03  0.10613901283E+04  0.10100000352E+00 0. -1.
       -3    1    3    3    0  502 -0.64781036601E+03  0.82626988028E+03  0.17410677182E+03  0.10642806789E+04  0.10100000352E+00 0.  1.
</event>
<event>
 5   0  0.1398469E-05  0.2094412E+04  0.7818609E-02  0.8563709E-01
       -2   -1    0    0    0  501  0.00000000000E+00  0.00000000000E+00  0.10026979918E+04  0.10026979918E+04  0.25500000920E-02 0. -1.
        2   -1    0    0  501    0  0.00000000000E+00  0.00000000000E+00 -0.10936899894E+04  0.10936899894E+04  0.25500000920E-02 0.  1.
    10030    2    1    2    0    0  0.00000000000E+00  0.00000000000E+00 -0.90991997558E+02  0.20963879812E+04  0.20944123338E+04 0.  0.
        2    1    3    3  502    0  0.33389816688E+03  0.61690912941E+02 -0.10370600526E+04  0.10912320135E+04  0.25500000920E-02 0.  1.
       -2    1    3    3    0  502 -0.33389816688E+03 -0.61690912941E+02  0.94606805503E+03  0.10051559677E+04  0.25500000920E-02 0. -1.
</event>
<event>
 5   0  0.1344501E-05  0.2106712E+04  0.7818609E-02  0.8558292E-01
        2   -1    0    0  501    0  0.00000000000E+00  0.00000000000E+00  0.18278287869E+04  0.18278287869E+04  0.25500000920E-02 0.  1.
       -2   -1    0    0    0  501  0.00000000000E+00  0.00000000000E+00 -0.60703671127E+03  0.60703671128E+03  0.25500000920E-02 0. -1.
    10030    2    1    2    0    0  0.00000000000E+00  0.00000000000E+00  0.12207920756E+04  0.24348654982E+04  0.21067122970E+04 0.  0.
        3    1    3    3  502    0 -0.48923081946E+03  0.87556168660E+03  0.98240913017E+03  0.14039525530E+04  0.10100000352E+00 0.  1.
       -3    1    3    3    0  502  0.48923081946E+03 -0.87556168660E+03  0.23838294548E+03  0.10309129452E+04  0.10100000352E+00 0. -1.
</event>
<event>
 5   0  0.5009125E-06  0.2099349E+04  0.7818609E-02  0.8561530E-01
        3   -1    0    0  501    0  0.00000000000E+00  0.00000000000E+00  0.10240957738E+04  0.10240957788E+04  0.10100000352E+00 0. -1.
       -3   -1    0    0    0  501  0.00000000000E+00  0.00000000000E+00 -0.10758919263E+04  0.10758919310E+04  0.10100000352E+00 0.  1.
    10030    2    1    2    0    0  0.00000000000E+00  0.00000000000E+00 -0.51796152484E+02  0.20999877098E+04  0.20993488371E+04 0.  0.
        1    1    3    3  502    0  0.82387771039E+03 -0.18233366662E+03  0.59862863943E+03  0.10345899167E+04  0.50400001928E-02 0. -1.
       -1    1    3    3    0  502 -0.82387771039E+03  0.18233366662E+03 -0.65042479192E+03  0.10653977931E+04  0.50400001928E-02 0.  1.
</event>
<event>
 5   0  0.6917078E-06  0.2100355E+04  0.7818609E-02  0.8561087E-01
        1   -1    0    0  501    0  0.00000000000E+00  0.00000000000E+00  0.27412922520E+04  0.27412922520E+04  0.50400001928E-02 0. -1.
       -1   -1    0    0    0  501  0.00000000000E+00  0.00000000000E+00 -0.40231852094E+03  0.40231852097E+03  0.50400001928E-02 0.  1.
    10030    2    1    2    0    0  0.00000000000E+00  0.00000000000E+00  0.23389737310E+04  0.31436107730E+04  0.21003548694E+04 0.  0.
        5    1    3    3  502    0 -0.97292114456E+03 -0.92301679432E+02  0.59416911653E+03  0.11437456809E+04  0.46999998093E+01 0. -1.
       -5    1    3    3    0  502  0.97292114456E+03  0.92301679432E+02  0.17448046145E+04  0.19998650921E+04  0.46999998093E+01 0.  1.
</event>
<event>
 5   0  0.1441136E-05  0.2100287E+04  0.7818609E-02  0.8561117E-01
       -2   -1    0    0    0  501  0.00000000000E+00  0.00000000000E+00  0.15056657452E+04  0.15056657452E+04  0.25500000920E-02 0.  1.
        2   -1    0    0  501    0  0.00000000000E+00  0.00000000000E+00 -0.73243429055E+03  0.73243429056E+03  0.25500000920E-02 0. -1.
    10030    2    1    2    0    0  0.00000000000E+00  0.00000000000E+00  0.77323145463E+03  0.22381000357E+04  0.21002868584E+04 0.  0.
        4    1    3    3  502    0 -0.59060042912E+03 -0.37161384597E+03  0.12228998039E+04  0.14079741690E+04  0.12699999809E+01 0.  1.
       -4    1    3    3    0  502  0.59060042912E+03  0.37161384597E+03 -0.44966834924E+03  0.83012586673E+03  0.12699999809E+01 0. -1.
</event>
<event>
 5   0  0.1441136E-05  0.2101177E+04  0.7818609E-02  0.8560725E-01
        2   -1    0    0  501    0  0.00000000000E+00  0.00000000000E+00  0.75240982516E+03  0.75240982517E+03  0.25500000920E-02 0. -1.
       -2   -1    0    0    0  501  0.00000000000E+00  0.00000000000E+00 -0.14669342561E+04  0.14669342561E+04  0.25500000920E-02 0.  1.
    10030    2    1    2    0    0  0.00000000000E+00  0.00000000000E+00 -0.71452443090E+03  0.22193440812E+04  0.21011765724E+04 0.  0.
        4    1    3    3  502    0 -0.91393132674E+03 -0.15007237569E+03 -0.88107777203E+03  0.12783160177E+04  0.12699999809E+01 0. -1.
       -4    1    3    3    0  502  0.91393132674E+03  0.15007237569E+03  0.16655334114E+03  0.94102806349E+03  0.12699999809E+01 0.  1.
</event>
<event>
 5   0  0.1398469E-05  0.2098489E+04  0.7818609E-02  0.8561909E-01
        2   -1    0    0  501    0  0.00000000000E+00  0.00000000000E+00  0.10070674249E+04  0.10070674249E+04  0.25500000920E-02 0. -1.
       -2   -1    0    0    0  501  0.00000000000E+00  0.00000000000E+00 -0.10931883413E+04  0.10931883413E+04  0.25500000920E-02 0.  1.
    10030    2    1    2    0    0  0.00000000000E+00  0.00000000000E+00 -0.86120916324E+02  0.21002557662E+04  0.20984893307E+04 0.  0.
        2    1    3    3  502    0 -0.57112107887E+03 -0.60882057402E+03 -0.67926258373E+03  0.10762153296E+04  0.25500000920E-02 0.  1.
       -2    1    3    3    0  502  0.57112107887E+03  0.60882057402E+03  0.59314166741E+03  0.10240404366E+04  0.25500000920E-02 0. -1.
</event>
<event>
 5   0  0.6589193E-06  0.2102572E+04  0.7818609E-02  0.8560111E-01
       -1   -1    0    0    0  501  0.00000000000E+00  0.00000000000E+00  0.14483079789E+04  0.14483079790E+04  0.50400001928E-02 0.  1.
        1   -1    0    0  501    0  0.00000000000E+00  0.00000000000E+00 -0.76309875515E+03  0.76309875517E+03  0.50400001928E-02 0. -1.
    10030    2    1    2    0    0  0.00000000000E+00  0.00000000000E+00  0.68520922380E+03  0.22114067341E+04  0.21025717736E+04 0.  0.
        3    1    3    3  502    0 -0.30144746876E+03  0.97019135408E+02 -0.71174165680E+03  0.77901186466E+03  0.10100000352E+00 0. -1.
       -3    1    3    3    0  502  0.30144746876E+03 -0.97019135408E+02  0.13969508806E+04  0.14323948695E+04  0.10100000352E+00 0.  1.
</event>
<event>
 5   0  0.1344501E-05  0.2101020E+04  0.7818609E-02  0.8560794E-01
        2   -1    0    0  501    0  0.00000000000E+00  0.00000000000E+00  0.71469831723E+03  0.71469831723E+03  0.25500000920E-02 0.  1.
       -2   -1    0    0    0  501  0.00000000000E+00  0.00000000000E+00 -0.15441079561E+04  0.15441079561E+04  0.25500000920E-02 0. -1.
    10030    2    1    2    0    0  0.00000000000E+00  0.00000000000E+00 -0.82940963887E+03  0.22588062733E+04  0.21010200931E+04 0.  0.
        3    1    3    3  502    0 -0.41205259060E+03  0.94327979615E+03 -0.64023819889E+03  0.12122165948E+04  0.10100000352E+00 0.  1.
       -3    1    3    3    0  502  0.41205259060E+03 -0.94327979615E+03 -0.18917143998E+03  0.10465896785E+04  0.10100000352E+00 0. -1.
</event>
<event>
 5   0  0.6917078E-06  0.2102778E+04  0.7818609E-02  0.8560021E-01
        1   -1    0    0  501    0  0.00000000000E+00  0.00000000000E+00  0.19641407115E+04  0.19641407115E+04  0.50400001928E-02 0.  1.
       -1   -1    0    0    0  501  0.00000000000E+00  0.00000000000E+00 -0.56280030988E+03  0.56280030990E+03  0.50400001928E-02 0. -1.
    10030    2    1    2    0    0  0.00000000000E+00  0.00000000000E+00  0.14013404016E+04  0.25269410214E+04  0.21027781634E+04 0.  0.
        5    1    3    3  502    0 -0.25493584410E+03 -0.10171629146E+04  0.60927476887E+03  0.12127862604E+04  0.46999998093E+01 0.  1.
       -5    1    3    3    0  502  0.25493584410E+03  0.10171629146E+04  0.79206563274E+03  0.13141547610E+04  0.46999998093E+01 0. -1.
</event>
<event>
 5   0  0.6589193E-06  0.2101447E+04  0.7818609E-02  0.8560606E-01
       -1   -1    0    0    0  501  0.00000000000E+00  0.00000000000E+00  0.64634157471E+03  0.64634157473E+03  0.50400001928E-02 0.  1.
        1   -1    0    0  501    0  0.00000000000E+00  0.00000000000E+00 -0.17081061899E+04  0.17081061899E+04  0.50400001928E-02 0. -1.
    10030    2    1    2    0    0  0.00000000000E+00  0.00000000000E+00 -0.10617646151E+04  0.23544477646E+04  0.21014471628E+04 0.  0.
        3    1    3    3  502    0 -0.57055194865E+03 -0.43289675440E+03  0.33050352489E+03  0.78877228415E+03  0.10100000352E+00 0.  1.
       -3    1    3    3    0  502  0.57055194865E+03  0.43289675440E+03 -0.13922681400E+04  0.15656754804E+04  0.10100000352E+00 0. -1.
</event>
<event>
 5   0  0.5009125E-06  0.2100393E+04  0.7818609E-02  0.8561070E-01
       -3   -1    0    0    0  501  0.00000000000E+00  0.00000000000E+00  0.50988069498E+03  0.50988070498E+03  0.10100000352E+00 0.  1.
        3   -1    0    0  501    0  0.00000000000E+00  0.00000000000E+00 -0.21630792796E+04  0.21630792820E+04  0.10100000352E+00 0. -1.
    10030    2    1    2    0    0  0.00000000000E+00  0.00000000000E+00 -0.16531985846E+04  0.26729599869E+04  0.21003927089E+04 0.  0.
        2    1    3    3  502    0 -0.23932546579E+03  0.98583737417E+03 -0.48097559121E+03  0.11227152472E+04  0.25500000920E-02 0. -1.
       -2    1    3    3    0  502  0.23932546579E+03 -0.98583737417E+03 -0.11722229934E+04  0.15502447398E+04  0.25500000920E-02 0.  1.
</event>
<event>
 5   0  0.1441136E-05  0.2097794E+04  0.7818609E-02  0.8562216E-01
        2   -1    0    0  501    0  0.00000000000E+00  0.00000000000E+00  0.12215282659E+04  0.12215282659E+04  0.25500000920E-02 0.  1.
       -2   -1    0    0    0  501  0.00000000000E+00  0.00000000000E+00 -0.90066248359E+03  0.90066248359E+03  0.25500000920E-02 0. -1.
    10030    2    1    2    0    0  0.00000000000E+00  0.00000000000E+00  0.32086578229E+03  0.21221907495E+04  0.20977937761E+04 0.  0.
        4    1    3    3  502    0  0.31920665323E+03  0.99796645111E+03  0.11135952371E+03  0.10536757003E+04  0.12699999809E+01 0. -1.
       -4    1    3    3    0  502 -0.31920665323E+03 -0.99796645111E+03  0.20950625858E+03  0.10685150492E+04  0.12699999809E+01 0.  1.
</event>
<event>
 5   0  0.6238363E-06  0.2099378E+04  0.7818609E-02  0.8561517E-01
        1   -1    0    0  501    0  0.00000000000E+00  0.00000000000E+00  0.92110531404E+03  0.92110531406E+03  0.50400001928E-02 0. -1.
       -1   -1    0    0    0  501  0.00000000000E+00  0.00000000000E+00 -0.11962227354E+04  0.11962227354E+04  0.50400001928E-02 0.  1.
    10030    2    1    2    0    0  0.00000000000E+00  0.00000000000E+00 -0.27511742137E+03  0.21173280495E+04  0.20993781159E+04 0.  0.
        4    1    3    3  502    0 -0.21426516270E+03  0.13937341924E+03  0.88923793655E+03  0.92524603789E+03  0.12699999809E+01 0. -1.
       -4    1    3    3    0  502  0.21426516270E+03 -0.13937341924E+03 -0.11643553579E+04  0.11920820116E+04  0.12699999809E+01 0.  1.
</event>
<event>
 5   0  0.6589193E-06  0.2101399E+04  0.7818609E-02  0.8560627E-01
       -1   -1    0    0    0  501  0.00000000000E+00  0.00000000000E+00  0.55279306288E+03  0.55279306290E+03  0.50400001928E-02 0. -1.
        1   -1    0    0  501    0  0.00000000000E+00  0.00000000000E+00 -0.19970756884E+04  0.19970756884E+04  0.50400001928E-02 0.  1.
    10030    2    1    2    0    0  0.00000000000E+00  0.00000000000E+00 -0.14442826255E+04  0.25498687513E+04  0.21013991402E+04 0.  0.
        3    1    3    3  502    0  0.18551483712E+03  0.37637497534E+03  0.44670889247E+03  0.61288067489E+03  0.10100000352E+00 0. -1.
       -3    1    3    3    0  502 -0.18551483712E+03 -0.37637497534E+03 -0.18909915180E+04  0.19369880764E+04  0.10100000352E+00 0.  1.
</event>
<event>
 5   0  0.1398469E-05  0.2090557E+04  0.7818609E-02  0.8565414E-01
       -2   -1    0    0    0  501  0.00000000000E+00  0.00000000000E+00  0.67903534341E+03  0.67903534342E+03  0.25500000920E-02 0.  1.
        2   -1    0    0  501    0  0.00000000000E+00  0.00000000000E+00 -0.16090582512E+04  0.16090582512E+04  0.25500000920E-02 0. -1.
    10030    2    1    2    0    0  0.00000000000E+00  0.00000000000E+00 -0.93002290774E+03  0.22880935946E+04  0.20905572675E+04 0.  0.
        2    1    3    3  502    0  0.13711389332E+03  0.28542287199E+03 -0.15553018363E+04  0.15872083157E+04  0.25500000920E-02 0. -1.
       -2    1    3    3    0  502 -0.13711389332E+03 -0.28542287199E+03  0.62527892855E+03  0.70088527884E+03  0.25500000920E-02 0.  1.
</event>
<event>
 5   0  0.6589193E-06  0.2099440E+04  0.7818609E-02  0.8561490E-01
        1   -1    0    0  501    0  0.00000000000E+00  0.00000000000E+00  0.16234192879E+04  0.16234192879E+04  0.50400001928E-02 0.  1.
       -1   -1    0    0    0  501  0.00000000000E+00  0.00000000000E+00 -0.67876014002E+03  0.67876014003E+03  0.50400001928E-02 0. -1.
    10030    2    1    2    0    0  0.00000000000E+00  0.00000000000E+00  0.94465914790E+03  0.23021794280E+04  0.20994402142E+04 0.  0.
        3    1    3    3  502    0 -0.27560034128E+03  0.13761138394E+03 -0.62808079273E+03  0.69955552568E+03  0.10100000352E+00 0. -1.
       -3    1    3    3    0  502  0.27560034128E+03 -0.13761138394E+03  0.15727399406E+04  0.16026239023E+04  0.10100000352E+00 0.  1.
</event>
<event>
 5   0  0.1441136E-05  0.2102519E+04  0.7818609E-02  0.8560135E-01
       -2   -1    0    0    0  501  0.00000000000E+00  0.00000000000E+00  0.46402189373E+03  0.46402189374E+03  0.25500000920E-02 0. -1.
        2   -1    0    0  501    0  0.00000000000E+00  0.00000000000E+00 -0.23816678289E+04  0.23816678289E+04  0.25500000920E-02 0.  1.
    10030    2    1    2    0    0  0.00000000000E+00  0.00000000000E+00 -0.19176459351E+04  0.28456897226E+04  0.21025185052E+04 0.  0.
        4    1    3    3  502    0 -0.54992433322E+03 -0.63237721126E+03 -0.99795917983E+02  0.84396596361E+03  0.12699999809E+01 0. -1.
       -4    1    3    3    0  502  0.54992433322E+03  0.63237721126E+03 -0.18178500172E+04  0.20017237590E+04  0.12699999809E+01 0.  1.
</event>
<event>
 5   0  0.1395356E-05  0.2099515E+04  0.7818609E-02  0.8561457E-01
       -2   -1    0    0    0  501  0.00000000000E+00  0.00000000000E+00  0.75976988015E+03  0.75976988016E+03  0.25500000920E-02 0.  1.
        2   -1    0    0  501    0  0.00000000000E+00  0.00000000000E+00 -0.14504272524E+04  0.14504272524E+04  0.25500000920E-02 0. -1.
    10030    2    1    2    0    0  0.00000000000E+00  0.00000000000E+00 -0.69065737227E+03  0.22101971326E+04  0.20995151247E+04 0.  0.
        1    1    3    3  502    0  0.22947931368E+03 -0.10012802254E+04 -0.57298874402E+03  0.11762393234E+04  0.50400001928E-02 0. -1.
       -1    1    3    3    0  502 -0.22947931368E+03  0.10012802254E+04 -0.11766862825E+03  0.10339578092E+04  0.50400001928E-02 0.  1.
</event>
<event>
 5   0  0.1395356E-05  0.2103484E+04  0.7818609E-02  0.8559710E-01
       -2   -1    0    0    0  501  0.00000000000E+00  0.00000000000E+00  0.66288953736E+03  0.66288953737E+03  0.25500000920E-02 0.  1.
        2   -1    0    0  501    0  0.00000000000E+00  0.00000000000E+00 -0.16686961409E+04  0.16686961409E+04  0.25500000920E-02 0. -1.
    10030    2    1    2    0    0  0.00000000000E+00  0.00000000000E+00 -0.10058066036E+04  0.23315856783E+04  0.21034839794E+04 0.  0.
        1    1    3    3  502    0 -0.73444444851E+03  0.31848396028E+02 -0.13366227638E+04  0.15254453058E+04  0.50400001928E-02 0. -1.
       -1    1    3    3    0  502  0.73444444851E+03 -0.31848396028E+02  0.33081616023E+03  0.80614037249E+03  0.50400001928E-02 0.  1.
</event>
<event>
 5   0  0.1344501E-05  0.2102242E+04  0.7818609E-02  0.8560257E-01
       -2   -1    0    0    0  501  0.00000000000E+00  0.00000000000E+00  0.61527063775E+03  0.61527063775E+03  0.25500000920E-02 0.  1.
        2   -1    0    0  501    0  0.00000000000E+00  0.00000000000E+00 -0.17957217480E+04  0.17957217480E+04  0.25500000920E-02 0. -1.
    10030    2    1    2    0    0  0.00000000000E+00  0.00000000000E+00 -0.11804511102E+04  0.24109923857E+04  0.21022415324E+04 0.  0.
        3    1    3    3  502    0 -0.89045223869E+03  0.99932200166E+02  0.39991644421E+02  0.89693420931E+03  0.10100000352E+00 0.  1.
       -3    1    3    3    0  502  0.89045223869E+03 -0.99932200166E+02 -0.12204427547E+04  0.15140581764E+04  0.10100000352E+00 0. -1.
</event>
<event>
 5   0  0.1390735E-05  0.2106746E+04  0.7818609E-02  0.8558277E-01
        2   -1    0    0  501    0  0.00000000000E+00  0.00000000000E+00  0.17597988376E+04  0.17597988376E+04  0.25500000920E-02 0.  1.
       -2   -1    0    0    0  501  0.00000000000E+00  0.00000000000E+00 -0.63052365631E+03  0.63052365632E+03  0.25500000920E-02 0. -1.
    10030    2    1    2    0    0  0.00000000000E+00  0.00000000000E+00  0.11292751813E+04  0.23903224939E+04  0.21067461143E+04 0.  0.
        5    1    3    3  502    0 -0.64548820371E+03  0.32711780822E+03  0.14331186564E+04  0.16054632524E+04  0.46999998093E+01 0.  1.
       -5    1    3    3    0  502  0.64548820371E+03 -0.32711780822E+03 -0.30384347511E+03  0.78485924149E+03  0.46999998093E+01 0. -1.
</event>
<event>
 5   0  0.6589193E-06  0.2102855E+04  0.7818609E-02  0.8559987E-01
       -1   -1    0    0    0  501  0.00000000000E+00  0.00000000000E+00  0.11661033101E+04  0.11661033101E+04  0.50400001928E-02 0. -1.
        1   -1    0    0  501    0  0.00000000000E+00  0.00000000000E+00 -0.94802882013E+03  0.94802882015E+03  0.50400001928E-02 0.  1.
    10030    2    1    2    0    0  0.00000000000E+00  0.00000000000E+00  0.21807448993E+03  0.21141321302E+04  0.21028547693E+04 0.  0.
        3    1    3    3  502    0 -0.69250633141E+03 -0.22206720096E+03 -0.65439052163E+03  0.97831785519E+03  0.10100000352E+00 0.  1.
       -3    1    3    3    0  502  0.69250633141E+03  0.22206720096E+03  0.87246501156E+03  0.11358142750E+04  0.10100000352E+00 0. -1.
</event>
<event>
 5   0  0.6238363E-06  0.2098562E+04  0.7818609E-02  0.8561877E-01
       -1   -1    0    0    0  501  0.00000000000E+00  0.00000000000E+00  0.15546454546E+04  0.15546454546E+04  0.50400001928E-02 0.  1.
        1   -1    0    0  501    0  0.00000000000E+00  0.00000000000E+00 -0.70819403090E+03  0.70819403091E+03  0.50400001928E-02 0. -1.
    10030    2    1    2    0    0  0.00000000000E+00  0.00000000000E+00  0.84645142373E+03  0.22628394855E+04  0.20985620135E+04 0.  0.
        4    1    3    3  502    0  0.39452629420E+03  0.45146673171E+03 -0.50529618313E+03  0.78409122699E+03  0.12699999809E+01 0. -1.
       -4    1    3    3    0  502 -0.39452629420E+03 -0.45146673171E+03  0.13517476069E+04  0.14787482586E+04  0.12699999809E+01 0.  1.
</event>
<event>
 5   0  0.1441136E-05  0.2099060E+04  0.7818609E-02  0.8561658E-01
        2   -1    0    0  501    0  0.00000000000E+00  0.00000000000E+00  0.17461941597E+04  0.17461941597E+04  0.25500000920E-02 0.  1.
       -2   -1    0    0    0  501  0.00000000000E+00  0.00000000000E+00 -0.63080775443E+03  0.63080775444E+03  0.25500000920E-02 0. -1.
    10030    2    1    2    0    0  0.00000000000E+00  0.00000000000E+00  0.11153864053E+04  0.23770019141E+04  0.20990596149E+04 0.  0.
        4    1    3    3  502    0  0.25473008503E+03  0.20126329598E+03 -0.57251877825E+03  0.65815932332E+03  0.12699999809E+01 0. -1.
       -4    1    3    3    0  502 -0.25473008503E+03 -0.20126329598E+03  0.16879051835E+04  0.17188425908E+04  0.12699999809E+01 0.  1.
</event>
<event>
 5   0  0.6589193E-06  0.2098875E+04  0.7818609E-02  0.8561739E-01
       -1   -1    0    0    0  501  0.00000000000E+00  0.00000000000E+00  0.86269555751E+03  0.86269555753E+03  0.50400001928E-02 0.  1.
        1   -1    0    0  501    0  0.00000000000E+00  0.00000000000E+00 -0.12766022275E+04  0.12766022275E+04  0.50400001928E-02 0. -1.
    10030    2    1    2    0    0  0.00000000000E+00  0.00000000000E+00 -0.41390667000E+03  0.21392977851E+04  0.20988750038E+04 0.  0.
        3    1    3    3  502    0 -0.81225458571E+03  0.55733888303E+03  0.16186491755E+03  0.99829074136E+03  0.10100000352E+00 0.  1.
       -3    1    3    3    0  502  0.81225458571E+03 -0.55733888303E+03 -0.57577158755E+03  0.11410070437E+04  0.10100000352E+00 0. -1.
</event>
<event>
 5   0  0.6599245E-06  0.2100949E+04  0.7818609E-02  0.8560826E-01
        1   -1    0    0  501    0  0.00000000000E+00  0.00000000000E+00  0.80109281103E+03  0.80109281105E+03  0.50400001928E-02 0. -1.
       -1   -1    0    0    0  501  0.00000000000E+00  0.00000000000E+00 -0.13774890067E+04  0.13774890067E+04  0.50400001928E-02 0.  1.
    10030    2    1    2    0    0  0.00000000000E+00  0.00000000000E+00 -0.57639619563E+03  0.21785818177E+04  0.21009488719E+04 0.  0.
        2    1    3    3  502    0 -0.23490602502E+02 -0.71559048002E+03 -0.10852859632E+04  0.13001796666E+04  0.25500000920E-02 0.  1.
       -2    1    3    3    0  502  0.23490602502E+02  0.71559048002E+03  0.50888976759E+03  0.87840215111E+03  0.25500000920E-02 0. -1.
</event>
<event>
 5   0  0.6589193E-06  0.2099594E+04  0.7818609E-02  0.8561422E-01
       -1   -1    0    0    0  501  0.00000000000E+00  0.00000000000E+00  0.11478442229E+04  0.11478442229E+04  0.50400001928E-02 0. -1.
        1   -1    0    0  501    0  0.00000000000E+00  0.00000000000E+00 -0.96012524433E+03  0.96012524434E+03  0.50400001928E-02 0.  1.
    10030    2    1    2    0    0  0.00000000000E+00  0.00000000000E+00  0.18771897859E+03  0.21079694673E+04  0.20995944513E+04 0.  0.
        3    1    3    3  502    0  0.40125678091E+03  0.72740844848E+03 -0.55052943835E+03  0.99660058591E+03  0.10100000352E+00 0.  1.
       -3    1    3    3    0  502 -0.40125678091E+03 -0.72740844848E+03  0.73824841694E+03  0.11113688814E+04  0.10100000352E+00 0. -1.
</event>
<event>
 5   0  0.6589193E-06  0.2096857E+04  0.7818609E-02  0.8562629E-01
       -1   -1    0    0    0  501  0.00000000000E+00  0.00000000000E+00  0.40593771862E+03  0.40593771865E+03  0.50400001928E-02 0.  1.
        1   -1    0    0  501    0  0.00000000000E+00  0.00000000000E+00 -0.27078102232E+04  0.27078102232E+04  0.50400001928E-02 0. -1.
    10030    2    1    2    0    0  0.00000000000E+00  0.00000000000E+00 -0.23018725046E+04  0.31137479419E+04  0.20968569856E+04 0.  0.
        3    1    3    3  502    0  0.18451989069E+03 -0.10139384549E+04 -0.14368961171E+04  0.17682729546E+04  0.10100000352E+00 0. -1.
       -3    1    3    3    0  502 -0.18451989069E+03  0.10139384549E+04 -0.86497638748E+03  0.13454749873E+04  0.10100000352E+00 0.  1.
</event>
<event>
 5   0  0.6917078E-06  0.2096225E+04  0.7818609E-02  0.8562908E-01
       -1   -1    0    0    0  501  0.00000000000E+00  0.00000000000E+00  0.11239932717E+04  0.11239932717E+04  0.50400001928E-02 0. -1.
        1   -1    0    0  501    0  0.00000000000E+00  0.00000000000E+00 -0.97735399966E+03  0.97735399967E+03  0.50400001928E-02 0.  1.
    10030    2    1    2    0    0  0.00000000000E+00  0.00000000000E+00  0.14663927206E+03  0.21013472714E+04  0.20962245297E+04 0.  0.
        5    1    3    3  502    0 -0.91620336679E+03 -0.36768674662E+03 -0.27952787333E+03  0.10260507175E+04  0.46999998093E+01 0.  1.
       -5    1    3    3    0  502  0.91620336679E+03  0.36768674662E+03  0.42616714539E+03  0.10752965539E+04  0.46999998093E+01 0. -1.
</event>
<event>
 5   0  0.6599245E-06  0.2093660E+04  0.7818609E-02  0.8564041E-01
       -1   -1    0    0    0  501  0.00000000000E+00  0.00000000000E+00  0.16461183475E+04  0.16461183475E+04  0.50400001928E-02 0. -1.
        1   -1    0    0  501    0  0.00000000000E+00  0.00000000000E+00 -0.66571927983E+03  0.66571927985E+03  0.50400001928E-02 0.  1.
    10030    2    1    2    0    0  0.00000000000E+00  0.00000000000E+00  0.98039906762E+03  0.23118376273E+04  0.20936596866E+04 0.  0.
        2    1    3    3  502    0  0.27660570887E+03  0.89841917224E+03  0.99883726125E+03  0.13716207937E+04  0.25500000920E-02 0. -1.
       -2    1    3    3    0  502 -0.27660570887E+03 -0.89841917224E+03 -0.18438193634E+02  0.94021683362E+03  0.25500000920E-02 0.  1.
</event>
<event>
 5   0  0.5009125E-06  0.2103186E+04  0.7818609E-02  0.8559841E-01
        3   -1    0    0  501    0  0.00000000000E+00  0.00000000000E+00  0.12164822451E+04  0.12164822492E+04  0.10100000352E+00 0. -1.
       -3   -1    0    0    0  501  0.00000000000E+00  0.00000000000E+00 -0.90905385752E+03  0.90905386313E+03  0.10100000352E+00 0.  1.
    10030    2    1    2    0    0  0.00000000000E+00  0.00000000000E+00  0.30742838753E+03  0.21255361124E+04  0.21031860478E+04 0.  0.
        3    1    3    3  502    0 -0.83890407637E+02 -0.84540938088E+03 -0.47262434780E+03  0.97217714749E+03  0.10100000352E+00 0. -1.
       -3    1    3    3    0  502  0.83890407637E+02  0.84540938088E+03  0.78005273533E+03  0.11533589649E+04  0.10100000352E+00 0.  1.
</event>
<event>
 5   0  0.5009125E-06  0.2101914E+04  0.7818609E-02  0.8560401E-01
        4   -1    0    0  501    0  0.00000000000E+00  0.00000000000E+00  0.11038409988E+04  0.11038417294E+04  0.12699999809E+01 0.  1.
       -4   -1    0    0    0  501  0.00000000000E+00  0.00000000000E+00 -0.10006054512E+04  0.10006062572E+04  0.12699999809E+01 0. -1.
    10030    2    1    2    0    0  0.00000000000E+00  0.00000000000E+00  0.10323554764E+03  0.21044479866E+04  0.21019143060E+04 0.  0.
        5    1    3    3  502    0  0.59603254040E+03  0.40715789016E+03 -0.71314622495E+03  0.10147078224E+04  0.46999998093E+01 0. -1.
       -5    1    3    3    0  502 -0.59603254040E+03 -0.40715789016E+03  0.81638177259E+03  0.10897401641E+04  0.46999998093E+01 0.  1.
</event>
<event>
 5   0  0.1390735E-05  0.2097855E+04  0.7818609E-02  0.8562189E-01
       -2   -1    0    0    0  501  0.00000000000E+00  0.00000000000E+00  0.45222715782E+03  0.45222715783E+03  0.25500000920E-02 0.  1.
        2   -1    0    0  501    0  0.00000000000E+00  0.00000000000E+00 -0.24329566086E+04  0.24329566086E+04  0.25500000920E-02 0. -1.
    10030    2    1    2    0    0  0.00000000000E+00  0.00000000000E+00 -0.19807294508E+04  0.28851837664E+04  0.20978551449E+04 0.  0.
        5    1    3    3  502    0 -0.33378304622E+03  0.31599522193E+03  0.30633611169E+03  0.55238392948E+03  0.46999998093E+01 0.  1.
       -5    1    3    3    0  502  0.33378304622E+03 -0.31599522193E+03 -0.22870655625E+04  0.23327998370E+04  0.46999998093E+01 0. -1.
</event>
<event>
 5   0  0.6283269E-06  0.2099730E+04  0.7818609E-02  0.8561362E-01
        1   -1    0    0  501    0  0.00000000000E+00  0.00000000000E+00  0.10667023327E+04  0.10667023328E+04  0.50400001928E-02 0.  1.
       -1   -1    0    0    0  501  0.00000000000E+00  0.00000000000E+00 -0.10332937606E+04  0.10332937606E+04  0.50400001928E-02 0. -1.
    10030    2    1    2    0    0  0.00000000000E+00  0.00000000000E+00  0.33408572110E+02  0.20999960934E+04  0.20997303302E+04 0.  0.
        1    1    3    3  502    0  0.10454949468E+03 -0.73104187650E+03  0.76303197314E+03  0.10618712794E+04  0.50400001928E-02 0.  1.
       -1    1    3    3    0  502 -0.10454949468E+03  0.73104187650E+03 -0.72962340103E+03  0.10381248140E+04  0.50400001928E-02 0. -1.
</event>
<event>
 5   0  0.1390735E-05  0.2054034E+04  0.7818609E-02  0.8581766E-01
       -2   -1    0    0    0  501  0.00000000000E+00  0.00000000000E+00  0.62315846862E+03  0.62315846862E+03  0.25500000920E-02 0. -1.
        2   -1    0    0  501    0  0.00000000000E+00  0.00000000000E+00 -0.16926100141E+04  0.16926100141E+04  0.25500000920E-02 0.  1.
    10030    2    1    2    0    0  0.00000000000E+00  0.00000000000E+00 -0.10694515454E+04  0.23157684827E+04  0.20540343369E+04 0.  0.
        5    1    3    3  502    0 -0.25069112911E+03  0.74497046858E+03  0.21049676922E+03  0.81373092673E+03  0.46999998093E+01 0. -1.
       -5    1    3    3    0  502  0.25069112911E+03 -0.74497046858E+03 -0.12799483147E+04  0.15020375559E+04  0.46999998093E+01 0.  1.
</event>
<event>
 5   0  0.6589193E-06  0.2099512E+04  0.7818609E-02  0.8561458E-01
        1   -1    0    0  501    0  0.00000000000E+00  0.00000000000E+00  0.13990814044E+04  0.13990814044E+04  0.50400001928E-02 0.  1.
       -1   -1    0    0    0  501  0.00000000000E+00  0.00000000000E+00 -0.78765070643E+03  0.78765070645E+03  0.50400001928E-02 0. -1.
    10030    2    1    2    0    0  0.00000000000E+00  0.00000000000E+00  0.61143069792E+03  0.21867321108E+04  0.20995118066E+04 0.  0.
        3    1    3    3  502    0 -0.11360682561E+03  0.41644837813E+03 -0.69093405255E+03  0.81469358513E+03  0.10100000352E+00 0. -1.
       -3    1    3    3    0  502  0.11360682561E+03 -0.41644837813E+03  0.13023647505E+04  0.13720385257E+04  0.10100000352E+00 0.  1.
</event>
<event>
 5   0  0.1441136E-05  0.2099525E+04  0.7818609E-02  0.8561453E-01
       -2   -1    0    0    0  501  0.00000000000E+00  0.00000000000E+00  0.15822754690E+04  0.15822754690E+04  0.25500000920E-02 0.  1.
        2   -1    0    0  501    0  0.00000000000E+00  0.00000000000E+00 -0.69646627586E+03  0.69646627587E+03  0.25500000920E-02 0. -1.
    10030    2    1    2    0    0  0.00000000000E+00  0.00000000000E+00  0.88580919312E+03  0.22787417449E+04  0.20995251875E+04 0.  0.
        4    1    3    3  502    0 -0.30781196402E+03 -0.62594182377E+03  0.12943756425E+04  0.14703609383E+04  0.12699999809E+01 0.  1.
       -4    1    3    3    0  502  0.30781196402E+03  0.62594182377E+03 -0.40856644942E+03  0.80838080657E+03  0.12699999809E+01 0. -1.
</event>
<event>
 5   0  0.6238363E-06  0.2095427E+04  0.7818609E-02  0.8563260E-01
        1   -1    0    0  501    0  0.00000000000E+00  0.00000000000E+00  0.95537061010E+03  0.95537061012E+03  0.50400001928E-02 0.  1.
       -1   -1    0    0    0  501  0.00000000000E+00  0.00000000000E+00 -0.11489820340E+04  0.11489820340E+04  0.50400001928E-02 0. -1.
    10030    2    1    2    0    0  0.00000000000E+00  0.00000000000E+00 -0.19361142385E+03  0.21043526441E+04  0.20954270847E+04 0.  0.
        4    1    3    3  502    0 -0.25049600600E+02 -0.19033320858E+03 -0.11311676120E+04  0.11473430142E+04  0.12699999809E+01 0. -1.
       -4    1    3    3    0  502  0.25049600600E+02  0.19033320858E+03  0.93755618819E+03  0.95700962989E+03  0.12699999809E+01 0.  1.
</event>
<event>
 5   0  0.1441136E-05  0.2102576E+04  0.7818609E-02  0.8560110E-01
        2   -1    0    0  501    0  0.00000000000E+00  0.00000000000E+00  0.22657354072E+04  0.22657354072E+04  0.25500000920E-02 0.  1.
       -2   -1    0    0    0  501  0.00000000000E+00  0.00000000000E+00 -0.48779131256E+03  0.48779131257E+03  0.25500000920E-02 0. -1.
    10030    2    1    2    0    0  0.00000000000E+00  0.00000000000E+00  0.17779440946E+04  0.27535267197E+04  0.21025756093E+04 0.  0.
        4    1    3    3  502    0 -0.22014522463E+02 -0.28535520479E+03 -0.43578886507E+03  0.52136913978E+03  0.12699999809E+01 0. -1.
       -4    1    3    3    0  502  0.22014522463E+02  0.28535520479E+03  0.22137329597E+04  0.22321575800E+04  0.12699999809E+01 0.  1.
</event>
<event>
 5   0  0.1398469E-05  0.2101221E+04  0.7818609E-02  0.8560706E-01
        2   -1    0    0  501    0  0.00000000000E+00  0.00000000000E+00  0.11390046015E+04  0.11390046015E+04  0.25500000920E-02 0.  1.
       -2   -1    0    0    0  501  0.00000000000E+00  0.00000000000E+00 -0.96907602893E+03  0.96907602893E+03  0.25500000920E-02 0. -1.
    10030    2    1    2    0    0  0.00000000000E+00  0.00000000000E+00  0.16992857257E+03  0.21080806304E+04  0.21012206511E+04 0.  0.
        2    1    3    3  502    0 -0.88463791016E+03 -0.19231307430E+03 -0.44989299573E+03  0.10109264356E+04  0.25500000920E-02 0. -1.
       -2    1    3    3    0  502  0.88463791016E+03  0.19231307430E+03  0.61982156830E+03  0.10971541948E+04  0.25500000920E-02 0.  1.
</event>
<event>
 5   0  0.6283269E-06  0.2100458E+04  0.7818609E-02  0.8561042E-01
        1   -1    0    0  501    0  0.00000000000E+00  0.00000000000E+00  0.85279494968E+03  0.85279494969E+03  0.50400001928E-02 0.  1.
       -1   -1    0    0    0  501  0.00000000000E+00  0.00000000000E+00 -0.12933714985E+04  0.12933714985E+04  0.50400001928E-02 0. -1.
    10030    2    1    2    0    0  0.00000000000E+00  0.00000000000E+00 -0.44057654880E+03  0.21461664482E+04  0.21004577425E+04 0.  0.
        1    1    3    3  502    0  0.74573137552E+03  0.14472581163E+03  0.52069640471E+03  0.92096991856E+03  0.50400001928E-02 0.  1.
       -1    1    3    3    0  502 -0.74573137552E+03 -0.14472581163E+03 -0.96127295352E+03  0.12251965296E+04  0.50400001928E-02 0. -1.
</event>
<event>
 5   0  0.5009125E-06  0.2098368E+04  0.7818609E-02  0.8561963E-01
       -3   -1    0    0    0  501  0.00000000000E+00  0.00000000000E+00  0.19789133495E+04  0.19789133521E+04  0.10100000352E+00 0. -1.
        3   -1    0    0  501    0  0.00000000000E+00  0.00000000000E+00 -0.55625823024E+03  0.55625823941E+03  0.10100000352E+00 0.  1.
    10030    2    1    2    0    0  0.00000000000E+00  0.00000000000E+00  0.14226551193E+04  0.25351715915E+04  0.20983677966E+04 0.  0.
        2    1    3    3  502    0  0.66702753802E+02 -0.48750867674E+03 -0.40821245721E+03  0.63933666991E+03  0.25500000920E-02 0.  1.
       -2    1    3    3    0  502 -0.66702753802E+02  0.48750867674E+03  0.18308675765E+04  0.18958349216E+04  0.25500000920E-02 0. -1.
</event>
<event>
 5   0  0.6283269E-06  0.2085784E+04  0.7818609E-02  0.8567532E-01
       -1   -1    0    0    0  501  0.00000000000E+00  0.00000000000E+00  0.77509149451E+03  0.77509149453E+03  0.50400001928E-02 0. -1.
        1   -1    0    0  501    0  0.00000000000E+00  0.00000000000E+00 -0.14032191205E+04  0.14032191205E+04  0.50400001928E-02 0.  1.
    10030    2    1    2    0    0  0.00000000000E+00  0.00000000000E+00 -0.62812762600E+03  0.21783106151E+04  0.20857835029E+04 0.  0.
        1    1    3    3  502    0  0.36353809202E+03 -0.65355125379E+03  0.44504645802E+03  0.87026176263E+03  0.50400001928E-02 0. -1.
       -1    1    3    3    0  502 -0.36353809202E+03  0.65355125379E+03 -0.10731740840E+04  0.13080488524E+04  0.50400001928E-02 0.  1.
</event>
<event>
 5   0  0.1390735E-05  0.2103881E+04  0.7818609E-02  0.8559536E-01
       -2   -1    0    0    0  501  0.00000000000E+00  0.00000000000E+00  0.38480383112E+03  0.38480383113E+03  0.25500000920E-02 0. -1.
        2   -1    0    0  501    0  0.00000000000E+00  0.00000000000E+00 -0.28756947201E+04  0.28756947201E+04  0.25500000920E-02 0.  1.
    10030    2    1    2    0    0  0.00000000000E+00  0.00000000000E+00 -0.24908908890E+04  0.32604985512E+04  0.21038805531E+04 0.  0.
        5    1    3    3  502    0  0.62759038568E+03 -0.44234506055E+02  0.61072012164E+02  0.63212203283E+03  0.46999998093E+01 0. -1.
       -5    1    3    3    0  502 -0.62759038568E+03  0.44234506055E+02 -0.25519629011E+04  0.26283765184E+04  0.46999998093E+01 0.  1.
</event>
<event>
 5   0  0.1344501E-05  0.2100222E+04  0.7818609E-02  0.8561146E-01
        2   -1    0    0  501    0  0.00000000000E+00  0.00000000000E+00  0.11982832844E+04  0.11982832844E+04  0.25500000920E-02 0.  1.
       -2   -1    0    0    0  501  0.00000000000E+00  0.00000000000E+00 -0.92026049676E+03  0.92026049676E+03  0.25500000920E-02 0. -1.
    10030    2    1    2    0    0  0.00000000000E+00  0.00000000000E+00  0.27802278766E+03  0.21185437812E+04  0.21002216746E+04 0.  0.
        3    1    3    3  502    0 -0.68524085318E+03  0.93224504383E+02 -0.65812746822E+03  0.95466099203E+03  0.10100000352E+00 0. -1.
       -3    1    3    3    0  502  0.68524085318E+03 -0.93224504383E+02  0.93615025588E+03  0.11638827891E+04  0.10100000352E+00 0.  1.
</event>
<event>
 5   0  0.1344501E-05  0.2165750E+04  0.7818609E-02  0.8532820E-01
       -2   -1    0    0    0  501  0.00000000000E+00  0.00000000000E+00  0.19291688670E+04  0.19291688670E+04  0.25500000920E-02 0.  1.
        2   -1    0    0  501    0  0.00000000000E+00  0.00000000000E+00 -0.60783609752E+03  0.60783609753E+03  0.25500000920E-02 0. -1.
    10030    2    1    2    0    0  0.00000000000E+00  0.00000000000E+00  0.13213327695E+04  0.25370049646E+04  0.21657501939E+04 0.  0.
        3    1    3    3  502    0  0.26629984214E+03  0.74889914345E+02  0.18870798967E+04  0.19072479262E+04  0.10100000352E+00 0.  1.
       -3    1    3    3    0  502 -0.26629984214E+03 -0.74889914345E+02 -0.56574712722E+03  0.62975703835E+03  0.10100000352E+00 0. -1.
</event>
<event>
 5   0  0.6599245E-06  0.2094885E+04  0.7818609E-02  0.8563500E-01
       -1   -1    0    0    0  501  0.00000000000E+00  0.00000000000E+00  0.69946731561E+03  0.69946731563E+03  0.50400001928E-02 0.  1.
        1   -1    0    0  501    0  0.00000000000E+00  0.00000000000E+00 -0.15685302431E+04  0.15685302431E+04  0.50400001928E-02 0. -1.
    10030    2    1    2    0    0  0.00000000000E+00  0.00000000000E+00 -0.86906292744E+03  0.22679975587E+04  0.20948848547E+04 0.  0.
        2    1    3    3  502    0 -0.97935384462E+03  0.37009929138E+03 -0.39981613722E+03  0.11206963826E+04  0.25500000920E-02 0.  1.
       -2    1    3    3    0  502  0.97935384462E+03 -0.37009929138E+03 -0.46924679022E+03  0.11473011761E+04  0.25500000920E-02 0. -1.
</event>
<event>
 5   0  0.1441136E-05  0.2098677E+04  0.7818609E-02  0.8561827E-01
       -2   -1    0    0    0  501  0.00000000000E+00  0.00000000000E+00  0.74719777235E+03  0.74719777235E+03  0.25500000920E-02 0. -1.
        2   -1    0    0  501    0  0.00000000000E+00  0.00000000000E+00 -0.14736538821E+04  0.14736538821E+04  0.25500000920E-02 0.  1.
    10030    2    1    2    0    0  0.00000000000E+00  0.00000000000E+00 -0.72645610977E+03  0.22208516545E+04  0.20986766287E+04 0.  0.
        4    1    3    3  502    0 -0.62951143144E+03 -0.42708362275E+03  0.40163850908E+03  0.86023262436E+03  0.12699999809E+01 0. -1.
       -4    1    3    3    0  502  0.62951143144E+03  0.42708362275E+03 -0.11280946188E+04  0.13606190301E+04  0.12699999809E+01 0.  1.
</event>
<event>
 5   0  0.6283269E-06  0.2091952E+04  0.7818609E-02  0.8564797E-01
       -1   -1    0    0    0  501  0.00000000000E+00  0.00000000000E+00  0.94544637082E+03  0.94544637084E+03  0.50400001928E-02 0.  1.
        1   -1    0    0  501    0  0.00000000000E+00  0.00000000000E+00 -0.11571949767E+04  0.11571949767E+04  0.50400001928E-02 0. -1.
    10030    2    1    2    0    0  0.00000000000E+00  0.00000000000E+00 -0.21174860583E+03  0.21026413475E+04  0.20919519985E+04 0.  0.
        1    1    3    3  502    0 -0.64715494096E+03  0.38391356613E+03  0.62438247474E+03  0.97777943252E+03  0.50400001928E-02 0.  1.
       -1    1    3    3    0  502  0.64715494096E+03 -0.38391356613E+03 -0.83613108056E+03  0.11248619150E+04  0.50400001928E-02 0. -1.
</event>
<event>
 5   0  0.1344501E-05  0.2105856E+04  0.7818609E-02  0.8558668E-01
       -2   -1    0    0    0  501  0.00000000000E+00  0.00000000000E+00  0.20006244273E+04  0.20006244273E+04  0.25500000920E-02 0.  1.
        2   -1    0    0  501    0  0.00000000000E+00  0.00000000000E+00 -0.55415573442E+03  0.55415573443E+03  0.25500000920E-02 0. -1.
    10030    2    1    2    0    0  0.00000000000E+00  0.00000000000E+00  0.14464686929E+04  0.25547801618E+04  0.21058561193E+04 0.  0.
        3    1    3    3  502    0  0.69742354239E+03 -0.48768429664E+03  0.14754266937E+04  0.17032673042E+04  0.10100000352E+00 0.  1.
       -3    1    3    3    0  502 -0.69742354239E+03  0.48768429664E+03 -0.28958000802E+02  0.85151285761E+03  0.10100000352E+00 0. -1.
</event>
<event>
 5   0  0.6283269E-06  0.2101599E+04  0.7818609E-02  0.8560539E-01
        1   -1    0    0  501    0  0.00000000000E+00  0.00000000000E+00  0.23447151955E+04  0.23447151955E+04  0.50400001928E-02 0. -1.
       -1   -1    0    0    0  501  0.00000000000E+00  0.00000000000E+00 -0.47092280623E+03  0.47092280626E+03  0.50400001928E-02 0.  1.
    10030    2    1    2    0    0  0.00000000000E+00  0.00000000000E+00  0.18737923893E+04  0.28156380018E+04  0.21015992574E+04 0.  0.
        1    1    3    3  502    0  0.60126295986E+03 -0.81647327837E+03  0.56746708579E+03  0.11619658578E+04  0.50400001928E-02 0.  1.
       -1    1    3    3    0  502 -0.60126295986E+03  0.81647327837E+03  0.13063253035E+04  0.16536721440E+04  0.50400001928E-02 0. -1.
</event>
<event>
 5   0  0.1390735E-05  0.2098059E+04  0.7818609E-02  0.8562099E-01
       -2   -1    0    0    0  501  0.00000000000E+00  0.00000000000E+00  0.65681233594E+03  0.65681233595E+03  0.25500000920E-02 0.  1.
        2   -1    0    0  501    0  0.00000000000E+00  0.00000000000E+00 -0.16754603491E+04  0.16754603491E+04  0.25500000920E-02 0. -1.
    10030    2    1    2    0    0  0.00000000000E+00  0.00000000000E+00 -0.10186480131E+04  0.23322726850E+04  0.20980591275E+04 0.  0.
        5    1    3    3  502    0 -0.10337706515E+04  0.89582000284E+02 -0.68058137921E+03  0.12409350500E+04  0.46999998093E+01 0.  1.
       -5    1    3    3    0  502  0.10337706515E+04 -0.89582000284E+02 -0.33806663391E+03  0.10913376350E+04  0.46999998093E+01 0. -1.
</event>
<event>
 5   0  0.5009125E-06  0.2100403E+04  0.7818609E-02  0.8561066E-01
       -3   -1    0    0    0  501  0.00000000000E+00  0.00000000000E+00  0.13057898008E+04  0.13057898047E+04  0.10100000352E+00 0. -1.
        3   -1    0    0  501    0  0.00000000000E+00  0.00000000000E+00 -0.84464049164E+03  0.84464049768E+03  0.10100000352E+00 0.  1.
    10030    2    1    2    0    0  0.00000000000E+00  0.00000000000E+00  0.46114930914E+03  0.21504303024E+04  0.21004027709E+04 0.  0.
        4    1    3    3  502    0 -0.23225476370E+03  0.15864625222E+03 -0.80536048084E+03  0.85306390476E+03  0.12699999809E+01 0.  1.
       -4    1    3    3    0  502  0.23225476370E+03 -0.15864625222E+03  0.12665097900E+04  0.12973663976E+04  0.12699999809E+01 0. -1.
</event>
<event>
 5   0  0.6238363E-06  0.2096864E+04  0.7818609E-02  0.8562626E-01
        1   -1    0    0  501    0  0.00000000000E+00  0.00000000000E+00  0.13725713850E+04  0.13725713850E+04  0.50400001928E-02 0.  1.
       -1   -1    0    0    0  501  0.00000000000E+00  0.00000000000E+00 -0.80084006875E+03  0.80084006877E+03  0.50400001928E-02 0. -1.
    10030    2    1    2    0    0  0.00000000000E+00  0.00000000000E+00  0.57173131622E+03  0.21734114538E+04  0.20968644804E+04 0.  0.
        4    1    3    3  502    0  0.59794050022E+03 -0.22748582883E+03 -0.57507420003E+03  0.86022938369E+03  0.12699999809E+01 0. -1.
       -4    1    3    3    0  502 -0.59794050022E+03  0.22748582883E+03  0.11468055163E+04  0.13131820701E+04  0.12699999809E+01 0.  1.
</event>
<event>
 5   0  0.1398469E-05  0.2095234E+04  0.7818609E-02  0.8563346E-01
       -2   -1    0    0    0  501  0.00000000000E+00  0.00000000000E+00  0.10530723586E+04  0.10530723586E+04  0.25500000920E-02 0.  1.
        2   -1    0    0  501    0  0.00000000000E+00  0.00000000000E+00 -0.10421902936E+04  0.10421902936E+04  0.25500000920E-02 0. -1.
    10030    2    1    2    0    0  0.00000000000E+00  0.00000000000E+00  0.10882065023E+02  0.20952626522E+04  0.20952343932E+04 0.  0.
        2    1    3    3  502    0  0.98889358419E+03  0.24253600202E+03 -0.24107305766E+03  0.10463510177E+04  0.25500000920E-02 0. -1.
       -2    1    3    3    0  502 -0.98889358419E+03 -0.24253600202E+03  0.25195512268E+03  0.10489116345E+04  0.25500000920E-02 0.  1.
</event>
<event>
 5   0  0.1344501E-05  0.2118034E+04  0.7818609E-02  0.8553341E-01
        2   -1    0    0  501    0  0.00000000000E+00  0.00000000000E+00  0.12029713234E+04  0.12029713234E+04  0.25500000920E-02 0.  1.
       -2   -1    0    0    0  501  0.00000000000E+00  0.00000000000E+00 -0.93228900213E+03  0.93228900213E+03  0.25500000920E-02 0. -1.
    10030    2    1    2    0    0  0.00000000000E+00  0.00000000000E+00  0.27068232129E+03  0.21352603256E+04  0.21180339324E+04 0.  0.
        3    1    3    3  502    0  0.93435117327E+03 -0.38721267101E+02 -0.36569746248E+03  0.10041145830E+04  0.10100000352E+00 0. -1.
       -3    1    3    3    0  502 -0.93435117327E+03  0.38721267101E+02  0.63637978376E+03  0.11311457426E+04  0.10100000352E+00 0.  1.
</event>
<event>
 5   0  0.6589193E-06  0.2098773E+04  0.7818609E-02  0.8561784E-01
        1   -1    0    0  501    0  0.00000000000E+00  0.00000000000E+00  0.14140193603E+04  0.14140193603E+04  0.50400001928E-02 0. -1.
       -1   -1    0    0    0  501  0.00000000000E+00  0.00000000000E+00 -0.77878133677E+03  0.77878133679E+03  0.50400001928E-02 0.  1.
    10030    2    1    2    0    0  0.00000000000E+00  0.00000000000E+00  0.63523802348E+03  0.21928006971E+04  0.20987728678E+04 0.  0.
        3    1    3    3  502    0 -0.37331180800E+03  0.72028839020E+03 -0.37780974148E+03  0.89493982033E+03  0.10100000352E+00 0.  1.
       -3    1    3    3    0  502  0.37331180800E+03 -0.72028839020E+03  0.10130477650E+04  0.12978608767E+04  0.10100000352E+00 0. -1.
</event>
<event>
 5   0  0.1390735E-05  0.2101727E+04  0.7818609E-02  0.8560483E-01
        2   -1    0    0  501    0  0.00000000000E+00  0.00000000000E+00  0.79353777214E+03  0.79353777214E+03  0.25500000920E-02 0. -1.
       -2   -1    0    0    0  501  0.00000000000E+00  0.00000000000E+00 -0.13916345669E+04  0.13916345669E+04  0.25500000920E-02 0.  1.
    10030    2    1    2    0    0  0.00000000000E+00  0.00000000000E+00 -0.59809679473E+03  0.21851723390E+04  0.21017274741E+04 0.  0.
        5    1    3    3  502    0  0.14730971112E+03 -0.10227983823E+04 -0.49761757468E+03  0.11469359278E+04  0.46999998093E+01 0.  1.
       -5    1    3    3    0  502 -0.14730971112E+03  0.10227983823E+04 -0.10047922005E+03  0.10382364112E+04  0.46999998093E+01 0. -1.
</event>
<event>
 5   0  0.1441136E-05  0.2099961E+04  0.7818609E-02  0.8561260E-01
       -2   -1    0    0    0  501  0.00000000000E+00  0.00000000000E+00  0.79911563335E+03  0.79911563335E+03  0.25500000920E-02 0.  1.
        2   -1    0    0  501    0  0.00000000000E+00  0.00000000000E+00 -0.13795993077E+04  0.13795993077E+04  0.25500000920E-02 0. -1.
    10030    2    1    2    0    0  0.00000000000E+00  0.00000000000E+00 -0.58048367437E+03  0.21787149411E+04  0.20999613087E+04 0.  0.
        4    1    3    3  502    0 -0.14091302277E+03  0.73880289936E+03  0.46988114990E+03  0.88683488431E+03  0.12699999809E+01 0.  1.
       -4    1    3    3    0  502  0.14091302277E+03 -0.73880289936E+03 -0.10503648243E+04  0.12918800568E+04  0.12699999809E+01 0. -1.
</event>
<event>
 5   0  0.1398469E-05  0.2096779E+04  0.7818609E-02  0.8562664E-01
       -2   -1    0    0    0  501  0.00000000000E+00  0.00000000000E+00  0.56737452573E+03  0.56737452574E+03  0.25500000920E-02 0.  1.
        2   -1    0    0  501    0  0.00000000000E+00  0.00000000000E+00 -0.19372039748E+04  0.19372039748E+04  0.25500000920E-02 0. -1.
    10030    2    1    2    0    0  0.00000000000E+00  0.00000000000E+00 -0.13698294491E+04  0.25045785005E+04  0.20967786592E+04 0.  0.
        2    1    3    3  502    0  0.87545420705E+03 -0.49168666534E+03 -0.10451364486E+04  0.14493053652E+04  0.25500000920E-02 0. -1.
       -2    1    3    3    0  502 -0.87545420705E+03  0.49168666534E+03 -0.32469300045E+03  0.10552731353E+04  0.25500000920E-02 0.  1.
</event>
<event>
 5   0  0.6599245E-06  0.2101031E+04  0.7818609E-02  0.8560790E-01
       -1   -1    0    0    0  501  0.00000000000E+00  0.00000000000E+00  0.66066091119E+03  0.66066091121E+03  0.50400001928E-02 0. -1.
        1   -1    0    0  501    0  0.00000000000E+00  0.00000000000E+00 -0.16704218140E+04  0.16704218140E+04  0.50400001928E-02 0.  1.
    10030    2    1    2    0    0  0.00000000000E+00  0.00000000000E+00 -0.10097609028E+04  0.23310827252E+04  0.21010306021E+04 0.  0.
        2    1    3    3  502    0 -0.62266691665E+03  0.72028865599E+03 -0.12368981158E+02  0.95219894389E+03  0.25500000920E-02 0. -1.
       -2    1    3    3    0  502  0.62266691665E+03 -0.72028865599E+03 -0.99739192168E+03  0.13788837814E+04  0.25500000920E-02 0.  1.
</event>
<event>
 5   0  0.1398469E-05  0.2100029E+04  0.7818609E-02  0.8561231E-01
       -2   -1    0    0    0  501  0.00000000000E+00  0.00000000000E+00  0.39140560044E+03  0.39140560045E+03  0.25500000920E-02 0. -1.
        2   -1    0    0  501    0  0.00000000000E+00  0.00000000000E+00 -0.28168488607E+04  0.28168488607E+04  0.25500000920E-02 0.  1.
    10030    2    1    2    0    0  0.00000000000E+00  0.00000000000E+00 -0.24254432603E+04  0.32082544612E+04  0.21000289709E+04 0.  0.
        2    1    3    3  502    0 -0.36180351106E+03 -0.46010223508E+03  0.11905571273E+03  0.59730236069E+03  0.25500000920E-02 0. -1.
       -2    1    3    3    0  502  0.36180351106E+03  0.46010223508E+03 -0.25444989730E+04  0.26109521005E+04  0.25500000920E-02 0.  1.
</event>
<event>
 5   0  0.1390735E-05  0.2100865E+04  0.7818609E-02  0.8560862E-01
       -2   -1    0    0    0  501  0.00000000000E+00  0.00000000000E+00  0.88220982510E+03  0.88220982510E+03  0.25500000920E-02 0. -1.
        2   -1    0    0  501    0  0.00000000000E+00  0.00000000000E+00 -0.12507328262E+04  0.12507328262E+04  0.25500000920E-02 0.  1.
    10030    2    1    2    0    0  0.00000000000E+00  0.00000000000E+00 -0.36852300108E+03  0.21329426513E+04  0.21008653339E+04 0.  0.
        5    1    3    3  502    0 -0.58237163300E+03 -0.83868465383E+03  0.66158225658E+02  0.10232046073E+04  0.46999998093E+01 0. -1.
       -5    1    3    3    0  502  0.58237163300E+03  0.83868465383E+03 -0.43468122674E+03  0.11097380440E+04  0.46999998093E+01 0.  1.
</event>
<event>
 5   0  0.1441136E-05  0.2132613E+04  0.7818609E-02  0.8547012E-01
       -2   -1    0    0    0  501  0.00000000000E+00  0.00000000000E+00  0.78829411328E+03  0.78829411328E+03  0.25500000920E-02 0. -1.
        2   -1    0    0  501    0  0.00000000000E+00  0.00000000000E+00 -0.14423665355E+04  0.14423665355E+04  0.25500000920E-02 0.  1.
    10030    2    1    2    0    0  0.00000000000E+00  0.00000000000E+00 -0.65407242222E+03  0.22306606488E+04  0.21326125284E+04 0.  0.
        4    1    3    3  502    0  0.41043774581E+03  0.70781539260E+03  0.38817376917E+03  0.90561706099E+03  0.12699999809E+01 0. -1.
       -4    1    3    3    0  502 -0.41043774581E+03 -0.70781539260E+03 -0.10422461914E+04  0.13250435878E+04  0.12699999809E+01 0.  1.
</event>
<event>
 5   0  0.1398469E-05  0.2100605E+04  0.7818609E-02  0.8560977E-01
       -2   -1    0    0    0  501  0.00000000000E+00  0.00000000000E+00  0.61333537909E+03  0.61333537910E+03  0.25500000920E-02 0.  1.
        2   -1    0    0  501    0  0.00000000000E+00  0.00000000000E+00 -0.17985848256E+04  0.17985848256E+04  0.25500000920E-02 0. -1.
    10030    2    1    2    0    0  0.00000000000E+00  0.00000000000E+00 -0.11852494465E+04  0.24119202047E+04  0.21006053469E+04 0.  0.
        2    1    3    3  502    0 -0.64377292331E+03 -0.73473035965E+03 -0.14961579761E+03  0.98825966480E+03  0.25500000920E-02 0. -1.
       -2    1    3    3    0  502  0.64377292331E+03  0.73473035965E+03 -0.10356336489E+04  0.14236605399E+04  0.25500000920E-02 0.  1.
</event>
<event>
 5   0  0.1390735E-05  0.2078308E+04  0.7818609E-02  0.8570860E-01
        2   -1    0    0  501    0  0.00000000000E+00  0.00000000000E+00  0.16345848933E+04  0.16345848933E+04  0.25500000920E-02 0. -1.
       -2   -1    0    0    0  501  0.00000000000E+00  0.00000000000E+00 -0.66062086163E+03  0.66062086164E+03  0.25500000920E-02 0.  1.
    10030    2    1    2    0    0  0.00000000000E+00  0.00000000000E+00  0.97396403163E+03  0.22952057549E+04  0.20783078507E+04 0.  0.
        5    1    3    3  502    0  0.18702580551E+03 -0.71706511289E+03  0.12914689718E+04  0.14889846282E+04  0.46999998093E+01 0. -1.
       -5    1    3    3    0  502 -0.18702580551E+03  0.71706511289E+03 -0.31750494015E+03  0.80622112666E+03  0.46999998093E+01 0.  1.
</event>
<event>
 5   0  0.6283269E-06  0.2101462E+04  0.7818609E-02  0.8560599E-01
        1   -1    0    0  501    0  0.00000000000E+00  0.00000000000E+00  0.84074520300E+03  0.84074520302E+03  0.50400001928E-02 0.  1.
       -1   -1    0    0    0  501  0.00000000000E+00  0.00000000000E+00 -0.13131636235E+04  0.13131636235E+04  0.50400001928E-02 0. -1.
    10030    2    1    2    0    0  0.00000000000E+00  0.00000000000E+00 -0.47241842054E+03  0.21539088266E+04  0.21014623644E+04 0.  0.
        1    1    3    3  502    0 -0.48917220087E+03 -0.16562730144E+01  0.71691485675E+03  0.86790500471E+03  0.50400001928E-02 0.  1.
       -1    1    3    3    0  502  0.48917220087E+03  0.16562730144E+01 -0.11893332773E+04  0.12860038219E+04  0.50400001928E-02 0. -1.
</event>
<event>
 5   0  0.1344501E-05  0.2098864E+04  0.7818609E-02  0.8561744E-01
       -2   -1    0    0    0  501  0.00000000000E+00  0.00000000000E+00  0.79248730427E+03  0.79248730427E+03  0.25500000920E-02 0.  1.
        2   -1    0    0  501    0  0.00000000000E+00  0.00000000000E+00 -0.13896846493E+04  0.13896846493E+04  0.25500000920E-02 0. -1.
    10030    2    1    2    0    0  0.00000000000E+00  0.00000000000E+00 -0.59719734498E+03  0.21821719535E+04  0.20988639227E+04 0.  0.
        3    1    3    3  502    0  0.37684124800E+03 -0.79513640344E+03 -0.89318632159E+03  0.12538074180E+04  0.10100000352E+00 0. -1.
       -3    1    3    3    0  502 -0.37684124800E+03  0.79513640344E+03  0.29598897661E+03  0.92836453548E+03  0.10100000352E+00 0.  1.
</event>
<event>
 5   0  0.6283269E-06  0.2092260E+04  0.7818609E-02  0.8564661E-01
        1   -1    0    0  501    0  0.00000000000E+00  0.00000000000E+00  0.12011812859E+04  0.12011812860E+04  0.50400001928E-02 0.  1.
       -1   -1    0    0    0  501  0.00000000000E+00  0.00000000000E+00 -0.91109281049E+03  0.91109281050E+03  0.50400001928E-02 0. -1.
    10030    2    1    2    0    0  0.00000000000E+00  0.00000000000E+00  0.29008847545E+03  0.21122740965E+04  0.20922596720E+04 0.  0.
        1    1    3    3  502    0 -0.51926880302E+03  0.59390466477E+03 -0.54856855463E+03  0.96087996117E+03  0.50400001928E-02 0. -1.
       -1    1    3    3    0  502  0.51926880302E+03 -0.59390466477E+03  0.83865703008E+03  0.11513941353E+04  0.50400001928E-02 0.  1.
</event>
<event>
 5   0  0.1398469E-05  0.2089248E+04  0.7818609E-02  0.8565995E-01
       -2   -1    0    0    0  501  0.00000000000E+00  0.00000000000E+00  0.57946775348E+03  0.57946775349E+03  0.25500000920E-02 0. -1.
        2   -1    0    0  501    0  0.00000000000E+00  0.00000000000E+00 -0.18831750550E+04  0.18831750550E+04  0.25500000920E-02 0.  1.
    10030    2    1    2    0    0  0.00000000000E+00  0.00000000000E+00 -0.13037073015E+04  0.24626428085E+04  0.20892479207E+04 0.  0.
        2    1    3    3  502    0  0.81138569391E+03  0.26747784155E+03  0.56702579101E+02  0.85621628253E+03  0.25500000920E-02 0. -1.
       -2    1    3    3    0  502 -0.81138569391E+03 -0.26747784155E+03 -0.13604098806E+04  0.16064265259E+04  0.25500000920E-02 0.  1.
</event>
<event>
 5   0  0.1390735E-05  0.2092011E+04  0.7818609E-02  0.8564771E-01
        2   -1    0    0  501    0  0.00000000000E+00  0.00000000000E+00  0.12230365604E+04  0.12230365604E+04  0.25500000920E-02 0.  1.
       -2   -1    0    0    0  501  0.00000000000E+00  0.00000000000E+00 -0.89459892051E+03  0.89459892052E+03  0.25500000920E-02 0. -1.
    10030    2    1    2    0    0  0.00000000000E+00  0.00000000000E+00  0.32843763990E+03  0.21176354809E+04  0.20920106947E+04 0.  0.
        5    1    3    3  502    0 -0.79684595933E+03  0.17664566259E+03  0.82640130932E+03  0.11615198608E+04  0.46999998093E+01 0.  1.
       -5    1    3    3    0  502  0.79684595933E+03 -0.17664566259E+03 -0.49796366941E+03  0.95611562013E+03  0.46999998093E+01 0. -1.
</event>
<event>
 5   0  0.6283269E-06  0.2100166E+04  0.7818609E-02  0.8561170E-01
        1   -1    0    0  501    0  0.00000000000E+00  0.00000000000E+00  0.13958061156E+04  0.13958061156E+04  0.50400001928E-02 0.  1.
       -1   -1    0    0    0  501  0.00000000000E+00  0.00000000000E+00 -0.78999094480E+03  0.78999094482E+03  0.50400001928E-02 0. -1.
    10030    2    1    2    0    0  0.00000000000E+00  0.00000000000E+00  0.60581517077E+03  0.21857970604E+04  0.21001658906E+04 0.  0.
        1    1    3    3  502    0  0.46636429150E+03 -0.88780103064E+03  0.62703438928E+03  0.11827334644E+04  0.50400001928E-02 0.  1.
       -1    1    3    3    0  502 -0.46636429150E+03  0.88780103064E+03 -0.21219218510E+02  0.10030635960E+04  0.50400001928E-02 0. -1.
</event>
<event>
 5   0  0.6238363E-06  0.2098516E+04  0.7818609E-02  0.8561897E-01
       -1   -1    0    0    0  501  0.00000000000E+00  0.00000000000E+00  0.54234731994E+03  0.54234731996E+03  0.50400001928E-02 0. -1.
        1   -1    0    0  501    0  0.00000000000E+00  0.00000000000E+00 -0.20299577571E+04  0.20299577572E+04  0.50400001928E-02 0.  1.
    10030    2    1    2    0    0  0.00000000000E+00  0.00000000000E+00 -0.14876104372E+04  0.25723050771E+04  0.20985158081E+04 0.  0.
        4    1    3    3  502    0 -0.52349312185E+03 -0.10908823006E+03 -0.18503978334E+04  0.19261150135E+04  0.12699999809E+01 0.  1.
       -4    1    3    3    0  502  0.52349312185E+03  0.10908823006E+03  0.36278739618E+03  0.64619006360E+03  0.12699999809E+01 0. -1.
</event>
<event>
 5   0  0.6589193E-06  0.2099872E+04  0.7818609E-02  0.8561300E-01
        1   -1    0    0  501    0  0.00000000000E+00  0.00000000000E+00  0.12759503598E+04  0.12759503598E+04  0.50400001928E-02 0. -1.
       -1   -1    0    0    0  501  0.00000000000E+00  0.00000000000E+00 -0.86395685650E+03  0.86395685651E+03  0.50400001928E-02 0.  1.
    10030    2    1    2    0    0  0.00000000000E+00  0.00000000000E+00  0.41199350327E+03  0.21399072163E+04  0.20998724360E+04 0.  0.
        3    1    3    3  502    0  0.95793742096E+03  0.21102673267E+03 -0.17556078215E+03  0.99649284132E+03  0.10100000352E+00 0.  1.
       -3    1    3    3    0  502 -0.95793742096E+03 -0.21102673267E+03  0.58755428542E+03  0.11434143750E+04  0.10100000352E+00 0. -1.
</event>
<event>
 5   0  0.5009125E-06  0.2099956E+04  0.7818609E-02  0.8561263E-01
       -3   -1    0    0    0  501  0.00000000000E+00  0.00000000000E+00  0.81172234725E+03  0.81172235354E+03  0.10100000352E+00 0.  1.
        3   -1    0    0  501    0  0.00000000000E+00  0.00000000000E+00 -0.13581664370E+04  0.13581664408E+04  0.10100000352E+00 0. -1.
    10030    2    1    2    0    0  0.00000000000E+00  0.00000000000E+00 -0.54644408980E+03  0.21698887943E+04  0.20999562463E+04 0.  0.
        4    1    3    3  502    0  0.87724324212E+03 -0.19364064252E+03  0.28838494864E+03  0.94351465054E+03  0.12699999809E+01 0.  1.
       -4    1    3    3    0  502 -0.87724324212E+03  0.19364064252E+03 -0.83482903844E+03  0.12263741438E+04  0.12699999809E+01 0. -1.
</event>
<event>
 5   0  0.6917078E-06  0.2096427E+04  0.7818609E-02  0.8562819E-01
        1   -1    0    0  501    0  0.00000000000E+00  0.00000000000E+00  0.10400433386E+04  0.10400433386E+04  0.50400001928E-02 0. -1.
       -1   -1    0    0    0  501  0.00000000000E+00  0.00000000000E+00 -0.10564478532E+04  0.10564478532E+04  0.50400001928E-02 0.  1.
    10030    2    1    2    0    0  0.00000000000E+00  0.00000000000E+00 -0.16404514609E+02  0.20964911918E+04  0.20964270102E+04 0.  0.
        5    1    3    3  502    0 -0.10283908767E+04 -0.10743445151E+03 -0.18025259305E+03  0.10495918464E+04  0.46999998093E+01 0. -1.
       -5    1    3    3    0  502  0.10283908767E+04  0.10743445151E+03  0.16384807844E+03  0.10468993454E+04  0.46999998093E+01 0.  1.
</event>
<event>
 5   0  0.6589193E-06  0.2100528E+04  0.7818609E-02  0.8561011E-01
        1   -1    0    0  501    0  0.00000000000E+00  0.00000000000E+00  0.21305402657E+04  0.21305402657E+04  0.50400001928E-02 0.  1.
       -1   -1    0    0    0  501  0.00000000000E+00  0.00000000000E+00 -0.51773466433E+03  0.51773466435E+03  0.50400001928E-02 0. -1.
    10030    2    1    2    0    0  0.00000000000E+00  0.00000000000E+00  0.16128056014E+04  0.26482749301E+04  0.21005280758E+04 0.  0.
        3    1    3    3  502    0  0.91668575241E+03  0.49345013786E+03  0.98132125883E+03  0.14306632135E+04  0.10100000352E+00 0.  1.
       -3    1    3    3    0  502 -0.91668575241E+03 -0.49345013786E+03  0.63148434254E+03  0.12176117166E+04  0.10100000352E+00 0. -1.
</event>
<event>
 5   0  0.1390735E-05  0.2095784E+04  0.7818609E-02  0.8563103E-01
        2   -1    0    0  501    0  0.00000000000E+00  0.00000000000E+00  0.15275051069E+04  0.15275051069E+04  0.25500000920E-02 0.  1.
       -2   -1    0    0    0  501  0.00000000000E+00  0.00000000000E+00 -0.71887001600E+03  0.71887001601E+03  0.25500000920E-02 0. -1.
    10030    2    1    2    0    0  0.00000000000E+00  0.00000000000E+00  0.80863509090E+03  0.22463751229E+04  0.20957839780E+04 0.  0.
        5    1    3    3  502    0 -0.13994968042E+03 -0.32308619281E+03  0.14621921150E+04  0.15039941730E+04  0.46999998093E+01 0.  1.
       -5    1    3    3    0  502  0.13994968042E+03  0.32308619281E+03 -0.65355702414E+03  0.74238094994E+03  0.46999998093E+01 0. -1.
</event>
<event>
 5   0  0.6917078E-06  0.2098730E+04  0.7818609E-02  0.8561803E-01
        1   -1    0    0  501    0  0.00000000000E+00  0.00000000000E+00  0.11887856006E+04  0.11887856006E+04  0.50400001928E-02 0.  1.
       -1   -1    0    0    0  501  0.00000000000E+00  0.00000000000E+00 -0.92629524992E+03  0.92629524993E+03  0.50400001928E-02 0. -1.
    10030    2    1    2    0    0  0.00000000000E+00  0.00000000000E+00  0.26249035067E+03  0.21150808505E+04  0.20987295729E+04 0.  0.
        5    1    3    3  502    0 -0.10021476497E+04 -0.25527372012E+03  0.31062003594E+03  0.10798015932E+04  0.46999998093E+01 0.  1.
       -5    1    3    3    0  502  0.10021476497E+04  0.25527372012E+03 -0.48129685266E+02  0.10352792573E+04  0.46999998093E+01 0. -1.
</event>
<event>
 5   0  0.1390735E-05  0.2100282E+04  0.7818609E-02  0.8561119E-01
       -2   -1    0    0    0  501  0.00000000000E+00  0.00000000000E+00  0.76415645964E+03  0.76415645965E+03  0.25500000920E-02 0.  1.
        2   -1    0    0  501    0  0.00000000000E+00  0.00000000000E+00 -0.14431543717E+04  0.14431543717E+04  0.25500000920E-02 0. -1.
    10030    2    1    2    0    0  0.00000000000E+00  0.00000000000E+00 -0.67899791202E+03  0.22073108313E+04  0.21002816339E+04 0.  0.
        5    1    3    3  502    0 -0.64084893853E+03  0.69419849016E+03  0.14231149796E+03  0.95544416802E+03  0.46999998093E+01 0.  1.
       -5    1    3    3    0  502  0.64084893853E+03 -0.69419849016E+03 -0.82130940998E+03  0.12518666633E+04  0.46999998093E+01 0. -1.
</event>
<event>
 5   0  0.6238363E-06  0.2101502E+04  0.7818609E-02  0.8560582E-01
       -1   -1    0    0    0  501  0.00000000000E+00  0.00000000000E+00  0.67038164230E+03  0.67038164232E+03  0.50400001928E-02 0.  1.
        1   -1    0    0  501    0  0.00000000000E+00  0.00000000000E+00 -0.16469387334E+04  0.16469387334E+04  0.50400001928E-02 0. -1.
    10030    2    1    2    0    0  0.00000000000E+00  0.00000000000E+00 -0.97655709110E+03  0.23173203757E+04  0.21015018371E+04 0.  0.
        4    1    3    3  502    0  0.18888915928E+03 -0.94480478486E+02  0.64673404758E+03  0.68034712942E+03  0.12699999809E+01 0.  1.
       -4    1    3    3    0  502 -0.18888915928E+03  0.94480478486E+02 -0.16232911387E+04  0.16369732463E+04  0.12699999809E+01 0. -1.
</event>
<event>
 5   0  0.6917078E-06  0.2102193E+04  0.7818609E-02  0.8560278E-01
       -1   -1    0    0    0  501  0.00000000000E+00  0.00000000000E+00  0.15341038451E+04  0.15341038451E+04  0.50400001928E-02 0.  1.
        1   -1    0    0  501    0  0.00000000000E+00  0.00000000000E+00 -0.72016213917E+03  0.72016213919E+03  0.50400001928E-02 0. -1.
    10030    2    1    2    0    0  0.00000000000E+00  0.00000000000E+00  0.81394170596E+03  0.22542659843E+04  0.21021926713E+04 0.  0.
        5    1    3    3  502    0  0.19801330727E+03  0.97475656317E+03  0.77128542429E+03  0.12586750665E+04  0.46999998093E+01 0.  1.
       -5    1    3    3    0  502 -0.19801330727E+03 -0.97475656317E+03  0.42656281670E+02  0.99559091783E+03  0.46999998093E+01 0. -1.
</event>
<event>
 5   0  0.1344501E-05  0.2097170E+04  0.7818609E-02  0.8562491E-01
       -2   -1    0    0    0  501  0.00000000000E+00  0.00000000000E+00  0.44774878572E+03  0.44774878573E+03  0.25500000920E-02 0.  1.
        2   -1    0    0  501    0  0.00000000000E+00  0.00000000000E+00 -0.24556859086E+04  0.24556859086E+04  0.25500000920E-02 0. -1.
    10030    2    1    2    0    0  0.00000000000E+00  0.00000000000E+00 -0.20079371229E+04  0.29034346943E+04  0.20971698870E+04 0.  0.
        3    1    3    3  502    0  0.51629609751E+03 -0.89368452844E+03 -0.74757656180E+03  0.12744035556E+04  0.10100000352E+00 0.  1.
       -3    1    3    3    0  502 -0.51629609751E+03  0.89368452844E+03 -0.12603605611E+04  0.16290311387E+04  0.10100000352E+00 0. -1.
</event>
<event>
 5   0  0.1390735E-05  0.2104206E+04  0.7818609E-02  0.8559393E-01
       -2   -1    0    0    0  501  0.00000000000E+00  0.00000000000E+00  0.96336200682E+03  0.96336200683E+03  0.25500000920E-02 0.  1.
        2   -1    0    0  501    0  0.00000000000E+00  0.00000000000E+00 -0.11490185411E+04  0.11490185412E+04  0.25500000920E-02 0. -1.
    10030    2    1    2    0    0  0.00000000000E+00  0.00000000000E+00 -0.18565653432E+03  0.21123805480E+04  0.21042060809E+04 0.  0.
        5    1    3    3  502    0 -0.87326131434E+02 -0.10239153472E+04 -0.31924875561E+03  0.10760903073E+04  0.46999998093E+01 0. -1.
       -5    1    3    3    0  502  0.87326131434E+02  0.10239153472E+04  0.13359222129E+03  0.10362902407E+04  0.46999998093E+01 0.  1.
</event>
<event>
 5   0  0.5009125E-06  0.2098165E+04  0.7818609E-02  0.8562052E-01
        3   -1    0    0  501    0  0.00000000000E+00  0.00000000000E+00  0.11699165578E+04  0.11699165622E+04  0.10100000352E+00 0.  1.
       -3   -1    0    0    0  501  0.00000000000E+00  0.00000000000E+00 -0.94072851514E+03  0.94072852057E+03  0.10100000352E+00 0. -1.
    10030    2    1    2    0    0  0.00000000000E+00  0.00000000000E+00  0.22918804265E+03  0.21106450827E+04  0.20981647948E+04 0.  0.
        2    1    3    3  502    0 -0.80380355738E+03 -0.32527141456E+03 -0.47940303245E+03  0.99082234509E+03  0.25500000920E-02 0. -1.
       -2    1    3    3    0  502  0.80380355738E+03  0.32527141456E+03  0.70859107510E+03  0.11198227376E+04  0.25500000920E-02 0.  1.
</event>
<event>
 5   0  0.1441136E-05  0.2100322E+04  0.7818609E-02  0.8561102E-01
        2   -1    0    0  501    0  0.00000000000E+00  0.00000000000E+00  0.20610507572E+04  0.20610507572E+04  0.25500000920E-02 0. -1.
       -2   -1    0    0    0  501  0.00000000000E+00  0.00000000000E+00 -0.53508541586E+03  0.53508541587E+03  0.25500000920E-02 0.  1.
    10030    2    1    2    0    0  0.00000000000E+00  0.00000000000E+00  0.15259653413E+04  0.25961361730E+04  0.21003220720E+04 0.  0.
        4    1    3    3  502    0  0.79259509528E+03  0.17771468120E+03 -0.59764730332E+02  0.81447095029E+03  0.12699999809E+01 0.  1.
       -4    1    3    3    0  502 -0.79259509528E+03 -0.17771468120E+03  0.15857300716E+04  0.17816652227E+04  0.12699999809E+01 0. -1.
</event>
<event>
 5   0  0.6283269E-06  0.2096412E+04  0.7818609E-02  0.8562826E-01
        1   -1    0    0  501    0  0.00000000000E+00  0.00000000000E+00  0.10551152342E+04  0.10551152342E+04  0.50400001928E-02 0.  1.
       -1   -1    0    0    0  501  0.00000000000E+00  0.00000000000E+00 -0.10413415525E+04  0.10413415525E+04  0.50400001928E-02 0. -1.
    10030    2    1    2    0    0  0.00000000000E+00  0.00000000000E+00  0.13773681717E+02  0.20964567867E+04  0.20964115398E+04 0.  0.
        1    1    3    3  502    0 -0.44978375300E+03  0.31254857841E+03  0.90063052707E+03  0.10541002726E+04  0.50400001928E-02 0.  1.
       -1    1    3    3    0  502  0.44978375300E+03 -0.31254857841E+03 -0.88685684535E+03  0.10423565141E+04  0.50400001928E-02 0. -1.
</event>
<event>
 5   0  0.6599245E-06  0.2097611E+04  0.7818609E-02  0.8562296E-01
        1   -1    0    0  501    0  0.00000000000E+00  0.00000000000E+00  0.21610917820E+04  0.21610917820E+04  0.50400001928E-02 0. -1.
       -1   -1    0    0    0  501  0.00000000000E+00  0.00000000000E+00 -0.50899896063E+03  0.50899896066E+03  0.50400001928E-02 0.  1.
    10030    2    1    2    0    0  0.00000000000E+00  0.00000000000E+00  0.16520928214E+04  0.26700907427E+04  0.20976114711E+04 0.  0.
        2    1    3    3  502    0 -0.23068854975E+03  0.79577669859E+03  0.74930828710E+01  0.82857341696E+03  0.25500000920E-02 0.  1.
       -2    1    3    3    0  502  0.23068854975E+03 -0.79577669859E+03  0.16445997385E+04  0.18415173257E+04  0.25500000920E-02 0. -1.
</event>
<event>
 5   0  0.6238363E-06  0.2101264E+04  0.7818609E-02  0.8560687E-01
       -1   -1    0    0    0  501  0.00000000000E+00  0.00000000000E+00  0.99430920759E+03  0.99430920760E+03  0.50400001928E-02 0.  1.
        1   -1    0    0  501    0  0.00000000000E+00  0.00000000000E+00 -0.11101447706E+04  0.11101447707E+04  0.50400001928E-02 0. -1.
    10030    2    1    2    0    0  0.00000000000E+00  0.00000000000E+00 -0.11583556305E+03  0.21044539783E+04  0.21012635886E+04 0.  0.
        4    1    3    3  502    0 -0.97752078235E+02  0.93262464513E+03 -0.53243178889E+03  0.10783456868E+04  0.12699999809E+01 0. -1.
       -4    1    3    3    0  502  0.97752078235E+02 -0.93262464513E+03  0.41659622584E+03  0.10261082915E+04  0.12699999809E+01 0.  1.
</event>
<event>
 5   0  0.6238363E-06  0.2093676E+04  0.7818609E-02  0.8564034E-01
       -1   -1    0    0    0  501  0.00000000000E+00  0.00000000000E+00  0.13661266351E+04  0.13661266351E+04  0.50400001928E-02 0.  1.
        1   -1    0    0  501    0  0.00000000000E+00  0.00000000000E+00 -0.80217330198E+03  0.80217330200E+03  0.50400001928E-02 0. -1.
    10030    2    1    2    0    0  0.00000000000E+00  0.00000000000E+00  0.56395333307E+03  0.21682999371E+04  0.20936764925E+04 0.  0.
        4    1    3    3  502    0  0.82188586807E+03  0.53231467237E+01 -0.38947104634E+03  0.90951307020E+03  0.12699999809E+01 0. -1.
       -4    1    3    3    0  502 -0.82188586807E+03 -0.53231467237E+01  0.95342437942E+03  0.12587868669E+04  0.12699999809E+01 0.  1.
</event>
<event>
 5   0  0.6283269E-06  0.2097697E+04  0.7818609E-02  0.8562258E-01
       -1   -1    0    0    0  501  0.00000000000E+00  0.00000000000E+00  0.99988042535E+03  0.99988042536E+03  0.50400001928E-02 0. -1.
        1   -1    0    0  501    0  0.00000000000E+00  0.00000000000E+00 -0.11002150579E+04  0.11002150579E+04  0.50400001928E-02 0.  1.
    10030    2    1    2    0    0  0.00000000000E+00  0.00000000000E+00 -0.10033463251E+03  0.21000954832E+04  0.20976973090E+04 0.  0.
        1    1    3    3  502    0 -0.86595163124E+03 -0.10481314186E+03 -0.63326383845E+03  0.10779058918E+04  0.50400001928E-02 0.  1.
       -1    1    3    3    0  502  0.86595163124E+03  0.10481314186E+03  0.53292920594E+03  0.10221895915E+04  0.50400001928E-02 0. -1.
</event>
<event>
 5   0  0.6917078E-06  0.2104068E+04  0.7818609E-02  0.8559454E-01
        1   -1    0    0  501    0  0.00000000000E+00  0.00000000000E+00  0.97137611769E+03  0.97137611770E+03  0.50400001928E-02 0. -1.
       -1   -1    0    0    0  501  0.00000000000E+00  0.00000000000E+00 -0.11393888324E+04  0.11393888324E+04  0.50400001928E-02 0.  1.
    10030    2    1    2    0    0  0.00000000000E+00  0.00000000000E+00 -0.16801271470E+03  0.21107649501E+04  0.21040675850E+04 0.  0.
        5    1    3    3  502    0 -0.37259298741E+03 -0.97230539801E+03  0.66637167664E+02  0.10433915484E+04  0.46999998093E+01 0. -1.
       -5    1    3    3    0  502  0.37259298741E+03  0.97230539801E+03 -0.23464988237E+03  0.10673734017E+04  0.46999998093E+01 0.  1.
</event>
<event>
 5   0  0.1441136E-05  0.2101932E+04  0.7818609E-02  0.8560393E-01
       -2   -1    0    0    0  501  0.00000000000E+00  0.00000000000E+00  0.14953000668E+04  0.14953000668E+04  0.25500000920E-02 0.  1.
        2   -1    0    0  501    0  0.00000000000E+00  0.00000000000E+00 -0.73866775650E+03  0.73866775651E+03  0.25500000920E-02 0. -1.
    10030    2    1    2    0    0  0.00000000000E+00  0.00000000000E+00  0.75663231025E+03  0.22339678233E+04  0.21019323925E+04 0.  0.
        4    1    3    3  502    0  0.97771043267E+03  0.31719325930E+03  0.61116528629E+03  0.11958485999E+04  0.12699999809E+01 0.  1.
       -4    1    3    3    0  502 -0.97771043267E+03 -0.31719325930E+03  0.14546702396E+03  0.10381192233E+04  0.12699999809E+01 0. -1.
</event>
<event>
 5   0  0.6917078E-06  0.2098087E+04  0.7818609E-02  0.8562086E-01
       -1   -1    0    0    0  501  0.00000000000E+00  0.00000000000E+00  0.76258644958E+03  0.76258644960E+03  0.50400001928E-02 0. -1.
        1   -1    0    0  501    0  0.00000000000E+00  0.00000000000E+00 -0.14431053591E+04  0.14431053592E+04  0.50400001928E-02 0.  1.
    10030    2    1    2    0    0  0.00000000000E+00  0.00000000000E+00 -0.68051890956E+03  0.22056918087E+04  0.20980873120E+04 0.  0.
        5    1    3    3  502    0  0.39909494385E+03 -0.42654791489E+03 -0.12562982061E+04  0.13854700179E+04  0.46999998093E+01 0.  1.
       -5    1    3    3    0  502 -0.39909494385E+03  0.42654791489E+03  0.57577929652E+03  0.82022179086E+03  0.46999998093E+01 0. -1.
</event>
<event>
 5   0  0.1441136E-05  0.2105654E+04  0.7818609E-02  0.8558757E-01
        2   -1    0    0  501    0  0.00000000000E+00  0.00000000000E+00  0.17349163588E+04  0.17349163588E+04  0.25500000920E-02 0. -1.
       -2   -1    0    0    0  501  0.00000000000E+00  0.00000000000E+00 -0.63890372885E+03  0.63890372886E+03  0.25500000920E-02 0.  1.
    10030    2    1    2    0    0  0.00000000000E+00  0.00000000000E+00  0.10960126299E+04  0.23738200876E+04  0.21056538470E+04 0.  0.
        4    1    3    3  502    0 -0.75230494664E+03  0.80697518088E+02 -0.27732874034E+03  0.80584593148E+03  0.12699999809E+01 0.  1.
       -4    1    3    3    0  502  0.75230494664E+03 -0.80697518088E+02  0.13733413703E+04  0.15679741562E+04  0.12699999809E+01 0. -1.
</event>
<event>
 5   0  0.6283269E-06  0.2098618E+04  0.7818609E-02  0.8561852E-01
        1   -1    0    0  501    0  0.00000000000E+00  0.00000000000E+00  0.83628544022E+03  0.83628544024E+03  0.50400001928E-02 0.  1.
       -1   -1    0    0    0  501  0.00000000000E+00  0.00000000000E+00 -0.13165956749E+04  0.13165956749E+04  0.50400001928E-02 0. -1.
    10030    2    1    2    0    0  0.00000000000E+00  0.00000000000E+00 -0.48031023466E+03  0.21528811151E+04  0.20986183966E+04 0.  0.
        1    1    3    3  502    0 -0.45706392053E+03 -0.18241323143E+03 -0.11908687637E+04  0.12885458575E+04  0.50400001928E-02 0. -1.
       -1    1    3    3    0  502  0.45706392053E+03  0.18241323143E+03  0.71055852903E+03  0.86433525767E+03  0.50400001928E-02 0.  1.
</event>
<event>
 5   0  0.1395356E-05  0.2099077E+04  0.7818609E-02  0.8561650E-01
       -2   -1    0    0    0  501  0.00000000000E+00  0.00000000000E+00  0.85773827526E+03  0.85773827527E+03  0.25500000920E-02 0. -1.
        2   -1    0    0  501    0  0.00000000000E+00  0.00000000000E+00 -0.12842270141E+04  0.12842270141E+04  0.25500000920E-02 0.  1.
    10030    2    1    2    0    0  0.00000000000E+00  0.00000000000E+00 -0.42648873879E+03  0.21419652893E+04  0.20990766199E+04 0.  0.
        1    1    3    3  502    0 -0.30525481244E+03 -0.22737312413E+03 -0.12113144674E+04  0.12697093278E+04  0.50400001928E-02 0.  1.
       -1    1    3    3    0  502  0.30525481244E+03  0.22737312413E+03  0.78482572862E+03  0.87225596153E+03  0.50400001928E-02 0. -1.
</event>
<event>
 5   0  0.6589193E-06  0.2100408E+04  0.7818609E-02  0.8561063E-01
       -1   -1    0    0    0  501  0.00000000000E+00  0.00000000000E+00  0.93895316147E+03  0.93895316149E+03  0.50400001928E-02 0. -1.
        1   -1    0    0  501    0  0.00000000000E+00  0.00000000000E+00 -0.11746367186E+04  0.11746367186E+04  0.50400001928E-02 0.  1.
    10030    2    1    2    0    0  0.00000000000E+00  0.00000000000E+00 -0.23568355715E+03  0.21135898801E+04  0.21004083989E+04 0.  0.
        3    1    3    3  502    0  0.68639563945E+03 -0.74136576235E+03 -0.40628799856E+03  0.10889591891E+04  0.10100000352E+00 0.  1.
       -3    1    3    3    0  502 -0.68639563945E+03  0.74136576235E+03  0.17060444142E+03  0.10246306911E+04  0.10100000352E+00 0. -1.
</event>
<event>
 5   0  0.1398469E-05  0.2101526E+04  0.7818609E-02  0.8560571E-01
       -2   -1    0    0    0  501  0.00000000000E+00  0.00000000000E+00  0.12956105225E+04  0.12956105225E+04  0.25500000920E-02 0. -1.
        2   -1    0    0  501    0  0.00000000000E+00  0.00000000000E+00 -0.85218739484E+03  0.85218739485E+03  0.25500000920E-02 0.  1.
    10030    2    1    2    0    0  0.00000000000E+00  0.00000000000E+00  0.44342312765E+03  0.21477979173E+04  0.21015260702E+04 0.  0.
        2    1    3    3  502    0 -0.16694837076E+03  0.46401307047E+03 -0.72657764235E+03  0.87812012756E+03  0.25500000920E-02 0.  1.
       -2    1    3    3    0  502  0.16694837076E+03 -0.46401307047E+03  0.11700007700E+04  0.12696777898E+04  0.25500000920E-02 0. -1.
</event>
<event>
 5   0  0.6283269E-06  0.2100097E+04  0.7818609E-02  0.8561201E-01
       -1   -1    0    0    0  501  0.00000000000E+00  0.00000000000E+00  0.12630777437E+04  0.12630777437E+04  0.50400001928E-02 0. -1.
        1   -1    0    0  501    0  0.00000000000E+00  0.00000000000E+00 -0.87294827540E+03  0.87294827541E+03  0.50400001928E-02 0.  1.
    10030    2    1    2    0    0  0.00000000000E+00  0.00000000000E+00  0.39012946828E+03  0.21360260191E+04  0.21000967007E+04 0.  0.
        1    1    3    3  502    0  0.70173505009E+03  0.32736591484E+03 -0.52629463484E+03  0.93626201750E+03  0.50400001928E-02 0.  1.
       -1    1    3    3    0  502 -0.70173505009E+03 -0.32736591484E+03  0.91642410313E+03  0.11997640016E+04  0.50400001928E-02 0. -1.
</event>
<event>
 5   0  0.6589193E-06  0.2101850E+04  0.7818609E-02  0.8560429E-01
       -1   -1    0    0    0  501  0.00000000000E+00  0.00000000000E+00  0.97349329263E+03  0.97349329264E+03  0.50400001928E-02 0. -1.
        1   -1    0    0  501    0  0.00000000000E+00  0.00000000000E+00 -0.11345158868E+04  0.11345158868E+04  0.50400001928E-02 0.  1.
    10030    2    1    2    0    0  0.00000000000E+00  0.00000000000E+00 -0.16102259414E+03  0.21080091794E+04  0.21018502384E+04 0.  0.
        3    1    3    3  502    0  0.79450394925E+03  0.65526879256E+03 -0.29048063108E+03  0.10700433277E+04  0.10100000352E+00 0.  1.
       -3    1    3    3    0  502 -0.79450394925E+03 -0.65526879256E+03  0.12945803694E+03  0.10379658517E+04  0.10100000352E+00 0. -1.
</event>
<event>
 5   0  0.6283269E-06  0.2101911E+04  0.7818609E-02  0.8560402E-01
        1   -1    0    0  501    0  0.00000000000E+00  0.00000000000E+00  0.14176244685E+04  0.14176244685E+04  0.50400001928E-02 0. -1.
       -1   -1    0    0    0  501  0.00000000000E+00  0.00000000000E+00 -0.77912556620E+03  0.77912556621E+03  0.50400001928E-02 0.  1.
    10030    2    1    2    0    0  0.00000000000E+00  0.00000000000E+00  0.63849890232E+03  0.21967500347E+04  0.21019110036E+04 0.  0.
        1    1    3    3  502    0  0.26364209699E+03 -0.52481111585E+03 -0.59160975109E+03  0.83362819064E+03  0.50400001928E-02 0.  1.
       -1    1    3    3    0  502 -0.26364209699E+03  0.52481111585E+03  0.12301086534E+04  0.13631218441E+04  0.50400001928E-02 0. -1.
</event>
<event>
 5   0  0.1390735E-05  0.2101776E+04  0.7818609E-02  0.8560461E-01
       -2   -1    0    0    0  501  0.00000000000E+00  0.00000000000E+00  0.10924196426E+04  0.10924196426E+04  0.25500000920E-02 0.  1.
        2   -1    0    0  501    0  0.00000000000E+00  0.00000000000E+00 -0.10109355496E+04  0.10109355496E+04  0.25500000920E-02 0. -1.
    10030    2    1    2    0    0  0.00000000000E+00  0.00000000000E+00  0.81484093000E+02  0.21033551923E+04  0.21017762506E+04 0.  0.
        5    1    3    3  502    0  0.74888041489E+03  0.36323776255E+03 -0.60128508574E+03  0.10268054306E+04  0.46999998093E+01 0. -1.
       -5    1    3    3    0  502 -0.74888041489E+03 -0.36323776255E+03  0.68276917874E+03  0.10765497617E+04  0.46999998093E+01 0.  1.
</event>
<event>
 5   0  0.1344501E-05  0.2101580E+04  0.7818609E-02  0.8560548E-01
        2   -1    0    0  501    0  0.00000000000E+00  0.00000000000E+00  0.12458658825E+04  0.12458658825E+04  0.25500000920E-02 0.  1.
       -2   -1    0    0    0  501  0.00000000000E+00  0.00000000000E+00 -0.88625908617E+03  0.88625908618E+03  0.25500000920E-02 0. -1.
    10030    2    1    2    0    0  0.00000000000E+00  0.00000000000E+00  0.35960679636E+03  0.21321249687E+04  0.21015803183E+04 0.  0.
        3    1    3    3  502    0 -0.85434421784E+02 -0.62376144571E+03 -0.67372228577E+03  0.92210580202E+03  0.10100000352E+00 0. -1.
       -3    1    3    3    0  502  0.85434421784E+02  0.62376144571E+03  0.10333290821E+04  0.12100191667E+04  0.10100000352E+00 0.  1.
</event>
<event>
 5   0  0.1395356E-05  0.2097395E+04  0.7818609E-02  0.8562392E-01
        2   -1    0    0  501    0  0.00000000000E+00  0.00000000000E+00  0.11436113711E+04  0.11436113711E+04  0.25500000920E-02 0.  1.
       -2   -1    0    0    0  501  0.00000000000E+00  0.00000000000E+00 -0.96166055453E+03  0.96166055454E+03  0.25500000920E-02 0. -1.
    10030    2    1    2    0    0  0.00000000000E+00  0.00000000000E+00  0.18195081653E+03  0.21052719256E+04  0.20973945220E+04 0.  0.
        1    1    3    3  502    0 -0.38675956079E+03 -0.97053026773E+03 -0.21726664024E+00  0.10447545193E+04  0.50400001928E-02 0. -1.
       -1    1    3    3    0  502  0.38675956079E+03  0.97053026773E+03  0.18216808317E+03  0.10605174063E+04  0.50400001928E-02 0.  1.
</event>
<event>
 5   0  0.6599245E-06  0.2082780E+04  0.7818609E-02  0.8568867E-01
        1   -1    0    0  501    0  0.00000000000E+00  0.00000000000E+00  0.68667319312E+03  0.68667319314E+03  0.50400001928E-02 0.  1.
       -1   -1    0    0    0  501  0.00000000000E+00  0.00000000000E+00 -0.15793442893E+04  0.15793442893E+04  0.50400001928E-02 0. -1.
    10030    2    1    2    0    0  0.00000000000E+00  0.00000000000E+00 -0.89267109619E+03  0.22660174825E+04  0.20827802440E+04 0.  0.
        2    1    3    3  502    0 -0.97959468932E+03 -0.10075589490E+02 -0.83066435322E+03  0.12844105810E+04  0.25500000920E-02 0. -1.
       -2    1    3    3    0  502  0.97959468932E+03  0.10075589490E+02 -0.62006742975E+02  0.98160690148E+03  0.25500000920E-02 0.  1.
</event>
<event>
 5   0  0.6283269E-06  0.2101397E+04  0.7818609E-02  0.8560628E-01
       -1   -1    0    0    0  501  0.00000000000E+00  0.00000000000E+00  0.11252124842E+04  0.11252124842E+04  0.50400001928E-02 0.  1.
        1   -1    0    0  501    0  0.00000000000E+00  0.00000000000E+00 -0.98111936967E+03  0.98111936968E+03  0.50400001928E-02 0. -1.
    10030    2    1    2    0    0  0.00000000000E+00  0.00000000000E+00  0.14409311448E+03  0.21063318538E+04  0.21013974048E+04 0.  0.
        1    1    3    3  502    0 -0.21670345422E+03  0.69196445283E+03  0.83422183568E+03  0.11053059586E+04  0.50400001928E-02 0.  1.
       -1    1    3    3    0  502  0.21670345422E+03 -0.69196445283E+03 -0.69012872120E+03  0.10010258952E+04  0.50400001928E-02 0. -1.
</event>
<event>
 5   0  0.1390735E-05  0.2098824E+04  0.7818609E-02  0.8561761E-01
        2   -1    0    0  501    0  0.00000000000E+00  0.00000000000E+00  0.15234036875E+04  0.15234036875E+04  0.25500000920E-02 0.  1.
       -2   -1    0    0    0  501  0.00000000000E+00  0.00000000000E+00 -0.72289826605E+03  0.72289826606E+03  0.25500000920E-02 0. -1.
    10030    2    1    2    0    0  0.00000000000E+00  0.00000000000E+00  0.80050542147E+03  0.22463019536E+04  0.20988243225E+04 0.  0.
        5    1    3    3  502    0 -0.63819360644E+03  0.73262100579E+03  0.82462283837E+03  0.12743820200E+04  0.46999998093E+01 0.  1.
       -5    1    3    3    0  502  0.63819360644E+03 -0.73262100579E+03 -0.24117416897E+02  0.97191993355E+03  0.46999998093E+01 0. -1.
</event>
<event>
 5   0  0.6589193E-06  0.2093819E+04  0.7818609E-02  0.8563971E-01
        1   -1    0    0  501    0  0.00000000000E+00  0.00000000000E+00  0.11733342073E+04  0.11733342073E+04  0.50400001928E-02 0.  1.
       -1   -1    0    0    0  501  0.00000000000E+00  0.00000000000E+00 -0.93410660551E+03  0.93410660552E+03  0.50400001928E-02 0. -1.
    10030    2    1    2    0    0  0.00000000000E+00  0.00000000000E+00  0.23922760183E+03  0.21074408129E+04  0.20938187444E+04 0.  0.
        3    1    3    3  502    0  0.85835950769E+03  0.54265917617E+03 -0.13652008119E+03  0.10246451916E+04  0.10100000352E+00 0. -1.
       -3    1    3    3    0  502 -0.85835950769E+03 -0.54265917617E+03  0.37574768302E+03  0.10827956213E+04  0.10100000352E+00 0.  1.
</event>
<event>
 5   0  0.6238363E-06  0.2095072E+04  0.7818609E-02  0.8563417E-01
        1   -1    0    0  501    0  0.00000000000E+00  0.00000000000E+00  0.25827476744E+04  0.25827476744E+04  0.50400001928E-02 0. -1.
       -1   -1    0    0    0  501  0.00000000000E+00  0.00000000000E+00 -0.42487007070E+03  0.42487007073E+03  0.50400001928E-02 0.  1.
    10030    2    1    2    0    0  0.00000000000E+00  0.00000000000E+00  0.21578776037E+04  0.30076177451E+04  0.20950724924E+04 0.  0.
        4    1    3    3  502    0  0.39518236196E+03 -0.75136437138E+02  0.24674493759E+04  0.25000245237E+04  0.12699999809E+01 0. -1.
       -4    1    3    3    0  502 -0.39518236196E+03  0.75136437138E+02 -0.30957177223E+03  0.50759322144E+03  0.12699999809E+01 0.  1.
</event>
<event>
 5   0  0.1344501E-05  0.2066750E+04  0.7818609E-02  0.8576034E-01
        2   -1    0    0  501    0  0.00000000000E+00  0.00000000000E+00  0.90915771190E+03  0.90915771190E+03  0.25500000920E-02 0.  1.
       -2   -1    0    0    0  501  0.00000000000E+00  0.00000000000E+00 -0.11745634391E+04  0.11745634391E+04  0.25500000920E-02 0. -1.
    10030    2    1    2    0    0  0.00000000000E+00  0.00000000000E+00 -0.26540572723E+03  0.20837211510E+04  0.20667495337E+04 0.  0.
        3    1    3    3  502    0  0.83337876248E+03 -0.61053066870E+03 -0.15730693706E+03  0.10449944219E+04  0.10100000352E+00 0. -1.
       -3    1    3    3    0  502 -0.83337876248E+03  0.61053066870E+03 -0.10809879017E+03  0.10387267291E+04  0.10100000352E+00 0.  1.
</event>
<event>
 5   0  0.6917078E-06  0.2099558E+04  0.7818609E-02  0.8561438E-01
        1   -1    0    0  501    0  0.00000000000E+00  0.00000000000E+00  0.35236085120E+03  0.35236085123E+03  0.50400001928E-02 0.  1.
       -1   -1    0    0    0  501  0.00000000000E+00  0.00000000000E+00 -0.31275768265E+04  0.31275768265E+04  0.50400001928E-02 0. -1.
    10030    2    1    2    0    0  0.00000000000E+00  0.00000000000E+00 -0.27752159753E+04  0.34799376778E+04  0.20995576990E+04 0.  0.
        5    1    3    3  502    0  0.40451035099E+03 -0.72224868123E+03 -0.24575916919E+04  0.25932702897E+04  0.46999998093E+01 0. -1.
       -5    1    3    3    0  502 -0.40451035099E+03  0.72224868123E+03 -0.31762428348E+03  0.88666738806E+03  0.46999998093E+01 0.  1.
</event>
<event>
 5   0  0.1390735E-05  0.2100636E+04  0.7818609E-02  0.8560963E-01
       -2   -1    0    0    0  501  0.00000000000E+00  0.00000000000E+00  0.12996550416E+04  0.12996550416E+04  0.25500000920E-02 0. -1.
        2   -1    0    0  501    0  0.00000000000E+00  0.00000000000E+00 -0.84881617708E+03  0.84881617708E+03  0.25500000920E-02 0.  1.
    10030    2    1    2    0    0  0.00000000000E+00  0.00000000000E+00  0.45083886454E+03  0.21484712187E+04  0.21006363074E+04 0.  0.
        5    1    3    3  502    0  0.58052920033E+02 -0.93437520267E+02  0.12937363069E+04  0.12984130442E+04  0.46999998093E+01 0. -1.
       -5    1    3    3    0  502 -0.58052920033E+02  0.93437520267E+02 -0.84289744232E+03  0.85005817447E+03  0.46999998093E+01 0.  1.
</event>
<event>
 5   0  0.1441136E-05  0.2100857E+04  0.7818609E-02  0.8560866E-01
        2   -1    0    0  501    0  0.00000000000E+00  0.00000000000E+00  0.15549872837E+04  0.15549872837E+04  0.25500000920E-02 0. -1.
       -2   -1    0    0    0  501  0.00000000000E+00  0.00000000000E+00 -0.70958793565E+03  0.70958793565E+03  0.25500000920E-02 0.  1.
    10030    2    1    2    0    0  0.00000000000E+00  0.00000000000E+00  0.84539934805E+03  0.22645752194E+04  0.21008571742E+04 0.  0.
        4    1    3    3  502    0 -0.96565903092E+03 -0.37191065139E+03  0.61727621075E+03  0.12049259022E+04  0.12699999809E+01 0. -1.
       -4    1    3    3    0  502  0.96565903092E+03  0.37191065139E+03  0.22812313730E+03  0.10596493171E+04  0.12699999809E+01 0.  1.
</event>
<event>
 5   0  0.1395356E-05  0.2104927E+04  0.7818609E-02  0.8559076E-01
       -2   -1    0    0    0  501  0.00000000000E+00  0.00000000000E+00  0.58135472355E+03  0.58135472355E+03  0.25500000920E-02 0. -1.
        2   -1    0    0  501    0  0.00000000000E+00  0.00000000000E+00 -0.19053419576E+04  0.19053419576E+04  0.25500000920E-02 0.  1.
    10030    2    1    2    0    0  0.00000000000E+00  0.00000000000E+00 -0.13239872340E+04  0.24866966811E+04  0.21049271218E+04 0.  0.
        1    1    3    3  502    0 -0.14141569208E+03 -0.95476205017E+03 -0.16622564101E+03  0.97938753012E+03  0.50400001928E-02 0. -1.
       -1    1    3    3    0  502  0.14141569208E+03  0.95476205017E+03 -0.11577615930E+04  0.15073091510E+04  0.50400001928E-02 0.  1.
</event>
<event>
 5   0  0.1395356E-05  0.2102211E+04  0.7818609E-02  0.8560270E-01
        2   -1    0    0  501    0  0.00000000000E+00  0.00000000000E+00  0.96938832816E+03  0.96938832816E+03  0.25500000920E-02 0. -1.
       -2   -1    0    0    0  501  0.00000000000E+00  0.00000000000E+00 -0.11397112855E+04  0.11397112855E+04  0.25500000920E-02 0.  1.
    10030    2    1    2    0    0  0.00000000000E+00  0.00000000000E+00 -0.17032295730E+03  0.21090996136E+04  0.21022110433E+04 0.  0.
        1    1    3    3  502    0  0.21901552667E+03 -0.67193627788E+03  0.69543473361E+03  0.99151179074E+03  0.50400001928E-02 0. -1.
       -1    1    3    3    0  502 -0.21901552667E+03  0.67193627788E+03 -0.86575769091E+03  0.11175878229E+04  0.50400001928E-02 0.  1.
</event>
<event>
 5   0  0.6599245E-06  0.2105404E+04  0.7818609E-02  0.8558866E-01
        1   -1    0    0  501    0  0.00000000000E+00  0.00000000000E+00  0.93129038221E+03  0.93129038222E+03  0.50400001928E-02 0. -1.
       -1   -1    0    0    0  501  0.00000000000E+00  0.00000000000E+00 -0.11899423215E+04  0.11899423215E+04  0.50400001928E-02 0.  1.
    10030    2    1    2    0    0  0.00000000000E+00  0.00000000000E+00 -0.25865193927E+03  0.21212327037E+04  0.21054043217E+04 0.  0.
        2    1    3    3  502    0 -0.10526471958E+03  0.10391824091E+04 -0.26146493435E+03  0.10767286810E+04  0.25500000920E-02 0. -1.
       -2    1    3    3    0  502  0.10526471958E+03 -0.10391824091E+04  0.28129950823E+01  0.10445040227E+04  0.25500000920E-02 0.  1.
</event>
<event>
 5   0  0.1395356E-05  0.2084121E+04  0.7818609E-02  0.8568271E-01
       -2   -1    0    0    0  501  0.00000000000E+00  0.00000000000E+00  0.86127386142E+03  0.86127386142E+03  0.25500000920E-02 0.  1.
        2   -1    0    0  501    0  0.00000000000E+00  0.00000000000E+00 -0.12607950578E+04  0.12607950578E+04  0.25500000920E-02 0. -1.
    10030    2    1    2    0    0  0.00000000000E+00  0.00000000000E+00 -0.39952119637E+03  0.21220689192E+04  0.20841207526E+04 0.  0.
        1    1    3    3  502    0  0.98019547642E+01  0.69351400649E+03  0.59210962534E+03  0.91194932094E+03  0.50400001928E-02 0.  1.
       -1    1    3    3    0  502 -0.98019547642E+01 -0.69351400649E+03 -0.99163082171E+03  0.12101195983E+04  0.50400001928E-02 0. -1.
</event>
<event>
 5   0  0.6917078E-06  0.2104186E+04  0.7818609E-02  0.8559402E-01
       -1   -1    0    0    0  501  0.00000000000E+00  0.00000000000E+00  0.63597923719E+03  0.63597923721E+03  0.50400001928E-02 0.  1.
        1   -1    0    0  501    0  0.00000000000E+00  0.00000000000E+00 -0.17404650277E+04  0.17404650277E+04  0.50400001928E-02 0. -1.
    10030    2    1    2    0    0  0.00000000000E+00  0.00000000000E+00 -0.11044857905E+04  0.23764442649E+04  0.21041859430E+04 0.  0.
        5    1    3    3  502    0 -0.14734095303E+03 -0.70753591874E+03  0.31124941277E+03  0.78690197591E+03  0.46999998093E+01 0.  1.
       -5    1    3    3    0  502  0.14734095303E+03  0.70753591874E+03 -0.14157352033E+04  0.15895422890E+04  0.46999998093E+01 0. -1.
</event>
<event>
 5   0  0.6589193E-06  0.2101057E+04  0.7818609E-02  0.8560778E-01
       -1   -1    0    0    0  501  0.00000000000E+00  0.00000000000E+00  0.99725509653E+03  0.99725509655E+03  0.50400001928E-02 0. -1.
        1   -1    0    0  501    0  0.00000000000E+00  0.00000000000E+00 -0.11066480596E+04  0.11066480596E+04  0.50400001928E-02 0.  1.
    10030    2    1    2    0    0  0.00000000000E+00  0.00000000000E+00 -0.10939296306E+03  0.21039031562E+04  0.21010572744E+04 0.  0.
        3    1    3    3  502    0 -0.50948530787E+03 -0.32715481601E+03 -0.91434917470E+03  0.10966494317E+04  0.10100000352E+00 0.  1.
       -3    1    3    3    0  502  0.50948530787E+03  0.32715481601E+03  0.80495621164E+03  0.10072537245E+04  0.10100000352E+00 0. -1.
</event>
<event>
 5   0  0.1441136E-05  0.2100116E+04  0.7818609E-02  0.8561192E-01
        2   -1    0    0  501    0  0.00000000000E+00  0.00000000000E+00  0.20031390476E+04  0.20031390476E+04  0.25500000920E-02 0. -1.
       -2   -1    0    0    0  501  0.00000000000E+00  0.00000000000E+00 -0.55044684989E+03  0.55044684989E+03  0.25500000920E-02 0.  1.
    10030    2    1    2    0    0  0.00000000000E+00  0.00000000000E+00  0.14526921977E+04  0.25535858975E+04  0.21001157860E+04 0.  0.
        4    1    3    3  502    0 -0.45109514960E+03  0.26560579129E+03 -0.38047189147E+03  0.64714275354E+03  0.12699999809E+01 0.  1.
       -4    1    3    3    0  502  0.45109514960E+03 -0.26560579129E+03  0.18331640892E+04  0.19064431439E+04  0.12699999809E+01 0. -1.
</event>
<event>
 5   0  0.6238363E-06  0.2105749E+04  0.7818609E-02  0.8558715E-01
       -1   -1    0    0    0  501  0.00000000000E+00  0.00000000000E+00  0.97801187075E+03  0.97801187077E+03  0.50400001928E-02 0. -1.
        1   -1    0    0  501    0  0.00000000000E+00  0.00000000000E+00 -0.11334672888E+04  0.11334672888E+04  0.50400001928E-02 0.  1.
    10030    2    1    2    0    0  0.00000000000E+00  0.00000000000E+00 -0.15545541807E+03  0.21114791596E+04  0.21057487634E+04 0.  0.
        4    1    3    3  502    0 -0.34177878923E+03 -0.65969624440E+03 -0.82576787082E+03  0.11108132449E+04  0.12699999809E+01 0.  1.
       -4    1    3    3    0  502  0.34177878923E+03  0.65969624440E+03  0.67031245276E+03  0.10006659147E+04  0.12699999809E+01 0. -1.
</event>
<event>
 5   0  0.1344501E-05  0.2098719E+04  0.7818609E-02  0.8561808E-01
       -2   -1    0    0    0  501  0.00000000000E+00  0.00000000000E+00  0.12119960457E+04  0.12119960457E+04  0.25500000920E-02 0. -1.
        2   -1    0    0  501    0  0.00000000000E+00  0.00000000000E+00 -0.90854666300E+03  0.90854666300E+03  0.25500000920E-02 0.  1.
    10030    2    1    2    0    0  0.00000000000E+00  0.00000000000E+00  0.30344938271E+03  0.21205427087E+04  0.20987186214E+04 0.  0.
        3    1    3    3  502    0 -0.46348544799E+03  0.92890398206E+03  0.30652881054E+03  0.10824238034E+04  0.10100000352E+00 0. -1.
       -3    1    3    3    0  502  0.46348544799E+03 -0.92890398206E+03 -0.30794278268E+01  0.10381189053E+04  0.10100000352E+00 0.  1.
</event>
<event>
 5   0  0.1344501E-05  0.2093758E+04  0.7818609E-02  0.8563998E-01
        2   -1    0    0  501    0  0.00000000000E+00  0.00000000000E+00  0.13690257335E+04  0.13690257335E+04  0.25500000920E-02 0.  1.
       -2   -1    0    0    0  501  0.00000000000E+00  0.00000000000E+00 -0.80053720690E+03  0.80053720690E+03  0.25500000920E-02 0. -1.
    10030    2    1    2    0    0  0.00000000000E+00  0.00000000000E+00  0.56848852665E+03  0.21695629404E+04  0.20937583785E+04 0.  0.
        3    1    3    3  502    0  0.38074776330E+03 -0.60974038318E+03 -0.50436414804E+03  0.87814315357E+03  0.10100000352E+00 0. -1.
       -3    1    3    3    0  502 -0.38074776330E+03  0.60974038318E+03  0.10728526747E+04  0.12914197869E+04  0.10100000352E+00 0.  1.
</event>
<event>
 5   0  0.1344501E-05  0.2100610E+04  0.7818609E-02  0.8560975E-01
       -2   -1    0    0    0  501  0.00000000000E+00  0.00000000000E+00  0.67976416976E+03  0.67976416977E+03  0.25500000920E-02 0. -1.
        2   -1    0    0  501    0  0.00000000000E+00  0.00000000000E+00 -0.16228277289E+04  0.16228277289E+04  0.25500000920E-02 0.  1.
    10030    2    1    2    0    0  0.00000000000E+00  0.00000000000E+00 -0.94306355912E+03  0.23025918987E+04  0.21006095723E+04 0.  0.
        3    1    3    3  502    0  0.33432485907E+03  0.75346540634E+03 -0.11850068057E+04  0.14435111256E+04  0.10100000352E+00 0.  1.
       -3    1    3    3    0  502 -0.33432485907E+03 -0.75346540634E+03  0.24194324654E+03  0.85908077309E+03  0.10100000352E+00 0. -1.
</event>
<event>
 5   0  0.6599245E-06  0.2101591E+04  0.7818609E-02  0.8560543E-01
        1   -1    0    0  501    0  0.00000000000E+00  0.00000000000E+00  0.20450564520E+04  0.20450564520E+04  0.50400001928E-02 0.  1.
       -1   -1    0    0    0  501  0.00000000000E+00  0.00000000000E+00 -0.53992187765E+03  0.53992187768E+03  0.50400001928E-02 0. -1.
    10030    2    1    2    0    0  0.00000000000E+00  0.00000000000E+00  0.15051345743E+04  0.25849783296E+04  0.21015905591E+04 0.  0.
        2    1    3    3  502    0 -0.53550095712E+03  0.25136573292E+03  0.18207835291E+04  0.19144708581E+04  0.25500000920E-02 0.  1.
       -2    1    3    3    0  502  0.53550095712E+03 -0.25136573292E+03 -0.31564895476E+03  0.67050747155E+03  0.25500000920E-02 0. -1.
</event>
<event>
 5   0  0.1390735E-05  0.2098565E+04  0.7818609E-02  0.8561876E-01
       -2   -1    0    0    0  501  0.00000000000E+00  0.00000000000E+00  0.78239145932E+03  0.78239145932E+03  0.25500000920E-02 0.  1.
        2   -1    0    0  501    0  0.00000000000E+00  0.00000000000E+00 -0.14072159329E+04  0.14072159329E+04  0.25500000920E-02 0. -1.
    10030    2    1    2    0    0  0.00000000000E+00  0.00000000000E+00 -0.62482447358E+03  0.21896073922E+04  0.20985649643E+04 0.  0.
        5    1    3    3  502    0  0.10962400476E+03  0.63994223281E+02 -0.13991642955E+04  0.14049183246E+04  0.46999998093E+01 0. -1.
       -5    1    3    3    0  502 -0.10962400476E+03 -0.63994223281E+02  0.77433982192E+03  0.78468906762E+03  0.46999998093E+01 0.  1.
</event>
<event>
 5   0  0.1390735E-05  0.2096805E+04  0.7818609E-02  0.8562652E-01
        2   -1    0    0  501    0  0.00000000000E+00  0.00000000000E+00  0.84004252855E+03  0.84004252856E+03  0.25500000920E-02 0. -1.
       -2   -1    0    0    0  501  0.00000000000E+00  0.00000000000E+00 -0.13084434303E+04  0.13084434303E+04  0.25500000920E-02 0.  1.
    10030    2    1    2    0    0  0.00000000000E+00  0.00000000000E+00 -0.46840090176E+03  0.21484859589E+04  0.20968053106E+04 0.  0.
        5    1    3    3  502    0  0.52742394197E+03 -0.34370132685E+03  0.62480573009E+03  0.88696725249E+03  0.46999998093E+01 0. -1.
       -5    1    3    3    0  502 -0.52742394197E+03  0.34370132685E+03 -0.10932066319E+04  0.12615187064E+04  0.46999998093E+01 0.  1.
</event>
<event>
 5   0  0.1441136E-05  0.2102412E+04  0.7818609E-02  0.8560182E-01
        2   -1    0    0  501    0  0.00000000000E+00  0.00000000000E+00  0.14842343426E+04  0.14842343426E+04  0.25500000920E-02 0. -1.
       -2   -1    0    0    0  501  0.00000000000E+00  0.00000000000E+00 -0.74451454563E+03  0.74451454563E+03  0.25500000920E-02 0.  1.
    10030    2    1    2    0    0  0.00000000000E+00  0.00000000000E+00  0.73971979693E+03  0.22287488882E+04  0.21024120026E+04 0.  0.
        4    1    3    3  502    0 -0.25223378413E+03 -0.89549541585E+03 -0.14893384700E+03  0.94218725599E+03  0.12699999809E+01 0.  1.
       -4    1    3    3    0  502  0.25223378413E+03  0.89549541585E+03  0.88865364393E+03  0.12865616322E+04  0.12699999809E+01 0. -1.
</event>
<event>
 5   0  0.1441136E-05  0.2098580E+04  0.7818609E-02  0.8561869E-01
        2   -1    0    0  501    0  0.00000000000E+00  0.00000000000E+00  0.12454042954E+04  0.12454042954E+04  0.25500000920E-02 0. -1.
       -2   -1    0    0    0  501  0.00000000000E+00  0.00000000000E+00 -0.88405824536E+03  0.88405824537E+03  0.25500000920E-02 0.  1.
    10030    2    1    2    0    0  0.00000000000E+00  0.00000000000E+00  0.36134605000E+03  0.21294625407E+04  0.20985804117E+04 0.  0.
        4    1    3    3  502    0 -0.92619268340E+03  0.16634619680E+03  0.65172891656E+03  0.11446642030E+04  0.12699999809E+01 0.  1.
       -4    1    3    3    0  502  0.92619268340E+03 -0.16634619680E+03 -0.29038286657E+03  0.98479833777E+03  0.12699999809E+01 0. -1.
</event>
<event>
 5   0  0.6599245E-06  0.2092579E+04  0.7818609E-02  0.8564519E-01
       -1   -1    0    0    0  501  0.00000000000E+00  0.00000000000E+00  0.10783251780E+04  0.10783251780E+04  0.50400001928E-02 0.  1.
        1   -1    0    0  501    0  0.00000000000E+00  0.00000000000E+00 -0.10152056909E+04  0.10152056909E+04  0.50400001928E-02 0. -1.
    10030    2    1    2    0    0  0.00000000000E+00  0.00000000000E+00  0.63119487050E+02  0.20935308689E+04  0.20925791333E+04 0.  0.
        2    1    3    3  502    0  0.13604477678E+02  0.92310232309E+03  0.52414419116E+03  0.10616167453E+04  0.25500000920E-02 0.  1.
       -2    1    3    3    0  502 -0.13604477678E+02 -0.92310232309E+03 -0.46102470411E+03  0.10319141236E+04  0.25500000920E-02 0. -1.
</event>
<event>
 5   0  0.1344501E-05  0.2100718E+04  0.7818609E-02  0.8560927E-01
        2   -1    0    0  501    0  0.00000000000E+00  0.00000000000E+00  0.22377707669E+04  0.22377707669E+04  0.25500000920E-02 0.  1.
       -2   -1    0    0    0  501  0.00000000000E+00  0.00000000000E+00 -0.49301461842E+03  0.49301461843E+03  0.25500000920E-02 0. -1.
    10030    2    1    2    0    0  0.00000000000E+00  0.00000000000E+00  0.17447561485E+04  0.27307853854E+04  0.21007176876E+04 0.  0.
        3    1    3    3  502    0  0.77447269641E+02  0.88687968613E+03  0.15969650571E+04  0.18283465375E+04  0.10100000352E+00 0.  1.
       -3    1    3    3    0  502 -0.77447269641E+02 -0.88687968613E+03  0.14779109136E+03  0.90243884786E+03  0.10100000352E+00 0. -1.
</event>
<event>
 5   0  0.6238363E-06  0.2108707E+04  0.7818609E-02  0.8557418E-01
        1   -1    0    0  501    0  0.00000000000E+00  0.00000000000E+00  0.11691961456E+04  0.11691961456E+04  0.50400001928E-02 0. -1.
       -1   -1    0    0    0  501  0.00000000000E+00  0.00000000000E+00 -0.95079118007E+03  0.95079118008E+03  0.50400001928E-02 0.  1.
    10030    2    1    2    0    0  0.00000000000E+00  0.00000000000E+00  0.21840496549E+03  0.21199873257E+04  0.21087070759E+04 0.  0.
        4    1    3    3  502    0  0.94537210324E+02 -0.96960922342E+03  0.51457206390E+03  0.11017555773E+04  0.12699999809E+01 0. -1.
       -4    1    3    3    0  502 -0.94537210324E+02  0.96960922342E+03 -0.29616709841E+03  0.10182317484E+04  0.12699999809E+01 0.  1.
</event>
<event>
 5   0  0.1395356E-05  0.2100729E+04  0.7818609E-02  0.8560922E-01
        2   -1    0    0  501    0  0.00000000000E+00  0.00000000000E+00  0.19870810517E+04  0.19870810517E+04  0.25500000920E-02 0. -1.
       -2   -1    0    0    0  501  0.00000000000E+00  0.00000000000E+00 -0.55521925499E+03  0.55521925500E+03  0.25500000920E-02 0.  1.
    10030    2    1    2    0    0  0.00000000000E+00  0.00000000000E+00  0.14318617967E+04  0.25423003067E+04  0.21007290745E+04 0.  0.
        1    1    3    3  502    0  0.22285454880E+03  0.56005492423E+03  0.17569412647E+04  0.18574628598E+04  0.50400001928E-02 0. -1.
       -1    1    3    3    0  502 -0.22285454880E+03 -0.56005492423E+03 -0.32507946800E+03  0.68483744685E+03  0.50400001928E-02 0.  1.
</event>
<event>
 5   0  0.1398469E-05  0.2099006E+04  0.7818609E-02  0.8561681E-01
        2   -1    0    0  501    0  0.00000000000E+00  0.00000000000E+00  0.14678055625E+04  0.14678055625E+04  0.25500000920E-02 0.  1.
       -2   -1    0    0    0  501  0.00000000000E+00  0.00000000000E+00 -0.75041023961E+03  0.75041023962E+03  0.25500000920E-02 0. -1.
    10030    2    1    2    0    0  0.00000000000E+00  0.00000000000E+00  0.71739532293E+03  0.22182158022E+04  0.20990057874E+04 0.  0.
        2    1    3    3  502    0 -0.23539877099E+03 -0.43722177207E+03  0.13358065338E+04  0.14251156287E+04  0.25500000920E-02 0.  1.
       -2    1    3    3    0  502  0.23539877099E+03  0.43722177207E+03 -0.61841121090E+03  0.79310017346E+03  0.25500000920E-02 0. -1.
</event>
<event>
 5   0  0.6238363E-06  0.2100844E+04  0.7818609E-02  0.8560872E-01
        1   -1    0    0  501    0  0.00000000000E+00  0.00000000000E+00  0.43774759142E+03  0.43774759144E+03  0.50400001928E-02 0.  1.
       -1   -1    0    0    0  501  0.00000000000E+00  0.00000000000E+00 -0.25205996456E+04  0.25205996456E+04  0.50400001928E-02 0. -1.
    10030    2    1    2    0    0  0.00000000000E+00  0.00000000000E+00 -0.20828520542E+04  0.29583472370E+04  0.21008440436E+04 0.  0.
        4    1    3    3  502    0 -0.40119085719E+03  0.34177264502E+03  0.23809081431E+03  0.57831781360E+03  0.12699999809E+01 0.  1.
       -4    1    3    3    0  502  0.40119085719E+03 -0.34177264502E+03 -0.23209428685E+04  0.23800294234E+04  0.12699999809E+01 0. -1.
</event>
<event>
 5   0  0.6599245E-06  0.2099414E+04  0.7818609E-02  0.8561502E-01
       -1   -1    0    0    0  501  0.00000000000E+00  0.00000000000E+00  0.14314752761E+04  0.14314752761E+04  0.50400001928E-02 0. -1.
        1   -1    0    0  501    0  0.00000000000E+00  0.00000000000E+00 -0.76975454201E+03  0.76975454202E+03  0.50400001928E-02 0.  1.
    10030    2    1    2    0    0  0.00000000000E+00  0.00000000000E+00  0.66172073410E+03  0.22012298181E+04  0.20994138187E+04 0.  0.
        2    1    3    3  502    0  0.99379999319E+03  0.33477437572E+03  0.37972851545E+03  0.11153053638E+04  0.25500000920E-02 0.  1.
       -2    1    3    3    0  502 -0.99379999319E+03 -0.33477437572E+03  0.28199221864E+03  0.10859244543E+04  0.25500000920E-02 0. -1.
</event>
<event>
 5   0  0.1441136E-05  0.2110078E+04  0.7818609E-02  0.8556817E-01
       -2   -1    0    0    0  501  0.00000000000E+00  0.00000000000E+00  0.78990758497E+03  0.78990758498E+03  0.25500000920E-02 0. -1.
        2   -1    0    0  501    0  0.00000000000E+00  0.00000000000E+00 -0.14091614675E+04  0.14091614675E+04  0.25500000920E-02 0.  1.
    10030    2    1    2    0    0  0.00000000000E+00  0.00000000000E+00 -0.61925388255E+03  0.21990690525E+04  0.21100780380E+04 0.  0.
        4    1    3    3  502    0 -0.61003842577E+02  0.58034828895E+03  0.60640815235E+03  0.84158069454E+03  0.12699999809E+01 0. -1.
       -4    1    3    3    0  502  0.61003842577E+02 -0.58034828895E+03 -0.12256620349E+04  0.13574883580E+04  0.12699999809E+01 0.  1.
</event>
<event>
 5   0  0.1441136E-05  0.2098277E+04  0.7818609E-02  0.8562003E-01
        2   -1    0    0  501    0  0.00000000000E+00  0.00000000000E+00  0.11796108239E+04  0.11796108239E+04  0.25500000920E-02 0.  1.
       -2   -1    0    0    0  501  0.00000000000E+00  0.00000000000E+00 -0.93309767353E+03  0.93309767353E+03  0.25500000920E-02 0. -1.
    10030    2    1    2    0    0  0.00000000000E+00  0.00000000000E+00  0.24651315034E+03  0.21127084974E+04  0.20982774987E+04 0.  0.
        4    1    3    3  502    0 -0.54477282620E+03  0.89660016031E+03  0.11861805895E+03  0.10558130215E+04  0.12699999809E+01 0. -1.
       -4    1    3    3    0  502  0.54477282620E+03 -0.89660016031E+03  0.12789509140E+03  0.10568954759E+04  0.12699999809E+01 0.  1.
</event>
<event>
 5   0  0.6238363E-06  0.2101489E+04  0.7818609E-02  0.8560588E-01
       -1   -1    0    0    0  501  0.00000000000E+00  0.00000000000E+00  0.10361126174E+04  0.10361126174E+04  0.50400001928E-02 0.  1.
        1   -1    0    0  501    0  0.00000000000E+00  0.00000000000E+00 -0.10655825860E+04  0.10655825860E+04  0.50400001928E-02 0. -1.
    10030    2    1    2    0    0  0.00000000000E+00  0.00000000000E+00 -0.29469968647E+02  0.21016952034E+04  0.21014885793E+04 0.  0.
        4    1    3    3  502    0 -0.73735513605E+03  0.74506865710E+03  0.57674129433E+02  0.10498322812E+04  0.12699999809E+01 0. -1.
       -4    1    3    3    0  502  0.73735513605E+03 -0.74506865710E+03 -0.87144098080E+02  0.10518629222E+04  0.12699999809E+01 0.  1.
</event>
<event>
 5   0  0.6599245E-06  0.2098486E+04  0.7818609E-02  0.8561911E-01
        1   -1    0    0  501    0  0.00000000000E+00  0.00000000000E+00  0.29890053435E+04  0.29890053435E+04  0.50400001928E-02 0. -1.
       -1   -1    0    0    0  501  0.00000000000E+00  0.00000000000E+00 -0.36832004763E+03  0.36832004767E+03  0.50400001928E-02 0.  1.
    10030    2    1    2    0    0  0.00000000000E+00  0.00000000000E+00  0.26206852958E+04  0.33573253912E+04  0.20984857308E+04 0.  0.
        2    1    3    3  502    0  0.29218087583E+03  0.46633973362E+03  0.27395900516E+04  0.27943149540E+04  0.25500000920E-02 0. -1.
       -2    1    3    3    0  502 -0.29218087583E+03 -0.46633973362E+03 -0.11890475577E+03  0.56301043712E+03  0.25500000920E-02 0.  1.
</event>
<event>
 5   0  0.1390735E-05  0.2096067E+04  0.7818609E-02  0.8562978E-01
        2   -1    0    0  501    0  0.00000000000E+00  0.00000000000E+00  0.49967020806E+03  0.49967020806E+03  0.25500000920E-02 0. -1.
       -2   -1    0    0    0  501  0.00000000000E+00  0.00000000000E+00 -0.21981978360E+04  0.21981978360E+04  0.25500000920E-02 0.  1.
    10030    2    1    2    0    0  0.00000000000E+00  0.00000000000E+00 -0.16985276279E+04  0.26978680440E+04  0.20960667643E+04 0.  0.
        5    1    3    3  502    0 -0.78866926035E+03  0.60277121906E+03 -0.12819692497E+04  0.16213573301E+04  0.46999998093E+01 0.  1.
       -5    1    3    3    0  502  0.78866926035E+03 -0.60277121906E+03 -0.41655837826E+03  0.10765107140E+04  0.46999998093E+01 0. -1.
</event>
<event>
 5   0  0.1390735E-05  0.2097934E+04  0.7818609E-02  0.8562154E-01
       -2   -1    0    0    0  501  0.00000000000E+00  0.00000000000E+00  0.52209228808E+03  0.52209228809E+03  0.25500000920E-02 0.  1.
        2   -1    0    0  501    0  0.00000000000E+00  0.00000000000E+00 -0.21075425963E+04  0.21075425963E+04  0.25500000920E-02 0. -1.
    10030    2    1    2    0    0  0.00000000000E+00  0.00000000000E+00 -0.15854503082E+04  0.26296348844E+04  0.20979339707E+04 0.  0.
        5    1    3    3  502    0  0.99723832742E+02  0.65253545137E+03  0.22908798665E+03  0.69874942128E+03  0.46999998093E+01 0.  1.
       -5    1    3    3    0  502 -0.99723832742E+02 -0.65253545137E+03 -0.18145382949E+04  0.19308854631E+04  0.46999998093E+01 0. -1.
</event>
<event>
 5   0  0.6589193E-06  0.2101453E+04  0.7818609E-02  0.8560604E-01
       -1   -1    0    0    0  501  0.00000000000E+00  0.00000000000E+00  0.62158755031E+03  0.62158755033E+03  0.50400001928E-02 0. -1.
        1   -1    0    0  501    0  0.00000000000E+00  0.00000000000E+00 -0.17761392048E+04  0.17761392048E+04  0.50400001928E-02 0.  1.
    10030    2    1    2    0    0  0.00000000000E+00  0.00000000000E+00 -0.11545516545E+04  0.23977267552E+04  0.21014528473E+04 0.  0.
        3    1    3    3  502    0  0.44070506322E+03  0.95378428617E+03 -0.58871928274E+03  0.12043736220E+04  0.10100000352E+00 0. -1.
       -3    1    3    3    0  502 -0.44070506322E+03 -0.95378428617E+03 -0.56583237177E+03  0.11933531332E+04  0.10100000352E+00 0.  1.
</event>
<event>
 5   0  0.1398469E-05  0.2108151E+04  0.7818609E-02  0.8557661E-01
        2   -1    0    0  501    0  0.00000000000E+00  0.00000000000E+00  0.75253535549E+03  0.75253535549E+03  0.25500000920E-02 0. -1.
       -2   -1    0    0    0  501  0.00000000000E+00  0.00000000000E+00 -0.14764422370E+04  0.14764422370E+04  0.25500000920E-02 0.  1.
    10030    2    1    2    0    0  0.00000000000E+00  0.00000000000E+00 -0.72390688156E+03  0.22289775925E+04  0.21081508330E+04 0.  0.
        2    1    3    3  502    0  0.25636805226E+03 -0.81409755121E+03 -0.10159477932E+04  0.13268870787E+04  0.25500000920E-02 0.  1.
       -2    1    3    3    0  502 -0.25636805226E+03  0.81409755121E+03  0.29204091163E+03  0.90209051385E+03  0.25500000920E-02 0. -1.
</event>
<event>
 5   0  0.6238363E-06  0.2090872E+04  0.7818609E-02  0.8565275E-01
        1   -1    0    0  501    0  0.00000000000E+00  0.00000000000E+00  0.17596114088E+04  0.17596114088E+04  0.50400001928E-02 0. -1.
       -1   -1    0    0    0  501  0.00000000000E+00  0.00000000000E+00 -0.62112393881E+03  0.62112393883E+03  0.50400001928E-02 0.  1.
    10030    2    1    2    0    0  0.00000000000E+00  0.00000000000E+00  0.11384874700E+04  0.23807353477E+04  0.20908723242E+04 0.  0.
        4    1    3    3  502    0  0.60323427375E+03  0.83565963681E+03  0.36968545934E+03  0.10949372445E+04  0.12699999809E+01 0. -1.
       -4    1    3    3    0  502 -0.60323427375E+03 -0.83565963681E+03  0.76880201067E+03  0.12857981032E+04  0.12699999809E+01 0.  1.
</event>
<event>
 5   0  0.1344501E-05  0.2097806E+04  0.7818609E-02  0.8562210E-01
       -2   -1    0    0    0  501  0.00000000000E+00  0.00000000000E+00  0.88901032294E+03  0.88901032294E+03  0.25500000920E-02 0.  1.
        2   -1    0    0  501    0  0.00000000000E+00  0.00000000000E+00 -0.12375535459E+04  0.12375535459E+04  0.25500000920E-02 0. -1.
    10030    2    1    2    0    0  0.00000000000E+00  0.00000000000E+00 -0.34854322296E+03  0.21265638688E+04  0.20978063566E+04 0.  0.
        3    1    3    3  502    0  0.79696584142E+03 -0.40288976327E+03  0.38347360364E+03  0.97186764975E+03  0.10100000352E+00 0. -1.
       -3    1    3    3    0  502 -0.79696584142E+03  0.40288976327E+03 -0.73201682660E+03  0.11546962191E+04  0.10100000352E+00 0.  1.
</event>
<event>
 5   0  0.1390735E-05  0.2100765E+04  0.7818609E-02  0.8560906E-01
        2   -1    0    0  501    0  0.00000000000E+00  0.00000000000E+00  0.92264193323E+03  0.92264193323E+03  0.25500000920E-02 0.  1.
       -2   -1    0    0    0  501  0.00000000000E+00  0.00000000000E+00 -0.11958093703E+04  0.11958093703E+04  0.25500000920E-02 0. -1.
    10030    2    1    2    0    0  0.00000000000E+00  0.00000000000E+00 -0.27316743705E+03  0.21184513035E+04  0.21007654502E+04 0.  0.
        5    1    3    3  502    0 -0.14785664506E+02  0.50224222306E+02 -0.11944821456E+04  0.11956382290E+04  0.46999998093E+01 0. -1.
       -5    1    3    3    0  502  0.14785664506E+02 -0.50224222306E+02  0.92131470855E+03  0.92281307455E+03  0.46999998093E+01 0.  1.
</event>
<event>
 5   0  0.1398469E-05  0.2106222E+04  0.7818609E-02  0.8558507E-01
        2   -1    0    0  501    0  0.00000000000E+00  0.00000000000E+00  0.11448722085E+04  0.11448722085E+04  0.25500000920E-02 0.  1.
       -2   -1    0    0    0  501  0.00000000000E+00  0.00000000000E+00 -0.96870439875E+03  0.96870439876E+03  0.25500000920E-02 0. -1.
    10030    2    1    2    0    0  0.00000000000E+00  0.00000000000E+00  0.17616780972E+03  0.21135766072E+04  0.21062219678E+04 0.  0.
        2    1    3    3  502    0 -0.16631398667E+03 -0.35843495163E+03 -0.89149419171E+03  0.97513991333E+03  0.25500000920E-02 0. -1.
       -2    1    3    3    0  502  0.16631398667E+03  0.35843495163E+03  0.10676620014E+04  0.11384366939E+04  0.25500000920E-02 0.  1.
</event>
<event>
 5   0  0.6589193E-06  0.2093641E+04  0.7818609E-02  0.8564050E-01
       -1   -1    0    0    0  501  0.00000000000E+00  0.00000000000E+00  0.13378411125E+04  0.13378411125E+04  0.50400001928E-02 0. -1.
        1   -1    0    0  501    0  0.00000000000E+00  0.00000000000E+00 -0.81910565425E+03  0.81910565426E+03  0.50400001928E-02 0.  1.
    10030    2    1    2    0    0  0.00000000000E+00  0.00000000000E+00  0.51873545823E+03  0.21569467668E+04  0.20936410578E+04 0.  0.
        3    1    3    3  502    0  0.10282335308E+03 -0.90055403020E+03  0.79890421185E+03  0.12082293463E+04  0.10100000352E+00 0.  1.
       -3    1    3    3    0  502 -0.10282335308E+03  0.90055403020E+03 -0.28016875361E+03  0.94871742050E+03  0.10100000352E+00 0. -1.
</event>
<event>
 5   0  0.1398469E-05  0.2101511E+04  0.7818609E-02  0.8560578E-01
        2   -1    0    0  501    0  0.00000000000E+00  0.00000000000E+00  0.11658552398E+04  0.11658552398E+04  0.25500000920E-02 0. -1.
       -2   -1    0    0    0  501  0.00000000000E+00  0.00000000000E+00 -0.94701906575E+03  0.94701906576E+03  0.25500000920E-02 0.  1.
    10030    2    1    2    0    0  0.00000000000E+00  0.00000000000E+00  0.21883617408E+03  0.21128743056E+04  0.21015110183E+04 0.  0.
        2    1    3    3  502    0 -0.37373603558E+03  0.84155377522E+03  0.61831282312E+03  0.11091447733E+04  0.25500000920E-02 0. -1.
       -2    1    3    3    0  502  0.37373603558E+03 -0.84155377522E+03 -0.39947664903E+03  0.10037295323E+04  0.25500000920E-02 0.  1.
</event>
<event>
 5   0  0.6917078E-06  0.2098891E+04  0.7818609E-02  0.8561732E-01
       -1   -1    0    0    0  501  0.00000000000E+00  0.00000000000E+00  0.98089744955E+03  0.98089744956E+03  0.50400001928E-02 0. -1.
        1   -1    0    0  501    0  0.00000000000E+00  0.00000000000E+00 -0.11227838703E+04  0.11227838703E+04  0.50400001928E-02 0.  1.
    10030    2    1    2    0    0  0.00000000000E+00  0.00000000000E+00 -0.14188642077E+03  0.21036813199E+04  0.20988909784E+04 0.  0.
        5    1    3    3  502    0  0.12214602404E+03  0.97553767881E+03  0.29693718117E+03  0.10270283314E+04  0.46999998093E+01 0. -1.
       -5    1    3    3    0  502 -0.12214602404E+03 -0.97553767881E+03 -0.43882360195E+03  0.10766529885E+04  0.46999998093E+01 0.  1.
</event>
<event>
 5   0  0.6238363E-06  0.2100594E+04  0.7818609E-02  0.8560982E-01
       -1   -1    0    0    0  501  0.00000000000E+00  0.00000000000E+00  0.55470316140E+03  0.55470316143E+03  0.50400001928E-02 0. -1.
        1   -1    0    0  501    0  0.00000000000E+00  0.00000000000E+00 -0.19886748184E+04  0.19886748184E+04  0.50400001928E-02 0.  1.
    10030    2    1    2    0    0  0.00000000000E+00  0.00000000000E+00 -0.14339716570E+04  0.25433779799E+04  0.21005944005E+04 0.  0.
        4    1    3    3  502    0  0.18886944228E+03  0.77940891450E+03 -0.15381589379E+04  0.17346712811E+04  0.12699999809E+01 0.  1.
       -4    1    3    3    0  502 -0.18886944228E+03 -0.77940891450E+03  0.10418728089E+03  0.80870669877E+03  0.12699999809E+01 0. -1.
</event>
<event>
 5   0  0.1344501E-05  0.2101852E+04  0.7818609E-02  0.8560428E-01
       -2   -1    0    0    0  501  0.00000000000E+00  0.00000000000E+00  0.11256766132E+04  0.11256766132E+04  0.25500000920E-02 0.  1.
        2   -1    0    0  501    0  0.00000000000E+00  0.00000000000E+00 -0.98113916606E+03  0.98113916606E+03  0.25500000920E-02 0. -1.
    10030    2    1    2    0    0  0.00000000000E+00  0.00000000000E+00  0.14453744715E+03  0.21068157793E+04  0.21018519582E+04 0.  0.
        3    1    3    3  502    0 -0.10470664436E+04 -0.83877885664E+02  0.10493043245E+03  0.10556486361E+04  0.10100000352E+00 0. -1.
       -3    1    3    3    0  502  0.10470664436E+04  0.83877885664E+02  0.39607014693E+02  0.10511671432E+04  0.10100000352E+00 0.  1.
</event>
<event>
 5   0  0.6283269E-06  0.2099630E+04  0.7818609E-02  0.8561406E-01
        1   -1    0    0  501    0  0.00000000000E+00  0.00000000000E+00  0.14248118249E+04  0.14248118250E+04  0.50400001928E-02 0. -1.
       -1   -1    0    0    0  501  0.00000000000E+00  0.00000000000E+00 -0.77351387526E+03  0.77351387528E+03  0.50400001928E-02 0.  1.
    10030    2    1    2    0    0  0.00000000000E+00  0.00000000000E+00  0.65129794969E+03  0.21983257002E+04  0.20996301734E+04 0.  0.
        1    1    3    3  502    0 -0.22650001547E+03 -0.29159723750E+03  0.13545851833E+04  0.14040057780E+04  0.50400001928E-02 0. -1.
       -1    1    3    3    0  502  0.22650001547E+03  0.29159723750E+03 -0.70328723357E+03  0.79431992223E+03  0.50400001928E-02 0.  1.
</event>
<event>
 5   0  0.6599245E-06  0.2100164E+04  0.7818609E-02  0.8561171E-01
       -1   -1    0    0    0  501  0.00000000000E+00  0.00000000000E+00  0.11316180196E+04  0.11316180196E+04  0.50400001928E-02 0.  1.
        1   -1    0    0  501    0  0.00000000000E+00  0.00000000000E+00 -0.97442106782E+03  0.97442106783E+03  0.50400001928E-02 0. -1.
    10030    2    1    2    0    0  0.00000000000E+00  0.00000000000E+00  0.15719695176E+03  0.21060390874E+04  0.21001642212E+04 0.  0.
        2    1    3    3  502    0  0.39756974169E+03 -0.91245876014E+03 -0.25704627237E+03  0.10279666700E+04  0.25500000920E-02 0. -1.
       -2    1    3    3    0  502 -0.39756974169E+03  0.91245876014E+03  0.41424322413E+03  0.10780724174E+04  0.25500000920E-02 0.  1.
</event>
<event>
 5   0  0.6599245E-06  0.2099454E+04  0.7818609E-02  0.8561484E-01
       -1   -1    0    0    0  501  0.00000000000E+00  0.00000000000E+00  0.10404997611E+04  0.10404997611E+04  0.50400001928E-02 0. -1.
        1   -1    0    0  501    0  0.00000000000E+00  0.00000000000E+00 -0.10590360727E+04  0.10590360727E+04  0.50400001928E-02 0.  1.
    10030    2    1    2    0    0  0.00000000000E+00  0.00000000000E+00 -0.18536311583E+02  0.20995358338E+04  0.20994540058E+04 0.  0.
        2    1    3    3  502    0 -0.72532478539E+03 -0.63672170758E+03 -0.42209922043E+03  0.10534127060E+04  0.25500000920E-02 0.  1.
       -2    1    3    3    0  502  0.72532478539E+03  0.63672170758E+03  0.40356290884E+03  0.10461231278E+04  0.25500000920E-02 0. -1.
</event>
<event>
 5   0  0.1441136E-05  0.2100518E+04  0.7818609E-02  0.8561015E-01
       -2   -1    0    0    0  501  0.00000000000E+00  0.00000000000E+00  0.55291628527E+03  0.55291628527E+03  0.25500000920E-02 0.  1.
        2   -1    0    0  501    0  0.00000000000E+00  0.00000000000E+00 -0.19949565627E+04  0.19949565628E+04  0.25500000920E-02 0. -1.
    10030    2    1    2    0    0  0.00000000000E+00  0.00000000000E+00 -0.14420402775E+04  0.25478728480E+04  0.21005180046E+04 0.  0.
        4    1    3    3  502    0 -0.70252173845E+03 -0.12765999703E+03 -0.16552527469E+04  0.18026916366E+04  0.12699999809E+01 0. -1.
       -4    1    3    3    0  502  0.70252173845E+03  0.12765999703E+03  0.21321246937E+03  0.74518121141E+03  0.12699999809E+01 0.  1.
</event>
<event>
 5   0  0.6238363E-06  0.2097194E+04  0.7818609E-02  0.8562480E-01
        1   -1    0    0  501    0  0.00000000000E+00  0.00000000000E+00  0.12254174740E+04  0.12254174740E+04  0.50400001928E-02 0.  1.
       -1   -1    0    0    0  501  0.00000000000E+00  0.00000000000E+00 -0.89729063669E+03  0.89729063671E+03  0.50400001928E-02 0. -1.
    10030    2    1    2    0    0  0.00000000000E+00  0.00000000000E+00  0.32812683728E+03  0.21227081107E+04  0.20971939590E+04 0.  0.
        4    1    3    3  502    0  0.94360915776E+03 -0.71934087186E+01  0.62690554203E+03  0.11328998893E+04  0.12699999809E+01 0. -1.
       -4    1    3    3    0  502 -0.94360915776E+03  0.71934087186E+01 -0.29877870475E+03  0.98980822135E+03  0.12699999809E+01 0.  1.
</event>
<event>
 5   0  0.6283269E-06  0.2099150E+04  0.7818609E-02  0.8561618E-01
       -1   -1    0    0    0  501  0.00000000000E+00  0.00000000000E+00  0.16165673001E+04  0.16165673002E+04  0.50400001928E-02 0. -1.
        1   -1    0    0  501    0  0.00000000000E+00  0.00000000000E+00 -0.68144886006E+03  0.68144886007E+03  0.50400001928E-02 0.  1.
    10030    2    1    2    0    0  0.00000000000E+00  0.00000000000E+00  0.93511844009E+03  0.22980161602E+04  0.20991502509E+04 0.  0.
        1    1    3    3  502    0 -0.85961482657E+03  0.49590928871E+03  0.93511215333E+02  0.99679888649E+03  0.50400001928E-02 0.  1.
       -1    1    3    3    0  502  0.85961482657E+03 -0.49590928871E+03  0.84160722476E+03  0.13012172737E+04  0.50400001928E-02 0. -1.
</event>
<event>
 5   0  0.1390735E-05  0.2100221E+04  0.7818609E-02  0.8561146E-01
        2   -1    0    0  501    0  0.00000000000E+00  0.00000000000E+00  0.10556942288E+04  0.10556942288E+04  0.25500000920E-02 0.  1.
       -2   -1    0    0    0  501  0.00000000000E+00  0.00000000000E+00 -0.10445560170E+04  0.10445560170E+04  0.25500000920E-02 0. -1.
    10030    2    1    2    0    0  0.00000000000E+00  0.00000000000E+00  0.11138211778E+02  0.21002502458E+04  0.21002207111E+04 0.  0.
        5    1    3    3  502    0 -0.94871758565E+03  0.31464915510E+03 -0.31636789980E+03  0.10484178013E+04  0.46999998093E+01 0. -1.
       -5    1    3    3    0  502  0.94871758565E+03 -0.31464915510E+03  0.32750611158E+03  0.10518324445E+04  0.46999998093E+01 0.  1.
</event>
<event>
 5   0  0.1395356E-05  0.2105474E+04  0.7818609E-02  0.8558836E-01
       -2   -1    0    0    0  501  0.00000000000E+00  0.00000000000E+00  0.13686133088E+04  0.13686133088E+04  0.25500000920E-02 0. -1.
        2   -1    0    0  501    0  0.00000000000E+00  0.00000000000E+00 -0.80976495321E+03  0.80976495321E+03  0.25500000920E-02 0.  1.
    10030    2    1    2    0    0  0.00000000000E+00  0.00000000000E+00  0.55884835557E+03  0.21783782620E+04  0.21054739057E+04 0.  0.
        1    1    3    3  502    0 -0.82920694544E+03 -0.32651345197E+03  0.85923948244E+03  0.12379368647E+04  0.50400001928E-02 0. -1.
       -1    1    3    3    0  502  0.82920694544E+03  0.32651345197E+03 -0.30039112687E+03  0.94044139733E+03  0.50400001928E-02 0.  1.
</event>
<event>
 5   0  0.1395356E-05  0.2102419E+04  0.7818609E-02  0.8560178E-01
        2   -1    0    0  501    0  0.00000000000E+00  0.00000000000E+00  0.14408184243E+04  0.14408184243E+04  0.25500000920E-02 0.  1.
       -2   -1    0    0    0  501  0.00000000000E+00  0.00000000000E+00 -0.76695413276E+03  0.76695413276E+03  0.25500000920E-02 0. -1.
    10030    2    1    2    0    0  0.00000000000E+00  0.00000000000E+00  0.67386429157E+03  0.22077725571E+04  0.21024192209E+04 0.  0.
        1    1    3    3  502    0 -0.63556807014E+03 -0.20600745796E+03  0.11891767746E+04  0.13640114537E+04  0.50400001928E-02 0.  1.
       -1    1    3    3    0  502  0.63556807014E+03  0.20600745796E+03 -0.51531248300E+03  0.84376110344E+03  0.50400001928E-02 0. -1.
</event>
<event>
 5   0  0.6589193E-06  0.2102369E+04  0.7818609E-02  0.8560200E-01
       -1   -1    0    0    0  501  0.00000000000E+00  0.00000000000E+00  0.17816363007E+04  0.17816363008E+04  0.50400001928E-02 0.  1.
        1   -1    0    0  501    0  0.00000000000E+00  0.00000000000E+00 -0.62021039463E+03  0.62021039465E+03  0.50400001928E-02 0. -1.
    10030    2    1    2    0    0  0.00000000000E+00  0.00000000000E+00  0.11614259061E+04  0.24018466954E+04  0.21023694758E+04 0.  0.
        3    1    3    3  502    0  0.20094278232E+03 -0.32223908719E+02 -0.59748939892E+03  0.63119725450E+03  0.10100000352E+00 0. -1.
       -3    1    3    3    0  502 -0.20094278232E+03  0.32223908719E+02  0.17589153050E+04  0.17706494409E+04  0.10100000352E+00 0.  1.
</event>
<event>
 5   0  0.1390735E-05  0.2103186E+04  0.7818609E-02  0.8559841E-01
       -2   -1    0    0    0  501  0.00000000000E+00  0.00000000000E+00  0.56508174115E+03  0.56508174116E+03  0.25500000920E-02 0. -1.
        2   -1    0    0  501    0  0.00000000000E+00  0.00000000000E+00 -0.19569699453E+04  0.19569699453E+04  0.25500000920E-02 0.  1.
    10030    2    1    2    0    0  0.00000000000E+00  0.00000000000E+00 -0.13918882042E+04  0.25220516865E+04  0.21031861393E+04 0.  0.
        5    1    3    3  502    0 -0.57952330687E+03 -0.68915902703E+03 -0.44592339551E+02  0.90155310131E+03  0.46999998093E+01 0. -1.
       -5    1    3    3    0  502  0.57952330687E+03  0.68915902703E+03 -0.13472958646E+04  0.16204985852E+04  0.46999998093E+01 0.  1.
</event>
<event>
 5   0  0.1398469E-05  0.2099992E+04  0.7818609E-02  0.8561247E-01
       -2   -1    0    0    0  501  0.00000000000E+00  0.00000000000E+00  0.83733316576E+03  0.83733316576E+03  0.25500000920E-02 0.  1.
        2   -1    0    0  501    0  0.00000000000E+00  0.00000000000E+00 -0.13166699189E+04  0.13166699189E+04  0.25500000920E-02 0. -1.
    10030    2    1    2    0    0  0.00000000000E+00  0.00000000000E+00 -0.47933675318E+03  0.21540030847E+04  0.20999918014E+04 0.  0.
        2    1    3    3  502    0 -0.10099991058E+04  0.28434797165E+03 -0.19942369169E+03  0.10680457722E+04  0.25500000920E-02 0.  1.
       -2    1    3    3    0  502  0.10099991058E+04 -0.28434797165E+03 -0.27991306150E+03  0.10859573125E+04  0.25500000920E-02 0. -1.
</event>
<event>
 5   0  0.6917078E-06  0.2096387E+04  0.7818609E-02  0.8562837E-01
        1   -1    0    0  501    0  0.00000000000E+00  0.00000000000E+00  0.14679014186E+04  0.14679014186E+04  0.50400001928E-02 0.  1.
       -1   -1    0    0    0  501  0.00000000000E+00  0.00000000000E+00 -0.74848993220E+03  0.74848993222E+03  0.50400001928E-02 0. -1.
    10030    2    1    2    0    0  0.00000000000E+00  0.00000000000E+00  0.71941148638E+03  0.22163913508E+04  0.20963868281E+04 0.  0.
        5    1    3    3  502    0 -0.86012879597E+03 -0.42184019890E+03 -0.89985350416E+02  0.96223185997E+03  0.46999998093E+01 0.  1.
       -5    1    3    3    0  502  0.86012879597E+03  0.42184019890E+03  0.80939683680E+03  0.12541594908E+04  0.46999998093E+01 0. -1.
</event>
<event>
 5   0  0.1395356E-05  0.2096643E+04  0.7818609E-02  0.8562724E-01
        2   -1    0    0  501    0  0.00000000000E+00  0.00000000000E+00  0.73186347858E+03  0.73186347859E+03  0.25500000920E-02 0.  1.
       -2   -1    0    0    0  501  0.00000000000E+00  0.00000000000E+00 -0.15016156850E+04  0.15016156850E+04  0.25500000920E-02 0. -1.
    10030    2    1    2    0    0  0.00000000000E+00  0.00000000000E+00 -0.76975220645E+03  0.22334791636E+04  0.20966427247E+04 0.  0.
        1    1    3    3  502    0  0.65690048632E+02  0.80185237427E+02 -0.14961430177E+04  0.14997295704E+04  0.50400001928E-02 0. -1.
       -1    1    3    3    0  502 -0.65690048632E+02 -0.80185237427E+02  0.72639081129E+03  0.73374959322E+03  0.50400001928E-02 0.  1.
</event>
<event>
 5   0  0.1441136E-05  0.2099775E+04  0.7818609E-02  0.8561342E-01
       -2   -1    0    0    0  501  0.00000000000E+00  0.00000000000E+00  0.66726842358E+03  0.66726842359E+03  0.25500000920E-02 0. -1.
        2   -1    0    0  501    0  0.00000000000E+00  0.00000000000E+00 -0.16519051283E+04  0.16519051283E+04  0.25500000920E-02 0.  1.
    10030    2    1    2    0    0  0.00000000000E+00  0.00000000000E+00 -0.98463670474E+03  0.23191735519E+04  0.20997753507E+04 0.  0.
        4    1    3    3  502    0  0.93349468993E+03  0.44278050816E+03 -0.28629208102E+03  0.10721155176E+04  0.12699999809E+01 0. -1.
       -4    1    3    3    0  502 -0.93349468993E+03 -0.44278050816E+03 -0.69834462372E+03  0.12470580343E+04  0.12699999809E+01 0.  1.
</event>
<event>
 5   0  0.1395356E-05  0.2099318E+04  0.7818609E-02  0.8561544E-01
        2   -1    0    0  501    0  0.00000000000E+00  0.00000000000E+00  0.13250269780E+04  0.13250269780E+04  0.25500000920E-02 0. -1.
       -2   -1    0    0    0  501  0.00000000000E+00  0.00000000000E+00 -0.83151793145E+03  0.83151793145E+03  0.25500000920E-02 0.  1.
    10030    2    1    2    0    0  0.00000000000E+00  0.00000000000E+00  0.49350904650E+03  0.21565449094E+04  0.20993176909E+04 0.  0.
        1    1    3    3  502    0  0.21496803151E+03 -0.83172112729E+03  0.86636548421E+03  0.12200657525E+04  0.50400001928E-02 0. -1.
       -1    1    3    3    0  502 -0.21496803151E+03  0.83172112729E+03 -0.37285643771E+03  0.93647915691E+03  0.50400001928E-02 0.  1.
</event>
<event>
 5   0  0.1398469E-05  0.2096827E+04  0.7818609E-02  0.8562642E-01
        2   -1    0    0  501    0  0.00000000000E+00  0.00000000000E+00  0.19181216081E+04  0.19181216081E+04  0.25500000920E-02 0.  1.
       -2   -1    0    0    0  501  0.00000000000E+00  0.00000000000E+00 -0.57304568696E+03  0.57304568696E+03  0.25500000920E-02 0. -1.
    10030    2    1    2    0    0  0.00000000000E+00  0.00000000000E+00  0.13450759211E+04  0.24911672951E+04  0.20968274269E+04 0.  0.
        2    1    3    3  502    0  0.69785262026E+03  0.46646150140E+03  0.14188345002E+04  0.16485375188E+04  0.25500000920E-02 0.  1.
       -2    1    3    3    0  502 -0.69785262026E+03 -0.46646150140E+03 -0.73758579046E+02  0.84262977628E+03  0.25500000920E-02 0. -1.
</event>
<event>
 5   0  0.6599245E-06  0.2104997E+04  0.7818609E-02  0.8559045E-01
        1   -1    0    0  501    0  0.00000000000E+00  0.00000000000E+00  0.11703925835E+04  0.11703925835E+04  0.50400001928E-02 0. -1.
       -1   -1    0    0    0  501  0.00000000000E+00  0.00000000000E+00 -0.94647975089E+03  0.94647975090E+03  0.50400001928E-02 0.  1.
    10030    2    1    2    0    0  0.00000000000E+00  0.00000000000E+00  0.22391283257E+03  0.21168723344E+04  0.21049967989E+04 0.  0.
        2    1    3    3  502    0  0.18528175637E+03  0.99643108281E+03 -0.17345566806E+03  0.10282466148E+04  0.25500000920E-02 0.  1.
       -2    1    3    3    0  502 -0.18528175637E+03 -0.99643108281E+03  0.39736850062E+03  0.10886257196E+04  0.25500000920E-02 0. -1.
</event>
<event>
 5   0  0.6599245E-06  0.2064567E+04  0.7818609E-02  0.8577014E-01
       -1   -1    0    0    0  501  0.00000000000E+00  0.00000000000E+00  0.74998372721E+03  0.74998372723E+03  0.50400001928E-02 0. -1.
        1   -1    0    0  501    0  0.00000000000E+00  0.00000000000E+00 -0.14208435178E+04  0.14208435178E+04  0.50400001928E-02 0.  1.
    10030    2    1    2    0    0  0.00000000000E+00  0.00000000000E+00 -0.67085979061E+03  0.21708272451E+04  0.20645672838E+04 0.  0.
        2    1    3    3  502    0  0.36592207497E+03 -0.38672653535E+03 -0.12653424667E+04  0.13727883799E+04  0.25500000920E-02 0.  1.
       -2    1    3    3    0  502 -0.36592207497E+03  0.38672653535E+03  0.59448267608E+03  0.79803886513E+03  0.25500000920E-02 0. -1.
</event>
<event>
 5   0  0.1395356E-05  0.2099081E+04  0.7818609E-02  0.8561648E-01
        2   -1    0    0  501    0  0.00000000000E+00  0.00000000000E+00  0.89550396959E+03  0.89550396960E+03  0.25500000920E-02 0. -1.
       -2   -1    0    0    0  501  0.00000000000E+00  0.00000000000E+00 -0.12300730530E+04  0.12300730530E+04  0.25500000920E-02 0.  1.
    10030    2    1    2    0    0  0.00000000000E+00  0.00000000000E+00 -0.33456908340E+03  0.21255770226E+04  0.20990810388E+04 0.  0.
        1    1    3    3  502    0  0.98561623279E+03  0.37736858115E+02 -0.53052101678E+03  0.11199624896E+04  0.50400001928E-02 0.  1.
       -1    1    3    3    0  502 -0.98561623279E+03 -0.37736858115E+02  0.19595193338E+03  0.10056145330E+04  0.50400001928E-02 0. -1.
</event>
<event>
 5   0  0.6283269E-06  0.2099611E+04  0.7818609E-02  0.8561415E-01
       -1   -1    0    0    0  501  0.00000000000E+00  0.00000000000E+00  0.78564574881E+03  0.78564574883E+03  0.50400001928E-02 0.  1.
        1   -1    0    0  501    0  0.00000000000E+00  0.00000000000E+00 -0.14027840921E+04  0.14027840921E+04  0.50400001928E-02 0. -1.
    10030    2    1    2    0    0  0.00000000000E+00  0.00000000000E+00 -0.61713834325E+03  0.21884298409E+04  0.20996107815E+04 0.  0.
        1    1    3    3  502    0 -0.18394641221E+03  0.71524994102E+03 -0.10862363247E+04  0.13135174585E+04  0.50400001928E-02 0. -1.
       -1    1    3    3    0  502  0.18394641221E+03 -0.71524994102E+03  0.46909798142E+03  0.87491238241E+03  0.50400001928E-02 0.  1.
</event>
<event>
 5   0  0.6917078E-06  0.2098662E+04  0.7818609E-02  0.8561833E-01
        1   -1    0    0  501    0  0.00000000000E+00  0.00000000000E+00  0.19715748504E+04  0.19715748504E+04  0.50400001928E-02 0. -1.
       -1   -1    0    0    0  501  0.00000000000E+00  0.00000000000E+00 -0.55848537877E+03  0.55848537879E+03  0.50400001928E-02 0.  1.
    10030    2    1    2    0    0  0.00000000000E+00  0.00000000000E+00  0.14130894716E+04  0.25300602292E+04  0.20986621711E+04 0.  0.
        5    1    3    3  502    0  0.16121576937E+03  0.46446330949E+03  0.18241157304E+04  0.18892159692E+04  0.46999998093E+01 0. -1.
       -5    1    3    3    0  502 -0.16121576937E+03 -0.46446330949E+03 -0.41102625882E+03  0.64084426002E+03  0.46999998093E+01 0.  1.
</event>
<event>
 5   0  0.1395356E-05  0.2100076E+04  0.7818609E-02  0.8561210E-01
        2   -1    0    0  501    0  0.00000000000E+00  0.00000000000E+00  0.15431625306E+04  0.15431625306E+04  0.25500000920E-02 0.  1.
       -2   -1    0    0    0  501  0.00000000000E+00  0.00000000000E+00 -0.71449377480E+03  0.71449377481E+03  0.25500000920E-02 0. -1.
    10030    2    1    2    0    0  0.00000000000E+00  0.00000000000E+00  0.82866875582E+03  0.22576563054E+04  0.21000762097E+04 0.  0.
        1    1    3    3  502    0  0.48833136123E+02 -0.10143260035E+04  0.70146767449E+03  0.12342199216E+04  0.50400001928E-02 0.  1.
       -1    1    3    3    0  502 -0.48833136123E+02  0.10143260035E+04  0.12720108134E+03  0.10234363838E+04  0.50400001928E-02 0. -1.
</event>
<event>
 5   0  0.6238363E-06  0.2095241E+04  0.7818609E-02  0.8563343E-01
       -1   -1    0    0    0  501  0.00000000000E+00  0.00000000000E+00  0.77008697300E+03  0.77008697302E+03  0.50400001928E-02 0.  1.
        1   -1    0    0  501    0  0.00000000000E+00  0.00000000000E+00 -0.14251743597E+04  0.14251743597E+04  0.50400001928E-02 0. -1.
    10030    2    1    2    0    0  0.00000000000E+00  0.00000000000E+00 -0.65508738665E+03  0.21952613327E+04  0.20952405195E+04 0.  0.
        4    1    3    3  502    0 -0.39551204771E+03 -0.71095211314E+03  0.36398180340E+03  0.89127271537E+03  0.12699999809E+01 0.  1.
       -4    1    3    3    0  502  0.39551204771E+03  0.71095211314E+03 -0.10190691901E+04  0.13039886173E+04  0.12699999809E+01 0. -1.
</event>
<event>
 5   0  0.1398469E-05  0.2100235E+04  0.7818609E-02  0.8561140E-01
        2   -1    0    0  501    0  0.00000000000E+00  0.00000000000E+00  0.22374175990E+04  0.22374175990E+04  0.25500000920E-02 0. -1.
       -2   -1    0    0    0  501  0.00000000000E+00  0.00000000000E+00 -0.49286594138E+03  0.49286594139E+03  0.25500000920E-02 0.  1.
    10030    2    1    2    0    0  0.00000000000E+00  0.00000000000E+00  0.17445516576E+04  0.27302835404E+04  0.21002351594E+04 0.  0.
        2    1    3    3  502    0 -0.57330503120E+03 -0.73480555681E+03  0.24325142800E+03  0.96321810736E+03  0.25500000920E-02 0.  1.
       -2    1    3    3    0  502  0.57330503120E+03  0.73480555681E+03  0.15013002296E+04  0.17670654330E+04  0.25500000920E-02 0. -1.
</event>
<event>
 5   0  0.6238363E-06  0.2106026E+04  0.7818609E-02  0.8558593E-01
       -1   -1    0    0    0  501  0.00000000000E+00  0.00000000000E+00  0.11009459537E+04  0.11009459537E+04  0.50400001928E-02 0. -1.
        1   -1    0    0  501    0  0.00000000000E+00  0.00000000000E+00 -0.10071670555E+04  0.10071670555E+04  0.50400001928E-02 0.  1.
    10030    2    1    2    0    0  0.00000000000E+00  0.00000000000E+00  0.93778898176E+02  0.21081130092E+04  0.21060261104E+04 0.  0.
        4    1    3    3  502    0 -0.75388987690E+03 -0.40319801876E+03 -0.56846868381E+03  0.10266824466E+04  0.12699999809E+01 0.  1.
       -4    1    3    3    0  502  0.75388987690E+03  0.40319801876E+03  0.66224758199E+03  0.10814305625E+04  0.12699999809E+01 0. -1.
</event>
<event>
 5   0  0.6283269E-06  0.2098043E+04  0.7818609E-02  0.8562106E-01
       -1   -1    0    0    0  501  0.00000000000E+00  0.00000000000E+00  0.70877182301E+03  0.70877182303E+03  0.50400001928E-02 0. -1.
        1   -1    0    0  501    0  0.00000000000E+00  0.00000000000E+00 -0.15526097198E+04  0.15526097199E+04  0.50400001928E-02 0.  1.
    10030    2    1    2    0    0  0.00000000000E+00  0.00000000000E+00 -0.84383789684E+03  0.22613815429E+04  0.20980429181E+04 0.  0.
        1    1    3    3  502    0  0.47896941135E+03 -0.92455258546E+03 -0.55926312427E+03  0.11819409556E+04  0.50400001928E-02 0.  1.
       -1    1    3    3    0  502 -0.47896941135E+03  0.92455258546E+03 -0.28457477257E+03  0.10794405873E+04  0.50400001928E-02 0. -1.
</event>
<event>
 5   0  0.1390735E-05  0.2100157E+04  0.7818609E-02  0.8561174E-01
        2   -1    0    0  501    0  0.00000000000E+00  0.00000000000E+00  0.88912989715E+03  0.88912989716E+03  0.25500000920E-02 0.  1.
       -2   -1    0    0    0  501  0.00000000000E+00  0.00000000000E+00 -0.12401613996E+04  0.12401613996E+04  0.25500000920E-02 0. -1.
    10030    2    1    2    0    0  0.00000000000E+00  0.00000000000E+00 -0.35103150249E+03  0.21292912968E+04  0.21001567348E+04 0.  0.
        5    1    3    3  502    0 -0.94505552210E+03  0.45537926828E+03 -0.12858900271E+03  0.10569093809E+04  0.46999998093E+01 0.  1.
       -5    1    3    3    0  502  0.94505552210E+03 -0.45537926828E+03 -0.22244249979E+03  0.10723819159E+04  0.46999998093E+01 0. -1.
</event>
<event>
 5   0  0.6589193E-06  0.2093991E+04  0.7818609E-02  0.8563895E-01
       -1   -1    0    0    0  501  0.00000000000E+00  0.00000000000E+00  0.70354037906E+03  0.70354037908E+03  0.50400001928E-02 0. -1.
        1   -1    0    0  501    0  0.00000000000E+00  0.00000000000E+00 -0.15581188427E+04  0.15581188427E+04  0.50400001928E-02 0.  1.
    10030    2    1    2    0    0  0.00000000000E+00  0.00000000000E+00 -0.85457846365E+03  0.22616592218E+04  0.20939909467E+04 0.  0.
        3    1    3    3  502    0 -0.55394778183E+03  0.79838271480E+03 -0.63019254351E+01  0.97175759773E+03  0.10100000352E+00 0. -1.
       -3    1    3    3    0  502  0.55394778183E+03 -0.79838271480E+03 -0.84827653821E+03  0.12899016241E+04  0.10100000352E+00 0.  1.
</event>
<event>
 5   0  0.6589193E-06  0.2101060E+04  0.7818609E-02  0.8560777E-01
       -1   -1    0    0    0  501  0.00000000000E+00  0.00000000000E+00  0.60449846010E+03  0.60449846012E+03  0.50400001928E-02 0.  1.
        1   -1    0    0  501    0  0.00000000000E+00  0.00000000000E+00 -0.18256668682E+04  0.18256668682E+04  0.50400001928E-02 0. -1.
    10030    2    1    2    0    0  0.00000000000E+00  0.00000000000E+00 -0.12211684081E+04  0.24301653283E+04  0.21010595523E+04 0.  0.
        3    1    3    3  502    0 -0.11473765419E+03 -0.30347006125E+03  0.54510149149E+03  0.63434568935E+03  0.10100000352E+00 0.  1.
       -3    1    3    3    0  502  0.11473765419E+03  0.30347006125E+03 -0.17662698996E+04  0.17958196390E+04  0.10100000352E+00 0. -1.
</event>
<event>
 5   0  0.1398469E-05  0.2102926E+04  0.7818609E-02  0.8559956E-01
       -2   -1    0    0    0  501  0.00000000000E+00  0.00000000000E+00  0.14083684504E+04  0.14083684504E+04  0.25500000920E-02 0.  1.
        2   -1    0    0  501    0  0.00000000000E+00  0.00000000000E+00 -0.78500365052E+03  0.78500365053E+03  0.25500000920E-02 0. -1.
    10030    2    1    2    0    0  0.00000000000E+00  0.00000000000E+00  0.62336479987E+03  0.21933721009E+04  0.21029259377E+04 0.  0.
        2    1    3    3  502    0 -0.39805691631E+03 -0.18012735042E+03 -0.68584019095E+03  0.81318628771E+03  0.25500000920E-02 0. -1.
       -2    1    3    3    0  502  0.39805691631E+03  0.18012735042E+03  0.13092049908E+04  0.13801858132E+04  0.25500000920E-02 0.  1.
</event>
<event>
 5   0  0.1441136E-05  0.2104084E+04  0.7818609E-02  0.8559447E-01
       -2   -1    0    0    0  501  0.00000000000E+00  0.00000000000E+00  0.65530058808E+03  0.65530058808E+03  0.25500000920E-02 0. -1.
        2   -1    0    0  501    0  0.00000000000E+00  0.00000000000E+00 -0.16889836612E+04  0.16889836612E+04  0.25500000920E-02 0.  1.
    10030    2    1    2    0    0  0.00000000000E+00  0.00000000000E+00 -0.10336830731E+04  0.23442842493E+04  0.21040836356E+04 0.  0.
        4    1    3    3  502    0  0.90243569486E+02  0.60686250827E+03 -0.14690171613E+04  0.15919921604E+04  0.12699999809E+01 0.  1.
       -4    1    3    3    0  502 -0.90243569486E+02 -0.60686250827E+03  0.43533408816E+03  0.75229208888E+03  0.12699999809E+01 0. -1.
</event>
<event>
 5   0  0.6589193E-06  0.2098587E+04  0.7818609E-02  0.8561866E-01
       -1   -1    0    0    0  501  0.00000000000E+00  0.00000000000E+00  0.17634083277E+04  0.17634083277E+04  0.50400001928E-02 0.  1.
        1   -1    0    0  501    0  0.00000000000E+00  0.00000000000E+00 -0.62436868068E+03  0.62436868070E+03  0.50400001928E-02 0. -1.
    10030    2    1    2    0    0  0.00000000000E+00  0.00000000000E+00  0.11390396470E+04  0.23877770084E+04  0.20985870781E+04 0.  0.
        3    1    3    3  502    0 -0.89174055316E+03 -0.12713058884E+03 -0.42839277930E+02  0.90177525732E+03  0.10100000352E+00 0. -1.
       -3    1    3    3    0  502  0.89174055316E+03  0.12713058884E+03  0.11818789249E+04  0.14860017510E+04  0.10100000352E+00 0.  1.
</event>
<event>
 5   0  0.1398469E-05  0.2098869E+04  0.7818609E-02  0.8561742E-01
        2   -1    0    0  501    0  0.00000000000E+00  0.00000000000E+00  0.13195126621E+04  0.13195126621E+04  0.25500000920E-02 0. -1.
       -2   -1    0    0    0  501  0.00000000000E+00  0.00000000000E+00 -0.83463625537E+03  0.83463625538E+03  0.25500000920E-02 0.  1.
    10030    2    1    2    0    0  0.00000000000E+00  0.00000000000E+00  0.48487640669E+03  0.21541489174E+04  0.20988693215E+04 0.  0.
        2    1    3    3  502    0 -0.32226156054E+03 -0.78407743595E+03  0.87734504028E+03  0.12199853518E+04  0.25500000920E-02 0. -1.
       -2    1    3    3    0  502  0.32226156054E+03  0.78407743595E+03 -0.39246863359E+03  0.93416356562E+03  0.25500000920E-02 0.  1.
</event>
<event>
 5   0  0.1441136E-05  0.2098095E+04  0.7818609E-02  0.8562083E-01
       -2   -1    0    0    0  501  0.00000000000E+00  0.00000000000E+00  0.67362056507E+03  0.67362056508E+03  0.25500000920E-02 0.  1.
        2   -1    0    0  501    0  0.00000000000E+00  0.00000000000E+00 -0.16337105695E+04  0.16337105695E+04  0.25500000920E-02 0. -1.
    10030    2    1    2    0    0  0.00000000000E+00  0.00000000000E+00 -0.96009000444E+03  0.23073311346E+04  0.20980953620E+04 0.  0.
        4    1    3    3  502    0  0.14501212094E+03  0.55703907133E+03 -0.14445361312E+04  0.15549943052E+04  0.12699999809E+01 0. -1.
       -4    1    3    3    0  502 -0.14501212094E+03 -0.55703907133E+03  0.48444612672E+03  0.75233682935E+03  0.12699999809E+01 0.  1.
</event>
<event>
 5   0  0.1344501E-05  0.2101029E+04  0.7818609E-02  0.8560790E-01
       -2   -1    0    0    0  501  0.00000000000E+00  0.00000000000E+00  0.60778652737E+03  0.60778652738E+03  0.25500000920E-02 0. -1.
        2   -1    0    0  501    0  0.00000000000E+00  0.00000000000E+00 -0.18157382316E+04  0.18157382316E+04  0.25500000920E-02 0.  1.
    10030    2    1    2    0    0  0.00000000000E+00  0.00000000000E+00 -0.12079517043E+04  0.24235247590E+04  0.21010294947E+04 0.  0.
        3    1    3    3  502    0  0.85687408744E+02  0.92248046866E+03 -0.32712510365E+02  0.92702894540E+03  0.10100000352E+00 0. -1.
       -3    1    3    3    0  502 -0.85687408744E+02 -0.92248046866E+03 -0.11752391939E+04  0.14964958136E+04  0.10100000352E+00 0.  1.
</event>
<event>
 5   0  0.6589193E-06  0.2093705E+04  0.7818609E-02  0.8564021E-01
       -1   -1    0    0    0  501  0.00000000000E+00  0.00000000000E+00  0.81156488897E+03  0.81156488899E+03  0.50400001928E-02 0.  1.
        1   -1    0    0  501    0  0.00000000000E+00  0.00000000000E+00 -0.13503548029E+04  0.13503548029E+04  0.50400001928E-02 0. -1.
    10030    2    1    2    0    0  0.00000000000E+00  0.00000000000E+00 -0.53878991389E+03  0.21619196919E+04  0.20937053715E+04 0.  0.
        3    1    3    3  502    0  0.33669838308E+03  0.43078249977E+02 -0.12919517250E+04  0.13357996881E+04  0.10100000352E+00 0. -1.
       -3    1    3    3    0  502 -0.33669838308E+03 -0.43078249977E+02  0.75316181108E+03  0.82612000379E+03  0.10100000352E+00 0.  1.
</event>
<event>
 5   0  0.1398469E-05  0.2100032E+04  0.7818609E-02  0.8561229E-01
        2   -1    0    0  501    0  0.00000000000E+00  0.00000000000E+00  0.13091461986E+04  0.13091461986E+04  0.25500000920E-02 0. -1.
       -2   -1    0    0    0  501  0.00000000000E+00  0.00000000000E+00 -0.84217737720E+03  0.84217737721E+03  0.25500000920E-02 0.  1.
    10030    2    1    2    0    0  0.00000000000E+00  0.00000000000E+00  0.46696882137E+03  0.21513235758E+04  0.21000317254E+04 0.  0.
        2    1    3    3  502    0  0.46586658060E+03 -0.52495048952E+03  0.10335385725E+04  0.12493224836E+04  0.25500000920E-02 0. -1.
       -2    1    3    3    0  502 -0.46586658060E+03  0.52495048952E+03 -0.56656975109E+03  0.90200109214E+03  0.25500000920E-02 0.  1.
</event>
<event>
 5   0  0.6917078E-06  0.2102387E+04  0.7818609E-02  0.8560193E-01
       -1   -1    0    0    0  501  0.00000000000E+00  0.00000000000E+00  0.13566707536E+04  0.13566707536E+04  0.50400001928E-02 0.  1.
        1   -1    0    0  501    0  0.00000000000E+00  0.00000000000E+00 -0.81449945025E+03  0.81449945026E+03  0.50400001928E-02 0. -1.
    10030    2    1    2    0    0  0.00000000000E+00  0.00000000000E+00  0.54217130337E+03  0.21711702039E+04  0.21023868179E+04 0.  0.
        5    1    3    3  502    0  0.58465661506E+03  0.35603432130E+02  0.11725087318E+04  0.13106829433E+04  0.46999998093E+01 0.  1.
       -5    1    3    3    0  502 -0.58465661506E+03 -0.35603432130E+02 -0.63033742840E+03  0.86048726054E+03  0.46999998093E+01 0. -1.
</event>
<event>
 5   0  0.6238363E-06  0.2095773E+04  0.7818609E-02  0.8563108E-01
        1   -1    0    0  501    0  0.00000000000E+00  0.00000000000E+00  0.15554638482E+04  0.15554638482E+04  0.50400001928E-02 0.  1.
       -1   -1    0    0    0  501  0.00000000000E+00  0.00000000000E+00 -0.70594112980E+03  0.70594112982E+03  0.50400001928E-02 0. -1.
    10030    2    1    2    0    0  0.00000000000E+00  0.00000000000E+00  0.84952271840E+03  0.22614049780E+04  0.20957727991E+04 0.  0.
        4    1    3    3  502    0  0.30326316025E+03  0.10232929631E+03  0.15014296536E+04  0.15351652832E+04  0.12699999809E+01 0.  1.
       -4    1    3    3    0  502 -0.30326316025E+03 -0.10232929631E+03 -0.65190693519E+03  0.72623969479E+03  0.12699999809E+01 0. -1.
</event>
<event>
 5   0  0.1398469E-05  0.2105324E+04  0.7818609E-02  0.8558902E-01
       -2   -1    0    0    0  501  0.00000000000E+00  0.00000000000E+00  0.45515109420E+03  0.45515109421E+03  0.25500000920E-02 0. -1.
        2   -1    0    0  501    0  0.00000000000E+00  0.00000000000E+00 -0.24345695553E+04  0.24345695553E+04  0.25500000920E-02 0.  1.
    10030    2    1    2    0    0  0.00000000000E+00  0.00000000000E+00 -0.19794184611E+04  0.28897206495E+04  0.21053237252E+04 0.  0.
        2    1    3    3  502    0  0.13302594338E+03  0.12794785051E+03 -0.24121862942E+04  0.24192373327E+04  0.25500000920E-02 0.  1.
       -2    1    3    3    0  502 -0.13302594338E+03 -0.12794785051E+03  0.43276783307E+03  0.47048331682E+03  0.25500000920E-02 0. -1.
</event>
<event>
 5   0  0.6917078E-06  0.2156908E+04  0.7818609E-02  0.8536581E-01
        1   -1    0    0  501    0  0.00000000000E+00  0.00000000000E+00  0.18680134245E+04  0.18680134245E+04  0.50400001928E-02 0.  1.
       -1   -1    0    0    0  501  0.00000000000E+00  0.00000000000E+00 -0.62262027928E+03  0.62262027930E+03  0.50400001928E-02 0. -1.
    10030    2    1    2    0    0  0.00000000000E+00  0.00000000000E+00  0.12453931452E+04  0.24906337038E+04  0.21569080093E+04 0.  0.
        5    1    3    3  502    0  0.91140126148E+03 -0.89868729221E+01  0.12883506370E+04  0.15781642745E+04  0.46999998093E+01 0.  1.
       -5    1    3    3    0  502 -0.91140126148E+03  0.89868729221E+01 -0.42957491836E+02  0.91246942931E+03  0.46999998093E+01 0. -1.
</event>
<event>
 5   0  0.6589193E-06  0.2101509E+04  0.7818609E-02  0.8560579E-01
       -1   -1    0    0    0  501  0.00000000000E+00  0.00000000000E+00  0.14167488480E+04  0.14167488481E+04  0.50400001928E-02 0. -1.
        1   -1    0    0  501    0  0.00000000000E+00  0.00000000000E+00 -0.77930872009E+03  0.77930872010E+03  0.50400001928E-02 0.  1.
    10030    2    1    2    0    0  0.00000000000E+00  0.00000000000E+00  0.63744012796E+03  0.21960575682E+04  0.21015087261E+04 0.  0.
        3    1    3    3  502    0  0.19886836027E+03  0.24609210050E+03 -0.72834561292E+03  0.79410156070E+03  0.10100000352E+00 0.  1.
       -3    1    3    3    0  502 -0.19886836027E+03 -0.24609210050E+03  0.13657857409E+04  0.14019560075E+04  0.10100000352E+00 0. -1.
</event>
<event>
 5   0  0.6589193E-06  0.2096394E+04  0.7818609E-02  0.8562833E-01
       -1   -1    0    0    0  501  0.00000000000E+00  0.00000000000E+00  0.54201163264E+03  0.54201163266E+03  0.50400001928E-02 0.  1.
        1   -1    0    0  501    0  0.00000000000E+00  0.00000000000E+00 -0.20271100583E+04  0.20271100583E+04  0.50400001928E-02 0. -1.
    10030    2    1    2    0    0  0.00000000000E+00  0.00000000000E+00 -0.14850984257E+04  0.25691216910E+04  0.20963942685E+04 0.  0.
        3    1    3    3  502    0  0.13604650397E+03 -0.46133452784E+03 -0.18838921874E+04  0.19443219851E+04  0.10100000352E+00 0. -1.
       -3    1    3    3    0  502 -0.13604650397E+03  0.46133452784E+03  0.39879376175E+03  0.62479970585E+03  0.10100000352E+00 0.  1.
</event>
<event>
 5   0  0.6599245E-06  0.2101381E+04  0.7818609E-02  0.8560635E-01
       -1   -1    0    0    0  501  0.00000000000E+00  0.00000000000E+00  0.11480746010E+04  0.11480746010E+04  0.50400001928E-02 0. -1.
        1   -1    0    0  501    0  0.00000000000E+00  0.00000000000E+00 -0.96156647153E+03  0.96156647154E+03  0.50400001928E-02 0.  1.
    10030    2    1    2    0    0  0.00000000000E+00  0.00000000000E+00  0.18650812947E+03  0.21096410726E+04  0.21013805397E+04 0.  0.
        2    1    3    3  502    0  0.75320845205E+03 -0.28701367447E+03  0.76988436174E+03  0.11146397409E+04  0.25500000920E-02 0. -1.
       -2    1    3    3    0  502 -0.75320845205E+03  0.28701367447E+03 -0.58337623227E+03  0.99500133164E+03  0.25500000920E-02 0.  1.
</event>
<event>
 5   0  0.1390735E-05  0.2101705E+04  0.7818609E-02  0.8560493E-01
       -2   -1    0    0    0  501  0.00000000000E+00  0.00000000000E+00  0.51179662611E+03  0.51179662612E+03  0.25500000920E-02 0. -1.
        2   -1    0    0  501    0  0.00000000000E+00  0.00000000000E+00 -0.21576760327E+04  0.21576760327E+04  0.25500000920E-02 0.  1.
    10030    2    1    2    0    0  0.00000000000E+00  0.00000000000E+00 -0.16458794066E+04  0.26694726588E+04  0.21017053207E+04 0.  0.
        5    1    3    3  502    0 -0.28260706586E+03  0.29755517160E+03  0.40579997484E+03  0.57714949831E+03  0.46999998093E+01 0. -1.
       -5    1    3    3    0  502  0.28260706586E+03 -0.29755517160E+03 -0.20516793814E+04  0.20923231605E+04  0.46999998093E+01 0.  1.
</event>
<event>
 5   0  0.6238363E-06  0.2091721E+04  0.7818609E-02  0.8564899E-01
        1   -1    0    0  501    0  0.00000000000E+00  0.00000000000E+00  0.20462112200E+04  0.20462112200E+04  0.50400001928E-02 0. -1.
       -1   -1    0    0    0  501  0.00000000000E+00  0.00000000000E+00 -0.53456062366E+03  0.53456062369E+03  0.50400001928E-02 0.  1.
    10030    2    1    2    0    0  0.00000000000E+00  0.00000000000E+00  0.15116505964E+04  0.25807718437E+04  0.20917207710E+04 0.  0.
        4    1    3    3  502    0 -0.74015650711E+03 -0.50314058559E+03  0.14234943898E+04  0.16814636465E+04  0.12699999809E+01 0. -1.
       -4    1    3    3    0  502  0.74015650711E+03  0.50314058559E+03  0.88156206562E+02  0.89930819720E+03  0.12699999809E+01 0.  1.
</event>
<event>
 5   0  0.6589193E-06  0.2100234E+04  0.7818609E-02  0.8561140E-01
       -1   -1    0    0    0  501  0.00000000000E+00  0.00000000000E+00  0.12939196915E+04  0.12939196916E+04  0.50400001928E-02 0. -1.
        1   -1    0    0  501    0  0.00000000000E+00  0.00000000000E+00 -0.85225204972E+03  0.85225204973E+03  0.50400001928E-02 0.  1.
    10030    2    1    2    0    0  0.00000000000E+00  0.00000000000E+00  0.44166764182E+03  0.21461717413E+04  0.21002339958E+04 0.  0.
        3    1    3    3  502    0 -0.13454465624E+03  0.76192002132E+03  0.94637876271E+03  0.12223981169E+04  0.10100000352E+00 0. -1.
       -3    1    3    3    0  502  0.13454465624E+03 -0.76192002132E+03 -0.50471112089E+03  0.92377362442E+03  0.10100000352E+00 0.  1.
</event>
<event>
 5   0  0.1398469E-05  0.2092752E+04  0.7818609E-02  0.8564443E-01
        2   -1    0    0  501    0  0.00000000000E+00  0.00000000000E+00  0.16204009012E+04  0.16204009012E+04  0.25500000920E-02 0. -1.
       -2   -1    0    0    0  501  0.00000000000E+00  0.00000000000E+00 -0.67569890078E+03  0.67569890079E+03  0.25500000920E-02 0.  1.
    10030    2    1    2    0    0  0.00000000000E+00  0.00000000000E+00  0.94470200040E+03  0.22960998020E+04  0.20927523578E+04 0.  0.
        2    1    3    3  502    0 -0.41720989488E+03 -0.95734552555E+03  0.54453558210E+03  0.11777493587E+04  0.25500000920E-02 0. -1.
       -2    1    3    3    0  502  0.41720989488E+03  0.95734552555E+03  0.40016641831E+03  0.11183504433E+04  0.25500000920E-02 0.  1.
</event>
<event>
 5   0  0.6599245E-06  0.2099030E+04  0.7818609E-02  0.8561671E-01
       -1   -1    0    0    0  501  0.00000000000E+00  0.00000000000E+00  0.10372970403E+04  0.10372970404E+04  0.50400001928E-02 0.  1.
        1   -1    0    0  501    0  0.00000000000E+00  0.00000000000E+00 -0.10618773111E+04  0.10618773111E+04  0.50400001928E-02 0. -1.
    10030    2    1    2    0    0  0.00000000000E+00  0.00000000000E+00 -0.24580270715E+02  0.20991743514E+04  0.20990304352E+04 0.  0.
        2    1    3    3  502    0  0.71874239803E+01  0.10328602556E+04  0.17381460458E+03  0.10474079833E+04  0.25500000920E-02 0.  1.
       -2    1    3    3    0  502 -0.71874239803E+01 -0.10328602556E+04 -0.19839487530E+03  0.10517663682E+04  0.25500000920E-02 0. -1.
</event>
<event>
 5   0  0.1390735E-05  0.2100631E+04  0.7818609E-02  0.8560966E-01
        2   -1    0    0  501    0  0.00000000000E+00  0.00000000000E+00  0.24145289597E+04  0.24145289597E+04  0.25500000920E-02 0.  1.
       -2   -1    0    0    0  501  0.00000000000E+00  0.00000000000E+00 -0.45688512084E+03  0.45688512085E+03  0.25500000920E-02 0. -1.
    10030    2    1    2    0    0  0.00000000000E+00  0.00000000000E+00  0.19576438389E+04  0.28714140806E+04  0.21006307201E+04 0.  0.
        5    1    3    3  502    0  0.39671581733E+02  0.55889189570E+02 -0.45381072334E+03  0.45898115269E+03  0.46999998093E+01 0. -1.
       -5    1    3    3    0  502 -0.39671581733E+02 -0.55889189570E+02  0.24114545622E+04  0.24124329279E+04  0.46999998093E+01 0.  1.
</event>
<event>
 5   0  0.6283269E-06  0.2099570E+04  0.7818609E-02  0.8561433E-01
       -1   -1    0    0    0  501  0.00000000000E+00  0.00000000000E+00  0.54894298714E+03  0.54894298716E+03  0.50400001928E-02 0. -1.
        1   -1    0    0  501    0  0.00000000000E+00  0.00000000000E+00 -0.20075828977E+04  0.20075828977E+04  0.50400001928E-02 0.  1.
    10030    2    1    2    0    0  0.00000000000E+00  0.00000000000E+00 -0.14586399106E+04  0.25565258849E+04  0.20995700063E+04 0.  0.
        1    1    3    3  502    0  0.37693085019E+03  0.22374603923E+01  0.46370056605E+03  0.59757851955E+03  0.50400001928E-02 0. -1.
       -1    1    3    3    0  502 -0.37693085019E+03 -0.22374603923E+01 -0.19223404766E+04  0.19589473653E+04  0.50400001928E-02 0.  1.
</event>
<event>
 5   0  0.1344501E-05  0.2111834E+04  0.7818609E-02  0.8556048E-01
        2   -1    0    0  501    0  0.00000000000E+00  0.00000000000E+00  0.27621303615E+04  0.27621303615E+04  0.25500000920E-02 0.  1.
       -2   -1    0    0    0  501  0.00000000000E+00  0.00000000000E+00 -0.40365964567E+03  0.40365964568E+03  0.25500000920E-02 0. -1.
    10030    2    1    2    0    0  0.00000000000E+00  0.00000000000E+00  0.23584707158E+04  0.31657900071E+04  0.21118338600E+04 0.  0.
        3    1    3    3  502    0 -0.11401323462E+03  0.66699119467E+03 -0.35923044361E+02  0.67761843743E+03  0.10100000352E+00 0. -1.
       -3    1    3    3    0  502  0.11401323462E+03 -0.66699119467E+03  0.23943937602E+04  0.24881715697E+04  0.10100000352E+00 0.  1.
</event>
<event>
 5   0  0.1390735E-05  0.2098046E+04  0.7818609E-02  0.8562104E-01
        2   -1    0    0  501    0  0.00000000000E+00  0.00000000000E+00  0.18510396681E+04  0.18510396681E+04  0.25500000920E-02 0.  1.
       -2   -1    0    0    0  501  0.00000000000E+00  0.00000000000E+00 -0.59450358099E+03  0.59450358100E+03  0.25500000920E-02 0. -1.
    10030    2    1    2    0    0  0.00000000000E+00  0.00000000000E+00  0.12565360871E+04  0.24455432491E+04  0.20980464354E+04 0.  0.
        5    1    3    3  502    0 -0.47571274251E+02 -0.84304079929E+03  0.13538162854E+04  0.15955630479E+04  0.46999998093E+01 0.  1.
       -5    1    3    3    0  502  0.47571274251E+02  0.84304079929E+03 -0.97280198259E+02  0.84998020117E+03  0.46999998093E+01 0. -1.
</event>
<event>
 5   0  0.6283269E-06  0.2104233E+04  0.7818609E-02  0.8559381E-01
        1   -1    0    0  501    0  0.00000000000E+00  0.00000000000E+00  0.18817155498E+04  0.18817155498E+04  0.50400001928E-02 0. -1.
       -1   -1    0    0    0  501  0.00000000000E+00  0.00000000000E+00 -0.58826601931E+03  0.58826601933E+03  0.50400001928E-02 0.  1.
    10030    2    1    2    0    0  0.00000000000E+00  0.00000000000E+00  0.12934495305E+04  0.24699815691E+04  0.21042331772E+04 0.  0.
        1    1    3    3  502    0  0.72580589881E+03 -0.55912868058E+03  0.39588350506E+02  0.91705306374E+03  0.50400001928E-02 0.  1.
       -1    1    3    3    0  502 -0.72580589881E+03  0.55912868058E+03  0.12538611800E+04  0.15529285054E+04  0.50400001928E-02 0. -1.
</event>
<event>
 5   0  0.1398469E-05  0.2097676E+04  0.7818609E-02  0.8562268E-01
        2   -1    0    0  501    0  0.00000000000E+00  0.00000000000E+00  0.17723019670E+04  0.17723019671E+04  0.25500000920E-02 0. -1.
       -2   -1    0    0    0  501  0.00000000000E+00  0.00000000000E+00 -0.62069597187E+03  0.62069597188E+03  0.25500000920E-02 0.  1.
    10030    2    1    2    0    0  0.00000000000E+00  0.00000000000E+00  0.11516059952E+04  0.23929979389E+04  0.20976755630E+04 0.  0.
        2    1    3    3  502    0  0.18498654563E+03  0.71318517789E+02  0.17507314315E+04  0.17619213655E+04  0.25500000920E-02 0. -1.
       -2    1    3    3    0  502 -0.18498654563E+03 -0.71318517789E+02 -0.59912543633E+03  0.63107657341E+03  0.25500000920E-02 0.  1.
</event>
<event>
 5   0  0.1390735E-05  0.2071171E+04  0.7818609E-02  0.8574050E-01
        2   -1    0    0  501    0  0.00000000000E+00  0.00000000000E+00  0.15223487854E+04  0.15223487854E+04  0.25500000920E-02 0. -1.
       -2   -1    0    0    0  501  0.00000000000E+00  0.00000000000E+00 -0.70446227382E+03  0.70446227383E+03  0.25500000920E-02 0.  1.
    10030    2    1    2    0    0  0.00000000000E+00  0.00000000000E+00  0.81788651155E+03  0.22268110592E+04  0.20711709605E+04 0.  0.
        5    1    3    3  502    0  0.95201162596E+02 -0.50483542013E+03  0.13756741312E+04  0.14684765806E+04  0.46999998093E+01 0. -1.
       -5    1    3    3    0  502 -0.95201162596E+02  0.50483542013E+03 -0.55778761961E+03  0.75833447856E+03  0.46999998093E+01 0.  1.
</event>
<event>
 5   0  0.6599245E-06  0.2101806E+04  0.7818609E-02  0.8560448E-01
        1   -1    0    0  501    0  0.00000000000E+00  0.00000000000E+00  0.74359293820E+03  0.74359293822E+03  0.50400001928E-02 0.  1.
       -1   -1    0    0    0  501  0.00000000000E+00  0.00000000000E+00 -0.14852176535E+04  0.14852176535E+04  0.50400001928E-02 0. -1.
    10030    2    1    2    0    0  0.00000000000E+00  0.00000000000E+00 -0.74162471532E+03  0.22288105918E+04  0.21018062317E+04 0.  0.
        2    1    3    3  502    0 -0.79060918151E+03  0.13166715785E+03  0.34996419181E+03  0.87457078267E+03  0.25500000920E-02 0.  1.
       -2    1    3    3    0  502  0.79060918151E+03 -0.13166715785E+03 -0.10915889071E+04  0.13542398091E+04  0.25500000920E-02 0. -1.
</event>
<event>
 5   0  0.1390735E-05  0.2101035E+04  0.7818609E-02  0.8560787E-01
        2   -1    0    0  501    0  0.00000000000E+00  0.00000000000E+00  0.19708163429E+04  0.19708163429E+04  0.25500000920E-02 0. -1.
       -2   -1    0    0    0  501  0.00000000000E+00  0.00000000000E+00 -0.55996463255E+03  0.55996463255E+03  0.25500000920E-02 0.  1.
    10030    2    1    2    0    0  0.00000000000E+00  0.00000000000E+00  0.14108517104E+04  0.25307809755E+04  0.21010354107E+04 0.  0.
        5    1    3    3  502    0  0.38440782369E+03 -0.74756577430E+03  0.14643255641E+04  0.16884594782E+04  0.46999998093E+01 0. -1.
       -5    1    3    3    0  502 -0.38440782369E+03  0.74756577430E+03 -0.53473853692E+02  0.84232149731E+03  0.46999998093E+01 0.  1.
</event>
<event>
 5   0  0.6238363E-06  0.2100528E+04  0.7818609E-02  0.8561011E-01
        1   -1    0    0  501    0  0.00000000000E+00  0.00000000000E+00  0.58939805930E+03  0.58939805932E+03  0.50400001928E-02 0. -1.
       -1   -1    0    0    0  501  0.00000000000E+00  0.00000000000E+00 -0.18714926740E+04  0.18714926740E+04  0.50400001928E-02 0.  1.
    10030    2    1    2    0    0  0.00000000000E+00  0.00000000000E+00 -0.12820946147E+04  0.24608907333E+04  0.21005276957E+04 0.  0.
        4    1    3    3  502    0  0.17327909358E+03 -0.43277265453E+03  0.46154702015E+03  0.65600692031E+03  0.12699999809E+01 0. -1.
       -4    1    3    3    0  502 -0.17327909358E+03  0.43277265453E+03 -0.17436416349E+04  0.18048838130E+04  0.12699999809E+01 0.  1.
</event>
<event>
 5   0  0.6917078E-06  0.2095036E+04  0.7818609E-02  0.8563433E-01
        1   -1    0    0  501    0  0.00000000000E+00  0.00000000000E+00  0.63000340826E+03  0.63000340828E+03  0.50400001928E-02 0. -1.
       -1   -1    0    0    0  501  0.00000000000E+00  0.00000000000E+00 -0.17417271157E+04  0.17417271157E+04  0.50400001928E-02 0.  1.
    10030    2    1    2    0    0  0.00000000000E+00  0.00000000000E+00 -0.11117237074E+04  0.23717305240E+04  0.20950360562E+04 0.  0.
        5    1    3    3  502    0 -0.41781306123E+03 -0.87353937976E+03 -0.10355272622E+03  0.97385012154E+03  0.46999998093E+01 0. -1.
       -5    1    3    3    0  502  0.41781306123E+03  0.87353937976E+03 -0.10081709812E+04  0.13978804024E+04  0.46999998093E+01 0.  1.
</event>
<event>
 5   0  0.6917078E-06  0.2103034E+04  0.7818609E-02  0.8559908E-01
        1   -1    0    0  501    0  0.00000000000E+00  0.00000000000E+00  0.92173290765E+03  0.92173290766E+03  0.50400001928E-02 0.  1.
       -1   -1    0    0    0  501  0.00000000000E+00  0.00000000000E+00 -0.11995756289E+04  0.11995756290E+04  0.50400001928E-02 0. -1.
    10030    2    1    2    0    0  0.00000000000E+00  0.00000000000E+00 -0.27784272130E+03  0.21213085366E+04  0.21030343149E+04 0.  0.
        5    1    3    3  502    0  0.45162596281E+03 -0.68130093112E+02  0.81644043232E+03  0.93552380482E+03  0.46999998093E+01 0.  1.
       -5    1    3    3    0  502 -0.45162596281E+03  0.68130093112E+02 -0.10942831536E+04  0.11857847318E+04  0.46999998093E+01 0. -1.
</event>
<event>
 5   0  0.6917078E-06  0.2085681E+04  0.7818609E-02  0.8567577E-01
        1   -1    0    0  501    0  0.00000000000E+00  0.00000000000E+00  0.15782391774E+04  0.15782391774E+04  0.50400001928E-02 0. -1.
       -1   -1    0    0    0  501  0.00000000000E+00  0.00000000000E+00 -0.68906969654E+03  0.68906969656E+03  0.50400001928E-02 0.  1.
    10030    2    1    2    0    0  0.00000000000E+00  0.00000000000E+00  0.88916948089E+03  0.22673088740E+04  0.20856814628E+04 0.  0.
        5    1    3    3  502    0  0.75698208983E+03  0.47515479290E+03  0.10286839988E+04  0.13627203752E+04  0.46999998093E+01 0. -1.
       -5    1    3    3    0  502 -0.75698208983E+03 -0.47515479290E+03 -0.13951451788E+03  0.90458849884E+03  0.46999998093E+01 0.  1.
</event>
<event>
 5   0  0.1344501E-05  0.2102387E+04  0.7818609E-02  0.8560193E-01
       -2   -1    0    0    0  501  0.00000000000E+00  0.00000000000E+00  0.13817849296E+04  0.13817849296E+04  0.25500000920E-02 0.  1.
        2   -1    0    0  501    0  0.00000000000E+00  0.00000000000E+00 -0.79969593969E+03  0.79969593970E+03  0.25500000920E-02 0. -1.
    10030    2    1    2    0    0  0.00000000000E+00  0.00000000000E+00  0.58208898989E+03  0.21814808693E+04  0.21023870221E+04 0.  0.
        3    1    3    3  502    0  0.16771599019E+03  0.87811498040E+03 -0.28274509463E+03  0.93763498810E+03  0.10100000352E+00 0. -1.
       -3    1    3    3    0  502 -0.16771599019E+03 -0.87811498040E+03  0.86483408452E+03  0.12438458812E+04  0.10100000352E+00 0.  1.
</event>
<event>
 5   0  0.6917078E-06  0.2097698E+04  0.7818609E-02  0.8562258E-01
        1   -1    0    0  501    0  0.00000000000E+00  0.00000000000E+00  0.23319597652E+04  0.23319597652E+04  0.50400001928E-02 0. -1.
       -1   -1    0    0    0  501  0.00000000000E+00  0.00000000000E+00 -0.47174249048E+03  0.47174249051E+03  0.50400001928E-02 0.  1.
    10030    2    1    2    0    0  0.00000000000E+00  0.00000000000E+00  0.18602172747E+04  0.28037022557E+04  0.20976982694E+04 0.  0.
        5    1    3    3  502    0 -0.16110523930E+03 -0.87467711379E+03  0.18708699386E+03  0.90886664852E+03  0.46999998093E+01 0.  1.
       -5    1    3    3    0  502  0.16110523930E+03  0.87467711379E+03  0.16731302808E+04  0.18948356071E+04  0.46999998093E+01 0. -1.
</event>
<event>
 5   0  0.6917078E-06  0.2095917E+04  0.7818609E-02  0.8563044E-01
       -1   -1    0    0    0  501  0.00000000000E+00  0.00000000000E+00  0.11849337917E+04  0.11849337917E+04  0.50400001928E-02 0.  1.
        1   -1    0    0  501    0  0.00000000000E+00  0.00000000000E+00 -0.92681698464E+03  0.92681698465E+03  0.50400001928E-02 0. -1.
    10030    2    1    2    0    0  0.00000000000E+00  0.00000000000E+00  0.25811680705E+03  0.21117507764E+04  0.20959167577E+04 0.  0.
        5    1    3    3  502    0 -0.54754515423E+03  0.74612988713E+03 -0.36626430875E+03  0.99533267718E+03  0.46999998093E+01 0. -1.
       -5    1    3    3    0  502  0.54754515423E+03 -0.74612988713E+03  0.62438111580E+03  0.11164180992E+04  0.46999998093E+01 0.  1.
</event>
<event>
 5   0  0.1344501E-05  0.2050037E+04  0.7818609E-02  0.8583578E-01
       -2   -1    0    0    0  501  0.00000000000E+00  0.00000000000E+00  0.86650137432E+03  0.86650137432E+03  0.25500000920E-02 0.  1.
        2   -1    0    0  501    0  0.00000000000E+00  0.00000000000E+00 -0.12125344094E+04  0.12125344094E+04  0.25500000920E-02 0. -1.
    10030    2    1    2    0    0  0.00000000000E+00  0.00000000000E+00 -0.34603303510E+03  0.20790357838E+04  0.20500368116E+04 0.  0.
        3    1    3    3  502    0 -0.34309384398E+03  0.52891822776E+03 -0.99265375138E+03  0.11759376505E+04  0.10100000352E+00 0. -1.
       -3    1    3    3    0  502  0.34309384398E+03 -0.52891822776E+03  0.64662071628E+03  0.90309813329E+03  0.10100000352E+00 0.  1.
</event>
<event>
 5   0  0.1395356E-05  0.2094618E+04  0.7818609E-02  0.8563618E-01
       -2   -1    0    0    0  501  0.00000000000E+00  0.00000000000E+00  0.66447934609E+03  0.66447934610E+03  0.25500000920E-02 0.  1.
        2   -1    0    0  501    0  0.00000000000E+00  0.00000000000E+00 -0.16506999533E+04  0.16506999533E+04  0.25500000920E-02 0. -1.
    10030    2    1    2    0    0  0.00000000000E+00  0.00000000000E+00 -0.98622060725E+03  0.23151792994E+04  0.20946178893E+04 0.  0.
        1    1    3    3  502    0 -0.81841516261E+03 -0.48345369986E+03 -0.97909659577E+03  0.13646102015E+04  0.50400001928E-02 0. -1.
       -1    1    3    3    0  502  0.81841516261E+03  0.48345369986E+03 -0.71240114776E+01  0.95056909789E+03  0.50400001928E-02 0.  1.
</event>
<event>
 5   0  0.1441136E-05  0.2101187E+04  0.7818609E-02  0.8560721E-01
       -2   -1    0    0    0  501  0.00000000000E+00  0.00000000000E+00  0.89208145610E+03  0.89208145610E+03  0.25500000920E-02 0.  1.
        2   -1    0    0  501    0  0.00000000000E+00  0.00000000000E+00 -0.12372711652E+04  0.12372711652E+04  0.25500000920E-02 0. -1.
    10030    2    1    2    0    0  0.00000000000E+00  0.00000000000E+00 -0.34518970908E+03  0.21293526213E+04  0.21011869623E+04 0.  0.
        4    1    3    3  502    0  0.78823271216E+03  0.16356175326E+03  0.51149591109E+03  0.95377824237E+03  0.12699999809E+01 0.  1.
       -4    1    3    3    0  502 -0.78823271216E+03 -0.16356175326E+03 -0.85668562017E+03  0.11755743789E+04  0.12699999809E+01 0. -1.
</event>
<event>
 5   0  0.6599245E-06  0.2080132E+04  0.7818609E-02  0.8570046E-01
        1   -1    0    0  501    0  0.00000000000E+00  0.00000000000E+00  0.21438551085E+04  0.21438551085E+04  0.50400001928E-02 0. -1.
       -1   -1    0    0    0  501  0.00000000000E+00  0.00000000000E+00 -0.50457591294E+03  0.50457591297E+03  0.50400001928E-02 0.  1.
    10030    2    1    2    0    0  0.00000000000E+00  0.00000000000E+00  0.16392791955E+04  0.26484310215E+04  0.20801323502E+04 0.  0.
        2    1    3    3  502    0  0.30560217733E+03 -0.63963924174E+03  0.17886187837E+04  0.19239771838E+04  0.25500000920E-02 0. -1.
       -2    1    3    3    0  502 -0.30560217733E+03  0.63963924174E+03 -0.14933958812E+03  0.72445383769E+03  0.25500000920E-02 0.  1.
</event>
<event>
 5   0  0.1390735E-05  0.2103572E+04  0.7818609E-02  0.8559672E-01
       -2   -1    0    0    0  501  0.00000000000E+00  0.00000000000E+00  0.87844619041E+03  0.87844619042E+03  0.25500000920E-02 0.  1.
        2   -1    0    0  501    0  0.00000000000E+00  0.00000000000E+00 -0.12593300239E+04  0.12593300239E+04  0.25500000920E-02 0. -1.
    10030    2    1    2    0    0  0.00000000000E+00  0.00000000000E+00 -0.38088383345E+03  0.21377762143E+04  0.21035718784E+04 0.  0.
        5    1    3    3  502    0  0.59868220987E+03 -0.60551234657E+03 -0.81786710722E+03  0.11806753514E+04  0.46999998093E+01 0. -1.
       -5    1    3    3    0  502 -0.59868220987E+03  0.60551234657E+03  0.43698327376E+03  0.95710086292E+03  0.46999998093E+01 0.  1.
</event>
<event>
 5   0  0.6238363E-06  0.2097692E+04  0.7818609E-02  0.8562261E-01
       -1   -1    0    0    0  501  0.00000000000E+00  0.00000000000E+00  0.78257936972E+03  0.78257936974E+03  0.50400001928E-02 0. -1.
        1   -1    0    0  501    0  0.00000000000E+00  0.00000000000E+00 -0.14057075307E+04  0.14057075307E+04  0.50400001928E-02 0.  1.
    10030    2    1    2    0    0  0.00000000000E+00  0.00000000000E+00 -0.62312816095E+03  0.21882869004E+04  0.20976917919E+04 0.  0.
        4    1    3    3  502    0 -0.79070350417E+03 -0.37215799218E+03 -0.91657939260E+03  0.12664252834E+04  0.12699999809E+01 0.  1.
       -4    1    3    3    0  502  0.79070350417E+03  0.37215799218E+03  0.29345123165E+03  0.92186161701E+03  0.12699999809E+01 0. -1.
</event>
<event>
 5   0  0.1395356E-05  0.2095947E+04  0.7818609E-02  0.8563031E-01
       -2   -1    0    0    0  501  0.00000000000E+00  0.00000000000E+00  0.85307318498E+03  0.85307318499E+03  0.25500000920E-02 0.  1.
        2   -1    0    0  501    0  0.00000000000E+00  0.00000000000E+00 -0.12874029700E+04  0.12874029700E+04  0.25500000920E-02 0. -1.
    10030    2    1    2    0    0  0.00000000000E+00  0.00000000000E+00 -0.43432978500E+03  0.21404761550E+04  0.20959474726E+04 0.  0.
        1    1    3    3  502    0  0.52816178129E+03  0.30955631141E+02  0.70667302676E+03  0.88277963563E+03  0.50400001928E-02 0.  1.
       -1    1    3    3    0  502 -0.52816178129E+03 -0.30955631141E+02 -0.11410028118E+04  0.12576965193E+04  0.50400001928E-02 0. -1.
</event>
<event>
 5   0  0.1390735E-05  0.2101081E+04  0.7818609E-02  0.8560767E-01
       -2   -1    0    0    0  501  0.00000000000E+00  0.00000000000E+00  0.70127729635E+03  0.70127729636E+03  0.25500000920E-02 0. -1.
        2   -1    0    0  501    0  0.00000000000E+00  0.00000000000E+00 -0.15737509668E+04  0.15737509668E+04  0.25500000920E-02 0.  1.
    10030    2    1    2    0    0  0.00000000000E+00  0.00000000000E+00 -0.87247367043E+03  0.22750282631E+04  0.21010814578E+04 0.  0.
        5    1    3    3  502    0  0.39930333259E+03  0.92850682428E+03 -0.74638678129E+03  0.12564566811E+04  0.46999998093E+01 0. -1.
       -5    1    3    3    0  502 -0.39930333259E+03 -0.92850682428E+03 -0.12608688914E+03  0.10185715821E+04  0.46999998093E+01 0.  1.
</event>
<event>
 5   0  0.1398469E-05  0.2100279E+04  0.7818609E-02  0.8561120E-01
        2   -1    0    0  501    0  0.00000000000E+00  0.00000000000E+00  0.69883152403E+03  0.69883152403E+03  0.25500000920E-02 0.  1.
       -2   -1    0    0    0  501  0.00000000000E+00  0.00000000000E+00 -0.15780529616E+04  0.15780529616E+04  0.25500000920E-02 0. -1.
    10030    2    1    2    0    0  0.00000000000E+00  0.00000000000E+00 -0.87922143754E+03  0.22768844856E+04  0.21002791778E+04 0.  0.
        2    1    3    3  502    0 -0.16031875757E+03  0.85290627548E+03 -0.10806368446E+04  0.13859751833E+04  0.25500000920E-02 0. -1.
       -2    1    3    3    0  502  0.16031875757E+03 -0.85290627548E+03  0.20141540704E+03  0.89090930233E+03  0.25500000920E-02 0.  1.
</event>
<event>
 5   0  0.6283269E-06  0.2061168E+04  0.7818609E-02  0.8578545E-01
       -1   -1    0    0    0  501  0.00000000000E+00  0.00000000000E+00  0.11535503475E+04  0.11535503475E+04  0.50400001928E-02 0. -1.
        1   -1    0    0  501    0  0.00000000000E+00  0.00000000000E+00 -0.92072606750E+03  0.92072606751E+03  0.50400001928E-02 0.  1.
    10030    2    1    2    0    0  0.00000000000E+00  0.00000000000E+00  0.23282428002E+03  0.20742764150E+04  0.20611684794E+04 0.  0.
        1    1    3    3  502    0  0.81648322448E+03  0.18602359318E+03  0.72094379200E+03  0.11049930246E+04  0.50400001928E-02 0. -1.
       -1    1    3    3    0  502 -0.81648322448E+03 -0.18602359318E+03 -0.48811951198E+03  0.96928339048E+03  0.50400001928E-02 0.  1.
</event>
<event>
 5   0  0.6238363E-06  0.2099480E+04  0.7818609E-02  0.8561473E-01
        1   -1    0    0  501    0  0.00000000000E+00  0.00000000000E+00  0.81758593824E+03  0.81758593825E+03  0.50400001928E-02 0. -1.
       -1   -1    0    0    0  501  0.00000000000E+00  0.00000000000E+00 -0.13478142072E+04  0.13478142072E+04  0.50400001928E-02 0.  1.
    10030    2    1    2    0    0  0.00000000000E+00  0.00000000000E+00 -0.53022826892E+03  0.21654001454E+04  0.20994798815E+04 0.  0.
        4    1    3    3  502    0 -0.86476146122E+03  0.18631059904E+03  0.31781148589E+03  0.93996264691E+03  0.12699999809E+01 0. -1.
       -4    1    3    3    0  502  0.86476146122E+03 -0.18631059904E+03 -0.84803975481E+03  0.12254374985E+04  0.12699999809E+01 0.  1.
</event>
<event>
 5   0  0.1398469E-05  0.2100369E+04  0.7818609E-02  0.8561081E-01
       -2   -1    0    0    0  501  0.00000000000E+00  0.00000000000E+00  0.61543131861E+03  0.61543131861E+03  0.25500000920E-02 0. -1.
        2   -1    0    0  501    0  0.00000000000E+00  0.00000000000E+00 -0.17920553085E+04  0.17920553085E+04  0.25500000920E-02 0.  1.
    10030    2    1    2    0    0  0.00000000000E+00  0.00000000000E+00 -0.11766239899E+04  0.24074866271E+04  0.21003685025E+04 0.  0.
        2    1    3    3  502    0  0.66551232858E+03  0.48815593997E+03 -0.13326359379E+04  0.15675207891E+04  0.25500000920E-02 0.  1.
       -2    1    3    3    0  502 -0.66551232858E+03 -0.48815593997E+03  0.15601194797E+03  0.83996583807E+03  0.25500000920E-02 0. -1.
</event>
<event>
 5   0  0.1390735E-05  0.2097980E+04  0.7818609E-02  0.8562134E-01
        2   -1    0    0  501    0  0.00000000000E+00  0.00000000000E+00  0.75083984410E+03  0.75083984411E+03  0.25500000920E-02 0.  1.
       -2   -1    0    0    0  501  0.00000000000E+00  0.00000000000E+00 -0.14655327270E+04  0.14655327270E+04  0.25500000920E-02 0. -1.
    10030    2    1    2    0    0  0.00000000000E+00  0.00000000000E+00 -0.71469288285E+03  0.22163725711E+04  0.20979803281E+04 0.  0.
        5    1    3    3  502    0  0.79169479268E+03  0.14910452492E+02 -0.10841800168E+04  0.13425614940E+04  0.46999998093E+01 0. -1.
       -5    1    3    3    0  502 -0.79169479268E+03 -0.14910452492E+02  0.36948713390E+03  0.87381107710E+03  0.46999998093E+01 0.  1.
</event>
<event>
 5   0  0.6238363E-06  0.2101032E+04  0.7818609E-02  0.8560789E-01
       -1   -1    0    0    0  501  0.00000000000E+00  0.00000000000E+00  0.79110450372E+03  0.79110450374E+03  0.50400001928E-02 0.  1.
        1   -1    0    0  501    0  0.00000000000E+00  0.00000000000E+00 -0.13949910991E+04  0.13949910991E+04  0.50400001928E-02 0. -1.
    10030    2    1    2    0    0  0.00000000000E+00  0.00000000000E+00 -0.60388659538E+03  0.21860956028E+04  0.21010318809E+04 0.  0.
        4    1    3    3  502    0  0.46363418531E+02  0.10172824296E+04 -0.33487622076E+02  0.10188896613E+04  0.12699999809E+01 0.  1.
       -4    1    3    3    0  502 -0.46363418531E+02 -0.10172824296E+04 -0.57039897330E+03  0.11672059415E+04  0.12699999809E+01 0. -1.
</event>
<event>
 5   0  0.6599245E-06  0.2102509E+04  0.7818609E-02  0.8560139E-01
       -1   -1    0    0    0  501  0.00000000000E+00  0.00000000000E+00  0.79216341675E+03  0.79216341676E+03  0.50400001928E-02 0. -1.
        1   -1    0    0  501    0  0.00000000000E+00  0.00000000000E+00 -0.13950863588E+04  0.13950863588E+04  0.50400001928E-02 0.  1.
    10030    2    1    2    0    0  0.00000000000E+00  0.00000000000E+00 -0.60292294203E+03  0.21872497755E+04  0.21025093357E+04 0.  0.
        2    1    3    3  502    0 -0.20744779785E+03  0.43056153451E+02 -0.13726456992E+04  0.13889005136E+04  0.25500000920E-02 0.  1.
       -2    1    3    3    0  502  0.20744779785E+03 -0.43056153451E+02  0.76972275715E+03  0.79834926195E+03  0.25500000920E-02 0. -1.
</event>
<event>
 5   0  0.1441136E-05  0.2101123E+04  0.7818609E-02  0.8560749E-01
        2   -1    0    0  501    0  0.00000000000E+00  0.00000000000E+00  0.11843231346E+04  0.11843231346E+04  0.25500000920E-02 0.  1.
       -2   -1    0    0    0  501  0.00000000000E+00  0.00000000000E+00 -0.93190742557E+03  0.93190742557E+03  0.25500000920E-02 0. -1.
    10030    2    1    2    0    0  0.00000000000E+00  0.00000000000E+00  0.25241570906E+03  0.21162305602E+04  0.21011230554E+04 0.  0.
        4    1    3    3  502    0  0.29050597488E+03  0.57828280183E+03 -0.70731320360E+03  0.95869614645E+03  0.12699999809E+01 0. -1.
       -4    1    3    3    0  502 -0.29050597488E+03 -0.57828280183E+03  0.95972891267E+03  0.11575344138E+04  0.12699999809E+01 0.  1.
</event>
<event>
 5   0  0.6917078E-06  0.2100297E+04  0.7818609E-02  0.8561113E-01
        1   -1    0    0  501    0  0.00000000000E+00  0.00000000000E+00  0.12864358692E+04  0.12864358692E+04  0.50400001928E-02 0.  1.
       -1   -1    0    0    0  501  0.00000000000E+00  0.00000000000E+00 -0.85726125667E+03  0.85726125668E+03  0.50400001928E-02 0. -1.
    10030    2    1    2    0    0  0.00000000000E+00  0.00000000000E+00  0.42917461250E+03  0.21436971259E+04  0.21002967694E+04 0.  0.
        5    1    3    3  502    0  0.44424998064E+03 -0.49243977850E+03 -0.61644535186E+03  0.90547332516E+03  0.46999998093E+01 0. -1.
       -5    1    3    3    0  502 -0.44424998064E+03  0.49243977850E+03  0.10456199644E+04  0.12382238007E+04  0.46999998093E+01 0.  1.
</event>
<event>
 5   0  0.1441136E-05  0.2127290E+04  0.7818609E-02  0.8549316E-01
        2   -1    0    0  501    0  0.00000000000E+00  0.00000000000E+00  0.19126383143E+04  0.19126383143E+04  0.25500000920E-02 0.  1.
       -2   -1    0    0    0  501  0.00000000000E+00  0.00000000000E+00 -0.59150789590E+03  0.59150789591E+03  0.25500000920E-02 0. -1.
    10030    2    1    2    0    0  0.00000000000E+00  0.00000000000E+00  0.13211304184E+04  0.25041462102E+04  0.21272899801E+04 0.  0.
        4    1    3    3  502    0  0.45889871218E+03  0.10606165642E+03 -0.46206003810E+03  0.65980163285E+03  0.12699999809E+01 0. -1.
       -4    1    3    3    0  502 -0.45889871218E+03 -0.10606165642E+03  0.17831904564E+04  0.18443445773E+04  0.12699999809E+01 0.  1.
</event>
<event>
 5   0  0.1441136E-05  0.2101301E+04  0.7818609E-02  0.8560671E-01
       -2   -1    0    0    0  501  0.00000000000E+00  0.00000000000E+00  0.10727548010E+04  0.10727548010E+04  0.25500000920E-02 0.  1.
        2   -1    0    0  501    0  0.00000000000E+00  0.00000000000E+00 -0.10290015031E+04  0.10290015031E+04  0.25500000920E-02 0. -1.
    10030    2    1    2    0    0  0.00000000000E+00  0.00000000000E+00  0.43753297919E+02  0.21017563041E+04  0.21013008377E+04 0.  0.
        4    1    3    3  502    0  0.89012265890E+03 -0.29067367258E+02 -0.53565015440E+03  0.10392718415E+04  0.12699999809E+01 0. -1.
       -4    1    3    3    0  502 -0.89012265890E+03  0.29067367258E+02  0.57940345231E+03  0.10624844626E+04  0.12699999809E+01 0.  1.
</event>
<event>
 5   0  0.1344501E-05  0.2100417E+04  0.7818609E-02  0.8561060E-01
        2   -1    0    0  501    0  0.00000000000E+00  0.00000000000E+00  0.61403844399E+03  0.61403844399E+03  0.25500000920E-02 0.  1.
       -2   -1    0    0    0  501  0.00000000000E+00  0.00000000000E+00 -0.17962035356E+04  0.17962035356E+04  0.25500000920E-02 0. -1.
    10030    2    1    2    0    0  0.00000000000E+00  0.00000000000E+00 -0.11821650916E+04  0.24102419796E+04  0.21004171244E+04 0.  0.
        3    1    3    3  502    0  0.40863751962E+03 -0.82104362892E+03 -0.38992194833E+01  0.91712184422E+03  0.10100000352E+00 0.  1.
       -3    1    3    3    0  502 -0.40863751962E+03  0.82104362892E+03 -0.11782658721E+04  0.14931201354E+04  0.10100000352E+00 0. -1.
</event>
<event>
 5   0  0.6599245E-06  0.2099834E+04  0.7818609E-02  0.8561316E-01
        1   -1    0    0  501    0  0.00000000000E+00  0.00000000000E+00  0.15692104347E+04  0.15692104348E+04  0.50400001928E-02 0. -1.
       -1   -1    0    0    0  501  0.00000000000E+00  0.00000000000E+00 -0.70247159166E+03  0.70247159168E+03  0.50400001928E-02 0.  1.
    10030    2    1    2    0    0  0.00000000000E+00  0.00000000000E+00  0.86673884308E+03  0.22716820264E+04  0.20998340428E+04 0.  0.
        2    1    3    3  502    0 -0.69270171328E+03 -0.13175645989E+03  0.12749331863E+04  0.14569317272E+04  0.25500000920E-02 0. -1.
       -2    1    3    3    0  502  0.69270171328E+03  0.13175645989E+03 -0.40819434317E+03  0.81475029923E+03  0.25500000920E-02 0.  1.
</event>
<event>
 5   0  0.6238363E-06  0.2102041E+04  0.7818609E-02  0.8560345E-01
       -1   -1    0    0    0  501  0.00000000000E+00  0.00000000000E+00  0.84644110138E+03  0.84644110140E+03  0.50400001928E-02 0. -1.
        1   -1    0    0  501    0  0.00000000000E+00  0.00000000000E+00 -0.13050456963E+04  0.13050456963E+04  0.50400001928E-02 0.  1.
    10030    2    1    2    0    0  0.00000000000E+00  0.00000000000E+00 -0.45860459487E+03  0.21514867977E+04  0.21020412142E+04 0.  0.
        4    1    3    3  502    0  0.16846109123E+03  0.77035169641E+03  0.48189632482E+03  0.92414639327E+03  0.12699999809E+01 0. -1.
       -4    1    3    3    0  502 -0.16846109123E+03 -0.77035169641E+03 -0.94050091970E+03  0.12273404044E+04  0.12699999809E+01 0.  1.
</event>
<event>
 5   0  0.6917078E-06  0.2106500E+04  0.7818609E-02  0.8558386E-01
        1   -1    0    0  501    0  0.00000000000E+00  0.00000000000E+00  0.13475166231E+04  0.13475166231E+04  0.50400001928E-02 0. -1.
       -1   -1    0    0    0  501  0.00000000000E+00  0.00000000000E+00 -0.82324406523E+03  0.82324406524E+03  0.50400001928E-02 0.  1.
    10030    2    1    2    0    0  0.00000000000E+00  0.00000000000E+00  0.52427255783E+03  0.21707606883E+04  0.21064995255E+04 0.  0.
        5    1    3    3  502    0  0.69192150396E+02 -0.86379432206E+02  0.13414968939E+04  0.13460627646E+04  0.46999998093E+01 0. -1.
       -5    1    3    3    0  502 -0.69192150396E+02  0.86379432206E+02 -0.81722433603E+03  0.82469792372E+03  0.46999998093E+01 0.  1.
</event>
<event>
 5   0  0.1395356E-05  0.2101576E+04  0.7818609E-02  0.8560550E-01
        2   -1    0    0  501    0  0.00000000000E+00  0.00000000000E+00  0.24169367768E+04  0.24169367768E+04  0.25500000920E-02 0.  1.
       -2   -1    0    0    0  501  0.00000000000E+00  0.00000000000E+00 -0.45684077338E+03  0.45684077339E+03  0.25500000920E-02 0. -1.
    10030    2    1    2    0    0  0.00000000000E+00  0.00000000000E+00  0.19600960035E+04  0.28737775502E+04  0.21015758529E+04 0.  0.
        1    1    3    3  502    0  0.18101074699E+03  0.13090669747E+03  0.23840918406E+04  0.23945344763E+04  0.50400001928E-02 0.  1.
       -1    1    3    3    0  502 -0.18101074699E+03 -0.13090669747E+03 -0.42399583712E+03  0.47924307391E+03  0.50400001928E-02 0. -1.
</event>
<event>
 5   0  0.1390735E-05  0.2100194E+04  0.7818609E-02  0.8561158E-01
        2   -1    0    0  501    0  0.00000000000E+00  0.00000000000E+00  0.11216877930E+04  0.11216877930E+04  0.25500000920E-02 0. -1.
       -2   -1    0    0    0  501  0.00000000000E+00  0.00000000000E+00 -0.98307567616E+03  0.98307567616E+03  0.25500000920E-02 0.  1.
    10030    2    1    2    0    0  0.00000000000E+00  0.00000000000E+00  0.13861211686E+03  0.21047634692E+04  0.21001942630E+04 0.  0.
        5    1    3    3  502    0 -0.26080992456E+03  0.69625853182E+03  0.81246109382E+03  0.11013232399E+04  0.46999998093E+01 0. -1.
       -5    1    3    3    0  502  0.26080992456E+03 -0.69625853182E+03 -0.67384897696E+03  0.10034402292E+04  0.46999998093E+01 0.  1.
</event>
<event>
 5   0  0.1441136E-05  0.2101527E+04  0.7818609E-02  0.8560571E-01
        2   -1    0    0  501    0  0.00000000000E+00  0.00000000000E+00  0.15227011136E+04  0.15227011136E+04  0.25500000920E-02 0. -1.
       -2   -1    0    0    0  501  0.00000000000E+00  0.00000000000E+00 -0.72509543931E+03  0.72509543931E+03  0.25500000920E-02 0.  1.
    10030    2    1    2    0    0  0.00000000000E+00  0.00000000000E+00  0.79760567433E+03  0.22477965530E+04  0.21015267145E+04 0.  0.
        4    1    3    3  502    0  0.56313241099E+03  0.53319364386E+03 -0.35955038676E+03  0.85480504659E+03  0.12699999809E+01 0.  1.
       -4    1    3    3    0  502 -0.56313241099E+03 -0.53319364386E+03  0.11571560611E+04  0.13929915064E+04  0.12699999809E+01 0. -1.
</event>
<event>
 5   0  0.6917078E-06  0.2095901E+04  0.7818609E-02  0.8563051E-01
        1   -1    0    0  501    0  0.00000000000E+00  0.00000000000E+00  0.98574739974E+03  0.98574739976E+03  0.50400001928E-02 0. -1.
       -1   -1    0    0    0  501  0.00000000000E+00  0.00000000000E+00 -0.11140789626E+04  0.11140789626E+04  0.50400001928E-02 0.  1.
    10030    2    1    2    0    0  0.00000000000E+00  0.00000000000E+00 -0.12833156288E+03  0.20998263624E+04  0.20959011814E+04 0.  0.
        5    1    3    3  502    0 -0.72886156268E+03  0.74301467501E+03 -0.18633004987E+03  0.10573792897E+04  0.46999998093E+01 0.  1.
       -5    1    3    3    0  502  0.72886156268E+03 -0.74301467501E+03  0.57998486989E+02  0.10424470727E+04  0.46999998093E+01 0. -1.
</event>
<event>
 5   0  0.6283269E-06  0.2101518E+04  0.7818609E-02  0.8560575E-01
       -1   -1    0    0    0  501  0.00000000000E+00  0.00000000000E+00  0.67892074902E+03  0.67892074903E+03  0.50400001928E-02 0. -1.
        1   -1    0    0  501    0  0.00000000000E+00  0.00000000000E+00 -0.16262498854E+04  0.16262498854E+04  0.50400001928E-02 0.  1.
    10030    2    1    2    0    0  0.00000000000E+00  0.00000000000E+00 -0.94732913638E+03  0.23051706344E+04  0.21015182991E+04 0.  0.
        1    1    3    3  502    0 -0.23227795374E+03  0.22323918423E+03 -0.15707396258E+04  0.16034374803E+04  0.50400001928E-02 0.  1.
       -1    1    3    3    0  502  0.23227795374E+03 -0.22323918423E+03  0.62341048946E+03  0.70173315410E+03  0.50400001928E-02 0. -1.
</event>
<event>
 5   0  0.6599245E-06  0.2093612E+04  0.7818609E-02  0.8564062E-01
       -1   -1    0    0    0  501  0.00000000000E+00  0.00000000000E+00  0.75549889288E+03  0.75549889290E+03  0.50400001928E-02 0.  1.
        1   -1    0    0  501    0  0.00000000000E+00  0.00000000000E+00 -0.14504365877E+04  0.14504365877E+04  0.50400001928E-02 0. -1.
    10030    2    1    2    0    0  0.00000000000E+00  0.00000000000E+00 -0.69493769479E+03  0.22059354806E+04  0.20936124151E+04 0.  0.
        2    1    3    3  502    0  0.72475565010E+03  0.19941426049E+03  0.42015462662E+03  0.86114267687E+03  0.25500000920E-02 0.  1.
       -2    1    3    3    0  502 -0.72475565010E+03 -0.19941426049E+03 -0.11150923214E+04  0.13447928037E+04  0.25500000920E-02 0. -1.
</event>
<event>
 5   0  0.6599245E-06  0.2098269E+04  0.7818609E-02  0.8562006E-01
       -1   -1    0    0    0  501  0.00000000000E+00  0.00000000000E+00  0.88173299675E+03  0.88173299676E+03  0.50400001928E-02 0. -1.
        1   -1    0    0  501    0  0.00000000000E+00  0.00000000000E+00 -0.12483183263E+04  0.12483183263E+04  0.50400001928E-02 0.  1.
    10030    2    1    2    0    0  0.00000000000E+00  0.00000000000E+00 -0.36658532955E+03  0.21300513231E+04  0.20982692475E+04 0.  0.
        2    1    3    3  502    0 -0.70677829690E+03 -0.35376053360E+03  0.51708608280E+03  0.94448932928E+03  0.25500000920E-02 0. -1.
       -2    1    3    3    0  502  0.70677829690E+03  0.35376053360E+03 -0.88367141235E+03  0.11855619938E+04  0.25500000920E-02 0.  1.
</event>
<event>
 5   0  0.6589193E-06  0.2098616E+04  0.7818609E-02  0.8561853E-01
        1   -1    0    0  501    0  0.00000000000E+00  0.00000000000E+00  0.81542803182E+03  0.81542803184E+03  0.50400001928E-02 0. -1.
       -1   -1    0    0    0  501  0.00000000000E+00  0.00000000000E+00 -0.13502694159E+04  0.13502694159E+04  0.50400001928E-02 0.  1.
    10030    2    1    2    0    0  0.00000000000E+00  0.00000000000E+00 -0.53484138405E+03  0.21656974477E+04  0.20986162415E+04 0.  0.
        3    1    3    3  502    0 -0.70830284640E+03 -0.58003142202E+03 -0.79656610830E+03  0.12135266572E+04  0.10100000352E+00 0.  1.
       -3    1    3    3    0  502  0.70830284640E+03  0.58003142202E+03  0.26172472425E+03  0.95217079047E+03  0.10100000352E+00 0. -1.
</event>
<event>
 5   0  0.1395356E-05  0.2050140E+04  0.7818609E-02  0.8583531E-01
       -2   -1    0    0    0  501  0.00000000000E+00  0.00000000000E+00  0.90504053023E+03  0.90504053023E+03  0.25500000920E-02 0.  1.
        2   -1    0    0  501    0  0.00000000000E+00  0.00000000000E+00 -0.11610186367E+04  0.11610186367E+04  0.25500000920E-02 0. -1.
    10030    2    1    2    0    0  0.00000000000E+00  0.00000000000E+00 -0.25597810650E+03  0.20660591670E+04  0.20501404075E+04 0.  0.
        1    1    3    3  502    0  0.54074326411E+02 -0.50016237120E+03 -0.10280546855E+04  0.11445448295E+04  0.50400001928E-02 0. -1.
       -1    1    3    3    0  502 -0.54074326411E+02  0.50016237120E+03  0.77207657898E+03  0.92151433748E+03  0.50400001928E-02 0.  1.
</event>
<event>
 5   0  0.6599245E-06  0.2103236E+04  0.7818609E-02  0.8559819E-01
        1   -1    0    0  501    0  0.00000000000E+00  0.00000000000E+00  0.16773946183E+04  0.16773946184E+04  0.50400001928E-02 0.  1.
       -1   -1    0    0    0  501  0.00000000000E+00  0.00000000000E+00 -0.65929645660E+03  0.65929645662E+03  0.50400001928E-02 0. -1.
    10030    2    1    2    0    0  0.00000000000E+00  0.00000000000E+00  0.10180981618E+04  0.23366910750E+04  0.21032359147E+04 0.  0.
        2    1    3    3  502    0  0.51746753307E+03  0.34457816579E+03  0.14513651257E+04  0.15789133885E+04  0.25500000920E-02 0.  1.
       -2    1    3    3    0  502 -0.51746753307E+03 -0.34457816579E+03 -0.43326696396E+03  0.75777768652E+03  0.25500000920E-02 0. -1.
</event>
<event>
 5   0  0.6238363E-06  0.2098392E+04  0.7818609E-02  0.8561952E-01
        1   -1    0    0  501    0  0.00000000000E+00  0.00000000000E+00  0.21326862366E+04  0.21326862366E+04  0.50400001928E-02 0. -1.
       -1   -1    0    0    0  501  0.00000000000E+00  0.00000000000E+00 -0.51616239139E+03  0.51616239142E+03  0.50400001928E-02 0.  1.
    10030    2    1    2    0    0  0.00000000000E+00  0.00000000000E+00  0.16165238452E+04  0.26488486281E+04  0.20983921731E+04 0.  0.
        4    1    3    3  502    0 -0.27413752720E+03 -0.80903757760E+03  0.39262036243E+02  0.85512356194E+03  0.12699999809E+01 0.  1.
       -4    1    3    3    0  502  0.27413752720E+03  0.80903757760E+03  0.15772618090E+04  0.17937250661E+04  0.12699999809E+01 0. -1.
</event>
<event>
 5   0  0.1441136E-05  0.2099603E+04  0.7818609E-02  0.8561418E-01
       -2   -1    0    0    0  501  0.00000000000E+00  0.00000000000E+00  0.12467394646E+04  0.12467394646E+04  0.25500000920E-02 0. -1.
        2   -1    0    0  501    0  0.00000000000E+00  0.00000000000E+00 -0.88397215023E+03  0.88397215023E+03  0.25500000920E-02 0.  1.
    10030    2    1    2    0    0  0.00000000000E+00  0.00000000000E+00  0.36276731433E+03  0.21307116148E+04  0.20996027865E+04 0.  0.
        4    1    3    3  502    0  0.76349576605E-01 -0.10147193005E+04 -0.91724735411E+02  0.10188573524E+04  0.12699999809E+01 0. -1.
       -4    1    3    3    0  502 -0.76349576605E-01  0.10147193005E+04  0.45449204974E+03  0.11118542624E+04  0.12699999809E+01 0.  1.
</event>
<event>
 5   0  0.6917078E-06  0.2084893E+04  0.7818609E-02  0.8567928E-01
        1   -1    0    0  501    0  0.00000000000E+00  0.00000000000E+00  0.17197832921E+04  0.17197832921E+04  0.50400001928E-02 0. -1.
       -1   -1    0    0    0  501  0.00000000000E+00  0.00000000000E+00 -0.63187875832E+03  0.63187875834E+03  0.50400001928E-02 0.  1.
    10030    2    1    2    0    0  0.00000000000E+00  0.00000000000E+00  0.10879045338E+04  0.23516620504E+04  0.20848928329E+04 0.  0.
        5    1    3    3  502    0 -0.19976562130E+03 -0.47701847481E+03 -0.47696680839E+03  0.70354271730E+03  0.46999998093E+01 0.  1.
       -5    1    3    3    0  502  0.19976562130E+03  0.47701847481E+03  0.15648713422E+04  0.16481193331E+04  0.46999998093E+01 0. -1.
</event>
<event>
 5   0  0.6917078E-06  0.2095008E+04  0.7818609E-02  0.8563446E-01
        1   -1    0    0  501    0  0.00000000000E+00  0.00000000000E+00  0.12212690286E+04  0.12212690286E+04  0.50400001928E-02 0. -1.
       -1   -1    0    0    0  501  0.00000000000E+00  0.00000000000E+00 -0.89846254407E+03  0.89846254408E+03  0.50400001928E-02 0.  1.
    10030    2    1    2    0    0  0.00000000000E+00  0.00000000000E+00  0.32280648452E+03  0.21197315727E+04  0.20950078553E+04 0.  0.
        5    1    3    3  502    0  0.68576862477E+03  0.21232028306E+03  0.93321852807E+03  0.11774028285E+04  0.46999998093E+01 0. -1.
       -5    1    3    3    0  502 -0.68576862477E+03 -0.21232028306E+03 -0.61041204354E+03  0.94232874424E+03  0.46999998093E+01 0.  1.
</event>
<event>
 5   0  0.6599245E-06  0.2111140E+04  0.7818609E-02  0.8556352E-01
       -1   -1    0    0    0  501  0.00000000000E+00  0.00000000000E+00  0.59147498495E+03  0.59147498497E+03  0.50400001928E-02 0.  1.
        1   -1    0    0  501    0  0.00000000000E+00  0.00000000000E+00 -0.18838132111E+04  0.18838132111E+04  0.50400001928E-02 0. -1.
    10030    2    1    2    0    0  0.00000000000E+00  0.00000000000E+00 -0.12923382262E+04  0.24752881961E+04  0.21111403466E+04 0.  0.
        2    1    3    3  502    0 -0.27607603679E+03 -0.70995100569E+03  0.21061450351E+03  0.79032074353E+03  0.25500000920E-02 0.  1.
       -2    1    3    3    0  502  0.27607603679E+03  0.70995100569E+03 -0.15029527297E+04  0.16849674526E+04  0.25500000920E-02 0. -1.
</event>
<event>
 5   0  0.1395356E-05  0.2097034E+04  0.7818609E-02  0.8562551E-01
       -2   -1    0    0    0  501  0.00000000000E+00  0.00000000000E+00  0.47538980946E+03  0.47538980947E+03  0.25500000920E-02 0. -1.
        2   -1    0    0  501    0  0.00000000000E+00  0.00000000000E+00 -0.23126027504E+04  0.23126027504E+04  0.25500000920E-02 0.  1.
    10030    2    1    2    0    0  0.00000000000E+00  0.00000000000E+00 -0.18372129410E+04  0.27879925599E+04  0.20970338871E+04 0.  0.
        1    1    3    3  502    0 -0.74291532977E+03  0.49019531942E+03 -0.16554542554E+04  0.18795593713E+04  0.50400001928E-02 0.  1.
       -1    1    3    3    0  502  0.74291532977E+03 -0.49019531942E+03 -0.18175868556E+03  0.90843318863E+03  0.50400001928E-02 0. -1.
</event>
<event>
 5   0  0.6599245E-06  0.2095457E+04  0.7818609E-02  0.8563247E-01
       -1   -1    0    0    0  501  0.00000000000E+00  0.00000000000E+00  0.18687935266E+04  0.18687935266E+04  0.50400001928E-02 0. -1.
        1   -1    0    0  501    0  0.00000000000E+00  0.00000000000E+00 -0.58740323528E+03  0.58740323530E+03  0.50400001928E-02 0.  1.
    10030    2    1    2    0    0  0.00000000000E+00  0.00000000000E+00  0.12813902913E+04  0.24561967619E+04  0.20954573378E+04 0.  0.
        2    1    3    3  502    0 -0.26852026474E+02  0.26699397456E+02 -0.58660088692E+03  0.58782181798E+03  0.25500000920E-02 0.  1.
       -2    1    3    3    0  502  0.26852026474E+02 -0.26699397456E+02  0.18679911782E+04  0.18683749439E+04  0.25500000920E-02 0. -1.
</event>
<event>
 5   0  0.1395356E-05  0.2099095E+04  0.7818609E-02  0.8561642E-01
        2   -1    0    0  501    0  0.00000000000E+00  0.00000000000E+00  0.13987442680E+04  0.13987442680E+04  0.25500000920E-02 0. -1.
       -2   -1    0    0    0  501  0.00000000000E+00  0.00000000000E+00 -0.78752801198E+03  0.78752801198E+03  0.25500000920E-02 0.  1.
    10030    2    1    2    0    0  0.00000000000E+00  0.00000000000E+00  0.61121625598E+03  0.21862722799E+04  0.20990953219E+04 0.  0.
        1    1    3    3  502    0  0.58664070829E+03  0.76860353707E+03  0.73079201559E+03  0.12120048217E+04  0.50400001928E-02 0.  1.
       -1    1    3    3    0  502 -0.58664070829E+03 -0.76860353707E+03 -0.11957575961E+03  0.97426745821E+03  0.50400001928E-02 0. -1.
</event>
<event>
 5   0  0.1344501E-05  0.2093708E+04  0.7818609E-02  0.8564020E-01
       -2   -1    0    0    0  501  0.00000000000E+00  0.00000000000E+00  0.76167580204E+03  0.76167580204E+03  0.25500000920E-02 0. -1.
        2   -1    0    0  501    0  0.00000000000E+00  0.00000000000E+00 -0.14388061105E+04  0.14388061105E+04  0.25500000920E-02 0.  1.
    10030    2    1    2    0    0  0.00000000000E+00  0.00000000000E+00 -0.67713030850E+03  0.22004819126E+04  0.20937084785E+04 0.  0.
        3    1    3    3  502    0  0.48993134408E+03 -0.75931999209E+03 -0.89400922716E+03  0.12711617052E+04  0.10100000352E+00 0.  1.
       -3    1    3    3    0  502 -0.48993134408E+03  0.75931999209E+03  0.21687891867E+03  0.92932020739E+03  0.10100000352E+00 0. -1.
</event>
<event>
 5   0  0.1344501E-05  0.2093802E+04  0.7818609E-02  0.8563979E-01
       -2   -1    0    0    0  501  0.00000000000E+00  0.00000000000E+00  0.63360274728E+03  0.63360274728E+03  0.25500000920E-02 0.  1.
        2   -1    0    0  501    0  0.00000000000E+00  0.00000000000E+00 -0.17297933735E+04  0.17297933735E+04  0.25500000920E-02 0. -1.
    10030    2    1    2    0    0  0.00000000000E+00  0.00000000000E+00 -0.10961906262E+04  0.23633961208E+04  0.20938021241E+04 0.  0.
        3    1    3    3  502    0  0.23669973930E+03  0.39954309457E+03 -0.16071690339E+04  0.16729177400E+04  0.10100000352E+00 0. -1.
       -3    1    3    3    0  502 -0.23669973930E+03 -0.39954309457E+03  0.51097840769E+03  0.69047838079E+03  0.10100000352E+00 0.  1.
</event>
<event>
 5   0  0.6283269E-06  0.2087983E+04  0.7818609E-02  0.8566555E-01
        1   -1    0    0  501    0  0.00000000000E+00  0.00000000000E+00  0.12587163238E+04  0.12587163238E+04  0.50400001928E-02 0. -1.
       -1   -1    0    0    0  501  0.00000000000E+00  0.00000000000E+00 -0.86589671524E+03  0.86589671525E+03  0.50400001928E-02 0.  1.
    10030    2    1    2    0    0  0.00000000000E+00  0.00000000000E+00  0.39281960857E+03  0.21246130391E+04  0.20879830749E+04 0.  0.
        1    1    3    3  502    0 -0.60441654828E+03 -0.17869879008E+03  0.10432758342E+04  0.12188835414E+04  0.50400001928E-02 0. -1.
       -1    1    3    3    0  502  0.60441654828E+03  0.17869879008E+03 -0.65045622560E+03  0.90572949762E+03  0.50400001928E-02 0.  1.
</event>
<event>
 5   0  0.6917078E-06  0.2101851E+04  0.7818609E-02  0.8560428E-01
        1   -1    0    0  501    0  0.00000000000E+00  0.00000000000E+00  0.15873541263E+04  0.15873541264E+04  0.50400001928E-02 0.  1.
       -1   -1    0    0    0  501  0.00000000000E+00  0.00000000000E+00 -0.69577688298E+03  0.69577688300E+03  0.50400001928E-02 0. -1.
    10030    2    1    2    0    0  0.00000000000E+00  0.00000000000E+00  0.89157724336E+03  0.22831310094E+04  0.21018509046E+04 0.  0.
        5    1    3    3  502    0 -0.28698496927E+03  0.69031551041E+03  0.12480886157E+04  0.14548687773E+04  0.46999998093E+01 0.  1.
       -5    1    3    3    0  502  0.28698496927E+03 -0.69031551041E+03 -0.35651137232E+03  0.82826223208E+03  0.46999998093E+01 0. -1.
</event>
<event>
 5   0  0.1344501E-05  0.2101289E+04  0.7818609E-02  0.8560676E-01
        2   -1    0    0  501    0  0.00000000000E+00  0.00000000000E+00  0.17854606319E+04  0.17854606319E+04  0.25500000920E-02 0.  1.
       -2   -1    0    0    0  501  0.00000000000E+00  0.00000000000E+00 -0.61824603035E+03  0.61824603035E+03  0.25500000920E-02 0. -1.
    10030    2    1    2    0    0  0.00000000000E+00  0.00000000000E+00  0.11672146015E+04  0.24037066622E+04  0.21012890787E+04 0.  0.
        3    1    3    3  502    0 -0.32795912452E+03 -0.45583628762E+03  0.15993864052E+04  0.16951049501E+04  0.10100000352E+00 0.  1.
       -3    1    3    3    0  502  0.32795912452E+03  0.45583628762E+03 -0.43217180362E+03  0.70860171219E+03  0.10100000352E+00 0. -1.
</event>
<event>
 5   0  0.6917078E-06  0.2100741E+04  0.7818609E-02  0.8560917E-01
        1   -1    0    0  501    0  0.00000000000E+00  0.00000000000E+00  0.22245790524E+04  0.22245790524E+04  0.50400001928E-02 0. -1.
       -1   -1    0    0    0  501  0.00000000000E+00  0.00000000000E+00 -0.49594941018E+03  0.49594941021E+03  0.50400001928E-02 0.  1.
    10030    2    1    2    0    0  0.00000000000E+00  0.00000000000E+00  0.17286296422E+04  0.27205284626E+04  0.21007414586E+04 0.  0.
        5    1    3    3  502    0  0.94125241410E+03 -0.35646236059E+03  0.47529805702E+03  0.11130821419E+04  0.46999998093E+01 0. -1.
       -5    1    3    3    0  502 -0.94125241410E+03  0.35646236059E+03  0.12533315852E+04  0.16074463207E+04  0.46999998093E+01 0.  1.
</event>
<event>
 5   0  0.1398469E-05  0.2101053E+04  0.7818609E-02  0.8560780E-01
        2   -1    0    0  501    0  0.00000000000E+00  0.00000000000E+00  0.16635665199E+04  0.16635665199E+04  0.25500000920E-02 0.  1.
       -2   -1    0    0    0  501  0.00000000000E+00  0.00000000000E+00 -0.66339765873E+03  0.66339765873E+03  0.25500000920E-02 0. -1.
    10030    2    1    2    0    0  0.00000000000E+00  0.00000000000E+00  0.10001688611E+04  0.23269641786E+04  0.21010531973E+04 0.  0.
        2    1    3    3  502    0  0.51916726687E+03  0.80291052234E+03  0.98208740450E+03  0.13706551820E+04  0.25500000920E-02 0.  1.
       -2    1    3    3    0  502 -0.51916726687E+03 -0.80291052234E+03  0.18081456627E+02  0.95630899659E+03  0.25500000920E-02 0. -1.
</event>
<event>
 5   0  0.6283269E-06  0.2097820E+04  0.7818609E-02  0.8562204E-01
       -1   -1    0    0    0  501  0.00000000000E+00  0.00000000000E+00  0.39533555595E+03  0.39533555598E+03  0.50400001928E-02 0.  1.
        1   -1    0    0  501    0  0.00000000000E+00  0.00000000000E+00 -0.27829820135E+04  0.27829820136E+04  0.50400001928E-02 0. -1.
    10030    2    1    2    0    0  0.00000000000E+00  0.00000000000E+00 -0.23876464576E+04  0.31783175695E+04  0.20978195743E+04 0.  0.
        1    1    3    3  502    0  0.20516745915E+03 -0.78678663740E+03 -0.21977531030E+04  0.23433406925E+04  0.50400001928E-02 0. -1.
       -1    1    3    3    0  502 -0.20516745915E+03  0.78678663740E+03 -0.18989335456E+03  0.83497687705E+03  0.50400001928E-02 0.  1.
</event>
<event>
 5   0  0.6283269E-06  0.2101144E+04  0.7818609E-02  0.8560740E-01
       -1   -1    0    0    0  501  0.00000000000E+00  0.00000000000E+00  0.14787657046E+04  0.14787657046E+04  0.50400001928E-02 0.  1.
        1   -1    0    0  501    0  0.00000000000E+00  0.00000000000E+00 -0.74636669689E+03  0.74636669691E+03  0.50400001928E-02 0. -1.
    10030    2    1    2    0    0  0.00000000000E+00  0.00000000000E+00  0.73239900767E+03  0.22251324015E+04  0.21011439498E+04 0.  0.
        1    1    3    3  502    0  0.40771275272E+03 -0.60272177690E+03 -0.43627451655E+03  0.84843307508E+03  0.50400001928E-02 0. -1.
       -1    1    3    3    0  502 -0.40771275272E+03  0.60272177690E+03  0.11686735242E+04  0.13766993264E+04  0.50400001928E-02 0.  1.
</event>
<event>
 5   0  0.6238363E-06  0.2100956E+04  0.7818609E-02  0.8560822E-01
       -1   -1    0    0    0  501  0.00000000000E+00  0.00000000000E+00  0.17209801809E+04  0.17209801809E+04  0.50400001928E-02 0. -1.
        1   -1    0    0  501    0  0.00000000000E+00  0.00000000000E+00 -0.64120691767E+03  0.64120691769E+03  0.50400001928E-02 0.  1.
    10030    2    1    2    0    0  0.00000000000E+00  0.00000000000E+00  0.10797732632E+04  0.23621870986E+04  0.21009563510E+04 0.  0.
        4    1    3    3  502    0  0.14566744893E+03  0.10074373053E+04  0.83168206496E+03  0.13144754086E+04  0.12699999809E+01 0. -1.
       -4    1    3    3    0  502 -0.14566744893E+03 -0.10074373053E+04  0.24809119827E+03  0.10477116900E+04  0.12699999809E+01 0.  1.
</event>
<event>
 5   0  0.1441136E-05  0.2099848E+04  0.7818609E-02  0.8561311E-01
        2   -1    0    0  501    0  0.00000000000E+00  0.00000000000E+00  0.60553329401E+03  0.60553329402E+03  0.25500000920E-02 0.  1.
       -2   -1    0    0    0  501  0.00000000000E+00  0.00000000000E+00 -0.18204447832E+04  0.18204447832E+04  0.25500000920E-02 0. -1.
    10030    2    1    2    0    0  0.00000000000E+00  0.00000000000E+00 -0.12149114892E+04  0.24259780772E+04  0.20998475432E+04 0.  0.
        4    1    3    3  502    0  0.10395540396E+04 -0.18500630534E+02 -0.77616065696E+03  0.12974751839E+04  0.12699999809E+01 0.  1.
       -4    1    3    3    0  502 -0.10395540396E+04  0.18500630534E+02 -0.43875083219E+03  0.11285028933E+04  0.12699999809E+01 0. -1.
</event>
<event>
 5   0  0.6589193E-06  0.2097732E+04  0.7818609E-02  0.8562243E-01
        1   -1    0    0  501    0  0.00000000000E+00  0.00000000000E+00  0.10632371711E+04  0.10632371711E+04  0.50400001928E-02 0.  1.
       -1   -1    0    0    0  501  0.00000000000E+00  0.00000000000E+00 -0.10346888618E+04  0.10346888618E+04  0.50400001928E-02 0. -1.
    10030    2    1    2    0    0  0.00000000000E+00  0.00000000000E+00  0.28548309260E+02  0.20979260329E+04  0.20977317830E+04 0.  0.
        3    1    3    3  502    0 -0.30785548064E+03  0.89089853731E+03 -0.44581675569E+03  0.10427021581E+04  0.10100000352E+00 0. -1.
       -3    1    3    3    0  502  0.30785548064E+03 -0.89089853731E+03  0.47436506495E+03  0.10552238747E+04  0.10100000352E+00 0.  1.
</event>
<event>
 5   0  0.6917078E-06  0.2091320E+04  0.7818609E-02  0.8565077E-01
        1   -1    0    0  501    0  0.00000000000E+00  0.00000000000E+00  0.24483285829E+04  0.24483285829E+04  0.50400001928E-02 0. -1.
       -1   -1    0    0    0  501  0.00000000000E+00  0.00000000000E+00 -0.44659235075E+03  0.44659235078E+03  0.50400001928E-02 0.  1.
    10030    2    1    2    0    0  0.00000000000E+00  0.00000000000E+00  0.20017362321E+04  0.28949209337E+04  0.20913199825E+04 0.  0.
        5    1    3    3  502    0  0.10026339793E+04 -0.10530372033E+03  0.13850306763E+04  0.17130953955E+04  0.46999998093E+01 0. -1.
       -5    1    3    3    0  502 -0.10026339793E+04  0.10530372033E+03  0.61670555583E+03  0.11818255381E+04  0.46999998093E+01 0.  1.
</event>
<event>
 5   0  0.6238363E-06  0.2099098E+04  0.7818609E-02  0.8561641E-01
        1   -1    0    0  501    0  0.00000000000E+00  0.00000000000E+00  0.81220267875E+03  0.81220267876E+03  0.50400001928E-02 0.  1.
       -1   -1    0    0    0  501  0.00000000000E+00  0.00000000000E+00 -0.13562535575E+04  0.13562535575E+04  0.50400001928E-02 0. -1.
    10030    2    1    2    0    0  0.00000000000E+00  0.00000000000E+00 -0.54405087874E+03  0.21684562363E+04  0.20990976847E+04 0.  0.
        4    1    3    3  502    0 -0.61779112017E+03 -0.80834903351E+03 -0.57146218745E+01  0.10174125505E+04  0.12699999809E+01 0.  1.
       -4    1    3    3    0  502  0.61779112017E+03  0.80834903351E+03 -0.53833625687E+03  0.11510436857E+04  0.12699999809E+01 0. -1.
</event>
<event>
 5   0  0.1398469E-05  0.2164509E+04  0.7818609E-02  0.8533347E-01
       -2   -1    0    0    0  501  0.00000000000E+00  0.00000000000E+00  0.69407194076E+03  0.69407194076E+03  0.25500000920E-02 0. -1.
        2   -1    0    0  501    0  0.00000000000E+00  0.00000000000E+00 -0.16875416035E+04  0.16875416035E+04  0.25500000920E-02 0.  1.
    10030    2    1    2    0    0  0.00000000000E+00  0.00000000000E+00 -0.99346966276E+03  0.23816135443E+04  0.21645094371E+04 0.  0.
        2    1    3    3  502    0 -0.80956535396E+03 -0.61527060237E+03 -0.90447242921E+03  0.13608910139E+04  0.25500000920E-02 0.  1.
       -2    1    3    3    0  502  0.80956535396E+03  0.61527060237E+03 -0.88997233554E+02  0.10207225304E+04  0.25500000920E-02 0. -1.
</event>
<event>
 5   0  0.1441136E-05  0.2101010E+04  0.7818609E-02  0.8560799E-01
        2   -1    0    0  501    0  0.00000000000E+00  0.00000000000E+00  0.17989285051E+04  0.17989285051E+04  0.25500000920E-02 0. -1.
       -2   -1    0    0    0  501  0.00000000000E+00  0.00000000000E+00 -0.61345429967E+03  0.61345429967E+03  0.25500000920E-02 0.  1.
    10030    2    1    2    0    0  0.00000000000E+00  0.00000000000E+00  0.11854742055E+04  0.24123828048E+04  0.21010096871E+04 0.  0.
        4    1    3    3  502    0  0.84895505607E+03  0.57721066225E+03  0.33686073685E+03  0.10804506489E+04  0.12699999809E+01 0.  1.
       -4    1    3    3    0  502 -0.84895505607E+03 -0.57721066225E+03  0.84861346862E+03  0.13319321559E+04  0.12699999809E+01 0. -1.
</event>
<event>
 5   0  0.1441136E-05  0.2100570E+04  0.7818609E-02  0.8560993E-01
        2   -1    0    0  501    0  0.00000000000E+00  0.00000000000E+00  0.27341941694E+04  0.27341941694E+04  0.25500000920E-02 0.  1.
       -2   -1    0    0    0  501  0.00000000000E+00  0.00000000000E+00 -0.40344540415E+03  0.40344540415E+03  0.25500000920E-02 0. -1.
    10030    2    1    2    0    0  0.00000000000E+00  0.00000000000E+00  0.23307487653E+04  0.31376395736E+04  0.21005695149E+04 0.  0.
        4    1    3    3  502    0 -0.48489360438E+03  0.70876895158E+03  0.26217902857E+03  0.89789458747E+03  0.12699999809E+01 0. -1.
       -4    1    3    3    0  502  0.48489360438E+03 -0.70876895158E+03  0.20685697367E+04  0.22397449861E+04  0.12699999809E+01 0.  1.
</event>
<event>
 5   0  0.6238363E-06  0.2097376E+04  0.7818609E-02  0.8562400E-01
       -1   -1    0    0    0  501  0.00000000000E+00  0.00000000000E+00  0.79934112645E+03  0.79934112647E+03  0.50400001928E-02 0.  1.
        1   -1    0    0  501    0  0.00000000000E+00  0.00000000000E+00 -0.13758161189E+04  0.13758161189E+04  0.50400001928E-02 0. -1.
    10030    2    1    2    0    0  0.00000000000E+00  0.00000000000E+00 -0.57647499246E+03  0.21751572454E+04  0.20973758903E+04 0.  0.
        4    1    3    3  502    0 -0.85868005942E+03 -0.55470429837E+03 -0.53082783622E+03  0.11518715674E+04  0.12699999809E+01 0. -1.
       -4    1    3    3    0  502  0.85868005942E+03  0.55470429837E+03 -0.45647156236E+02  0.10232856780E+04  0.12699999809E+01 0.  1.
</event>
<event>
 5   0  0.1398469E-05  0.2078318E+04  0.7818609E-02  0.8570855E-01
        2   -1    0    0  501    0  0.00000000000E+00  0.00000000000E+00  0.17530541718E+04  0.17530541718E+04  0.25500000920E-02 0. -1.
       -2   -1    0    0    0  501  0.00000000000E+00  0.00000000000E+00 -0.61598310717E+03  0.61598310718E+03  0.25500000920E-02 0.  1.
    10030    2    1    2    0    0  0.00000000000E+00  0.00000000000E+00  0.11370710646E+04  0.23690372789E+04  0.20783183161E+04 0.  0.
        2    1    3    3  502    0  0.90547478626E+03 -0.49023964869E+03  0.40882082404E+03  0.11078600850E+04  0.25500000920E-02 0. -1.
       -2    1    3    3    0  502 -0.90547478626E+03  0.49023964869E+03  0.72825024054E+03  0.12611771940E+04  0.25500000920E-02 0.  1.
</event>
<event>
 5   0  0.1441136E-05  0.2102589E+04  0.7818609E-02  0.8560104E-01
        2   -1    0    0  501    0  0.00000000000E+00  0.00000000000E+00  0.14182497724E+04  0.14182497724E+04  0.25500000920E-02 0. -1.
       -2   -1    0    0    0  501  0.00000000000E+00  0.00000000000E+00 -0.77928469558E+03  0.77928469559E+03  0.25500000920E-02 0.  1.
    10030    2    1    2    0    0  0.00000000000E+00  0.00000000000E+00  0.63896507678E+03  0.21975344680E+04  0.21025892058E+04 0.  0.
        4    1    3    3  502    0 -0.42323572314E+03 -0.78413366983E+03 -0.26358417874E+03  0.92923211400E+03  0.12699999809E+01 0.  1.
       -4    1    3    3    0  502  0.42323572314E+03  0.78413366983E+03  0.90254925553E+03  0.12683023540E+04  0.12699999809E+01 0. -1.
</event>
<event>
 5   0  0.1390735E-05  0.2101440E+04  0.7818609E-02  0.8560609E-01
       -2   -1    0    0    0  501  0.00000000000E+00  0.00000000000E+00  0.73641439450E+03  0.73641439451E+03  0.25500000920E-02 0. -1.
        2   -1    0    0  501    0  0.00000000000E+00  0.00000000000E+00 -0.14991723638E+04  0.14991723638E+04  0.25500000920E-02 0.  1.
    10030    2    1    2    0    0  0.00000000000E+00  0.00000000000E+00 -0.76275796932E+03  0.22355867583E+04  0.21014396100E+04 0.  0.
        5    1    3    3  502    0 -0.82313839564E+03 -0.50620271099E+03 -0.82025738308E+03  0.12675339315E+04  0.46999998093E+01 0.  1.
       -5    1    3    3    0  502  0.82313839564E+03  0.50620271099E+03  0.57499413760E+02  0.96805282684E+03  0.46999998093E+01 0. -1.
</event>
<event>
 5   0  0.5009125E-06  0.2084218E+04  0.7818609E-02  0.8568227E-01
       -4   -1    0    0    0  501  0.00000000000E+00  0.00000000000E+00  0.73572029600E+03  0.73572139213E+03  0.12699999809E+01 0.  1.
        4   -1    0    0  501    0  0.00000000000E+00  0.00000000000E+00 -0.14760903317E+04  0.14760908781E+04  0.12699999809E+01 0. -1.
    10030    2    1    2    0    0  0.00000000000E+00  0.00000000000E+00 -0.74037003573E+03  0.22118122702E+04  0.20842182536E+04 0.  0.
        2    1    3    3  502    0 -0.53269459695E+03 -0.96234173604E+02  0.57481668861E+03  0.78958139244E+03  0.25500000920E-02 0.  1.
       -2    1    3    3    0  502  0.53269459695E+03  0.96234173604E+02 -0.13151867243E+04  0.14222308778E+04  0.25500000920E-02 0. -1.
</event>
<event>
 5   0  0.1344501E-05  0.2099291E+04  0.7818609E-02  0.8561556E-01
        2   -1    0    0  501    0  0.00000000000E+00  0.00000000000E+00  0.81233101307E+03  0.81233101307E+03  0.25500000920E-02 0.  1.
       -2   -1    0    0    0  501  0.00000000000E+00  0.00000000000E+00 -0.13562896259E+04  0.13562896259E+04  0.25500000920E-02 0. -1.
    10030    2    1    2    0    0  0.00000000000E+00  0.00000000000E+00 -0.54395861285E+03  0.21686206390E+04  0.20992914289E+04 0.  0.
        3    1    3    3  502    0 -0.52014686018E+03  0.14334269508E+03  0.65811977773E+03  0.85101206597E+03  0.10100000352E+00 0.  1.
       -3    1    3    3    0  502  0.52014686018E+03 -0.14334269508E+03 -0.12020783906E+04  0.13176085730E+04  0.10100000352E+00 0. -1.
</event>
<event>
 5   0  0.6917078E-06  0.2103443E+04  0.7818609E-02  0.8559728E-01
        1   -1    0    0  501    0  0.00000000000E+00  0.00000000000E+00  0.10613670383E+04  0.10613670383E+04  0.50400001928E-02 0.  1.
       -1   -1    0    0    0  501  0.00000000000E+00  0.00000000000E+00 -0.10421631325E+04  0.10421631325E+04  0.50400001928E-02 0. -1.
    10030    2    1    2    0    0  0.00000000000E+00  0.00000000000E+00  0.19203905846E+02  0.21035301708E+04  0.21034425092E+04 0.  0.
        5    1    3    3  502    0  0.93111419800E+03 -0.45390015168E+03  0.19153399692E+03  0.10534260104E+04  0.46999998093E+01 0.  1.
       -5    1    3    3    0  502 -0.93111419800E+03  0.45390015168E+03 -0.17233009108E+03  0.10501041604E+04  0.46999998093E+01 0. -1.
</event>
<event>
 5   0  0.6599245E-06  0.2105619E+04  0.7818609E-02  0.8558772E-01
        1   -1    0    0  501    0  0.00000000000E+00  0.00000000000E+00  0.10261344408E+04  0.10261344408E+04  0.50400001928E-02 0.  1.
       -1   -1    0    0    0  501  0.00000000000E+00  0.00000000000E+00 -0.10801775630E+04  0.10801775630E+04  0.50400001928E-02 0. -1.
    10030    2    1    2    0    0  0.00000000000E+00  0.00000000000E+00 -0.54043122157E+02  0.21063120038E+04  0.21056185785E+04 0.  0.
        2    1    3    3  502    0 -0.62419223814E+03 -0.55704988433E+01  0.82105502937E+03  0.10313963069E+04  0.25500000920E-02 0.  1.
       -2    1    3    3    0  502  0.62419223814E+03  0.55704988433E+01 -0.87509815153E+03  0.10749156969E+04  0.25500000920E-02 0. -1.
</event>
<event>
 5   0  0.1395356E-05  0.2104265E+04  0.7818609E-02  0.8559367E-01
       -2   -1    0    0    0  501  0.00000000000E+00  0.00000000000E+00  0.77946487569E+03  0.77946487570E+03  0.25500000920E-02 0.  1.
        2   -1    0    0  501    0  0.00000000000E+00  0.00000000000E+00 -0.14201829918E+04  0.14201829918E+04  0.25500000920E-02 0. -1.
    10030    2    1    2    0    0  0.00000000000E+00  0.00000000000E+00 -0.64071811612E+03  0.21996478675E+04  0.21042649635E+04 0.  0.
        1    1    3    3  502    0 -0.79088488899E+03  0.42880077579E+03  0.24990924242E+03  0.93371496851E+03  0.50400001928E-02 0.  1.
       -1    1    3    3    0  502  0.79088488899E+03 -0.42880077579E+03 -0.89062735853E+03  0.12659328990E+04  0.50400001928E-02 0. -1.
</event>
<event>
 5   0  0.6238363E-06  0.2098609E+04  0.7818609E-02  0.8561856E-01
        1   -1    0    0  501    0  0.00000000000E+00  0.00000000000E+00  0.78450853098E+03  0.78450853099E+03  0.50400001928E-02 0. -1.
       -1   -1    0    0    0  501  0.00000000000E+00  0.00000000000E+00 -0.14034770663E+04  0.14034770663E+04  0.50400001928E-02 0.  1.
    10030    2    1    2    0    0  0.00000000000E+00  0.00000000000E+00 -0.61896853535E+03  0.21879855973E+04  0.20986088074E+04 0.  0.
        4    1    3    3  502    0 -0.92925811914E+03 -0.18092416429E+03  0.16231893740E+03  0.96052238680E+03  0.12699999809E+01 0. -1.
       -4    1    3    3    0  502  0.92925811914E+03  0.18092416429E+03 -0.78128747274E+03  0.12274632105E+04  0.12699999809E+01 0.  1.
</event>
<event>
 5   0  0.1344501E-05  0.2099689E+04  0.7818609E-02  0.8561380E-01
       -2   -1    0    0    0  501  0.00000000000E+00  0.00000000000E+00  0.13175683102E+04  0.13175683102E+04  0.25500000920E-02 0. -1.
        2   -1    0    0  501    0  0.00000000000E+00  0.00000000000E+00 -0.83652107672E+03  0.83652107673E+03  0.25500000920E-02 0.  1.
    10030    2    1    2    0    0  0.00000000000E+00  0.00000000000E+00  0.48104723346E+03  0.21540893869E+04  0.20996891784E+04 0.  0.
        3    1    3    3  502    0 -0.74594921083E+03 -0.65635449517E+03  0.58832361568E+03  0.11547147420E+04  0.10100000352E+00 0. -1.
       -3    1    3    3    0  502  0.74594921083E+03  0.65635449517E+03 -0.10727638223E+03  0.99937464489E+03  0.10100000352E+00 0.  1.
</event>
<event>
 5   0  0.6589193E-06  0.2103536E+04  0.7818609E-02  0.8559687E-01
        1   -1    0    0  501    0  0.00000000000E+00  0.00000000000E+00  0.18506611520E+04  0.18506611520E+04  0.50400001928E-02 0. -1.
       -1   -1    0    0    0  501  0.00000000000E+00  0.00000000000E+00 -0.59774084111E+03  0.59774084113E+03  0.50400001928E-02 0.  1.
    10030    2    1    2    0    0  0.00000000000E+00  0.00000000000E+00  0.12529203109E+04  0.24484019932E+04  0.21035358363E+04 0.  0.
        3    1    3    3  502    0 -0.44053833168E+03 -0.36313753364E+03 -0.40168884588E+03  0.69806649334E+03  0.10100000352E+00 0.  1.
       -3    1    3    3    0  502  0.44053833168E+03  0.36313753364E+03  0.16546091568E+04  0.17503354998E+04  0.10100000352E+00 0. -1.
</event>
<event>
 5   0  0.6589193E-06  0.2101734E+04  0.7818609E-02  0.8560480E-01
        1   -1    0    0  501    0  0.00000000000E+00  0.00000000000E+00  0.90293254038E+03  0.90293254040E+03  0.50400001928E-02 0.  1.
       -1   -1    0    0    0  501  0.00000000000E+00  0.00000000000E+00 -0.12230382406E+04  0.12230382406E+04  0.50400001928E-02 0. -1.
    10030    2    1    2    0    0  0.00000000000E+00  0.00000000000E+00 -0.32010570021E+03  0.21259707810E+04  0.21017335945E+04 0.  0.
        3    1    3    3  502    0 -0.16279925661E+03  0.22038695533E+03  0.86616468606E+03  0.90846864647E+03  0.10100000352E+00 0.  1.
       -3    1    3    3    0  502  0.16279925661E+03 -0.22038695533E+03 -0.11862703863E+04  0.12175021345E+04  0.10100000352E+00 0. -1.
</event>
<event>
 5   0  0.6917078E-06  0.2099483E+04  0.7818609E-02  0.8561471E-01
        1   -1    0    0  501    0  0.00000000000E+00  0.00000000000E+00  0.17161441060E+04  0.17161441060E+04  0.50400001928E-02 0. -1.
       -1   -1    0    0    0  501  0.00000000000E+00  0.00000000000E+00 -0.64211247332E+03  0.64211247334E+03  0.50400001928E-02 0.  1.
    10030    2    1    2    0    0  0.00000000000E+00  0.00000000000E+00  0.10740316326E+04  0.23582565793E+04  0.20994833045E+04 0.  0.
        5    1    3    3  502    0  0.25121066365E+03 -0.57389084630E+03  0.14831398599E+04  0.16100259113E+04  0.46999998093E+01 0. -1.
       -5    1    3    3    0  502 -0.25121066365E+03  0.57389084630E+03 -0.40910822724E+03  0.74823066804E+03  0.46999998093E+01 0.  1.
</event>
<event>
 5   0  0.1398469E-05  0.2087271E+04  0.7818609E-02  0.8566872E-01
       -2   -1    0    0    0  501  0.00000000000E+00  0.00000000000E+00  0.66804260633E+03  0.66804260634E+03  0.25500000920E-02 0.  1.
        2   -1    0    0  501    0  0.00000000000E+00  0.00000000000E+00 -0.16303971795E+04  0.16303971795E+04  0.25500000920E-02 0. -1.
    10030    2    1    2    0    0  0.00000000000E+00  0.00000000000E+00 -0.96235457319E+03  0.22984397859E+04  0.20872707358E+04 0.  0.
        2    1    3    3  502    0 -0.86252088042E+02  0.19735481425E+03  0.64330348409E+03  0.67840085351E+03  0.25500000920E-02 0.  1.
       -2    1    3    3    0  502  0.86252088042E+02 -0.19735481425E+03 -0.16056580573E+04  0.16200389323E+04  0.25500000920E-02 0. -1.
</event>
<event>
 5   0  0.1390735E-05  0.2102584E+04  0.7818609E-02  0.8560106E-01
        2   -1    0    0  501    0  0.00000000000E+00  0.00000000000E+00  0.90265309468E+03  0.90265309469E+03  0.25500000920E-02 0. -1.
       -2   -1    0    0    0  501  0.00000000000E+00  0.00000000000E+00 -0.12244070522E+04  0.12244070522E+04  0.25500000920E-02 0.  1.
    10030    2    1    2    0    0  0.00000000000E+00  0.00000000000E+00 -0.32175395754E+03  0.21270601469E+04  0.21025839482E+04 0.  0.
        5    1    3    3  502    0 -0.18936698523E+03 -0.91988783971E+03 -0.63875206916E+03  0.11358167936E+04  0.46999998093E+01 0.  1.
       -5    1    3    3    0  502  0.18936698523E+03  0.91988783971E+03  0.31699811162E+03  0.99124335333E+03  0.46999998093E+01 0. -1.
</event>
<event>
 5   0  0.6238363E-06  0.2096970E+04  0.7818609E-02  0.8562579E-01
       -1   -1    0    0    0  501  0.00000000000E+00  0.00000000000E+00  0.96013311892E+03  0.96013311893E+03  0.50400001928E-02 0. -1.
        1   -1    0    0  501    0  0.00000000000E+00  0.00000000000E+00 -0.11449673243E+04  0.11449673244E+04  0.50400001928E-02 0.  1.
    10030    2    1    2    0    0  0.00000000000E+00  0.00000000000E+00 -0.18483420543E+03  0.21051004433E+04  0.20969702413E+04 0.  0.
        4    1    3    3  502    0  0.91168538648E+03  0.10046069922E+03  0.41754539815E+03  0.10077739669E+04  0.12699999809E+01 0. -1.
       -4    1    3    3    0  502 -0.91168538648E+03 -0.10046069922E+03 -0.60237960358E+03  0.10973264764E+04  0.12699999809E+01 0.  1.
</event>
<event>
 5   0  0.1441136E-05  0.2102657E+04  0.7818609E-02  0.8560074E-01
        2   -1    0    0  501    0  0.00000000000E+00  0.00000000000E+00  0.23988874393E+04  0.23988874393E+04  0.25500000920E-02 0. -1.
       -2   -1    0    0    0  501  0.00000000000E+00  0.00000000000E+00 -0.46075185305E+03  0.46075185306E+03  0.25500000920E-02 0.  1.
    10030    2    1    2    0    0  0.00000000000E+00  0.00000000000E+00  0.19381355863E+04  0.28596392924E+04  0.21026572074E+04 0.  0.
        4    1    3    3  502    0  0.29311041761E+03 -0.36612304596E+03 -0.31059479329E+03  0.56252159088E+03  0.12699999809E+01 0.  1.
       -4    1    3    3    0  502 -0.29311041761E+03  0.36612304596E+03  0.22487303795E+04  0.22971177015E+04  0.12699999809E+01 0. -1.
</event>
<event>
 5   0  0.6917078E-06  0.2098594E+04  0.7818609E-02  0.8561863E-01
        1   -1    0    0  501    0  0.00000000000E+00  0.00000000000E+00  0.17290798962E+04  0.17290798962E+04  0.50400001928E-02 0.  1.
       -1   -1    0    0    0  501  0.00000000000E+00  0.00000000000E+00 -0.63676872794E+03  0.63676872796E+03  0.50400001928E-02 0. -1.
    10030    2    1    2    0    0  0.00000000000E+00  0.00000000000E+00  0.10923111683E+04  0.23658486242E+04  0.20985938207E+04 0.  0.
        5    1    3    3  502    0 -0.50894918470E+03 -0.74061812717E+03  0.11568600852E+04  0.14648862856E+04  0.46999998093E+01 0.  1.
       -5    1    3    3    0  502  0.50894918470E+03  0.74061812717E+03 -0.64548916940E+02  0.90096233861E+03  0.46999998093E+01 0. -1.
</event>
<event>
 5   0  0.1398469E-05  0.2098605E+04  0.7818609E-02  0.8561858E-01
        2   -1    0    0  501    0  0.00000000000E+00  0.00000000000E+00  0.19603949884E+04  0.19603949884E+04  0.25500000920E-02 0. -1.
       -2   -1    0    0    0  501  0.00000000000E+00  0.00000000000E+00 -0.56163988153E+03  0.56163988154E+03  0.25500000920E-02 0.  1.
    10030    2    1    2    0    0  0.00000000000E+00  0.00000000000E+00  0.13987551069E+04  0.25220348700E+04  0.20986052598E+04 0.  0.
        2    1    3    3  502    0  0.28008579338E+03  0.40197751697E+03 -0.41574453489E+03  0.64255544049E+03  0.25500000920E-02 0.  1.
       -2    1    3    3    0  502 -0.28008579338E+03 -0.40197751697E+03  0.18144996418E+04  0.18794794295E+04  0.25500000920E-02 0. -1.
</event>
<event>
 5   0  0.1344501E-05  0.2097685E+04  0.7818609E-02  0.8562264E-01
        2   -1    0    0  501    0  0.00000000000E+00  0.00000000000E+00  0.10999872707E+04  0.10999872707E+04  0.25500000920E-02 0.  1.
       -2   -1    0    0    0  501  0.00000000000E+00  0.00000000000E+00 -0.10000753994E+04  0.10000753994E+04  0.25500000920E-02 0. -1.
    10030    2    1    2    0    0  0.00000000000E+00  0.00000000000E+00  0.99911871379E+02  0.21000626701E+04  0.20976846370E+04 0.  0.
        3    1    3    3  502    0  0.15524595139E+03  0.17274490759E+03  0.10739194672E+04  0.10987470777E+04  0.10100000352E+00 0.  1.
       -3    1    3    3    0  502 -0.15524595139E+03 -0.17274490759E+03 -0.97400759586E+03  0.10013155924E+04  0.10100000352E+00 0. -1.
</event>
<event>
 5   0  0.6599245E-06  0.2102267E+04  0.7818609E-02  0.8560245E-01
        1   -1    0    0  501    0  0.00000000000E+00  0.00000000000E+00  0.13673876698E+04  0.13673876698E+04  0.50400001928E-02 0.  1.
       -1   -1    0    0    0  501  0.00000000000E+00  0.00000000000E+00 -0.80802398192E+03  0.80802398193E+03  0.50400001928E-02 0. -1.
    10030    2    1    2    0    0  0.00000000000E+00  0.00000000000E+00  0.55936368785E+03  0.21754116517E+04  0.21022673757E+04 0.  0.
        2    1    3    3  502    0 -0.55141724545E+03 -0.89363495691E+03  0.23073257846E+03  0.10751194992E+04  0.25500000920E-02 0.  1.
       -2    1    3    3    0  502  0.55141724545E+03  0.89363495691E+03  0.32863110938E+03  0.11002921525E+04  0.25500000920E-02 0. -1.
</event>
<event>
 5   0  0.6917078E-06  0.2102478E+04  0.7818609E-02  0.8560153E-01
       -1   -1    0    0    0  501  0.00000000000E+00  0.00000000000E+00  0.98891811884E+03  0.98891811885E+03  0.50400001928E-02 0. -1.
        1   -1    0    0  501    0  0.00000000000E+00  0.00000000000E+00 -0.11174872853E+04  0.11174872853E+04  0.50400001928E-02 0.  1.
    10030    2    1    2    0    0  0.00000000000E+00  0.00000000000E+00 -0.12856916648E+03  0.21064054042E+04  0.21024779895E+04 0.  0.
        5    1    3    3  502    0 -0.35221103988E+03  0.75776603395E+03 -0.70329995583E+03  0.10922064350E+04  0.46999998093E+01 0.  1.
       -5    1    3    3    0  502  0.35221103988E+03 -0.75776603395E+03  0.57473078935E+03  0.10141989692E+04  0.46999998093E+01 0. -1.
</event>
<event>
 5   0  0.1344501E-05  0.2101206E+04  0.7818609E-02  0.8560712E-01
        2   -1    0    0  501    0  0.00000000000E+00  0.00000000000E+00  0.13860299089E+04  0.13860299089E+04  0.25500000920E-02 0. -1.
       -2   -1    0    0    0  501  0.00000000000E+00  0.00000000000E+00 -0.79635162570E+03  0.79635162570E+03  0.25500000920E-02 0.  1.
    10030    2    1    2    0    0  0.00000000000E+00  0.00000000000E+00  0.58967828315E+03  0.21823815346E+04  0.21012064831E+04 0.  0.
        3    1    3    3  502    0 -0.25848984755E+03  0.56316422983E+03  0.11760233873E+04  0.13292862629E+04  0.10100000352E+00 0. -1.
       -3    1    3    3    0  502  0.25848984755E+03 -0.56316422983E+03 -0.58634510419E+03  0.85309527162E+03  0.10100000352E+00 0.  1.
</event>
<event>
 5   0  0.1344501E-05  0.2114415E+04  0.7818609E-02  0.8554920E-01
       -2   -1    0    0    0  501  0.00000000000E+00  0.00000000000E+00  0.12800201282E+04  0.12800201282E+04  0.25500000920E-02 0. -1.
        2   -1    0    0  501    0  0.00000000000E+00  0.00000000000E+00 -0.87318001381E+03  0.87318001381E+03  0.25500000920E-02 0.  1.
    10030    2    1    2    0    0  0.00000000000E+00  0.00000000000E+00  0.40684011440E+03  0.21532001420E+04  0.21144152792E+04 0.  0.
        3    1    3    3  502    0  0.12419435483E+03 -0.41014294250E+03  0.11876087311E+04  0.12625592974E+04  0.10100000352E+00 0. -1.
       -3    1    3    3    0  502 -0.12419435483E+03  0.41014294250E+03 -0.78076861671E+03  0.89064084462E+03  0.10100000352E+00 0.  1.
</event>
<event>
 5   0  0.1398469E-05  0.2098783E+04  0.7818609E-02  0.8561780E-01
       -2   -1    0    0    0  501  0.00000000000E+00  0.00000000000E+00  0.17123678061E+04  0.17123678061E+04  0.25500000920E-02 0. -1.
        2   -1    0    0  501    0  0.00000000000E+00  0.00000000000E+00 -0.64309911539E+03  0.64309911539E+03  0.25500000920E-02 0.  1.
    10030    2    1    2    0    0  0.00000000000E+00  0.00000000000E+00  0.10692686907E+04  0.23554669215E+04  0.20987827151E+04 0.  0.
        2    1    3    3  502    0  0.15309277438E+03 -0.13015086818E+03 -0.62130651500E+03  0.65299190780E+03  0.25500000920E-02 0.  1.
       -2    1    3    3    0  502 -0.15309277438E+03  0.13015086818E+03  0.16905752057E+04  0.17024750137E+04  0.25500000920E-02 0. -1.
</event>
<event>
 5   0  0.6283269E-06  0.2090705E+04  0.7818609E-02  0.8565349E-01
        1   -1    0    0  501    0  0.00000000000E+00  0.00000000000E+00  0.16890697017E+04  0.16890697017E+04  0.50400001928E-02 0.  1.
       -1   -1    0    0    0  501  0.00000000000E+00  0.00000000000E+00 -0.64696089726E+03  0.64696089728E+03  0.50400001928E-02 0. -1.
    10030    2    1    2    0    0  0.00000000000E+00  0.00000000000E+00  0.10421088045E+04  0.23360305990E+04  0.20907051919E+04 0.  0.
        1    1    3    3  502    0 -0.26466191183E+02  0.10323891227E+04  0.70203015266E+03  0.12487490121E+04  0.50400001928E-02 0.  1.
       -1    1    3    3    0  502  0.26466191183E+02 -0.10323891227E+04  0.34007865181E+03  0.10872815870E+04  0.50400001928E-02 0. -1.
</event>
<event>
 5   0  0.1441136E-05  0.2116210E+04  0.7818609E-02  0.8554136E-01
        2   -1    0    0  501    0  0.00000000000E+00  0.00000000000E+00  0.19364473588E+04  0.19364473588E+04  0.25500000920E-02 0.  1.
       -2   -1    0    0    0  501  0.00000000000E+00  0.00000000000E+00 -0.57816492453E+03  0.57816492453E+03  0.25500000920E-02 0. -1.
    10030    2    1    2    0    0  0.00000000000E+00  0.00000000000E+00  0.13582824342E+04  0.25146122833E+04  0.21162097638E+04 0.  0.
        4    1    3    3  502    0 -0.44025532388E+03  0.84946621250E+03  0.12160553147E+04  0.15473234108E+04  0.12699999809E+01 0.  1.
       -4    1    3    3    0  502  0.44025532388E+03 -0.84946621250E+03  0.14222711953E+03  0.96728887247E+03  0.12699999809E+01 0. -1.
</event>
<event>
 5   0  0.1344501E-05  0.2097382E+04  0.7818609E-02  0.8562398E-01
        2   -1    0    0  501    0  0.00000000000E+00  0.00000000000E+00  0.11331224142E+04  0.11331224143E+04  0.25500000920E-02 0.  1.
       -2   -1    0    0    0  501  0.00000000000E+00  0.00000000000E+00 -0.97055074013E+03  0.97055074013E+03  0.25500000920E-02 0. -1.
    10030    2    1    2    0    0  0.00000000000E+00  0.00000000000E+00  0.16257167412E+03  0.21036731544E+04  0.20973819851E+04 0.  0.
        3    1    3    3  502    0  0.86495515984E+03  0.45112786831E+03 -0.30469179702E+03  0.10220082600E+04  0.10100000352E+00 0. -1.
       -3    1    3    3    0  502 -0.86495515984E+03 -0.45112786831E+03  0.46726347114E+03  0.10816648944E+04  0.10100000352E+00 0.  1.
</event>
<event>
 5   0  0.6599245E-06  0.2093109E+04  0.7818609E-02  0.8564285E-01
       -1   -1    0    0    0  501  0.00000000000E+00  0.00000000000E+00  0.83076060510E+03  0.83076060511E+03  0.50400001928E-02 0. -1.
        1   -1    0    0  501    0  0.00000000000E+00  0.00000000000E+00 -0.13184017717E+04  0.13184017717E+04  0.50400001928E-02 0.  1.
    10030    2    1    2    0    0  0.00000000000E+00  0.00000000000E+00 -0.48764116656E+03  0.21491623768E+04  0.20931089352E+04 0.  0.
        2    1    3    3  502    0 -0.47567399467E+03 -0.14372827725E+03 -0.11895472115E+04  0.12891648984E+04  0.25500000920E-02 0.  1.
       -2    1    3    3    0  502  0.47567399467E+03  0.14372827725E+03  0.70190604494E+03  0.85999747837E+03  0.25500000920E-02 0. -1.
</event>
<event>
 5   0  0.6283269E-06  0.2101481E+04  0.7818609E-02  0.8560591E-01
       -1   -1    0    0    0  501  0.00000000000E+00  0.00000000000E+00  0.95372000856E+03  0.95372000857E+03  0.50400001928E-02 0.  1.
        1   -1    0    0  501    0  0.00000000000E+00  0.00000000000E+00 -0.11576312280E+04  0.11576312280E+04  0.50400001928E-02 0. -1.
    10030    2    1    2    0    0  0.00000000000E+00  0.00000000000E+00 -0.20391121947E+03  0.21113512366E+04  0.21014814439E+04 0.  0.
        1    1    3    3  502    0 -0.53581798152E+03  0.12304867282E+03 -0.10016019001E+04  0.11425621434E+04  0.50400001928E-02 0. -1.
       -1    1    3    3    0  502  0.53581798152E+03 -0.12304867282E+03  0.79769068062E+03  0.96878909324E+03  0.50400001928E-02 0.  1.
</event>
<event>
 5   0  0.1395356E-05  0.2101062E+04  0.7818609E-02  0.8560776E-01
        2   -1    0    0  501    0  0.00000000000E+00  0.00000000000E+00  0.14761846559E+04  0.14761846559E+04  0.25500000920E-02 0.  1.
       -2   -1    0    0    0  501  0.00000000000E+00  0.00000000000E+00 -0.74761349832E+03  0.74761349833E+03  0.25500000920E-02 0. -1.
    10030    2    1    2    0    0  0.00000000000E+00  0.00000000000E+00  0.72857115755E+03  0.22237981542E+04  0.21010621835E+04 0.  0.
        1    1    3    3  502    0 -0.73834389979E+03  0.73978791202E+03  0.47618627603E+03  0.11485605072E+04  0.50400001928E-02 0.  1.
       -1    1    3    3    0  502  0.73834389979E+03 -0.73978791202E+03  0.25238488152E+03  0.10752376470E+04  0.50400001928E-02 0. -1.
</event>
<event>
 5   0  0.6917078E-06  0.2097109E+04  0.7818609E-02  0.8562518E-01
        1   -1    0    0  501    0  0.00000000000E+00  0.00000000000E+00  0.20641120735E+04  0.20641120735E+04  0.50400001928E-02 0.  1.
       -1   -1    0    0    0  501  0.00000000000E+00  0.00000000000E+00 -0.53265826015E+03  0.53265826018E+03  0.50400001928E-02 0. -1.
    10030    2    1    2    0    0  0.00000000000E+00  0.00000000000E+00  0.15314538133E+04  0.25967703336E+04  0.20971088153E+04 0.  0.
        5    1    3    3  502    0  0.74042758010E+02 -0.82442318514E+03 -0.31283384471E+02  0.82834573601E+03  0.46999998093E+01 0. -1.
       -5    1    3    3    0  502 -0.74042758010E+02  0.82442318514E+03  0.15627371978E+04  0.17684245976E+04  0.46999998093E+01 0.  1.
</event>
<event>
 5   0  0.6238363E-06  0.2101317E+04  0.7818609E-02  0.8560663E-01
        1   -1    0    0  501    0  0.00000000000E+00  0.00000000000E+00  0.19620551303E+04  0.19620551303E+04  0.50400001928E-02 0.  1.
       -1   -1    0    0    0  501  0.00000000000E+00  0.00000000000E+00 -0.56261578525E+03  0.56261578527E+03  0.50400001928E-02 0. -1.
    10030    2    1    2    0    0  0.00000000000E+00  0.00000000000E+00  0.13994393450E+04  0.25246709156E+04  0.21013169089E+04 0.  0.
        4    1    3    3  502    0 -0.26326893585E+03 -0.10114771146E+04  0.57095983961E+03  0.11909631553E+04  0.12699999809E+01 0. -1.
       -4    1    3    3    0  502  0.26326893585E+03  0.10114771146E+04  0.82847950542E+03  0.13337077603E+04  0.12699999809E+01 0.  1.
</event>
<event>
 5   0  0.1344501E-05  0.2100021E+04  0.7818609E-02  0.8561234E-01
       -2   -1    0    0    0  501  0.00000000000E+00  0.00000000000E+00  0.51082519693E+03  0.51082519693E+03  0.25500000920E-02 0. -1.
        2   -1    0    0  501    0  0.00000000000E+00  0.00000000000E+00 -0.21583163289E+04  0.21583163289E+04  0.25500000920E-02 0.  1.
    10030    2    1    2    0    0  0.00000000000E+00  0.00000000000E+00 -0.16474911320E+04  0.26691415258E+04  0.21000212987E+04 0.  0.
        3    1    3    3  502    0 -0.36027406171E+03 -0.72759857334E+03 -0.16700159570E+04  0.18569195972E+04  0.10100000352E+00 0. -1.
       -3    1    3    3    0  502  0.36027406171E+03  0.72759857334E+03  0.22524825043E+02  0.81222192867E+03  0.10100000352E+00 0.  1.
</event>
<event>
 5   0  0.6238363E-06  0.2134325E+04  0.7818609E-02  0.8546272E-01
        1   -1    0    0  501    0  0.00000000000E+00  0.00000000000E+00  0.13464233277E+04  0.13464233277E+04  0.50400001928E-02 0.  1.
       -1   -1    0    0    0  501  0.00000000000E+00  0.00000000000E+00 -0.84582267339E+03  0.84582267340E+03  0.50400001928E-02 0. -1.
    10030    2    1    2    0    0  0.00000000000E+00  0.00000000000E+00  0.50060065435E+03  0.21922460012E+04  0.21343246038E+04 0.  0.
        4    1    3    3  502    0  0.73353017082E+03  0.17458476045E+03 -0.52536737770E+03  0.91899882728E+03  0.12699999809E+01 0. -1.
       -4    1    3    3    0  502 -0.73353017082E+03 -0.17458476045E+03  0.10259680320E+04  0.12732471739E+04  0.12699999809E+01 0.  1.
</event>
<event>
 5   0  0.6283269E-06  0.2102435E+04  0.7818609E-02  0.8560172E-01
        1   -1    0    0  501    0  0.00000000000E+00  0.00000000000E+00  0.72788067634E+03  0.72788067636E+03  0.50400001928E-02 0. -1.
       -1   -1    0    0    0  501  0.00000000000E+00  0.00000000000E+00 -0.15181855290E+04  0.15181855290E+04  0.50400001928E-02 0.  1.
    10030    2    1    2    0    0  0.00000000000E+00  0.00000000000E+00 -0.79030485267E+03  0.22460662054E+04  0.21024346931E+04 0.  0.
        1    1    3    3  502    0 -0.13252446485E+03  0.41842056757E+02 -0.15083284450E+04  0.15147171979E+04  0.50400001928E-02 0.  1.
       -1    1    3    3    0  502  0.13252446485E+03 -0.41842056757E+02  0.71802359237E+03  0.73134900747E+03  0.50400001928E-02 0. -1.
</event>
<event>
 5   0  0.6599245E-06  0.2098850E+04  0.7818609E-02  0.8561750E-01
        1   -1    0    0  501    0  0.00000000000E+00  0.00000000000E+00  0.84550561180E+03  0.84550561182E+03  0.50400001928E-02 0.  1.
       -1   -1    0    0    0  501  0.00000000000E+00  0.00000000000E+00 -0.13025253363E+04  0.13025253363E+04  0.50400001928E-02 0. -1.
    10030    2    1    2    0    0  0.00000000000E+00  0.00000000000E+00 -0.45701972452E+03  0.21480309482E+04  0.20988496672E+04 0.  0.
        2    1    3    3  502    0  0.78370495588E+01 -0.26771712266E+03 -0.12669578227E+04  0.12949579150E+04  0.25500000920E-02 0. -1.
       -2    1    3    3    0  502 -0.78370495588E+01  0.26771712266E+03  0.80993809815E+03  0.85307303318E+03  0.25500000920E-02 0.  1.
</event>
<event>
 5   0  0.1395356E-05  0.2093712E+04  0.7818609E-02  0.8564019E-01
        2   -1    0    0  501    0  0.00000000000E+00  0.00000000000E+00  0.11849350019E+04  0.11849350019E+04  0.25500000920E-02 0.  1.
       -2   -1    0    0    0  501  0.00000000000E+00  0.00000000000E+00 -0.92486686576E+03  0.92486686576E+03  0.25500000920E-02 0. -1.
    10030    2    1    2    0    0  0.00000000000E+00  0.00000000000E+00  0.26006813616E+03  0.21098018677E+04  0.20937116529E+04 0.  0.
        1    1    3    3  502    0 -0.40735894898E+03 -0.59007985366E+02 -0.83990339199E+03  0.93534002564E+03  0.50400001928E-02 0. -1.
       -1    1    3    3    0  502  0.40735894898E+03  0.59007985366E+02  0.10999715282E+04  0.11744618420E+04  0.50400001928E-02 0.  1.
</event>
<event>
 5   0  0.6917078E-06  0.2094791E+04  0.7818609E-02  0.8563541E-01
        1   -1    0    0  501    0  0.00000000000E+00  0.00000000000E+00  0.70651620696E+03  0.70651620697E+03  0.50400001928E-02 0. -1.
       -1   -1    0    0    0  501  0.00000000000E+00  0.00000000000E+00 -0.15527422192E+04  0.15527422192E+04  0.50400001928E-02 0.  1.
    10030    2    1    2    0    0  0.00000000000E+00  0.00000000000E+00 -0.84622601221E+03  0.22592584261E+04  0.20947912002E+04 0.  0.
        5    1    3    3  502    0 -0.69479383033E+03 -0.66533459920E+03  0.23665723765E+02  0.96228413270E+03  0.46999998093E+01 0. -1.
       -5    1    3    3    0  502  0.69479383033E+03  0.66533459920E+03 -0.86989173597E+03  0.12969742934E+04  0.46999998093E+01 0.  1.
</event>
<event>
 5   0  0.1344501E-05  0.2107796E+04  0.7818609E-02  0.8557817E-01
       -2   -1    0    0    0  501  0.00000000000E+00  0.00000000000E+00  0.12437235682E+04  0.12437235682E+04  0.25500000920E-02 0.  1.
        2   -1    0    0  501    0  0.00000000000E+00  0.00000000000E+00 -0.89304488433E+03  0.89304488433E+03  0.25500000920E-02 0. -1.
    10030    2    1    2    0    0  0.00000000000E+00  0.00000000000E+00  0.35067868383E+03  0.21367684525E+04  0.21077959769E+04 0.  0.
        3    1    3    3  502    0 -0.44956725913E+03  0.16382738471E+03 -0.77658367905E+03  0.91215807469E+03  0.10100000352E+00 0. -1.
       -3    1    3    3    0  502  0.44956725913E+03 -0.16382738471E+03  0.11272623629E+04  0.12246103778E+04  0.10100000352E+00 0.  1.
</event>
<event>
 5   0  0.1398469E-05  0.2098931E+04  0.7818609E-02  0.8561715E-01
        2   -1    0    0  501    0  0.00000000000E+00  0.00000000000E+00  0.14708077587E+04  0.14708077587E+04  0.25500000920E-02 0.  1.
       -2   -1    0    0    0  501  0.00000000000E+00  0.00000000000E+00 -0.74882494539E+03  0.74882494539E+03  0.25500000920E-02 0. -1.
    10030    2    1    2    0    0  0.00000000000E+00  0.00000000000E+00  0.72198281334E+03  0.22196327041E+04  0.20989307179E+04 0.  0.
        2    1    3    3  502    0 -0.41593485015E+03  0.26456945819E+03 -0.61877487299E+03  0.79112650140E+03  0.25500000920E-02 0. -1.
       -2    1    3    3    0  502  0.41593485015E+03 -0.26456945819E+03  0.13407576863E+04  0.14285062027E+04  0.25500000920E-02 0.  1.
</event>
<event>
 5   0  0.1441136E-05  0.2106696E+04  0.7818609E-02  0.8558300E-01
       -2   -1    0    0    0  501  0.00000000000E+00  0.00000000000E+00  0.89513413741E+03  0.89513413742E+03  0.25500000920E-02 0. -1.
        2   -1    0    0  501    0  0.00000000000E+00  0.00000000000E+00 -0.12395254336E+04  0.12395254336E+04  0.25500000920E-02 0.  1.
    10030    2    1    2    0    0  0.00000000000E+00  0.00000000000E+00 -0.34439129620E+03  0.21346595710E+04  0.21066955450E+04 0.  0.
        4    1    3    3  502    0 -0.80934571734E+03 -0.41096820635E+03 -0.71370930848E+03  0.11546938758E+04  0.12699999809E+01 0.  1.
       -4    1    3    3    0  502  0.80934571734E+03  0.41096820635E+03  0.36931801228E+03  0.97996569527E+03  0.12699999809E+01 0. -1.
</event>
<event>
 5   0  0.1344501E-05  0.2098843E+04  0.7818609E-02  0.8561753E-01
       -2   -1    0    0    0  501  0.00000000000E+00  0.00000000000E+00  0.67476079747E+03  0.67476079748E+03  0.25500000920E-02 0.  1.
        2   -1    0    0  501    0  0.00000000000E+00  0.00000000000E+00 -0.16321116657E+04  0.16321116657E+04  0.25500000920E-02 0. -1.
    10030    2    1    2    0    0  0.00000000000E+00  0.00000000000E+00 -0.95735086822E+03  0.23068724632E+04  0.20988425087E+04 0.  0.
        3    1    3    3  502    0 -0.67304576055E+03  0.57235158245E+03  0.14376622246E+03  0.89512326897E+03  0.10100000352E+00 0.  1.
       -3    1    3    3    0  502  0.67304576055E+03 -0.57235158245E+03 -0.11011170907E+04  0.14117491942E+04  0.10100000352E+00 0. -1.
</event>
<event>
 5   0  0.6283269E-06  0.2097525E+04  0.7818609E-02  0.8562334E-01
       -1   -1    0    0    0  501  0.00000000000E+00  0.00000000000E+00  0.15122221375E+04  0.15122221376E+04  0.50400001928E-02 0. -1.
        1   -1    0    0  501    0  0.00000000000E+00  0.00000000000E+00 -0.72734206484E+03  0.72734206485E+03  0.50400001928E-02 0.  1.
    10030    2    1    2    0    0  0.00000000000E+00  0.00000000000E+00  0.78488007271E+03  0.22395642024E+04  0.20975249911E+04 0.  0.
        1    1    3    3  502    0  0.70556014001E+03  0.77583201819E+03  0.40645687003E+03  0.11246944558E+04  0.50400001928E-02 0. -1.
       -1    1    3    3    0  502 -0.70556014001E+03 -0.77583201819E+03  0.37842320268E+03  0.11148697466E+04  0.50400001928E-02 0.  1.
</event>
<event>
 5   0  0.6917078E-06  0.2108100E+04  0.7818609E-02  0.8557684E-01
        1   -1    0    0  501    0  0.00000000000E+00  0.00000000000E+00  0.12986482848E+04  0.12986482848E+04  0.50400001928E-02 0.  1.
       -1   -1    0    0    0  501  0.00000000000E+00  0.00000000000E+00 -0.85552099901E+03  0.85552099902E+03  0.50400001928E-02 0. -1.
    10030    2    1    2    0    0  0.00000000000E+00  0.00000000000E+00  0.44312728575E+03  0.21541692838E+04  0.21080995024E+04 0.  0.
        5    1    3    3  502    0  0.49946083256E+03 -0.62038110998E+02 -0.72479036898E+03  0.88241317954E+03  0.46999998093E+01 0. -1.
       -5    1    3    3    0  502 -0.49946083256E+03  0.62038110998E+02  0.11679176547E+04  0.12717561042E+04  0.46999998093E+01 0.  1.
</event>
<event>
 5   0  0.5009125E-06  0.2099598E+04  0.7818609E-02  0.8561421E-01
        3   -1    0    0  501    0  0.00000000000E+00  0.00000000000E+00  0.51768280223E+03  0.51768281208E+03  0.10100000352E+00 0. -1.
       -3   -1    0    0    0  501  0.00000000000E+00  0.00000000000E+00 -0.21288662481E+04  0.21288662505E+04  0.10100000352E+00 0.  1.
    10030    2    1    2    0    0  0.00000000000E+00  0.00000000000E+00 -0.16111834459E+04  0.26465490626E+04  0.20995975434E+04 0.  0.
        1    1    3    3  502    0 -0.57007201800E+03 -0.50481917700E+03  0.10533689474E+03  0.76871345025E+03  0.50400001928E-02 0. -1.
       -1    1    3    3    0  502  0.57007201800E+03  0.50481917700E+03 -0.17165203406E+04  0.18778356123E+04  0.50400001928E-02 0.  1.
</event>
<event>
 5   0  0.1441136E-05  0.2099887E+04  0.7818609E-02  0.8561293E-01
        2   -1    0    0  501    0  0.00000000000E+00  0.00000000000E+00  0.18439564596E+04  0.18439564596E+04  0.25500000920E-02 0. -1.
       -2   -1    0    0    0  501  0.00000000000E+00  0.00000000000E+00 -0.59783460826E+03  0.59783460826E+03  0.25500000920E-02 0.  1.
    10030    2    1    2    0    0  0.00000000000E+00  0.00000000000E+00  0.12461218513E+04  0.24417910678E+04  0.20998866518E+04 0.  0.
        4    1    3    3  502    0 -0.98474849444E+03  0.31396575292E+03  0.83771166380E+03  0.13304384750E+04  0.12699999809E+01 0. -1.
       -4    1    3    3    0  502  0.98474849444E+03 -0.31396575292E+03  0.40841018750E+03  0.11113525928E+04  0.12699999809E+01 0.  1.
</event>
<event>
 5   0  0.1398469E-05  0.2099711E+04  0.7818609E-02  0.8561371E-01
        2   -1    0    0  501    0  0.00000000000E+00  0.00000000000E+00  0.11178317963E+04  0.11178317963E+04  0.25500000920E-02 0.  1.
       -2   -1    0    0    0  501  0.00000000000E+00  0.00000000000E+00 -0.98601247445E+03  0.98601247445E+03  0.25500000920E-02 0. -1.
    10030    2    1    2    0    0  0.00000000000E+00  0.00000000000E+00  0.13181932185E+03  0.21038442708E+04  0.20997105472E+04 0.  0.
        2    1    3    3  502    0 -0.82817020471E+03 -0.60741608601E+03 -0.15217891868E+03  0.10382574887E+04  0.25500000920E-02 0.  1.
       -2    1    3    3    0  502  0.82817020471E+03  0.60741608601E+03  0.28399824053E+03  0.10655867821E+04  0.25500000920E-02 0. -1.
</event>
<event>
 5   0  0.6599245E-06  0.2106426E+04  0.7818609E-02  0.8558418E-01
       -1   -1    0    0    0  501  0.00000000000E+00  0.00000000000E+00  0.13731903219E+04  0.13731903220E+04  0.50400001928E-02 0. -1.
        1   -1    0    0  501    0  0.00000000000E+00  0.00000000000E+00 -0.80779563772E+03  0.80779563774E+03  0.50400001928E-02 0.  1.
    10030    2    1    2    0    0  0.00000000000E+00  0.00000000000E+00  0.56539468422E+03  0.21809859597E+04  0.21064255523E+04 0.  0.
        2    1    3    3  502    0  0.77830456726E+03 -0.70541863213E+03  0.20327691242E+03  0.10699041775E+04  0.25500000920E-02 0.  1.
       -2    1    3    3    0  502 -0.77830456726E+03  0.70541863213E+03  0.36211777181E+03  0.11110817822E+04  0.25500000920E-02 0. -1.
</event>
<event>
 5   0  0.5009125E-06  0.2103235E+04  0.7818609E-02  0.8559820E-01
       -4   -1    0    0    0  501  0.00000000000E+00  0.00000000000E+00  0.13571778838E+04  0.13571784780E+04  0.12699999809E+01 0.  1.
        4   -1    0    0  501    0  0.00000000000E+00  0.00000000000E+00 -0.81485053625E+03  0.81485152594E+03  0.12699999809E+01 0. -1.
    10030    2    1    2    0    0  0.00000000000E+00  0.00000000000E+00  0.54232734754E+03  0.21720300039E+04  0.21032345057E+04 0.  0.
        4    1    3    3  502    0  0.46400458725E+03 -0.71451225708E+03  0.90782646176E+03  0.12449813332E+04  0.12699999809E+01 0.  1.
       -4    1    3    3    0  502 -0.46400458725E+03  0.71451225708E+03 -0.36549911421E+03  0.92704867072E+03  0.12699999809E+01 0. -1.
</event>
<event>
 5   0  0.1395356E-05  0.2037560E+04  0.7818609E-02  0.8589259E-01
        2   -1    0    0  501    0  0.00000000000E+00  0.00000000000E+00  0.23765929766E+04  0.23765929766E+04  0.25500000920E-02 0.  1.
       -2   -1    0    0    0  501  0.00000000000E+00  0.00000000000E+00 -0.43672302847E+03  0.43672302848E+03  0.25500000920E-02 0. -1.
    10030    2    1    2    0    0  0.00000000000E+00  0.00000000000E+00  0.19398699482E+04  0.28133160051E+04  0.20375601902E+04 0.  0.
        1    1    3    3  502    0  0.30745316477E+03  0.58382889367E+03  0.20416939758E+04  0.21456695730E+04  0.50400001928E-02 0.  1.
       -1    1    3    3    0  502 -0.30745316477E+03 -0.58382889367E+03 -0.10182402769E+03  0.66764643207E+03  0.50400001928E-02 0. -1.
</event>
<event>
 5   0  0.6238363E-06  0.2111173E+04  0.7818609E-02  0.8556338E-01
        1   -1    0    0  501    0  0.00000000000E+00  0.00000000000E+00  0.58828983105E+03  0.58828983107E+03  0.50400001928E-02 0.  1.
       -1   -1    0    0    0  501  0.00000000000E+00  0.00000000000E+00 -0.18940707479E+04  0.18940707479E+04  0.50400001928E-02 0. -1.
    10030    2    1    2    0    0  0.00000000000E+00  0.00000000000E+00 -0.13057809169E+04  0.24823605790E+04  0.21111727171E+04 0.  0.
        4    1    3    3  502    0  0.58934702858E+03  0.28397684870E+03  0.32118894296E+03  0.72879127373E+03  0.12699999809E+01 0.  1.
       -4    1    3    3    0  502 -0.58934702858E+03 -0.28397684870E+03 -0.16269698598E+04  0.17535693053E+04  0.12699999809E+01 0. -1.
</event>
<event>
 5   0  0.6917078E-06  0.2098868E+04  0.7818609E-02  0.8561742E-01
       -1   -1    0    0    0  501  0.00000000000E+00  0.00000000000E+00  0.60134264322E+03  0.60134264324E+03  0.50400001928E-02 0.  1.
        1   -1    0    0  501    0  0.00000000000E+00  0.00000000000E+00 -0.18314218927E+04  0.18314218927E+04  0.50400001928E-02 0. -1.
    10030    2    1    2    0    0  0.00000000000E+00  0.00000000000E+00 -0.12300792495E+04  0.24327645360E+04  0.20988683445E+04 0.  0.
        5    1    3    3  502    0 -0.10577067352E+03 -0.66705357820E+03  0.31594511830E+03  0.74564825443E+03  0.46999998093E+01 0.  1.
       -5    1    3    3    0  502  0.10577067352E+03  0.66705357820E+03 -0.15460243678E+04  0.16871162815E+04  0.46999998093E+01 0. -1.
</event>
<event>
 5   0  0.6283269E-06  0.2099202E+04  0.7818609E-02  0.8561595E-01
       -1   -1    0    0    0  501  0.00000000000E+00  0.00000000000E+00  0.13177184567E+04  0.13177184567E+04  0.50400001928E-02 0.  1.
        1   -1    0    0  501    0  0.00000000000E+00  0.00000000000E+00 -0.83603767088E+03  0.83603767090E+03  0.50400001928E-02 0. -1.
    10030    2    1    2    0    0  0.00000000000E+00  0.00000000000E+00  0.48168078584E+03  0.21537561276E+04  0.20992020098E+04 0.  0.
        1    1    3    3  502    0  0.38584678865E+03  0.57112223916E+03  0.10529952462E+04  0.12585139431E+04  0.50400001928E-02 0.  1.
       -1    1    3    3    0  502 -0.38584678865E+03 -0.57112223916E+03 -0.57131446035E+03  0.89524218456E+03  0.50400001928E-02 0. -1.
</event>
<event>
 5   0  0.6589193E-06  0.2080463E+04  0.7818609E-02  0.8569899E-01
       -1   -1    0    0    0  501  0.00000000000E+00  0.00000000000E+00  0.10368423929E+04  0.10368423929E+04  0.50400001928E-02 0.  1.
        1   -1    0    0  501    0  0.00000000000E+00  0.00000000000E+00 -0.10436319196E+04  0.10436319196E+04  0.50400001928E-02 0. -1.
    10030    2    1    2    0    0  0.00000000000E+00  0.00000000000E+00 -0.67895266142E+01  0.20804743125E+04  0.20804632338E+04 0.  0.
        3    1    3    3  502    0 -0.69971146036E+03  0.55902287016E+03 -0.53252810317E+03  0.10419639571E+04  0.10100000352E+00 0. -1.
       -3    1    3    3    0  502  0.69971146036E+03 -0.55902287016E+03  0.52573857655E+03  0.10385103554E+04  0.10100000352E+00 0.  1.
</event>
<event>
 5   0  0.1344501E-05  0.2087118E+04  0.7818609E-02  0.8566939E-01
        2   -1    0    0  501    0  0.00000000000E+00  0.00000000000E+00  0.14655803495E+04  0.14655803495E+04  0.25500000920E-02 0.  1.
       -2   -1    0    0    0  501  0.00000000000E+00  0.00000000000E+00 -0.74306066673E+03  0.74306066673E+03  0.25500000920E-02 0. -1.
    10030    2    1    2    0    0  0.00000000000E+00  0.00000000000E+00  0.72251968278E+03  0.22086410162E+04  0.20871177366E+04 0.  0.
        3    1    3    3  502    0 -0.18708325793E+03 -0.51964189705E+03 -0.57572526034E+03  0.79780162456E+03  0.10100000352E+00 0. -1.
       -3    1    3    3    0  502  0.18708325793E+03  0.51964189705E+03  0.12982449431E+04  0.14108393917E+04  0.10100000352E+00 0.  1.
</event>
<event>
 5   0  0.1395356E-05  0.2095037E+04  0.7818609E-02  0.8563433E-01
        2   -1    0    0  501    0  0.00000000000E+00  0.00000000000E+00  0.86318123872E+03  0.86318123872E+03  0.25500000920E-02 0.  1.
       -2   -1    0    0    0  501  0.00000000000E+00  0.00000000000E+00 -0.12712224479E+04  0.12712224479E+04  0.25500000920E-02 0. -1.
    10030    2    1    2    0    0  0.00000000000E+00  0.00000000000E+00 -0.40804120922E+03  0.21344036867E+04  0.20950373432E+04 0.  0.
        1    1    3    3  502    0 -0.21065885043E+02  0.30367057752E+03 -0.12251695985E+04  0.12624183681E+04  0.50400001928E-02 0. -1.
       -1    1    3    3    0  502  0.21065885043E+02 -0.30367057752E+03  0.81712838926E+03  0.87198531852E+03  0.50400001928E-02 0.  1.
</event>
<event>
 5   0  0.5009125E-06  0.2093589E+04  0.7818609E-02  0.8564073E-01
       -3   -1    0    0    0  501  0.00000000000E+00  0.00000000000E+00  0.10948441922E+04  0.10948441969E+04  0.10100000352E+00 0.  1.
        3   -1    0    0  501    0  0.00000000000E+00  0.00000000000E+00 -0.10008534614E+04  0.10008534665E+04  0.10100000352E+00 0. -1.
    10030    2    1    2    0    0  0.00000000000E+00  0.00000000000E+00  0.93990730795E+02  0.20956976634E+04  0.20935888897E+04 0.  0.
        2    1    3    3  502    0  0.51250269410E+03  0.48866493851E+03  0.81869741464E+03  0.10824591865E+04  0.25500000920E-02 0.  1.
       -2    1    3    3    0  502 -0.51250269410E+03 -0.48866493851E+03 -0.72470668384E+03  0.10132384770E+04  0.25500000920E-02 0. -1.
</event>
<event>
 5   0  0.1441136E-05  0.2138392E+04  0.7818609E-02  0.8544518E-01
        2   -1    0    0  501    0  0.00000000000E+00  0.00000000000E+00  0.14786447558E+04  0.14786447558E+04  0.25500000920E-02 0.  1.
       -2   -1    0    0    0  501  0.00000000000E+00  0.00000000000E+00 -0.77312678256E+03  0.77312678256E+03  0.25500000920E-02 0. -1.
    10030    2    1    2    0    0  0.00000000000E+00  0.00000000000E+00  0.70551797321E+03  0.22517715383E+04  0.21383917907E+04 0.  0.
        4    1    3    3  502    0  0.82400573863E+03  0.48568598224E+03 -0.15038446883E+03  0.96824244485E+03  0.12699999809E+01 0. -1.
       -4    1    3    3    0  502 -0.82400573863E+03 -0.48568598224E+03  0.85590244204E+03  0.12835290935E+04  0.12699999809E+01 0.  1.
</event>
<event>
 5   0  0.6599245E-06  0.2098290E+04  0.7818609E-02  0.8561997E-01
       -1   -1    0    0    0  501  0.00000000000E+00  0.00000000000E+00  0.98858262691E+03  0.98858262692E+03  0.50400001928E-02 0. -1.
        1   -1    0    0  501    0  0.00000000000E+00  0.00000000000E+00 -0.11134176162E+04  0.11134176162E+04  0.50400001928E-02 0.  1.
    10030    2    1    2    0    0  0.00000000000E+00  0.00000000000E+00 -0.12483498926E+03  0.21020002431E+04  0.20982900770E+04 0.  0.
        2    1    3    3  502    0 -0.36859004904E+03  0.11585487683E+03 -0.10395520294E+04  0.11090308376E+04  0.25500000920E-02 0.  1.
       -2    1    3    3    0  502  0.36859004904E+03 -0.11585487683E+03  0.91471704018E+03  0.99296940554E+03  0.25500000920E-02 0. -1.
</event>
<event>
 5   0  0.1390735E-05  0.2100193E+04  0.7818609E-02  0.8561158E-01
        2   -1    0    0  501    0  0.00000000000E+00  0.00000000000E+00  0.24154462656E+04  0.24154462656E+04  0.25500000920E-02 0.  1.
       -2   -1    0    0    0  501  0.00000000000E+00  0.00000000000E+00 -0.45652145836E+03  0.45652145837E+03  0.25500000920E-02 0. -1.
    10030    2    1    2    0    0  0.00000000000E+00  0.00000000000E+00  0.19589248073E+04  0.28719677240E+04  0.21001933737E+04 0.  0.
        5    1    3    3  502    0 -0.25761657395E+03 -0.72405273426E+03  0.19580093646E+04  0.21034356237E+04  0.46999998093E+01 0.  1.
       -5    1    3    3    0  502  0.25761657395E+03  0.72405273426E+03  0.91544266962E+00  0.76853210031E+03  0.46999998093E+01 0. -1.
</event>
<event>
 5   0  0.1390735E-05  0.2099421E+04  0.7818609E-02  0.8561498E-01
       -2   -1    0    0    0  501  0.00000000000E+00  0.00000000000E+00  0.93667952862E+03  0.93667952863E+03  0.25500000920E-02 0. -1.
        2   -1    0    0  501    0  0.00000000000E+00  0.00000000000E+00 -0.11763812977E+04  0.11763812977E+04  0.25500000920E-02 0.  1.
    10030    2    1    2    0    0  0.00000000000E+00  0.00000000000E+00 -0.23970176909E+03  0.21130608263E+04  0.20994211387E+04 0.  0.
        5    1    3    3  502    0  0.91849601153E+03  0.50151720345E+03 -0.37368720738E+02  0.10471737868E+04  0.46999998093E+01 0. -1.
       -5    1    3    3    0  502 -0.91849601153E+03 -0.50151720345E+03 -0.20233304835E+03  0.10658870395E+04  0.46999998093E+01 0.  1.
</event>
<event>
 5   0  0.1344501E-05  0.2099906E+04  0.7818609E-02  0.8561285E-01
        2   -1    0    0  501    0  0.00000000000E+00  0.00000000000E+00  0.16350924173E+04  0.16350924174E+04  0.25500000920E-02 0.  1.
       -2   -1    0    0    0  501  0.00000000000E+00  0.00000000000E+00 -0.67421326071E+03  0.67421326071E+03  0.25500000920E-02 0. -1.
    10030    2    1    2    0    0  0.00000000000E+00  0.00000000000E+00  0.96087915664E+03  0.23093056781E+04  0.20999057029E+04 0.  0.
        3    1    3    3  502    0  0.91982468706E+03 -0.47580712988E+03  0.29018155890E+03  0.10754883668E+04  0.10100000352E+00 0. -1.
       -3    1    3    3    0  502 -0.91982468706E+03  0.47580712988E+03  0.67069759774E+03  0.12338173113E+04  0.10100000352E+00 0.  1.
</event>
<event>
 5   0  0.1390735E-05  0.2096923E+04  0.7818609E-02  0.8562600E-01
       -2   -1    0    0    0  501  0.00000000000E+00  0.00000000000E+00  0.65504549434E+03  0.65504549435E+03  0.25500000920E-02 0. -1.
        2   -1    0    0  501    0  0.00000000000E+00  0.00000000000E+00 -0.16781600053E+04  0.16781600053E+04  0.25500000920E-02 0.  1.
    10030    2    1    2    0    0  0.00000000000E+00  0.00000000000E+00 -0.10231145110E+04  0.23332054997E+04  0.20969226502E+04 0.  0.
        5    1    3    3  502    0  0.85103621627E+03 -0.20134282262E+03 -0.11550365084E+04  0.14487694776E+04  0.46999998093E+01 0.  1.
       -5    1    3    3    0  502 -0.85103621627E+03  0.20134282262E+03  0.13192199743E+03  0.88443602201E+03  0.46999998093E+01 0. -1.
</event>
<event>
 5   0  0.1398469E-05  0.2104655E+04  0.7818609E-02  0.8559196E-01
        2   -1    0    0  501    0  0.00000000000E+00  0.00000000000E+00  0.22829955936E+04  0.22829955936E+04  0.25500000920E-02 0. -1.
       -2   -1    0    0    0  501  0.00000000000E+00  0.00000000000E+00 -0.48506152539E+03  0.48506152540E+03  0.25500000920E-02 0.  1.
    10030    2    1    2    0    0  0.00000000000E+00  0.00000000000E+00  0.17979340682E+04  0.27680571190E+04  0.21046551500E+04 0.  0.
        2    1    3    3  502    0 -0.69087044434E+03 -0.70505937542E+03  0.13785807145E+04  0.16955516743E+04  0.25500000920E-02 0. -1.
       -2    1    3    3    0  502  0.69087044434E+03  0.70505937542E+03  0.41935335375E+03  0.10725054448E+04  0.25500000920E-02 0.  1.
</event>
<event>
 5   0  0.1390735E-05  0.2076766E+04  0.7818609E-02  0.8571548E-01
       -2   -1    0    0    0  501  0.00000000000E+00  0.00000000000E+00  0.50998474706E+03  0.50998474707E+03  0.25500000920E-02 0.  1.
        2   -1    0    0  501    0  0.00000000000E+00  0.00000000000E+00 -0.21142576335E+04  0.21142576335E+04  0.25500000920E-02 0. -1.
    10030    2    1    2    0    0  0.00000000000E+00  0.00000000000E+00 -0.16042728864E+04  0.26242423806E+04  0.20767658938E+04 0.  0.
        5    1    3    3  502    0 -0.84865565824E+03  0.25589745517E+03 -0.11870957766E+03  0.89432320089E+03  0.46999998093E+01 0. -1.
       -5    1    3    3    0  502  0.84865565824E+03 -0.25589745517E+03 -0.14855633088E+04  0.17299191797E+04  0.46999998093E+01 0.  1.
</event>
<event>
 5   0  0.1398469E-05  0.2103626E+04  0.7818609E-02  0.8559648E-01
       -2   -1    0    0    0  501  0.00000000000E+00  0.00000000000E+00  0.63544718109E+03  0.63544718109E+03  0.25500000920E-02 0. -1.
        2   -1    0    0  501    0  0.00000000000E+00  0.00000000000E+00 -0.17409948453E+04  0.17409948453E+04  0.25500000920E-02 0.  1.
    10030    2    1    2    0    0  0.00000000000E+00  0.00000000000E+00 -0.11055476642E+04  0.23764420263E+04  0.21036256955E+04 0.  0.
        2    1    3    3  502    0  0.16205632055E+03 -0.56047360037E+03  0.43589242797E+03  0.72828230550E+03  0.25500000920E-02 0. -1.
       -2    1    3    3    0  502 -0.16205632055E+03  0.56047360037E+03 -0.15414400921E+04  0.16481597208E+04  0.25500000920E-02 0.  1.
</event>
<event>
 5   0  0.1441136E-05  0.2109530E+04  0.7818609E-02  0.8557057E-01
        2   -1    0    0  501    0  0.00000000000E+00  0.00000000000E+00  0.24167899607E+04  0.24167899607E+04  0.25500000920E-02 0.  1.
       -2   -1    0    0    0  501  0.00000000000E+00  0.00000000000E+00 -0.46033350493E+03  0.46033350493E+03  0.25500000920E-02 0. -1.
    10030    2    1    2    0    0  0.00000000000E+00  0.00000000000E+00  0.19564564558E+04  0.28771234656E+04  0.21095301783E+04 0.  0.
        4    1    3    3  502    0  0.76630604679E+03 -0.70953673937E+03  0.11798800689E+04  0.15756858607E+04  0.12699999809E+01 0.  1.
       -4    1    3    3    0  502 -0.76630604679E+03  0.70953673937E+03  0.77657638687E+03  0.13014376049E+04  0.12699999809E+01 0. -1.
</event>
<event>
 5   0  0.1395356E-05  0.2101346E+04  0.7818609E-02  0.8560651E-01
       -2   -1    0    0    0  501  0.00000000000E+00  0.00000000000E+00  0.52362854169E+03  0.52362854170E+03  0.25500000920E-02 0. -1.
        2   -1    0    0  501    0  0.00000000000E+00  0.00000000000E+00 -0.21081997844E+04  0.21081997844E+04  0.25500000920E-02 0.  1.
    10030    2    1    2    0    0  0.00000000000E+00  0.00000000000E+00 -0.15845712427E+04  0.26318283261E+04  0.21013458342E+04 0.  0.
        1    1    3    3  502    0 -0.10435544050E+04  0.54290715922E+02 -0.92925739264E+03  0.13983821294E+04  0.50400001928E-02 0. -1.
       -1    1    3    3    0  502  0.10435544050E+04 -0.54290715922E+02 -0.65531385003E+03  0.12334461967E+04  0.50400001928E-02 0.  1.
</event>
<event>
 5   0  0.6283269E-06  0.2098337E+04  0.7818609E-02  0.8561976E-01
        1   -1    0    0  501    0  0.00000000000E+00  0.00000000000E+00  0.17311377098E+04  0.17311377098E+04  0.50400001928E-02 0.  1.
       -1   -1    0    0    0  501  0.00000000000E+00  0.00000000000E+00 -0.63585611929E+03  0.63585611931E+03  0.50400001928E-02 0. -1.
    10030    2    1    2    0    0  0.00000000000E+00  0.00000000000E+00  0.10952815905E+04  0.23669938291E+04  0.20983369664E+04 0.  0.
        1    1    3    3  502    0 -0.90819496960E+03 -0.52504051890E+03  0.52914459864E+03  0.11749381497E+04  0.50400001928E-02 0.  1.
       -1    1    3    3    0  502  0.90819496960E+03  0.52504051890E+03  0.56613699187E+03  0.11920556794E+04  0.50400001928E-02 0. -1.
</event>
<event>
 5   0  0.6917078E-06  0.2079603E+04  0.7818609E-02  0.8570282E-01
       -1   -1    0    0    0  501  0.00000000000E+00  0.00000000000E+00  0.15178254723E+04  0.15178254723E+04  0.50400001928E-02 0. -1.
        1   -1    0    0  501    0  0.00000000000E+00  0.00000000000E+00 -0.71232662332E+03  0.71232662334E+03  0.50400001928E-02 0.  1.
    10030    2    1    2    0    0  0.00000000000E+00  0.00000000000E+00  0.80549884900E+03  0.22301520957E+04  0.20796033213E+04 0.  0.
        5    1    3    3  502    0 -0.22157436305E+03 -0.10157319668E+04  0.38243679612E+03  0.11077394187E+04  0.46999998093E+01 0.  1.
       -5    1    3    3    0  502  0.22157436305E+03  0.10157319668E+04  0.42306205288E+03  0.11224126769E+04  0.46999998093E+01 0. -1.
</event>
<event>
 5   0  0.6599245E-06  0.2091785E+04  0.7818609E-02  0.8564871E-01
       -1   -1    0    0    0  501  0.00000000000E+00  0.00000000000E+00  0.14084697588E+04  0.14084697588E+04  0.50400001928E-02 0.  1.
        1   -1    0    0  501    0  0.00000000000E+00  0.00000000000E+00 -0.77665249734E+03  0.77665249736E+03  0.50400001928E-02 0. -1.
    10030    2    1    2    0    0  0.00000000000E+00  0.00000000000E+00  0.63181726142E+03  0.21851222561E+04  0.20917854150E+04 0.  0.
        2    1    3    3  502    0 -0.70463634420E+03 -0.63146261047E+03  0.78147925224E+03  0.12271785639E+04  0.25500000920E-02 0.  1.
       -2    1    3    3    0  502  0.70463634420E+03  0.63146261047E+03 -0.14966199082E+03  0.95794369223E+03  0.25500000920E-02 0. -1.
</event>
<event>
 5   0  0.6917078E-06  0.2108524E+04  0.7818609E-02  0.8557498E-01
        1   -1    0    0  501    0  0.00000000000E+00  0.00000000000E+00  0.19336302115E+04  0.19336302115E+04  0.50400001928E-02 0. -1.
       -1   -1    0    0    0  501  0.00000000000E+00  0.00000000000E+00 -0.57480927061E+03  0.57480927064E+03  0.50400001928E-02 0.  1.
    10030    2    1    2    0    0  0.00000000000E+00  0.00000000000E+00  0.13588209409E+04  0.25084394822E+04  0.21085241963E+04 0.  0.
        5    1    3    3  502    0  0.12102457295E+03 -0.99404861042E+03  0.28724110407E+03  0.10417817089E+04  0.46999998093E+01 0. -1.
       -5    1    3    3    0  502 -0.12102457295E+03  0.99404861042E+03  0.10715798368E+04  0.14666577733E+04  0.46999998093E+01 0.  1.
</event>
<event>
 5   0  0.1395356E-05  0.2100706E+04  0.7818609E-02  0.8560932E-01
       -2   -1    0    0    0  501  0.00000000000E+00  0.00000000000E+00  0.37034123280E+03  0.37034123281E+03  0.25500000920E-02 0. -1.
        2   -1    0    0  501    0  0.00000000000E+00  0.00000000000E+00 -0.29789870884E+04  0.29789870884E+04  0.25500000920E-02 0.  1.
    10030    2    1    2    0    0  0.00000000000E+00  0.00000000000E+00 -0.26086458556E+04  0.33493283212E+04  0.21007063106E+04 0.  0.
        1    1    3    3  502    0 -0.41641353235E+02 -0.94743818657E+03 -0.58443053370E+03  0.11139713499E+04  0.50400001928E-02 0. -1.
       -1    1    3    3    0  502  0.41641353235E+02  0.94743818657E+03 -0.20242153219E+04  0.22353569713E+04  0.50400001928E-02 0.  1.
</event>
<event>
 5   0  0.1441136E-05  0.2098912E+04  0.7818609E-02  0.8561723E-01
        2   -1    0    0  501    0  0.00000000000E+00  0.00000000000E+00  0.11660638869E+04  0.11660638869E+04  0.25500000920E-02 0. -1.
       -2   -1    0    0    0  501  0.00000000000E+00  0.00000000000E+00 -0.94450920892E+03  0.94450920893E+03  0.25500000920E-02 0.  1.
    10030    2    1    2    0    0  0.00000000000E+00  0.00000000000E+00  0.22155467794E+03  0.21105730958E+04  0.20989121748E+04 0.  0.
        4    1    3    3  502    0  0.92468093493E+03  0.28652505504E+03 -0.29672096278E+03  0.10125099413E+04  0.12699999809E+01 0.  1.
       -4    1    3    3    0  502 -0.92468093493E+03 -0.28652505504E+03  0.51827564072E+03  0.10980631545E+04  0.12699999809E+01 0. -1.
</event>
<event>
 5   0  0.6238363E-06  0.2102427E+04  0.7818609E-02  0.8560175E-01
        1   -1    0    0  501    0  0.00000000000E+00  0.00000000000E+00  0.86563960307E+03  0.86563960308E+03  0.50400001928E-02 0. -1.
       -1   -1    0    0    0  501  0.00000000000E+00  0.00000000000E+00 -0.12765707293E+04  0.12765707294E+04  0.50400001928E-02 0.  1.
    10030    2    1    2    0    0  0.00000000000E+00  0.00000000000E+00 -0.41093112628E+03  0.21422103324E+04  0.21024273395E+04 0.  0.
        4    1    3    3  502    0 -0.14380131398E+03  0.35815145204E+03 -0.12017702125E+04  0.12622220633E+04  0.12699999809E+01 0.  1.
       -4    1    3    3    0  502  0.14380131398E+03 -0.35815145204E+03  0.79083908626E+03  0.87998826910E+03  0.12699999809E+01 0. -1.
</event>
<event>
 5   0  0.6599245E-06  0.2099181E+04  0.7818609E-02  0.8561604E-01
        1   -1    0    0  501    0  0.00000000000E+00  0.00000000000E+00  0.73971305903E+03  0.73971305904E+03  0.50400001928E-02 0. -1.
       -1   -1    0    0    0  501  0.00000000000E+00  0.00000000000E+00 -0.14892809015E+04  0.14892809016E+04  0.50400001928E-02 0.  1.
    10030    2    1    2    0    0  0.00000000000E+00  0.00000000000E+00 -0.74956784252E+03  0.22289939606E+04  0.20991812989E+04 0.  0.
        2    1    3    3  502    0  0.30228501812E+03 -0.60593575032E+03  0.47674671931E+03  0.82814358663E+03  0.25500000920E-02 0. -1.
       -2    1    3    3    0  502 -0.30228501812E+03  0.60593575032E+03 -0.12263145618E+04  0.14008503740E+04  0.25500000920E-02 0.  1.
</event>
<event>
 5   0  0.6599245E-06  0.2098896E+04  0.7818609E-02  0.8561730E-01
       -1   -1    0    0    0  501  0.00000000000E+00  0.00000000000E+00  0.82359784814E+03  0.82359784816E+03  0.50400001928E-02 0.  1.
        1   -1    0    0  501    0  0.00000000000E+00  0.00000000000E+00 -0.13372314641E+04  0.13372314641E+04  0.50400001928E-02 0. -1.
    10030    2    1    2    0    0  0.00000000000E+00  0.00000000000E+00 -0.51363361593E+03  0.21608293122E+04  0.20988958586E+04 0.  0.
        2    1    3    3  502    0 -0.70362733265E+03  0.11274944069E+03  0.53632986332E+03  0.89188204486E+03  0.25500000920E-02 0.  1.
       -2    1    3    3    0  502  0.70362733265E+03 -0.11274944069E+03 -0.10499634793E+04  0.12689472674E+04  0.25500000920E-02 0. -1.
</event>
<event>
 5   0  0.1398469E-05  0.2097888E+04  0.7818609E-02  0.8562174E-01
        2   -1    0    0  501    0  0.00000000000E+00  0.00000000000E+00  0.14020660776E+04  0.14020660776E+04  0.25500000920E-02 0. -1.
       -2   -1    0    0    0  501  0.00000000000E+00  0.00000000000E+00 -0.78475839410E+03  0.78475839410E+03  0.25500000920E-02 0.  1.
    10030    2    1    2    0    0  0.00000000000E+00  0.00000000000E+00  0.61730768352E+03  0.21868244717E+04  0.20978876266E+04 0.  0.
        2    1    3    3  502    0  0.20955936859E+03  0.49289314345E+03 -0.63148129964E+03  0.82802621433E+03  0.25500000920E-02 0.  1.
       -2    1    3    3    0  502 -0.20955936859E+03 -0.49289314345E+03  0.12487889832E+04  0.13587982574E+04  0.25500000920E-02 0. -1.
</event>
<event>
 5   0  0.6283269E-06  0.2103601E+04  0.7818609E-02  0.8559659E-01
       -1   -1    0    0    0  501  0.00000000000E+00  0.00000000000E+00  0.78466244001E+03  0.78466244003E+03  0.50400001928E-02 0. -1.
        1   -1    0    0  501    0  0.00000000000E+00  0.00000000000E+00 -0.14098861505E+04  0.14098861505E+04  0.50400001928E-02 0.  1.
    10030    2    1    2    0    0  0.00000000000E+00  0.00000000000E+00 -0.62522371046E+03  0.21945485905E+04  0.21036013947E+04 0.  0.
        1    1    3    3  502    0 -0.38198574673E+03 -0.69212180283E+02  0.70718945486E+03  0.80673438113E+03  0.50400001928E-02 0. -1.
       -1    1    3    3    0  502  0.38198574673E+03  0.69212180283E+02 -0.13324131653E+04  0.13878142094E+04  0.50400001928E-02 0.  1.
</event>
<event>
 5   0  0.6599245E-06  0.2099720E+04  0.7818609E-02  0.8561367E-01
       -1   -1    0    0    0  501  0.00000000000E+00  0.00000000000E+00  0.12142714598E+04  0.12142714598E+04  0.50400001928E-02 0. -1.
        1   -1    0    0  501    0  0.00000000000E+00  0.00000000000E+00 -0.90770999660E+03  0.90770999661E+03  0.50400001928E-02 0.  1.
    10030    2    1    2    0    0  0.00000000000E+00  0.00000000000E+00  0.30656146320E+03  0.21219814564E+04  0.20997203077E+04 0.  0.
        2    1    3    3  502    0 -0.88045706578E+03  0.10441560459E+03 -0.41490686814E+03  0.97890498641E+03  0.25500000920E-02 0.  1.
       -2    1    3    3    0  502  0.88045706578E+03 -0.10441560459E+03  0.72146833134E+03  0.11430764700E+04  0.25500000920E-02 0. -1.
</event>
<event>
 5   0  0.6589193E-06  0.2091531E+04  0.7818609E-02  0.8564983E-01
       -1   -1    0    0    0  501  0.00000000000E+00  0.00000000000E+00  0.92031759610E+03  0.92031759612E+03  0.50400001928E-02 0.  1.
        1   -1    0    0  501    0  0.00000000000E+00  0.00000000000E+00 -0.11883130213E+04  0.11883130213E+04  0.50400001928E-02 0. -1.
    10030    2    1    2    0    0  0.00000000000E+00  0.00000000000E+00 -0.26799542517E+03  0.21086306174E+04  0.20915309065E+04 0.  0.
        3    1    3    3  502    0  0.15435123066E+03 -0.84775143708E+03 -0.73139482927E+03  0.11302412167E+04  0.10100000352E+00 0. -1.
       -3    1    3    3    0  502 -0.15435123066E+03  0.84775143708E+03  0.46339940410E+03  0.97838940069E+03  0.10100000352E+00 0.  1.
</event>
<event>
 5   0  0.6238363E-06  0.2087896E+04  0.7818609E-02  0.8566594E-01
       -1   -1    0    0    0  501  0.00000000000E+00  0.00000000000E+00  0.66927976608E+03  0.66927976610E+03  0.50400001928E-02 0. -1.
        1   -1    0    0  501    0  0.00000000000E+00  0.00000000000E+00 -0.16283586217E+04  0.16283586217E+04  0.50400001928E-02 0.  1.
    10030    2    1    2    0    0  0.00000000000E+00  0.00000000000E+00 -0.95907885562E+03  0.22976383878E+04  0.20878960486E+04 0.  0.
        4    1    3    3  502    0 -0.63032935897E+03 -0.29119157677E+03  0.37833542649E+03  0.79072558008E+03  0.12699999809E+01 0. -1.
       -4    1    3    3    0  502  0.63032935897E+03  0.29119157677E+03 -0.13374142821E+04  0.15069128077E+04  0.12699999809E+01 0.  1.
</event>
<event>
 5   0  0.1441136E-05  0.2104032E+04  0.7818609E-02  0.8559469E-01
       -2   -1    0    0    0  501  0.00000000000E+00  0.00000000000E+00  0.56860071453E+03  0.56860071454E+03  0.25500000920E-02 0.  1.
        2   -1    0    0  501    0  0.00000000000E+00  0.00000000000E+00 -0.19464234911E+04  0.19464234911E+04  0.25500000920E-02 0. -1.
    10030    2    1    2    0    0  0.00000000000E+00  0.00000000000E+00 -0.13778227766E+04  0.25150242057E+04  0.21040321175E+04 0.  0.
        4    1    3    3  502    0  0.66635454841E+02  0.25698354798E+03  0.52789980647E+03  0.59089816918E+03  0.12699999809E+01 0.  1.
       -4    1    3    3    0  502 -0.66635454841E+02 -0.25698354798E+03 -0.19057225831E+04  0.19241260365E+04  0.12699999809E+01 0. -1.
</event>
<event>
 5   0  0.1398469E-05  0.2098053E+04  0.7818609E-02  0.8562101E-01
        2   -1    0    0  501    0  0.00000000000E+00  0.00000000000E+00  0.18219317721E+04  0.18219317721E+04  0.25500000920E-02 0.  1.
       -2   -1    0    0    0  501  0.00000000000E+00  0.00000000000E+00 -0.60400565384E+03  0.60400565384E+03  0.25500000920E-02 0. -1.
    10030    2    1    2    0    0  0.00000000000E+00  0.00000000000E+00  0.12179261183E+04  0.24259374260E+04  0.20980534705E+04 0.  0.
        2    1    3    3  502    0 -0.18551022962E+03  0.38048884888E+03  0.17187939506E+04  0.17701520992E+04  0.25500000920E-02 0.  1.
       -2    1    3    3    0  502  0.18551022962E+03 -0.38048884888E+03 -0.50086783233E+03  0.65578532683E+03  0.25500000920E-02 0. -1.
</event>
<event>
 5   0  0.1390735E-05  0.2101088E+04  0.7818609E-02  0.8560764E-01
       -2   -1    0    0    0  501  0.00000000000E+00  0.00000000000E+00  0.56323952848E+03  0.56323952848E+03  0.25500000920E-02 0. -1.
        2   -1    0    0  501    0  0.00000000000E+00  0.00000000000E+00 -0.19594551766E+04  0.19594551766E+04  0.25500000920E-02 0.  1.
    10030    2    1    2    0    0  0.00000000000E+00  0.00000000000E+00 -0.13962156481E+04  0.25226947051E+04  0.21010879179E+04 0.  0.
        5    1    3    3  502    0  0.23897494404E+03 -0.40062186212E+03  0.43205409373E+03  0.63584568111E+03  0.46999998093E+01 0. -1.
       -5    1    3    3    0  502 -0.23897494404E+03  0.40062186212E+03 -0.18282697418E+04  0.18868490239E+04  0.46999998093E+01 0.  1.
</event>
<event>
 5   0  0.1344501E-05  0.2098968E+04  0.7818609E-02  0.8561698E-01
       -2   -1    0    0    0  501  0.00000000000E+00  0.00000000000E+00  0.78461411298E+03  0.78461411298E+03  0.25500000920E-02 0.  1.
        2   -1    0    0  501    0  0.00000000000E+00  0.00000000000E+00 -0.14037679558E+04  0.14037679558E+04  0.25500000920E-02 0. -1.
    10030    2    1    2    0    0  0.00000000000E+00  0.00000000000E+00 -0.61915384280E+03  0.21883820688E+04  0.20989675076E+04 0.  0.
        3    1    3    3  502    0  0.76231056605E+03  0.18646840921E+03  0.41690480375E+03  0.88864925158E+03  0.10100000352E+00 0.  1.
       -3    1    3    3    0  502 -0.76231056605E+03 -0.18646840921E+03 -0.10360586466E+04  0.12997328172E+04  0.10100000352E+00 0. -1.
</event>
<event>
 5   0  0.1395356E-05  0.2104007E+04  0.7818609E-02  0.8559480E-01
       -2   -1    0    0    0  501  0.00000000000E+00  0.00000000000E+00  0.59391205514E+03  0.59391205515E+03  0.25500000920E-02 0. -1.
        2   -1    0    0  501    0  0.00000000000E+00  0.00000000000E+00 -0.18634269674E+04  0.18634269674E+04  0.25500000920E-02 0.  1.
    10030    2    1    2    0    0  0.00000000000E+00  0.00000000000E+00 -0.12695149123E+04  0.24573390226E+04  0.21040073573E+04 0.  0.
        1    1    3    3  502    0  0.28516574050E+03  0.88467716707E+03 -0.12101804340E+04  0.15259455666E+04  0.50400001928E-02 0.  1.
       -1    1    3    3    0  502 -0.28516574050E+03 -0.88467716707E+03 -0.59334478338E+02  0.93139345598E+03  0.50400001928E-02 0. -1.
</event>
<event>
 5   0  0.6589193E-06  0.2132290E+04  0.7818609E-02  0.8547151E-01
       -1   -1    0    0    0  501  0.00000000000E+00  0.00000000000E+00  0.10294065419E+04  0.10294065420E+04  0.50400001928E-02 0. -1.
        1   -1    0    0  501    0  0.00000000000E+00  0.00000000000E+00 -0.11041945753E+04  0.11041945753E+04  0.50400001928E-02 0.  1.
    10030    2    1    2    0    0  0.00000000000E+00  0.00000000000E+00 -0.74788033352E+02  0.21336011173E+04  0.21322899610E+04 0.  0.
        3    1    3    3  502    0  0.90813780179E+03  0.22005054529E+03  0.47627201255E+03  0.10487952849E+04  0.10100000352E+00 0. -1.
       -3    1    3    3    0  502 -0.90813780179E+03 -0.22005054529E+03 -0.55106004590E+03  0.10848058324E+04  0.10100000352E+00 0.  1.
</event>
<event>
 5   0  0.6589193E-06  0.2100192E+04  0.7818609E-02  0.8561159E-01
        1   -1    0    0  501    0  0.00000000000E+00  0.00000000000E+00  0.24550485760E+04  0.24550485760E+04  0.50400001928E-02 0. -1.
       -1   -1    0    0    0  501  0.00000000000E+00  0.00000000000E+00 -0.44915655226E+03  0.44915655229E+03  0.50400001928E-02 0.  1.
    10030    2    1    2    0    0  0.00000000000E+00  0.00000000000E+00  0.20058920238E+04  0.29042051283E+04  0.21001915666E+04 0.  0.
        3    1    3    3  502    0 -0.44541381970E+03 -0.19288342574E+03  0.22906139633E+04  0.23414759930E+04  0.10100000352E+00 0. -1.
       -3    1    3    3    0  502  0.44541381970E+03  0.19288342574E+03 -0.28472193953E+03  0.56272913534E+03  0.10100000352E+00 0.  1.
</event>
<event>
 5   0  0.1344501E-05  0.2099491E+04  0.7818609E-02  0.8561467E-01
       -2   -1    0    0    0  501  0.00000000000E+00  0.00000000000E+00  0.72833908248E+03  0.72833908248E+03  0.25500000920E-02 0.  1.
        2   -1    0    0  501    0  0.00000000000E+00  0.00000000000E+00 -0.15129848269E+04  0.15129848269E+04  0.25500000920E-02 0. -1.
    10030    2    1    2    0    0  0.00000000000E+00  0.00000000000E+00 -0.78464574445E+03  0.22413239094E+04  0.20994913485E+04 0.  0.
        3    1    3    3  502    0 -0.16854056687E+03  0.32966652374E+03  0.65631899696E+03  0.75355197268E+03  0.10100000352E+00 0.  1.
       -3    1    3    3    0  502  0.16854056687E+03 -0.32966652374E+03 -0.14409647414E+04  0.14877719367E+04  0.10100000352E+00 0. -1.
</event>
<event>
 5   0  0.6238363E-06  0.2097396E+04  0.7818609E-02  0.8562391E-01
        1   -1    0    0  501    0  0.00000000000E+00  0.00000000000E+00  0.20015605230E+04  0.20015605230E+04  0.50400001928E-02 0. -1.
       -1   -1    0    0    0  501  0.00000000000E+00  0.00000000000E+00 -0.54945504008E+03  0.54945504010E+03  0.50400001928E-02 0.  1.
    10030    2    1    2    0    0  0.00000000000E+00  0.00000000000E+00  0.14521054830E+04  0.25510155631E+04  0.20973960212E+04 0.  0.
        4    1    3    3  502    0  0.56854570497E+03 -0.77670150336E+03  0.21978834376E+03  0.98732870561E+03  0.12699999809E+01 0.  1.
       -4    1    3    3    0  502 -0.56854570497E+03  0.77670150336E+03  0.12323171392E+04  0.15636868575E+04  0.12699999809E+01 0. -1.
</event>
<event>
 5   0  0.1395356E-05  0.2101150E+04  0.7818609E-02  0.8560737E-01
       -2   -1    0    0    0  501  0.00000000000E+00  0.00000000000E+00  0.52633224659E+03  0.52633224659E+03  0.25500000920E-02 0.  1.
        2   -1    0    0  501    0  0.00000000000E+00  0.00000000000E+00 -0.20969793372E+04  0.20969793372E+04  0.25500000920E-02 0. -1.
    10030    2    1    2    0    0  0.00000000000E+00  0.00000000000E+00 -0.15706470907E+04  0.26233115838E+04  0.21011500143E+04 0.  0.
        1    1    3    3  502    0  0.20212479996E+03  0.63994660187E+03  0.22382797155E+03  0.70744967939E+03  0.50400001928E-02 0.  1.
       -1    1    3    3    0  502 -0.20212479996E+03 -0.63994660187E+03 -0.17944750622E+04  0.19158619044E+04  0.50400001928E-02 0. -1.
</event>
<event>
 5   0  0.1344501E-05  0.2106558E+04  0.7818609E-02  0.8558360E-01
        2   -1    0    0  501    0  0.00000000000E+00  0.00000000000E+00  0.13094797486E+04  0.13094797486E+04  0.25500000920E-02 0.  1.
       -2   -1    0    0    0  501  0.00000000000E+00  0.00000000000E+00 -0.84720396518E+03  0.84720396519E+03  0.25500000920E-02 0. -1.
    10030    2    1    2    0    0  0.00000000000E+00  0.00000000000E+00  0.46227578346E+03  0.21566837138E+04  0.21065577945E+04 0.  0.
        3    1    3    3  502    0 -0.24783443013E+03  0.10125216423E+04  0.76634871384E+02  0.10452248058E+04  0.10100000352E+00 0. -1.
       -3    1    3    3    0  502  0.24783443013E+03 -0.10125216423E+04  0.38564091207E+03  0.11114589080E+04  0.10100000352E+00 0.  1.
</event>
<event>
 5   0  0.6283269E-06  0.2112306E+04  0.7818609E-02  0.8555842E-01
       -1   -1    0    0    0  501  0.00000000000E+00  0.00000000000E+00  0.16248327715E+04  0.16248327715E+04  0.50400001928E-02 0. -1.
        1   -1    0    0  501    0  0.00000000000E+00  0.00000000000E+00 -0.68650679465E+03  0.68650679467E+03  0.50400001928E-02 0.  1.
    10030    2    1    2    0    0  0.00000000000E+00  0.00000000000E+00  0.93832597684E+03  0.23113395662E+04  0.21123056008E+04 0.  0.
        1    1    3    3  502    0 -0.30589386475E+03  0.87112201844E+03 -0.92031037151E+02  0.92784391970E+03  0.50400001928E-02 0.  1.
       -1    1    3    3    0  502  0.30589386475E+03 -0.87112201844E+03  0.10303570140E+04  0.13834956465E+04  0.50400001928E-02 0. -1.
</event>
<event>
 5   0  0.1344501E-05  0.2099072E+04  0.7818609E-02  0.8561652E-01
       -2   -1    0    0    0  501  0.00000000000E+00  0.00000000000E+00  0.74817591861E+03  0.74817591862E+03  0.25500000920E-02 0.  1.
        2   -1    0    0  501    0  0.00000000000E+00  0.00000000000E+00 -0.14722820532E+04  0.14722820532E+04  0.25500000920E-02 0. -1.
    10030    2    1    2    0    0  0.00000000000E+00  0.00000000000E+00 -0.72410613459E+03  0.22204579718E+04  0.20990721547E+04 0.  0.
        3    1    3    3  502    0 -0.72486896077E+03 -0.57697058909E+03 -0.88372000304E+03  0.12803480484E+04  0.10100000352E+00 0. -1.
       -3    1    3    3    0  502  0.72486896077E+03  0.57697058909E+03  0.15961386846E+03  0.94010992346E+03  0.10100000352E+00 0.  1.
</event>
<event>
 5   0  0.1395356E-05  0.2099336E+04  0.7818609E-02  0.8561536E-01
        2   -1    0    0  501    0  0.00000000000E+00  0.00000000000E+00  0.17311055949E+04  0.17311055949E+04  0.25500000920E-02 0. -1.
       -2   -1    0    0    0  501  0.00000000000E+00  0.00000000000E+00 -0.63647380815E+03  0.63647380816E+03  0.25500000920E-02 0.  1.
    10030    2    1    2    0    0  0.00000000000E+00  0.00000000000E+00  0.10946317867E+04  0.23675794030E+04  0.20993364383E+04 0.  0.
        1    1    3    3  502    0  0.19204525597E+03  0.13234120282E+03  0.17015141401E+04  0.17174242176E+04  0.50400001928E-02 0. -1.
       -1    1    3    3    0  502 -0.19204525597E+03 -0.13234120282E+03 -0.60688235335E+03  0.65015518543E+03  0.50400001928E-02 0.  1.
</event>
<event>
 5   0  0.6599245E-06  0.2102586E+04  0.7818609E-02  0.8560105E-01
       -1   -1    0    0    0  501  0.00000000000E+00  0.00000000000E+00  0.89989576962E+03  0.89989576964E+03  0.50400001928E-02 0.  1.
        1   -1    0    0  501    0  0.00000000000E+00  0.00000000000E+00 -0.12281607367E+04  0.12281607367E+04  0.50400001928E-02 0. -1.
    10030    2    1    2    0    0  0.00000000000E+00  0.00000000000E+00 -0.32826496708E+03  0.21280565064E+04  0.21025856952E+04 0.  0.
        2    1    3    3  502    0 -0.67949158393E+03  0.77664192451E+03 -0.36740157287E+03  0.10953836804E+04  0.25500000920E-02 0. -1.
       -2    1    3    3    0  502  0.67949158393E+03 -0.77664192451E+03  0.39136605787E+02  0.10326728260E+04  0.25500000920E-02 0.  1.
</event>
<event>
 5   0  0.1441136E-05  0.2084988E+04  0.7818609E-02  0.8567885E-01
        2   -1    0    0  501    0  0.00000000000E+00  0.00000000000E+00  0.14688280743E+04  0.14688280743E+04  0.25500000920E-02 0. -1.
       -2   -1    0    0    0  501  0.00000000000E+00  0.00000000000E+00 -0.73990532422E+03  0.73990532423E+03  0.25500000920E-02 0.  1.
    10030    2    1    2    0    0  0.00000000000E+00  0.00000000000E+00  0.72892275012E+03  0.22087333986E+04  0.20849879737E+04 0.  0.
        4    1    3    3  502    0  0.16274513017E+03  0.99236214882E+03  0.65558722086E+03  0.12004435967E+04  0.12699999809E+01 0.  1.
       -4    1    3    3    0  502 -0.16274513017E+03 -0.99236214882E+03  0.73335529256E+02  0.10082898019E+04  0.12699999809E+01 0. -1.
</event>
<event>
 5   0  0.1398469E-05  0.2088065E+04  0.7818609E-02  0.8566519E-01
        2   -1    0    0  501    0  0.00000000000E+00  0.00000000000E+00  0.16081359759E+04  0.16081359759E+04  0.25500000920E-02 0.  1.
       -2   -1    0    0    0  501  0.00000000000E+00  0.00000000000E+00 -0.67780547276E+03  0.67780547277E+03  0.25500000920E-02 0. -1.
    10030    2    1    2    0    0  0.00000000000E+00  0.00000000000E+00  0.93033050314E+03  0.22859414487E+04  0.20880645253E+04 0.  0.
        2    1    3    3  502    0  0.18335025488E+02  0.74847331739E+03 -0.33142624709E+03  0.81877459491E+03  0.25500000920E-02 0.  1.
       -2    1    3    3    0  502 -0.18335025488E+02 -0.74847331739E+03  0.12617567502E+04  0.14671668538E+04  0.25500000920E-02 0. -1.
</event>
<event>
 5   0  0.6589193E-06  0.2095158E+04  0.7818609E-02  0.8563379E-01
       -1   -1    0    0    0  501  0.00000000000E+00  0.00000000000E+00  0.62961951886E+03  0.62961951888E+03  0.50400001928E-02 0.  1.
        1   -1    0    0  501    0  0.00000000000E+00  0.00000000000E+00 -0.17429920274E+04  0.17429920275E+04  0.50400001928E-02 0. -1.
    10030    2    1    2    0    0  0.00000000000E+00  0.00000000000E+00 -0.11133725086E+04  0.23726115463E+04  0.20951580387E+04 0.  0.
        3    1    3    3  502    0 -0.92655539504E+03 -0.16706460770E+03 -0.10768709511E+04  0.14304078225E+04  0.10100000352E+00 0. -1.
       -3    1    3    3    0  502  0.92655539504E+03  0.16706460770E+03 -0.36501557466E+02  0.94220372379E+03  0.10100000352E+00 0.  1.
</event>
<event>
 5   0  0.6238363E-06  0.2097736E+04  0.7818609E-02  0.8562241E-01
       -1   -1    0    0    0  501  0.00000000000E+00  0.00000000000E+00  0.70241211402E+03  0.70241211404E+03  0.50400001928E-02 0. -1.
        1   -1    0    0  501    0  0.00000000000E+00  0.00000000000E+00 -0.15662086173E+04  0.15662086173E+04  0.50400001928E-02 0.  1.
    10030    2    1    2    0    0  0.00000000000E+00  0.00000000000E+00 -0.86379650324E+03  0.22686207313E+04  0.20977358326E+04 0.  0.
        4    1    3    3  502    0  0.42484985982E+03 -0.78854827236E+03  0.15828310459E+03  0.90959382986E+03  0.12699999809E+01 0. -1.
       -4    1    3    3    0  502 -0.42484985982E+03  0.78854827236E+03 -0.10220796078E+04  0.13590269015E+04  0.12699999809E+01 0.  1.
</event>
<event>
 5   0  0.6917078E-06  0.2107760E+04  0.7818609E-02  0.8557833E-01
       -1   -1    0    0    0  501  0.00000000000E+00  0.00000000000E+00  0.87416452954E+03  0.87416452955E+03  0.50400001928E-02 0. -1.
        1   -1    0    0  501    0  0.00000000000E+00  0.00000000000E+00 -0.12705418051E+04  0.12705418051E+04  0.50400001928E-02 0.  1.
    10030    2    1    2    0    0  0.00000000000E+00  0.00000000000E+00 -0.39637727558E+03  0.21447063347E+04  0.21077595492E+04 0.  0.
        5    1    3    3  502    0  0.53145312115E+03  0.89813541089E+03 -0.48813265026E+02  0.10447461228E+04  0.46999998093E+01 0. -1.
       -5    1    3    3    0  502 -0.53145312115E+03 -0.89813541089E+03 -0.34756401056E+03  0.10999602119E+04  0.46999998093E+01 0.  1.
</event>
<event>
 5   0  0.6238363E-06  0.2100914E+04  0.7818609E-02  0.8560841E-01
        1   -1    0    0  501    0  0.00000000000E+00  0.00000000000E+00  0.16174077428E+04  0.16174077428E+04  0.50400001928E-02 0. -1.
       -1   -1    0    0    0  501  0.00000000000E+00  0.00000000000E+00 -0.68223954114E+03  0.68223954116E+03  0.50400001928E-02 0.  1.
    10030    2    1    2    0    0  0.00000000000E+00  0.00000000000E+00  0.93516820163E+03  0.22996472839E+04  0.21009136263E+04 0.  0.
        4    1    3    3  502    0 -0.56070201847E+03  0.77874534029E+03  0.93535730478E+03  0.13400469988E+04  0.12699999809E+01 0. -1.
       -4    1    3    3    0  502  0.56070201847E+03 -0.77874534029E+03 -0.18910315164E+00  0.95960028512E+03  0.12699999809E+01 0.  1.
</event>
<event>
 5   0  0.6283269E-06  0.2098330E+04  0.7818609E-02  0.8561980E-01
       -1   -1    0    0    0  501  0.00000000000E+00  0.00000000000E+00  0.45800982577E+03  0.45800982579E+03  0.50400001928E-02 0. -1.
        1   -1    0    0  501    0  0.00000000000E+00  0.00000000000E+00 -0.24033255484E+04  0.24033255484E+04  0.50400001928E-02 0.  1.
    10030    2    1    2    0    0  0.00000000000E+00  0.00000000000E+00 -0.19453157227E+04  0.28613353742E+04  0.20983295411E+04 0.  0.
        1    1    3    3  502    0  0.89503595348E+03  0.36208205490E+03 -0.15324986380E+04  0.18112826527E+04  0.50400001928E-02 0.  1.
       -1    1    3    3    0  502 -0.89503595348E+03 -0.36208205490E+03 -0.41281708461E+03  0.10500527215E+04  0.50400001928E-02 0. -1.
</event>
<event>
 5   0  0.1390735E-05  0.2095708E+04  0.7818609E-02  0.8563136E-01
        2   -1    0    0  501    0  0.00000000000E+00  0.00000000000E+00  0.57951301406E+03  0.57951301407E+03  0.25500000920E-02 0.  1.
       -2   -1    0    0    0  501  0.00000000000E+00  0.00000000000E+00 -0.18946904147E+04  0.18946904147E+04  0.25500000920E-02 0. -1.
    10030    2    1    2    0    0  0.00000000000E+00  0.00000000000E+00 -0.13151774007E+04  0.24742034288E+04  0.20957077592E+04 0.  0.
        5    1    3    3  502    0 -0.31533997493E+02 -0.10025948662E+04 -0.10152649276E+04  0.14272266190E+04  0.46999998093E+01 0. -1.
       -5    1    3    3    0  502  0.31533997493E+02  0.10025948662E+04 -0.29991247312E+03  0.10469768098E+04  0.46999998093E+01 0.  1.
</event>
<event>
 5   0  0.6238363E-06  0.2099541E+04  0.7818609E-02  0.8561446E-01
        1   -1    0    0  501    0  0.00000000000E+00  0.00000000000E+00  0.15665398996E+04  0.15665398996E+04  0.50400001928E-02 0. -1.
       -1   -1    0    0    0  501  0.00000000000E+00  0.00000000000E+00 -0.70347254903E+03  0.70347254905E+03  0.50400001928E-02 0.  1.
    10030    2    1    2    0    0  0.00000000000E+00  0.00000000000E+00  0.86306735054E+03  0.22700124486E+04  0.20995407272E+04 0.  0.
        4    1    3    3  502    0 -0.72439813546E+03 -0.69015877692E+03  0.88019180769E+02  0.10044007094E+04  0.12699999809E+01 0. -1.
       -4    1    3    3    0  502  0.72439813546E+03  0.69015877692E+03  0.77504816977E+03  0.12656117392E+04  0.12699999809E+01 0.  1.
</event>
<event>
 5   0  0.1390735E-05  0.2099558E+04  0.7818609E-02  0.8561438E-01
        2   -1    0    0  501    0  0.00000000000E+00  0.00000000000E+00  0.97474795479E+03  0.97474795479E+03  0.25500000920E-02 0.  1.
       -2   -1    0    0    0  501  0.00000000000E+00  0.00000000000E+00 -0.11305855360E+04  0.11305855360E+04  0.25500000920E-02 0. -1.
    10030    2    1    2    0    0  0.00000000000E+00  0.00000000000E+00 -0.15583758118E+03  0.21053334908E+04  0.20995579905E+04 0.  0.
        5    1    3    3  502    0  0.81112348547E+02 -0.10442985254E+04 -0.14793367636E+03  0.10578492737E+04  0.46999998093E+01 0.  1.
       -5    1    3    3    0  502 -0.81112348547E+02  0.10442985254E+04 -0.79039048146E+01  0.10474842171E+04  0.46999998093E+01 0. -1.
</event>
<event>
 5   0  0.1344501E-05  0.2099897E+04  0.7818609E-02  0.8561289E-01
        2   -1    0    0  501    0  0.00000000000E+00  0.00000000000E+00  0.19724646421E+04  0.19724646421E+04  0.25500000920E-02 0.  1.
       -2   -1    0    0    0  501  0.00000000000E+00  0.00000000000E+00 -0.55889073036E+03  0.55889073037E+03  0.25500000920E-02 0. -1.
    10030    2    1    2    0    0  0.00000000000E+00  0.00000000000E+00  0.14135739118E+04  0.25313553725E+04  0.20998973351E+04 0.  0.
        3    1    3    3  502    0 -0.11166587697E+03 -0.40948714205E+03 -0.45086441208E+03  0.61921540345E+03  0.10100000352E+00 0. -1.
       -3    1    3    3    0  502  0.11166587697E+03  0.40948714205E+03  0.18644383238E+04  0.19121399690E+04  0.10100000352E+00 0.  1.
</event>
<event>
 5   0  0.1344501E-05  0.2099383E+04  0.7818609E-02  0.8561515E-01
        2   -1    0    0  501    0  0.00000000000E+00  0.00000000000E+00  0.12776258253E+04  0.12776258253E+04  0.25500000920E-02 0.  1.
       -2   -1    0    0    0  501  0.00000000000E+00  0.00000000000E+00 -0.86242180323E+03  0.86242180323E+03  0.25500000920E-02 0. -1.
    10030    2    1    2    0    0  0.00000000000E+00  0.00000000000E+00  0.41520402208E+03  0.21400476285E+04  0.20993831171E+04 0.  0.
        3    1    3    3  502    0  0.56066289415E+03  0.17667677850E+03 -0.67889503714E+03  0.89802897871E+03  0.10100000352E+00 0. -1.
       -3    1    3    3    0  502 -0.56066289415E+03 -0.17667677850E+03  0.10940990592E+04  0.12420186498E+04  0.10100000352E+00 0.  1.
</event>
<event>
 5   0  0.6917078E-06  0.2098604E+04  0.7818609E-02  0.8561858E-01
       -1   -1    0    0    0  501  0.00000000000E+00  0.00000000000E+00  0.14841992989E+04  0.14841992989E+04  0.50400001928E-02 0.  1.
        1   -1    0    0  501    0  0.00000000000E+00  0.00000000000E+00 -0.74183770198E+03  0.74183770200E+03  0.50400001928E-02 0. -1.
    10030    2    1    2    0    0  0.00000000000E+00  0.00000000000E+00  0.74236159692E+03  0.22260370009E+04  0.20986042954E+04 0.  0.
        5    1    3    3  502    0 -0.27158145593E+03  0.29199106895E+03  0.14006816917E+04  0.14563469927E+04  0.46999998093E+01 0.  1.
       -5    1    3    3    0  502  0.27158145593E+03 -0.29199106895E+03 -0.65832009480E+03  0.76969000823E+03  0.46999998093E+01 0. -1.
</event>
<event>
 5   0  0.1390735E-05  0.2086018E+04  0.7818609E-02  0.8567428E-01
       -2   -1    0    0    0  501  0.00000000000E+00  0.00000000000E+00  0.96943805264E+03  0.96943805264E+03  0.25500000920E-02 0.  1.
        2   -1    0    0  501    0  0.00000000000E+00  0.00000000000E+00 -0.11221631382E+04  0.11221631382E+04  0.25500000920E-02 0. -1.
    10030    2    1    2    0    0  0.00000000000E+00  0.00000000000E+00 -0.15272508554E+03  0.20916011908E+04  0.20860178786E+04 0.  0.
        5    1    3    3  502    0 -0.16038297871E+02  0.82076504260E+03  0.56873578949E+03  0.99869663582E+03  0.46999998093E+01 0.  1.
       -5    1    3    3    0  502  0.16038297871E+02 -0.82076504260E+03 -0.72146087503E+03  0.10929045550E+04  0.46999998093E+01 0. -1.
</event>
<event>
 5   0  0.1344501E-05  0.2096735E+04  0.7818609E-02  0.8562683E-01
        2   -1    0    0  501    0  0.00000000000E+00  0.00000000000E+00  0.23799602255E+04  0.23799602255E+04  0.25500000920E-02 0. -1.
       -2   -1    0    0    0  501  0.00000000000E+00  0.00000000000E+00 -0.46180356477E+03  0.46180356477E+03  0.25500000920E-02 0.  1.
    10030    2    1    2    0    0  0.00000000000E+00  0.00000000000E+00  0.19181566607E+04  0.28417637903E+04  0.20967347149E+04 0.  0.
        3    1    3    3  502    0 -0.64210216930E+03 -0.79706398376E+03  0.65160122641E+03  0.12133385177E+04  0.10100000352E+00 0. -1.
       -3    1    3    3    0  502  0.64210216930E+03  0.79706398376E+03  0.12665554343E+04  0.16284252726E+04  0.10100000352E+00 0.  1.
</event>
<event>
 5   0  0.6283269E-06  0.2099115E+04  0.7818609E-02  0.8561633E-01
       -1   -1    0    0    0  501  0.00000000000E+00  0.00000000000E+00  0.62386238810E+03  0.62386238812E+03  0.50400001928E-02 0.  1.
        1   -1    0    0  501    0  0.00000000000E+00  0.00000000000E+00 -0.17657279726E+04  0.17657279726E+04  0.50400001928E-02 0. -1.
    10030    2    1    2    0    0  0.00000000000E+00  0.00000000000E+00 -0.11418655845E+04  0.23895903608E+04  0.20991153087E+04 0.  0.
        1    1    3    3  502    0 -0.17576784289E+03 -0.68416212981E+03  0.31276019113E+03  0.77252255089E+03  0.50400001928E-02 0.  1.
       -1    1    3    3    0  502  0.17576784289E+03  0.68416212981E+03 -0.14546257757E+04  0.16170678099E+04  0.50400001928E-02 0. -1.
</event>
<event>
 5   0  0.6589193E-06  0.2097013E+04  0.7818609E-02  0.8562560E-01
        1   -1    0    0  501    0  0.00000000000E+00  0.00000000000E+00  0.15875151580E+04  0.15875151580E+04  0.50400001928E-02 0.  1.
       -1   -1    0    0    0  501  0.00000000000E+00  0.00000000000E+00 -0.69250712137E+03  0.69250712139E+03  0.50400001928E-02 0. -1.
    10030    2    1    2    0    0  0.00000000000E+00  0.00000000000E+00  0.89500803662E+03  0.22800222794E+04  0.20970126869E+04 0.  0.
        3    1    3    3  502    0 -0.43593251913E+03 -0.44883591085E+03  0.13622831103E+04  0.14991017707E+04  0.10100000352E+00 0.  1.
       -3    1    3    3    0  502  0.43593251913E+03  0.44883591085E+03 -0.46727507373E+03  0.78092050865E+03  0.10100000352E+00 0. -1.
</event>
<event>
 5   0  0.6238363E-06  0.2103166E+04  0.7818609E-02  0.8559850E-01
        1   -1    0    0  501    0  0.00000000000E+00  0.00000000000E+00  0.53876616730E+03  0.53876616732E+03  0.50400001928E-02 0. -1.
       -1   -1    0    0    0  501  0.00000000000E+00  0.00000000000E+00 -0.20525167166E+04  0.20525167166E+04  0.50400001928E-02 0.  1.
    10030    2    1    2    0    0  0.00000000000E+00  0.00000000000E+00 -0.15137505493E+04  0.25912828839E+04  0.21031657707E+04 0.  0.
        4    1    3    3  502    0 -0.32124899904E+03  0.76404005712E+03  0.40530365482E+02  0.82982073468E+03  0.12699999809E+01 0. -1.
       -4    1    3    3    0  502  0.32124899904E+03 -0.76404005712E+03 -0.15542809148E+04  0.17614621492E+04  0.12699999809E+01 0.  1.
</event>
<event>
 5   0  0.1395356E-05  0.2098853E+04  0.7818609E-02  0.8561749E-01
        2   -1    0    0  501    0  0.00000000000E+00  0.00000000000E+00  0.87050603691E+03  0.87050603691E+03  0.25500000920E-02 0. -1.
       -2   -1    0    0    0  501  0.00000000000E+00  0.00000000000E+00 -0.12651221605E+04  0.12651221605E+04  0.25500000920E-02 0.  1.
    10030    2    1    2    0    0  0.00000000000E+00  0.00000000000E+00 -0.39461612358E+03  0.21356281974E+04  0.20988534757E+04 0.  0.
        1    1    3    3  502    0 -0.36127709587E+03  0.49093349804E+03  0.67191941349E+03  0.90720038456E+03  0.50400001928E-02 0. -1.
       -1    1    3    3    0  502  0.36127709587E+03 -0.49093349804E+03 -0.10665355371E+04  0.12284278128E+04  0.50400001928E-02 0.  1.
</event>
<event>
 5   0  0.1390735E-05  0.2101153E+04  0.7818609E-02  0.8560736E-01
        2   -1    0    0  501    0  0.00000000000E+00  0.00000000000E+00  0.21697807326E+04  0.21697807326E+04  0.25500000920E-02 0.  1.
       -2   -1    0    0    0  501  0.00000000000E+00  0.00000000000E+00 -0.50867381471E+03  0.50867381472E+03  0.25500000920E-02 0. -1.
    10030    2    1    2    0    0  0.00000000000E+00  0.00000000000E+00  0.16611069178E+04  0.26784545473E+04  0.21011526763E+04 0.  0.
        5    1    3    3  502    0 -0.22770616933E+03 -0.10117032189E+04  0.10449816591E+04  0.14722099920E+04  0.46999998093E+01 0. -1.
       -5    1    3    3    0  502  0.22770616933E+03  0.10117032189E+04  0.61612525874E+03  0.12062445553E+04  0.46999998093E+01 0.  1.
</event>
<event>
 5   0  0.1398469E-05  0.2101286E+04  0.7818609E-02  0.8560677E-01
        2   -1    0    0  501    0  0.00000000000E+00  0.00000000000E+00  0.17289806357E+04  0.17289806357E+04  0.25500000920E-02 0. -1.
       -2   -1    0    0    0  501  0.00000000000E+00  0.00000000000E+00 -0.63844019336E+03  0.63844019337E+03  0.25500000920E-02 0.  1.
    10030    2    1    2    0    0  0.00000000000E+00  0.00000000000E+00  0.10905404424E+04  0.23674208291E+04  0.21012860171E+04 0.  0.
        2    1    3    3  502    0  0.20819998903E+03  0.84601988255E+03  0.12067930848E+04  0.14884375790E+04  0.25500000920E-02 0. -1.
       -2    1    3    3    0  502 -0.20819998903E+03 -0.84601988255E+03 -0.11625264240E+03  0.87898325011E+03  0.25500000920E-02 0.  1.
</event>
<event>
 5   0  0.1344501E-05  0.2101126E+04  0.7818609E-02  0.8560748E-01
        2   -1    0    0  501    0  0.00000000000E+00  0.00000000000E+00  0.20583397277E+04  0.20583397277E+04  0.25500000920E-02 0. -1.
       -2   -1    0    0    0  501  0.00000000000E+00  0.00000000000E+00 -0.53620035714E+03  0.53620035715E+03  0.25500000920E-02 0.  1.
    10030    2    1    2    0    0  0.00000000000E+00  0.00000000000E+00  0.15221393705E+04  0.25945400848E+04  0.21011258859E+04 0.  0.
        3    1    3    3  502    0 -0.64520869851E+02  0.10341719083E+04  0.97497762141E+03  0.14227634558E+04  0.10100000352E+00 0.  1.
       -3    1    3    3    0  502  0.64520869851E+02 -0.10341719083E+04  0.54716174913E+03  0.11717766291E+04  0.10100000352E+00 0. -1.
</event>
<event>
 5   0  0.6599245E-06  0.2102133E+04  0.7818609E-02  0.8560304E-01
       -1   -1    0    0    0  501  0.00000000000E+00  0.00000000000E+00  0.14072060912E+04  0.14072060912E+04  0.50400001928E-02 0. -1.
        1   -1    0    0  501    0  0.00000000000E+00  0.00000000000E+00 -0.78505957733E+03  0.78505957735E+03  0.50400001928E-02 0.  1.
    10030    2    1    2    0    0  0.00000000000E+00  0.00000000000E+00  0.62214651387E+03  0.21922656686E+04  0.21021328400E+04 0.  0.
        2    1    3    3  502    0  0.84146718845E+03  0.59940205935E+03  0.10941538528E+03  0.10389040305E+04  0.25500000920E-02 0.  1.
       -2    1    3    3    0  502 -0.84146718845E+03 -0.59940205935E+03  0.51273112859E+03  0.11533616381E+04  0.25500000920E-02 0. -1.
</event>
<event>
 5   0  0.6283269E-06  0.2101791E+04  0.7818609E-02  0.8560455E-01
       -1   -1    0    0    0  501  0.00000000000E+00  0.00000000000E+00  0.45960515282E+03  0.45960515285E+03  0.50400001928E-02 0. -1.
        1   -1    0    0  501    0  0.00000000000E+00  0.00000000000E+00 -0.24028914838E+04  0.24028914838E+04  0.50400001928E-02 0.  1.
    10030    2    1    2    0    0  0.00000000000E+00  0.00000000000E+00 -0.19432863310E+04  0.28624966367E+04  0.21017909579E+04 0.  0.
        1    1    3    3  502    0  0.75434386213E+03  0.69040049878E+03 -0.64169055620E+03  0.12072507117E+04  0.50400001928E-02 0.  1.
       -1    1    3    3    0  502 -0.75434386213E+03 -0.69040049878E+03 -0.13015957748E+04  0.16552459250E+04  0.50400001928E-02 0. -1.
</event>
<event>
 5   0  0.1344501E-05  0.2099803E+04  0.7818609E-02  0.8561330E-01
       -2   -1    0    0    0  501  0.00000000000E+00  0.00000000000E+00  0.53557572197E+03  0.53557572198E+03  0.25500000920E-02 0.  1.
        2   -1    0    0  501    0  0.00000000000E+00  0.00000000000E+00 -0.20581469146E+04  0.20581469146E+04  0.25500000920E-02 0. -1.
    10030    2    1    2    0    0  0.00000000000E+00  0.00000000000E+00 -0.15225711926E+04  0.25937226366E+04  0.20998033429E+04 0.  0.
        3    1    3    3  502    0  0.86669116255E+03  0.36237411330E+03 -0.18214582343E+03  0.95689376653E+03  0.10100000352E+00 0.  1.
       -3    1    3    3    0  502 -0.86669116255E+03 -0.36237411330E+03 -0.13404253692E+04  0.16368288701E+04  0.10100000352E+00 0. -1.
</event>
<event>
 5   0  0.1390735E-05  0.2101703E+04  0.7818609E-02  0.8560494E-01
       -2   -1    0    0    0  501  0.00000000000E+00  0.00000000000E+00  0.13938986538E+04  0.13938986538E+04  0.25500000920E-02 0. -1.
        2   -1    0    0  501    0  0.00000000000E+00  0.00000000000E+00 -0.79223016504E+03  0.79223016504E+03  0.25500000920E-02 0.  1.
    10030    2    1    2    0    0  0.00000000000E+00  0.00000000000E+00  0.60166848873E+03  0.21861288188E+04  0.21017027007E+04 0.  0.
        5    1    3    3  502    0 -0.15024294286E+03  0.83180262303E+03 -0.34858361611E+03  0.91433099750E+03  0.46999998093E+01 0.  1.
       -5    1    3    3    0  502  0.15024294286E+03 -0.83180262303E+03  0.95025210484E+03  0.12717978213E+04  0.46999998093E+01 0. -1.
</event>
<event>
 5   0  0.6589193E-06  0.2101094E+04  0.7818609E-02  0.8560762E-01
       -1   -1    0    0    0  501  0.00000000000E+00  0.00000000000E+00  0.74278094841E+03  0.74278094843E+03  0.50400001928E-02 0.  1.
        1   -1    0    0  501    0  0.00000000000E+00  0.00000000000E+00 -0.14858331740E+04  0.14858331740E+04  0.50400001928E-02 0. -1.
    10030    2    1    2    0    0  0.00000000000E+00  0.00000000000E+00 -0.74305222555E+03  0.22286141224E+04  0.21010935954E+04 0.  0.
        3    1    3    3  502    0 -0.85324464396E+03  0.16207098693E+03 -0.99846187786E+03  0.13233365252E+04  0.10100000352E+00 0. -1.
       -3    1    3    3    0  502  0.85324464396E+03 -0.16207098693E+03  0.25540965231E+03  0.90527759717E+03  0.10100000352E+00 0.  1.
</event>
<event>
 5   0  0.6599245E-06  0.2101442E+04  0.7818609E-02  0.8560609E-01
        1   -1    0    0  501    0  0.00000000000E+00  0.00000000000E+00  0.70372543516E+03  0.70372543518E+03  0.50400001928E-02 0.  1.
       -1   -1    0    0    0  501  0.00000000000E+00  0.00000000000E+00 -0.15688139428E+04  0.15688139428E+04  0.50400001928E-02 0. -1.
    10030    2    1    2    0    0  0.00000000000E+00  0.00000000000E+00 -0.86508850767E+03  0.22725393780E+04  0.21014416715E+04 0.  0.
        2    1    3    3  502    0  0.17462251522E+03  0.27252291608E+03 -0.15135592076E+04  0.15477800999E+04  0.25500000920E-02 0. -1.
       -2    1    3    3    0  502 -0.17462251522E+03 -0.27252291608E+03  0.64847069993E+03  0.72475927816E+03  0.25500000920E-02 0.  1.
</event>
<event>
 5   0  0.6599245E-06  0.2100386E+04  0.7818609E-02  0.8561073E-01
       -1   -1    0    0    0  501  0.00000000000E+00  0.00000000000E+00  0.15219012316E+04  0.15219012316E+04  0.50400001928E-02 0. -1.
        1   -1    0    0  501    0  0.00000000000E+00  0.00000000000E+00 -0.72468896827E+03  0.72468896829E+03  0.50400001928E-02 0.  1.
    10030    2    1    2    0    0  0.00000000000E+00  0.00000000000E+00  0.79721226333E+03  0.22465901999E+04  0.21003857107E+04 0.  0.
        2    1    3    3  502    0  0.72925460107E+03  0.34238102543E+03 -0.32198611328E+03  0.86758982066E+03  0.25500000920E-02 0.  1.
       -2    1    3    3    0  502 -0.72925460107E+03 -0.34238102543E+03  0.11191983766E+04  0.13790003793E+04  0.25500000920E-02 0. -1.
</event>
<event>
 5   0  0.1441136E-05  0.2097618E+04  0.7818609E-02  0.8562293E-01
        2   -1    0    0  501    0  0.00000000000E+00  0.00000000000E+00  0.10774724711E+04  0.10774724711E+04  0.25500000920E-02 0.  1.
       -2   -1    0    0    0  501  0.00000000000E+00  0.00000000000E+00 -0.10209081211E+04  0.10209081211E+04  0.25500000920E-02 0. -1.
    10030    2    1    2    0    0  0.00000000000E+00  0.00000000000E+00  0.56564349979E+02  0.20983805922E+04  0.20976180739E+04 0.  0.
        4    1    3    3  502    0 -0.81406178632E+03 -0.15643928252E+03 -0.61446904954E+03  0.10318641707E+04  0.12699999809E+01 0.  1.
       -4    1    3    3    0  502  0.81406178632E+03  0.15643928252E+03  0.67103339952E+03  0.10665164215E+04  0.12699999809E+01 0. -1.
</event>
<event>
 5   0  0.6917078E-06  0.2099275E+04  0.7818609E-02  0.8561563E-01
       -1   -1    0    0    0  501  0.00000000000E+00  0.00000000000E+00  0.72561628351E+03  0.72561628353E+03  0.50400001928E-02 0. -1.
        1   -1    0    0  501    0  0.00000000000E+00  0.00000000000E+00 -0.15183487070E+04  0.15183487070E+04  0.50400001928E-02 0.  1.
    10030    2    1    2    0    0  0.00000000000E+00  0.00000000000E+00 -0.79273242350E+03  0.22439649905E+04  0.20992746803E+04 0.  0.
        5    1    3    3  502    0 -0.42463955583E+03  0.33632119421E+03  0.56464681016E+03  0.78248246515E+03  0.46999998093E+01 0. -1.
       -5    1    3    3    0  502  0.42463955583E+03 -0.33632119421E+03 -0.13573792337E+04  0.14614825254E+04  0.46999998093E+01 0.  1.
</event>
<event>
 5   0  0.1390735E-05  0.2058698E+04  0.7818609E-02  0.8579659E-01
       -2   -1    0    0    0  501  0.00000000000E+00  0.00000000000E+00  0.75853588666E+03  0.75853588666E+03  0.25500000920E-02 0. -1.
        2   -1    0    0  501    0  0.00000000000E+00  0.00000000000E+00 -0.13968481728E+04  0.13968481728E+04  0.25500000920E-02 0.  1.
    10030    2    1    2    0    0  0.00000000000E+00  0.00000000000E+00 -0.63831228612E+03  0.21553840594E+04  0.20586981005E+04 0.  0.
        5    1    3    3  502    0 -0.73254217016E+03 -0.65915644589E+03 -0.78146269353E+01  0.98548891907E+03  0.46999998093E+01 0.  1.
       -5    1    3    3    0  502  0.73254217016E+03  0.65915644589E+03 -0.63049765918E+03  0.11698951404E+04  0.46999998093E+01 0. -1.
</event>
<event>
 5   0  0.6599245E-06  0.2099907E+04  0.7818609E-02  0.8561285E-01
        1   -1    0    0  501    0  0.00000000000E+00  0.00000000000E+00  0.81203791009E+03  0.81203791010E+03  0.50400001928E-02 0.  1.
       -1   -1    0    0    0  501  0.00000000000E+00  0.00000000000E+00 -0.13575744260E+04  0.13575744260E+04  0.50400001928E-02 0. -1.
    10030    2    1    2    0    0  0.00000000000E+00  0.00000000000E+00 -0.54553651592E+03  0.21696123361E+04  0.20999065691E+04 0.  0.
        2    1    3    3  502    0  0.38589835393E+03 -0.69291882123E+03 -0.98360911490E+03  0.12635430041E+04  0.25500000920E-02 0.  1.
       -2    1    3    3    0  502 -0.38589835393E+03  0.69291882123E+03  0.43807259898E+03  0.90606933198E+03  0.25500000920E-02 0. -1.
</event>
<event>
 5   0  0.1395356E-05  0.2099982E+04  0.7818609E-02  0.8561251E-01
        2   -1    0    0  501    0  0.00000000000E+00  0.00000000000E+00  0.94204835625E+03  0.94204835625E+03  0.25500000920E-02 0.  1.
       -2   -1    0    0    0  501  0.00000000000E+00  0.00000000000E+00 -0.11703020798E+04  0.11703020798E+04  0.25500000920E-02 0. -1.
    10030    2    1    2    0    0  0.00000000000E+00  0.00000000000E+00 -0.22825372358E+03  0.21123504361E+04  0.20999820481E+04 0.  0.
        1    1    3    3  502    0  0.99011239434E+03 -0.13646057233E+03 -0.43779384838E+03  0.10911496208E+04  0.50400001928E-02 0. -1.
       -1    1    3    3    0  502 -0.99011239434E+03  0.13646057233E+03  0.20954012480E+03  0.10212008153E+04  0.50400001928E-02 0.  1.
</event>
<event>
 5   0  0.6917078E-06  0.2093596E+04  0.7818609E-02  0.8564070E-01
       -1   -1    0    0    0  501  0.00000000000E+00  0.00000000000E+00  0.10706042377E+04  0.10706042377E+04  0.50400001928E-02 0. -1.
        1   -1    0    0  501    0  0.00000000000E+00  0.00000000000E+00 -0.10235206439E+04  0.10235206439E+04  0.50400001928E-02 0.  1.
    10030    2    1    2    0    0  0.00000000000E+00  0.00000000000E+00  0.47083593866E+02  0.20941248816E+04  0.20935955089E+04 0.  0.
        5    1    3    3  502    0  0.87727984686E+03 -0.56101231113E+03 -0.83296754109E+02  0.10446603190E+04  0.46999998093E+01 0.  1.
       -5    1    3    3    0  502 -0.87727984686E+03  0.56101231113E+03  0.13038034797E+03  0.10494645626E+04  0.46999998093E+01 0. -1.
</event>
<event>
 5   0  0.5009125E-06  0.2097726E+04  0.7818609E-02  0.8562246E-01
       -4   -1    0    0    0  501  0.00000000000E+00  0.00000000000E+00  0.10231605392E+04  0.10231613274E+04  0.12699999809E+01 0. -1.
        4   -1    0    0  501    0  0.00000000000E+00  0.00000000000E+00 -0.10752090522E+04  0.10752098023E+04  0.12699999809E+01 0.  1.
    10030    2    1    2    0    0  0.00000000000E+00  0.00000000000E+00 -0.52048513080E+02  0.20983711296E+04  0.20977255183E+04 0.  0.
        3    1    3    3  502    0  0.59420592805E+03  0.66794088490E+03 -0.57472508738E+03  0.10627956751E+04  0.10100000352E+00 0.  1.
       -3    1    3    3    0  502 -0.59420592805E+03 -0.66794088490E+03  0.52267657430E+03  0.10355754546E+04  0.10100000352E+00 0. -1.
</event>
<event>
 5   0  0.1398469E-05  0.2087836E+04  0.7818609E-02  0.8566621E-01
        2   -1    0    0  501    0  0.00000000000E+00  0.00000000000E+00  0.19958519564E+04  0.19958519564E+04  0.25500000920E-02 0. -1.
       -2   -1    0    0    0  501  0.00000000000E+00  0.00000000000E+00 -0.54601492959E+03  0.54601492960E+03  0.25500000920E-02 0.  1.
    10030    2    1    2    0    0  0.00000000000E+00  0.00000000000E+00  0.14498370268E+04  0.25418668860E+04  0.20878361674E+04 0.  0.
        2    1    3    3  502    0  0.45006442806E+03 -0.86480242414E+03  0.27048646293E+03  0.10117332400E+04  0.25500000920E-02 0.  1.
       -2    1    3    3    0  502 -0.45006442806E+03  0.86480242414E+03  0.11793505639E+04  0.15301336460E+04  0.25500000920E-02 0. -1.
</event>
<event>
 5   0  0.1398469E-05  0.2099022E+04  0.7818609E-02  0.8561674E-01
        2   -1    0    0  501    0  0.00000000000E+00  0.00000000000E+00  0.13753099186E+04  0.13753099186E+04  0.25500000920E-02 0.  1.
       -2   -1    0    0    0  501  0.00000000000E+00  0.00000000000E+00 -0.80089120376E+03  0.80089120376E+03  0.25500000920E-02 0. -1.
    10030    2    1    2    0    0  0.00000000000E+00  0.00000000000E+00  0.57441871484E+03  0.21762011224E+04  0.20990222641E+04 0.  0.
        2    1    3    3  502    0 -0.55819033269E+03  0.58752498096E+03 -0.40417762281E+03  0.90560565455E+03  0.25500000920E-02 0. -1.
       -2    1    3    3    0  502  0.55819033269E+03 -0.58752498096E+03  0.97859633765E+03  0.12705954678E+04  0.25500000920E-02 0.  1.
</event>
<event>
 5   0  0.1441136E-05  0.2087750E+04  0.7818609E-02  0.8566659E-01
        2   -1    0    0  501    0  0.00000000000E+00  0.00000000000E+00  0.10663644606E+04  0.10663644606E+04  0.25500000920E-02 0.  1.
       -2   -1    0    0    0  501  0.00000000000E+00  0.00000000000E+00 -0.10218596798E+04  0.10218596799E+04  0.25500000920E-02 0. -1.
    10030    2    1    2    0    0  0.00000000000E+00  0.00000000000E+00  0.44504780707E+02  0.20882241404E+04  0.20877498378E+04 0.  0.
        4    1    3    3  502    0  0.62620044962E+03 -0.77725283680E+03  0.32797565035E+03  0.10506277245E+04  0.12699999809E+01 0.  1.
       -4    1    3    3    0  502 -0.62620044962E+03  0.77725283680E+03 -0.28347086965E+03  0.10375964159E+04  0.12699999809E+01 0. -1.
</event>
<event>
 5   0  0.1398469E-05  0.2099996E+04  0.7818609E-02  0.8561245E-01
        2   -1    0    0  501    0  0.00000000000E+00  0.00000000000E+00  0.12475924972E+04  0.12475924972E+04  0.25500000920E-02 0. -1.
       -2   -1    0    0    0  501  0.00000000000E+00  0.00000000000E+00 -0.88369850253E+03  0.88369850253E+03  0.25500000920E-02 0.  1.
    10030    2    1    2    0    0  0.00000000000E+00  0.00000000000E+00  0.36389399468E+03  0.21312909997E+04  0.20999958301E+04 0.  0.
        2    1    3    3  502    0  0.58817531354E+03 -0.86662500708E+03  0.25725877477E+03  0.10785041398E+04  0.25500000920E-02 0. -1.
       -2    1    3    3    0  502 -0.58817531354E+03  0.86662500708E+03  0.10663521991E+03  0.10527868600E+04  0.25500000920E-02 0.  1.
</event>
<event>
 5   0  0.1398469E-05  0.2100062E+04  0.7818609E-02  0.8561216E-01
       -2   -1    0    0    0  501  0.00000000000E+00  0.00000000000E+00  0.66735455159E+03  0.66735455159E+03  0.25500000920E-02 0.  1.
        2   -1    0    0  501    0  0.00000000000E+00  0.00000000000E+00 -0.16521431121E+04  0.16521431122E+04  0.25500000920E-02 0. -1.
    10030    2    1    2    0    0  0.00000000000E+00  0.00000000000E+00 -0.98478856056E+03  0.23194976637E+04  0.21000621189E+04 0.  0.
        2    1    3    3  502    0 -0.57487492497E+02  0.16684323895E+03 -0.16356474978E+04  0.16451395732E+04  0.25500000920E-02 0. -1.
       -2    1    3    3    0  502  0.57487492497E+02 -0.16684323895E+03  0.65085893722E+03  0.67435809059E+03  0.25500000920E-02 0.  1.
</event>
<event>
 5   0  0.1344501E-05  0.2099450E+04  0.7818609E-02  0.8561486E-01
       -2   -1    0    0    0  501  0.00000000000E+00  0.00000000000E+00  0.81234795424E+03  0.81234795425E+03  0.25500000920E-02 0. -1.
        2   -1    0    0  501    0  0.00000000000E+00  0.00000000000E+00 -0.13564661910E+04  0.13564661910E+04  0.25500000920E-02 0.  1.
    10030    2    1    2    0    0  0.00000000000E+00  0.00000000000E+00 -0.54411823680E+03  0.21688141453E+04  0.20994499616E+04 0.  0.
        3    1    3    3  502    0 -0.55833369423E+03  0.28903219488E+03 -0.11404552593E+04  0.13022727566E+04  0.10100000352E+00 0.  1.
       -3    1    3    3    0  502  0.55833369423E+03 -0.28903219488E+03  0.59633702250E+03  0.86654138874E+03  0.10100000352E+00 0. -1.
</event>
<event>
 5   0  0.6238363E-06  0.2101541E+04  0.7818609E-02  0.8560565E-01
        1   -1    0    0  501    0  0.00000000000E+00  0.00000000000E+00  0.10617855566E+04  0.10617855566E+04  0.50400001928E-02 0.  1.
       -1   -1    0    0    0  501  0.00000000000E+00  0.00000000000E+00 -0.10398700073E+04  0.10398700073E+04  0.50400001928E-02 0. -1.
    10030    2    1    2    0    0  0.00000000000E+00  0.00000000000E+00  0.21915549311E+02  0.21016555640E+04  0.21015412959E+04 0.  0.
        4    1    3    3  502    0 -0.11439735292E+03  0.93220221877E+03  0.48218357650E+03  0.10557416092E+04  0.12699999809E+01 0.  1.
       -4    1    3    3    0  502  0.11439735292E+03 -0.93220221877E+03 -0.46026802719E+03  0.10459139548E+04  0.12699999809E+01 0. -1.
</event>
<event>
 5   0  0.6283269E-06  0.2104093E+04  0.7818609E-02  0.8559443E-01
       -1   -1    0    0    0  501  0.00000000000E+00  0.00000000000E+00  0.10720393585E+04  0.10720393585E+04  0.50400001928E-02 0. -1.
        1   -1    0    0  501    0  0.00000000000E+00  0.00000000000E+00 -0.10324261800E+04  0.10324261801E+04  0.50400001928E-02 0.  1.
    10030    2    1    2    0    0  0.00000000000E+00  0.00000000000E+00  0.39613178458E+02  0.21044655386E+04  0.21040926784E+04 0.  0.
        1    1    3    3  502    0  0.16911207892E+01 -0.32075754482E+03  0.10219388509E+04  0.10710962970E+04  0.50400001928E-02 0. -1.
       -1    1    3    3    0  502 -0.16911207892E+01  0.32075754482E+03 -0.98232567249E+03  0.10333692415E+04  0.50400001928E-02 0.  1.
</event>
<event>
 5   0  0.6589193E-06  0.2107758E+04  0.7818609E-02  0.8557834E-01
       -1   -1    0    0    0  501  0.00000000000E+00  0.00000000000E+00  0.73560231812E+03  0.73560231813E+03  0.50400001928E-02 0. -1.
        1   -1    0    0  501    0  0.00000000000E+00  0.00000000000E+00 -0.15098661570E+04  0.15098661570E+04  0.50400001928E-02 0.  1.
    10030    2    1    2    0    0  0.00000000000E+00  0.00000000000E+00 -0.77426383886E+03  0.22454684751E+04  0.21077580935E+04 0.  0.
        3    1    3    3  502    0  0.18368168962E+02  0.29944946464E+03 -0.14634122315E+04  0.14938482992E+04  0.10100000352E+00 0.  1.
       -3    1    3    3    0  502 -0.18368168962E+02 -0.29944946464E+03  0.68914839267E+03  0.75162017590E+03  0.10100000352E+00 0. -1.
</event>
<event>
 5   0  0.6599245E-06  0.2100507E+04  0.7818609E-02  0.8561020E-01
        1   -1    0    0  501    0  0.00000000000E+00  0.00000000000E+00  0.16840132612E+04  0.16840132612E+04  0.50400001928E-02 0.  1.
       -1   -1    0    0    0  501  0.00000000000E+00  0.00000000000E+00 -0.65500239613E+03  0.65500239615E+03  0.50400001928E-02 0. -1.
    10030    2    1    2    0    0  0.00000000000E+00  0.00000000000E+00  0.10290108651E+04  0.23390156574E+04  0.21005072923E+04 0.  0.
        2    1    3    3  502    0  0.25638880792E+03  0.73731082613E+03 -0.26789199118E+03  0.82530515211E+03  0.25500000920E-02 0. -1.
       -2    1    3    3    0  502 -0.25638880792E+03 -0.73731082613E+03  0.12969028563E+04  0.15137105053E+04  0.25500000920E-02 0.  1.
</event>
<event>
 5   0  0.6283269E-06  0.2083134E+04  0.7818609E-02  0.8568710E-01
        1   -1    0    0  501    0  0.00000000000E+00  0.00000000000E+00  0.19779224890E+04  0.19779224890E+04  0.50400001928E-02 0.  1.
       -1   -1    0    0    0  501  0.00000000000E+00  0.00000000000E+00 -0.54848529756E+03  0.54848529758E+03  0.50400001928E-02 0. -1.
    10030    2    1    2    0    0  0.00000000000E+00  0.00000000000E+00  0.14294371914E+04  0.25264077866E+04  0.20831336058E+04 0.  0.
        1    1    3    3  502    0 -0.87034594994E+03 -0.50035792093E+03  0.37817966724E+03  0.10727907449E+04  0.50400001928E-02 0. -1.
       -1    1    3    3    0  502  0.87034594994E+03  0.50035792093E+03  0.10512575242E+04  0.14536170417E+04  0.50400001928E-02 0.  1.
</event>
<event>
 5   0  0.1441136E-05  0.2099432E+04  0.7818609E-02  0.8561494E-01
        2   -1    0    0  501    0  0.00000000000E+00  0.00000000000E+00  0.13230949338E+04  0.13230949338E+04  0.25500000920E-02 0. -1.
       -2   -1    0    0    0  501  0.00000000000E+00  0.00000000000E+00 -0.83282270007E+03  0.83282270007E+03  0.25500000920E-02 0.  1.
    10030    2    1    2    0    0  0.00000000000E+00  0.00000000000E+00  0.49027223377E+03  0.21559176339E+04  0.20994318234E+04 0.  0.
        4    1    3    3  502    0  0.79925487808E+03  0.31865250009E+03  0.86260778876E+03  0.12183766191E+04  0.12699999809E+01 0. -1.
       -4    1    3    3    0  502 -0.79925487808E+03 -0.31865250009E+03 -0.37233555499E+03  0.93754101476E+03  0.12699999809E+01 0.  1.
</event>
<event>
 5   0  0.1441136E-05  0.2098796E+04  0.7818609E-02  0.8561774E-01
        2   -1    0    0  501    0  0.00000000000E+00  0.00000000000E+00  0.10433279878E+04  0.10433279878E+04  0.25500000920E-02 0.  1.
       -2   -1    0    0    0  501  0.00000000000E+00  0.00000000000E+00 -0.10555037922E+04  0.10555037922E+04  0.25500000920E-02 0. -1.
    10030    2    1    2    0    0  0.00000000000E+00  0.00000000000E+00 -0.12175804341E+02  0.20988317800E+04  0.20987964624E+04 0.  0.
        4    1    3    3  502    0  0.68817068789E+03  0.32491112994E+03  0.71648144937E+03  0.10452240995E+04  0.12699999809E+01 0.  1.
       -4    1    3    3    0  502 -0.68817068789E+03 -0.32491112994E+03 -0.72865725371E+03  0.10536076805E+04  0.12699999809E+01 0. -1.
</event>
<event>
 5   0  0.1398469E-05  0.2107483E+04  0.7818609E-02  0.8557954E-01
       -2   -1    0    0    0  501  0.00000000000E+00  0.00000000000E+00  0.81240062389E+03  0.81240062390E+03  0.25500000920E-02 0.  1.
        2   -1    0    0  501    0  0.00000000000E+00  0.00000000000E+00 -0.13667774404E+04  0.13667774404E+04  0.25500000920E-02 0. -1.
    10030    2    1    2    0    0  0.00000000000E+00  0.00000000000E+00 -0.55437681646E+03  0.21791780643E+04  0.21074827119E+04 0.  0.
        2    1    3    3  502    0  0.77516826506E+03  0.65967241793E+03  0.46977042606E+01  0.10178779920E+04  0.25500000920E-02 0.  1.
       -2    1    3    3    0  502 -0.77516826506E+03 -0.65967241793E+03 -0.55907452072E+03  0.11613000723E+04  0.25500000920E-02 0. -1.
</event>
<event>
 5   0  0.6917078E-06  0.2099295E+04  0.7818609E-02  0.8561554E-01
        1   -1    0    0  501    0  0.00000000000E+00  0.00000000000E+00  0.14997559076E+04  0.14997559076E+04  0.50400001928E-02 0. -1.
       -1   -1    0    0    0  501  0.00000000000E+00  0.00000000000E+00 -0.73462622503E+03  0.73462622505E+03  0.50400001928E-02 0.  1.
    10030    2    1    2    0    0  0.00000000000E+00  0.00000000000E+00  0.76512968255E+03  0.22343821326E+04  0.20992951397E+04 0.  0.
        5    1    3    3  502    0  0.32654457701E+03 -0.68670863375E+03 -0.38755441138E+03  0.85347561196E+03  0.46999998093E+01 0.  1.
       -5    1    3    3    0  502 -0.32654457701E+03  0.68670863375E+03  0.11526840939E+04  0.13809065207E+04  0.46999998093E+01 0. -1.
</event>
<event>
 5   0  0.6238363E-06  0.2101274E+04  0.7818609E-02  0.8560682E-01
        1   -1    0    0  501    0  0.00000000000E+00  0.00000000000E+00  0.20193664051E+04  0.20193664051E+04  0.50400001928E-02 0.  1.
       -1   -1    0    0    0  501  0.00000000000E+00  0.00000000000E+00 -0.54662603419E+03  0.54662603421E+03  0.50400001928E-02 0. -1.
    10030    2    1    2    0    0  0.00000000000E+00  0.00000000000E+00  0.14727403709E+04  0.25659924393E+04  0.21012741369E+04 0.  0.
        4    1    3    3  502    0  0.90120964637E+03  0.46864144032E+03  0.10641169701E+04  0.14711050830E+04  0.12699999809E+01 0.  1.
       -4    1    3    3    0  502 -0.90120964637E+03 -0.46864144032E+03  0.40862340073E+03  0.10948873562E+04  0.12699999809E+01 0. -1.
</event>
<event>
 5   0  0.6589193E-06  0.2094586E+04  0.7818609E-02  0.8563632E-01
       -1   -1    0    0    0  501  0.00000000000E+00  0.00000000000E+00  0.10197381494E+04  0.10197381494E+04  0.50400001928E-02 0.  1.
        1   -1    0    0  501    0  0.00000000000E+00  0.00000000000E+00 -0.10755923593E+04  0.10755923593E+04  0.50400001928E-02 0. -1.
    10030    2    1    2    0    0  0.00000000000E+00  0.00000000000E+00 -0.55854209935E+02  0.20953305087E+04  0.20945859371E+04 0.  0.
        3    1    3    3  502    0 -0.17506944477E+02 -0.90247073888E+03  0.50335736861E+03  0.10335030616E+04  0.10100000352E+00 0.  1.
       -3    1    3    3    0  502  0.17506944477E+02  0.90247073888E+03 -0.55921157854E+03  0.10618274471E+04  0.10100000352E+00 0. -1.
</event>
<event>
 5   0  0.6238363E-06  0.2102161E+04  0.7818609E-02  0.8560292E-01
       -1   -1    0    0    0  501  0.00000000000E+00  0.00000000000E+00  0.79677634638E+03  0.79677634639E+03  0.50400001928E-02 0. -1.
        1   -1    0    0  501    0  0.00000000000E+00  0.00000000000E+00 -0.13865494498E+04  0.13865494498E+04  0.50400001928E-02 0.  1.
    10030    2    1    2    0    0  0.00000000000E+00  0.00000000000E+00 -0.58977310342E+03  0.21833257962E+04  0.21021606073E+04 0.  0.
        4    1    3    3  502    0 -0.13645929861E+03 -0.59654199704E+03  0.59267555579E+03  0.85190928023E+03  0.12699999809E+01 0. -1.
       -4    1    3    3    0  502  0.13645929861E+03  0.59654199704E+03 -0.11824486592E+04  0.13314165160E+04  0.12699999809E+01 0.  1.
</event>
<event>
 5   0  0.6238363E-06  0.2101275E+04  0.7818609E-02  0.8560682E-01
        1   -1    0    0  501    0  0.00000000000E+00  0.00000000000E+00  0.12311645513E+04  0.12311645513E+04  0.50400001928E-02 0. -1.
       -1   -1    0    0    0  501  0.00000000000E+00  0.00000000000E+00 -0.89658114963E+03  0.89658114964E+03  0.50400001928E-02 0.  1.
    10030    2    1    2    0    0  0.00000000000E+00  0.00000000000E+00  0.33458340171E+03  0.21277457010E+04  0.21012747834E+04 0.  0.
        4    1    3    3  502    0  0.27535799375E+03  0.86451132378E+03  0.70371563591E+03  0.11482243521E+04  0.12699999809E+01 0.  1.
       -4    1    3    3    0  502 -0.27535799375E+03 -0.86451132378E+03 -0.36913223420E+03  0.97952134887E+03  0.12699999809E+01 0. -1.
</event>
<event>
 5   0  0.1395356E-05  0.2069470E+04  0.7818609E-02  0.8574813E-01
        2   -1    0    0  501    0  0.00000000000E+00  0.00000000000E+00  0.91476885846E+03  0.91476885846E+03  0.25500000920E-02 0.  1.
       -2   -1    0    0    0  501  0.00000000000E+00  0.00000000000E+00 -0.11704333767E+04  0.11704333768E+04  0.25500000920E-02 0. -1.
    10030    2    1    2    0    0  0.00000000000E+00  0.00000000000E+00 -0.25566451829E+03  0.20852022352E+04  0.20694695011E+04 0.  0.
        1    1    3    3  502    0  0.88546850695E+03 -0.50141668122E+03 -0.31688283115E+03  0.10657804153E+04  0.50400001928E-02 0.  1.
       -1    1    3    3    0  502 -0.88546850695E+03  0.50141668122E+03  0.61218312859E+02  0.10194218199E+04  0.50400001928E-02 0. -1.
</event>
<event>
 5   0  0.1398469E-05  0.2097926E+04  0.7818609E-02  0.8562158E-01
        2   -1    0    0  501    0  0.00000000000E+00  0.00000000000E+00  0.14239825018E+04  0.14239825018E+04  0.25500000920E-02 0. -1.
       -2   -1    0    0    0  501  0.00000000000E+00  0.00000000000E+00 -0.77270819234E+03  0.77270819234E+03  0.25500000920E-02 0.  1.
    10030    2    1    2    0    0  0.00000000000E+00  0.00000000000E+00  0.65127430948E+03  0.21966906942E+04  0.20979255896E+04 0.  0.
        2    1    3    3  502    0  0.20286410261E+03  0.24697409483E+03 -0.72048335483E+03  0.78819179915E+03  0.25500000920E-02 0.  1.
       -2    1    3    3    0  502 -0.20286410261E+03 -0.24697409483E+03  0.13717576643E+04  0.14084988950E+04  0.25500000920E-02 0. -1.
</event>
<event>
 5   0  0.1344501E-05  0.2101602E+04  0.7818609E-02  0.8560538E-01
       -2   -1    0    0    0  501  0.00000000000E+00  0.00000000000E+00  0.17314452789E+04  0.17314452789E+04  0.25500000920E-02 0. -1.
        2   -1    0    0  501    0  0.00000000000E+00  0.00000000000E+00 -0.63772297779E+03  0.63772297780E+03  0.25500000920E-02 0.  1.
    10030    2    1    2    0    0  0.00000000000E+00  0.00000000000E+00  0.10937223011E+04  0.23691682567E+04  0.21016017122E+04 0.  0.
        3    1    3    3  502    0  0.38247487985E+03 -0.22719466799E+03  0.16200501319E+04  0.16800199079E+04  0.10100000352E+00 0. -1.
       -3    1    3    3    0  502 -0.38247487985E+03  0.22719466799E+03 -0.52632783084E+03  0.68914834875E+03  0.10100000352E+00 0.  1.
</event>
<event>
 5   0  0.1390735E-05  0.2110315E+04  0.7818609E-02  0.8556713E-01
        2   -1    0    0  501    0  0.00000000000E+00  0.00000000000E+00  0.10421137916E+04  0.10421137916E+04  0.25500000920E-02 0. -1.
       -2   -1    0    0    0  501  0.00000000000E+00  0.00000000000E+00 -0.10683640713E+04  0.10683640713E+04  0.25500000920E-02 0.  1.
    10030    2    1    2    0    0  0.00000000000E+00  0.00000000000E+00 -0.26250279660E+02  0.21104778629E+04  0.21103146051E+04 0.  0.
        5    1    3    3  502    0  0.10536634878E+04 -0.27025545702E+02 -0.62095421194E+02  0.10558480274E+04  0.46999998093E+01 0.  1.
       -5    1    3    3    0  502 -0.10536634878E+04  0.27025545702E+02  0.35845141535E+02  0.10546298354E+04  0.46999998093E+01 0. -1.
</event>
<event>
 5   0  0.6917078E-06  0.2101905E+04  0.7818609E-02  0.8560405E-01
       -1   -1    0    0    0  501  0.00000000000E+00  0.00000000000E+00  0.10863111070E+04  0.10863111070E+04  0.50400001928E-02 0. -1.
        1   -1    0    0  501    0  0.00000000000E+00  0.00000000000E+00 -0.10167449101E+04  0.10167449101E+04  0.50400001928E-02 0.  1.
    10030    2    1    2    0    0  0.00000000000E+00  0.00000000000E+00  0.69566196852E+02  0.21030560171E+04  0.21019051252E+04 0.  0.
        5    1    3    3  502    0 -0.34600083703E+03 -0.99207129899E+03  0.11165993529E+02  0.10507467872E+04  0.46999998093E+01 0.  1.
       -5    1    3    3    0  502  0.34600083703E+03  0.99207129899E+03  0.58400203322E+02  0.10523092299E+04  0.46999998093E+01 0. -1.
</event>
<event>
 5   0  0.6599245E-06  0.2096017E+04  0.7818609E-02  0.8563000E-01
       -1   -1    0    0    0  501  0.00000000000E+00  0.00000000000E+00  0.76000209960E+03  0.76000209962E+03  0.50400001928E-02 0.  1.
        1   -1    0    0  501    0  0.00000000000E+00  0.00000000000E+00 -0.14451561134E+04  0.14451561134E+04  0.50400001928E-02 0. -1.
    10030    2    1    2    0    0  0.00000000000E+00  0.00000000000E+00 -0.68515401384E+03  0.22051582131E+04  0.20960168706E+04 0.  0.
        2    1    3    3  502    0 -0.66426695070E+03 -0.45708370566E+03  0.36171788931E+03  0.88375105501E+03  0.25500000920E-02 0.  1.
       -2    1    3    3    0  502  0.66426695070E+03  0.45708370566E+03 -0.10468719031E+04  0.13214071581E+04  0.25500000920E-02 0. -1.
</event>
<event>
 5   0  0.6917078E-06  0.2096172E+04  0.7818609E-02  0.8562931E-01
        1   -1    0    0  501    0  0.00000000000E+00  0.00000000000E+00  0.14573831603E+04  0.14573831603E+04  0.50400001928E-02 0. -1.
       -1   -1    0    0    0  501  0.00000000000E+00  0.00000000000E+00 -0.75373771678E+03  0.75373771680E+03  0.50400001928E-02 0.  1.
    10030    2    1    2    0    0  0.00000000000E+00  0.00000000000E+00  0.70364544356E+03  0.22111208771E+04  0.20961723744E+04 0.  0.
        5    1    3    3  502    0  0.23233530549E+03  0.96565512024E+03 -0.11824338573E+01  0.99322353656E+03  0.46999998093E+01 0. -1.
       -5    1    3    3    0  502 -0.23233530549E+03 -0.96565512024E+03  0.70482787742E+03  0.12178973406E+04  0.46999998093E+01 0.  1.
</event>
<event>
 5   0  0.1398469E-05  0.2121827E+04  0.7818609E-02  0.8551689E-01
        2   -1    0    0  501    0  0.00000000000E+00  0.00000000000E+00  0.11036744382E+04  0.11036744382E+04  0.25500000920E-02 0. -1.
       -2   -1    0    0    0  501  0.00000000000E+00  0.00000000000E+00 -0.10198091288E+04  0.10198091288E+04  0.25500000920E-02 0.  1.
    10030    2    1    2    0    0  0.00000000000E+00  0.00000000000E+00  0.83865309430E+02  0.21234835670E+04  0.21218268236E+04 0.  0.
        2    1    3    3  502    0 -0.50759866187E+03 -0.62995184886E+03  0.72879320017E+03  0.10888687993E+04  0.25500000920E-02 0. -1.
       -2    1    3    3    0  502  0.50759866187E+03  0.62995184886E+03 -0.64492789074E+03  0.10346147678E+04  0.25500000920E-02 0.  1.
</event>
<event>
 5   0  0.1395356E-05  0.2104873E+04  0.7818609E-02  0.8559100E-01
       -2   -1    0    0    0  501  0.00000000000E+00  0.00000000000E+00  0.57420780308E+03  0.57420780308E+03  0.25500000920E-02 0. -1.
        2   -1    0    0  501    0  0.00000000000E+00  0.00000000000E+00 -0.19289576437E+04  0.19289576437E+04  0.25500000920E-02 0.  1.
    10030    2    1    2    0    0  0.00000000000E+00  0.00000000000E+00 -0.13547498406E+04  0.25031654467E+04  0.21048729470E+04 0.  0.
        1    1    3    3  502    0  0.41832365946E+03 -0.51428543377E+03 -0.16494434103E+04  0.17776804424E+04  0.50400001928E-02 0.  1.
       -1    1    3    3    0  502 -0.41832365946E+03  0.51428543377E+03  0.29469356973E+03  0.72548500434E+03  0.50400001928E-02 0. -1.
</event>
<event>
 5   0  0.1395356E-05  0.2098490E+04  0.7818609E-02  0.8561909E-01
        2   -1    0    0  501    0  0.00000000000E+00  0.00000000000E+00  0.68416160949E+03  0.68416160950E+03  0.25500000920E-02 0.  1.
       -2   -1    0    0    0  501  0.00000000000E+00  0.00000000000E+00 -0.16091453952E+04  0.16091453952E+04  0.25500000920E-02 0. -1.
    10030    2    1    2    0    0  0.00000000000E+00  0.00000000000E+00 -0.92498378570E+03  0.22933070047E+04  0.20984904131E+04 0.  0.
        1    1    3    3  502    0  0.75181016105E+03  0.12295393673E+03  0.32600259516E+03  0.82862167537E+03  0.50400001928E-02 0.  1.
       -1    1    3    3    0  502 -0.75181016105E+03 -0.12295393673E+03 -0.12509863809E+04  0.14646853293E+04  0.50400001928E-02 0. -1.
</event>
<event>
 5   0  0.1344501E-05  0.2103255E+04  0.7818609E-02  0.8559811E-01
        2   -1    0    0  501    0  0.00000000000E+00  0.00000000000E+00  0.12195804937E+04  0.12195804937E+04  0.25500000920E-02 0. -1.
       -2   -1    0    0    0  501  0.00000000000E+00  0.00000000000E+00 -0.90680427812E+03  0.90680427813E+03  0.25500000920E-02 0.  1.
    10030    2    1    2    0    0  0.00000000000E+00  0.00000000000E+00  0.31277621561E+03  0.21263847719E+04  0.21032553903E+04 0.  0.
        3    1    3    3  502    0 -0.10040004506E+04  0.17620277231E+03 -0.10502152529E+03  0.10247408710E+04  0.10100000352E+00 0. -1.
       -3    1    3    3    0  502  0.10040004506E+04 -0.17620277231E+03  0.41779774090E+03  0.11016439008E+04  0.10100000352E+00 0.  1.
</event>
<event>
 5   0  0.6238363E-06  0.2099089E+04  0.7818609E-02  0.8561645E-01
        1   -1    0    0  501    0  0.00000000000E+00  0.00000000000E+00  0.28304098447E+04  0.28304098447E+04  0.50400001928E-02 0. -1.
       -1   -1    0    0    0  501  0.00000000000E+00  0.00000000000E+00 -0.38918182503E+03  0.38918182506E+03  0.50400001928E-02 0.  1.
    10030    2    1    2    0    0  0.00000000000E+00  0.00000000000E+00  0.24412280196E+04  0.32195916697E+04  0.20990893921E+04 0.  0.
        4    1    3    3  502    0  0.71691378678E+03 -0.21152820221E+03  0.90550267086E+02  0.75293460657E+03  0.12699999809E+01 0.  1.
       -4    1    3    3    0  502 -0.71691378678E+03  0.21152820221E+03  0.23506777525E+04  0.24666570631E+04  0.12699999809E+01 0. -1.
</event>
<event>
 5   0  0.1344501E-05  0.2100614E+04  0.7818609E-02  0.8560973E-01
       -2   -1    0    0    0  501  0.00000000000E+00  0.00000000000E+00  0.58038080018E+03  0.58038080019E+03  0.25500000920E-02 0.  1.
        2   -1    0    0  501    0  0.00000000000E+00  0.00000000000E+00 -0.19007267567E+04  0.19007267567E+04  0.25500000920E-02 0. -1.
    10030    2    1    2    0    0  0.00000000000E+00  0.00000000000E+00 -0.13203459565E+04  0.24811075569E+04  0.21006144967E+04 0.  0.
        3    1    3    3  502    0 -0.67726957678E+03 -0.39999054382E+03 -0.14822786675E+04  0.16780454622E+04  0.10100000352E+00 0. -1.
       -3    1    3    3    0  502  0.67726957678E+03  0.39999054382E+03  0.16193271105E+03  0.80306209466E+03  0.10100000352E+00 0.  1.
</event>
<event>
 5   0  0.6599245E-06  0.2100264E+04  0.7818609E-02  0.8561127E-01
        1   -1    0    0  501    0  0.00000000000E+00  0.00000000000E+00  0.18622529248E+04  0.18622529248E+04  0.50400001928E-02 0. -1.
       -1   -1    0    0    0  501  0.00000000000E+00  0.00000000000E+00 -0.59217384965E+03  0.59217384967E+03  0.50400001928E-02 0.  1.
    10030    2    1    2    0    0  0.00000000000E+00  0.00000000000E+00  0.12700790751E+04  0.24544267745E+04  0.21002642534E+04 0.  0.
        2    1    3    3  502    0 -0.19888231324E+03 -0.65992836572E+03 -0.29084830641E+03  0.74809916439E+03  0.25500000920E-02 0.  1.
       -2    1    3    3    0  502  0.19888231324E+03  0.65992836572E+03  0.15609273815E+04  0.17063276101E+04  0.25500000920E-02 0. -1.
</event>
<event>
 5   0  0.1390735E-05  0.2101211E+04  0.7818609E-02  0.8560710E-01
       -2   -1    0    0    0  501  0.00000000000E+00  0.00000000000E+00  0.11123340854E+04  0.11123340854E+04  0.25500000920E-02 0.  1.
        2   -1    0    0  501    0  0.00000000000E+00  0.00000000000E+00 -0.99230238299E+03  0.99230238299E+03  0.25500000920E-02 0. -1.
    10030    2    1    2    0    0  0.00000000000E+00  0.00000000000E+00  0.12003170246E+03  0.21046364684E+04  0.21012108544E+04 0.  0.
        5    1    3    3  502    0 -0.71263025615E+03  0.12307620883E+03  0.82333440452E+03  0.10958518453E+04  0.46999998093E+01 0.  1.
       -5    1    3    3    0  502  0.71263025615E+03 -0.12307620883E+03 -0.70330270207E+03  0.10087846231E+04  0.46999998093E+01 0. -1.
</event>
<event>
 5   0  0.1344501E-05  0.2101840E+04  0.7818609E-02  0.8560433E-01
        2   -1    0    0  501    0  0.00000000000E+00  0.00000000000E+00  0.14434252100E+04  0.14434252100E+04  0.25500000920E-02 0.  1.
       -2   -1    0    0    0  501  0.00000000000E+00  0.00000000000E+00 -0.76514709397E+03  0.76514709397E+03  0.25500000920E-02 0. -1.
    10030    2    1    2    0    0  0.00000000000E+00  0.00000000000E+00  0.67827811602E+03  0.22085723040E+04  0.21018397701E+04 0.  0.
        3    1    3    3  502    0 -0.82303961547E+03  0.38552577392E+03  0.89357717162E+03  0.12745605136E+04  0.10100000352E+00 0.  1.
       -3    1    3    3    0  502  0.82303961547E+03 -0.38552577392E+03 -0.21529905560E+03  0.93401179036E+03  0.10100000352E+00 0. -1.
</event>
<event>
 5   0  0.6599245E-06  0.2098276E+04  0.7818609E-02  0.8562003E-01
        1   -1    0    0  501    0  0.00000000000E+00  0.00000000000E+00  0.24880205455E+04  0.24880205455E+04  0.50400001928E-02 0.  1.
       -1   -1    0    0    0  501  0.00000000000E+00  0.00000000000E+00 -0.44239623392E+03  0.44239623394E+03  0.50400001928E-02 0. -1.
    10030    2    1    2    0    0  0.00000000000E+00  0.00000000000E+00  0.20456243116E+04  0.29304167795E+04  0.20982763586E+04 0.  0.
        2    1    3    3  502    0  0.49007372946E+03  0.88702447452E+03  0.14019689435E+04  0.17298848509E+04  0.25500000920E-02 0.  1.
       -2    1    3    3    0  502 -0.49007372946E+03 -0.88702447452E+03  0.64365536809E+03  0.12005319286E+04  0.25500000920E-02 0. -1.
</event>
<event>
 5   0  0.6599245E-06  0.2099793E+04  0.7818609E-02  0.8561335E-01
       -1   -1    0    0    0  501  0.00000000000E+00  0.00000000000E+00  0.66655815096E+03  0.66655815098E+03  0.50400001928E-02 0.  1.
        1   -1    0    0  501    0  0.00000000000E+00  0.00000000000E+00 -0.16536928319E+04  0.16536928319E+04  0.50400001928E-02 0. -1.
    10030    2    1    2    0    0  0.00000000000E+00  0.00000000000E+00 -0.98713468095E+03  0.23202509829E+04  0.20997927863E+04 0.  0.
        2    1    3    3  502    0  0.27206585054E+03  0.89253359547E+03  0.38260776856E+02  0.93386290917E+03  0.25500000920E-02 0.  1.
       -2    1    3    3    0  502 -0.27206585054E+03 -0.89253359547E+03 -0.10253954578E+04  0.13863880737E+04  0.25500000920E-02 0. -1.
</event>
<event>
 5   0  0.6917078E-06  0.2100225E+04  0.7818609E-02  0.8561144E-01
        1   -1    0    0  501    0  0.00000000000E+00  0.00000000000E+00  0.82707473860E+03  0.82707473861E+03  0.50400001928E-02 0. -1.
       -1   -1    0    0    0  501  0.00000000000E+00  0.00000000000E+00 -0.13332966735E+04  0.13332966735E+04  0.50400001928E-02 0.  1.
    10030    2    1    2    0    0  0.00000000000E+00  0.00000000000E+00 -0.50622193486E+03  0.21603714121E+04  0.21002247477E+04 0.  0.
        5    1    3    3  502    0 -0.59896845129E+03 -0.62005436509E+02 -0.11380423987E+04  0.12875443569E+04  0.46999998093E+01 0.  1.
       -5    1    3    3    0  502  0.59896845129E+03  0.62005436509E+02  0.63182046380E+03  0.87282705519E+03  0.46999998093E+01 0. -1.
</event>
<event>
 5   0  0.1398469E-05  0.2098109E+04  0.7818609E-02  0.8562077E-01
        2   -1    0    0  501    0  0.00000000000E+00  0.00000000000E+00  0.10246555253E+04  0.10246555253E+04  0.25500000920E-02 0. -1.
       -2   -1    0    0    0  501  0.00000000000E+00  0.00000000000E+00 -0.10740344704E+04  0.10740344704E+04  0.25500000920E-02 0.  1.
    10030    2    1    2    0    0  0.00000000000E+00  0.00000000000E+00 -0.49378945172E+02  0.20986899957E+04  0.20981090100E+04 0.  0.
        2    1    3    3  502    0 -0.63491445335E+02  0.67915412623E+03 -0.82192577167E+03  0.10681027408E+04  0.25500000920E-02 0.  1.
       -2    1    3    3    0  502  0.63491445335E+02 -0.67915412623E+03  0.77254682650E+03  0.10305872549E+04  0.25500000920E-02 0. -1.
</event>
<event>
 5   0  0.1398469E-05  0.2101074E+04  0.7818609E-02  0.8560770E-01
        2   -1    0    0  501    0  0.00000000000E+00  0.00000000000E+00  0.13646225996E+04  0.13646225996E+04  0.25500000920E-02 0.  1.
       -2   -1    0    0    0  501  0.00000000000E+00  0.00000000000E+00 -0.80874225118E+03  0.80874225118E+03  0.25500000920E-02 0. -1.
    10030    2    1    2    0    0  0.00000000000E+00  0.00000000000E+00  0.55588034843E+03  0.21733648508E+04  0.21010739665E+04 0.  0.
        2    1    3    3  502    0  0.18060341479E+03  0.14368247622E+03 -0.78219578129E+03  0.81553202738E+03  0.25500000920E-02 0. -1.
       -2    1    3    3    0  502 -0.18060341479E+03 -0.14368247622E+03  0.13380761297E+04  0.13578328234E+04  0.25500000920E-02 0.  1.
</event>
<event>
 5   0  0.6589193E-06  0.2103017E+04  0.7818609E-02  0.8559916E-01
        1   -1    0    0  501    0  0.00000000000E+00  0.00000000000E+00  0.11788778833E+04  0.11788778833E+04  0.50400001928E-02 0. -1.
       -1   -1    0    0    0  501  0.00000000000E+00  0.00000000000E+00 -0.93790016946E+03  0.93790016948E+03  0.50400001928E-02 0.  1.
    10030    2    1    2    0    0  0.00000000000E+00  0.00000000000E+00  0.24097771379E+03  0.21167780527E+04  0.21030166585E+04 0.  0.
        3    1    3    3  502    0 -0.10085758411E+04  0.13367878019E+03 -0.14690815845E+03  0.10279480827E+04  0.10100000352E+00 0.  1.
       -3    1    3    3    0  502  0.10085758411E+04 -0.13367878019E+03  0.38788587223E+03  0.10888299700E+04  0.10100000352E+00 0. -1.
</event>
<event>
 5   0  0.1441136E-05  0.2097272E+04  0.7818609E-02  0.8562446E-01
       -2   -1    0    0    0  501  0.00000000000E+00  0.00000000000E+00  0.70352344637E+03  0.70352344638E+03  0.25500000920E-02 0.  1.
        2   -1    0    0  501    0  0.00000000000E+00  0.00000000000E+00 -0.15630430382E+04  0.15630430382E+04  0.25500000920E-02 0. -1.
    10030    2    1    2    0    0  0.00000000000E+00  0.00000000000E+00 -0.85951959178E+03  0.22665664845E+04  0.20972719662E+04 0.  0.
        4    1    3    3  502    0  0.35582004929E+03 -0.84232386408E+03 -0.98453774885E+03  0.13436642405E+04  0.12699999809E+01 0. -1.
       -4    1    3    3    0  502 -0.35582004929E+03  0.84232386408E+03  0.12501815707E+03  0.92290224400E+03  0.12699999809E+01 0.  1.
</event>
<event>
 5   0  0.6283269E-06  0.2105565E+04  0.7818609E-02  0.8558796E-01
       -1   -1    0    0    0  501  0.00000000000E+00  0.00000000000E+00  0.70117683170E+03  0.70117683172E+03  0.50400001928E-02 0.  1.
        1   -1    0    0  501    0  0.00000000000E+00  0.00000000000E+00 -0.15807005259E+04  0.15807005259E+04  0.50400001928E-02 0. -1.
    10030    2    1    2    0    0  0.00000000000E+00  0.00000000000E+00 -0.87952369421E+03  0.22818773576E+04  0.21055646147E+04 0.  0.
        1    1    3    3  502    0 -0.17115124477E+03 -0.98383894043E+03 -0.80101982999E+03  0.12801814627E+04  0.50400001928E-02 0. -1.
       -1    1    3    3    0  502  0.17115124477E+03  0.98383894043E+03 -0.78503864218E+02  0.10016958950E+04  0.50400001928E-02 0.  1.
</event>
<event>
 5   0  0.1398469E-05  0.2095789E+04  0.7818609E-02  0.8563101E-01
        2   -1    0    0  501    0  0.00000000000E+00  0.00000000000E+00  0.18269321038E+04  0.18269321038E+04  0.25500000920E-02 0. -1.
       -2   -1    0    0    0  501  0.00000000000E+00  0.00000000000E+00 -0.60105270882E+03  0.60105270883E+03  0.25500000920E-02 0.  1.
    10030    2    1    2    0    0  0.00000000000E+00  0.00000000000E+00  0.12258793950E+04  0.24279848127E+04  0.20957886247E+04 0.  0.
        2    1    3    3  502    0 -0.23346409322E+03 -0.12459254901E+03 -0.56170463620E+03  0.62091938642E+03  0.25500000920E-02 0.  1.
       -2    1    3    3    0  502  0.23346409322E+03  0.12459254901E+03  0.17875840312E+04  0.18070654263E+04  0.25500000920E-02 0. -1.
</event>
<event>
 5   0  0.6589193E-06  0.2102402E+04  0.7818609E-02  0.8560186E-01
       -1   -1    0    0    0  501  0.00000000000E+00  0.00000000000E+00  0.13125583111E+04  0.13125583111E+04  0.50400001928E-02 0.  1.
        1   -1    0    0  501    0  0.00000000000E+00  0.00000000000E+00 -0.84188530926E+03  0.84188530928E+03  0.50400001928E-02 0. -1.
    10030    2    1    2    0    0  0.00000000000E+00  0.00000000000E+00  0.47067300187E+03  0.21544436204E+04  0.21024020165E+04 0.  0.
        3    1    3    3  502    0  0.65351527823E+03  0.68182000137E+02  0.10761918130E+04  0.12609202324E+04  0.10100000352E+00 0.  1.
       -3    1    3    3    0  502 -0.65351527823E+03 -0.68182000137E+02 -0.60551881113E+03  0.89352338797E+03  0.10100000352E+00 0. -1.
</event>
<event>
 5   0  0.1395356E-05  0.2108872E+04  0.7818609E-02  0.8557345E-01
       -2   -1    0    0    0  501  0.00000000000E+00  0.00000000000E+00  0.19504774760E+04  0.19504774760E+04  0.25500000920E-02 0. -1.
        2   -1    0    0  501    0  0.00000000000E+00  0.00000000000E+00 -0.57003237193E+03  0.57003237194E+03  0.25500000920E-02 0.  1.
    10030    2    1    2    0    0  0.00000000000E+00  0.00000000000E+00  0.13804451041E+04  0.25205098480E+04  0.21088720227E+04 0.  0.
        1    1    3    3  502    0 -0.94737498410E+03  0.19871347127E+03  0.11899633239E+04  0.15339553828E+04  0.50400001928E-02 0. -1.
       -1    1    3    3    0  502  0.94737498410E+03 -0.19871347127E+03  0.19048178023E+03  0.98655446519E+03  0.50400001928E-02 0.  1.
</event>
<event>
 5   0  0.1390735E-05  0.2093954E+04  0.7818609E-02  0.8563911E-01
       -2   -1    0    0    0  501  0.00000000000E+00  0.00000000000E+00  0.18792159848E+04  0.18792159848E+04  0.25500000920E-02 0.  1.
        2   -1    0    0  501    0  0.00000000000E+00  0.00000000000E+00 -0.58330744259E+03  0.58330744259E+03  0.25500000920E-02 0. -1.
    10030    2    1    2    0    0  0.00000000000E+00  0.00000000000E+00  0.12959085422E+04  0.24625234273E+04  0.20939538392E+04 0.  0.
        5    1    3    3  502    0  0.49439923613E+03  0.60530990702E+03 -0.17130609317E+03  0.80012408773E+03  0.46999998093E+01 0. -1.
       -5    1    3    3    0  502 -0.49439923613E+03 -0.60530990702E+03  0.14672146353E+04  0.16623993396E+04  0.46999998093E+01 0.  1.
</event>
<event>
 5   0  0.6283269E-06  0.2086019E+04  0.7818609E-02  0.8567427E-01
        1   -1    0    0  501    0  0.00000000000E+00  0.00000000000E+00  0.16911310399E+04  0.16911310399E+04  0.50400001928E-02 0.  1.
       -1   -1    0    0    0  501  0.00000000000E+00  0.00000000000E+00 -0.64327890645E+03  0.64327890647E+03  0.50400001928E-02 0. -1.
    10030    2    1    2    0    0  0.00000000000E+00  0.00000000000E+00  0.10478521335E+04  0.23344099464E+04  0.20860191045E+04 0.  0.
        1    1    3    3  502    0 -0.67314524314E+02 -0.99536025019E+03  0.86445509828E+03  0.13200590479E+04  0.50400001928E-02 0.  1.
       -1    1    3    3    0  502  0.67314524314E+02  0.99536025019E+03  0.18339703519E+03  0.10143508985E+04  0.50400001928E-02 0. -1.
</event>
<event>
 5   0  0.6238363E-06  0.2095752E+04  0.7818609E-02  0.8563117E-01
        1   -1    0    0  501    0  0.00000000000E+00  0.00000000000E+00  0.28773999758E+04  0.28773999758E+04  0.50400001928E-02 0.  1.
       -1   -1    0    0    0  501  0.00000000000E+00  0.00000000000E+00 -0.38160980615E+03  0.38160980618E+03  0.50400001928E-02 0. -1.
    10030    2    1    2    0    0  0.00000000000E+00  0.00000000000E+00  0.24957901697E+04  0.32590097820E+04  0.20957519386E+04 0.  0.
        4    1    3    3  502    0 -0.33989999855E+02  0.10438508195E+04  0.11153720797E+04  0.15280171277E+04  0.12699999809E+01 0. -1.
       -4    1    3    3    0  502  0.33989999855E+02 -0.10438508195E+04  0.13804180900E+04  0.17309926544E+04  0.12699999809E+01 0.  1.
</event>
<event>
 5   0  0.6238363E-06  0.2102395E+04  0.7818609E-02  0.8560189E-01
        1   -1    0    0  501    0  0.00000000000E+00  0.00000000000E+00  0.91175024581E+03  0.91175024583E+03  0.50400001928E-02 0.  1.
       -1   -1    0    0    0  501  0.00000000000E+00  0.00000000000E+00 -0.12119728442E+04  0.12119728442E+04  0.50400001928E-02 0. -1.
    10030    2    1    2    0    0  0.00000000000E+00  0.00000000000E+00 -0.30022259842E+03  0.21237230901E+04  0.21023953374E+04 0.  0.
        4    1    3    3  502    0  0.37096963093E+03  0.16734399258E+03  0.82894358014E+03  0.92345630697E+03  0.12699999809E+01 0.  1.
       -4    1    3    3    0  502 -0.37096963093E+03 -0.16734399258E+03 -0.11291661786E+04  0.12002667831E+04  0.12699999809E+01 0. -1.
</event>
<event>
 5   0  0.1398469E-05  0.2096554E+04  0.7818609E-02  0.8562763E-01
        2   -1    0    0  501    0  0.00000000000E+00  0.00000000000E+00  0.18928546142E+04  0.18928546142E+04  0.25500000920E-02 0. -1.
       -2   -1    0    0    0  501  0.00000000000E+00  0.00000000000E+00 -0.58054341981E+03  0.58054341982E+03  0.25500000920E-02 0.  1.
    10030    2    1    2    0    0  0.00000000000E+00  0.00000000000E+00  0.13123111944E+04  0.24733980340E+04  0.20965536396E+04 0.  0.
        2    1    3    3  502    0 -0.72730769178E+03  0.60060898456E+03  0.11957216840E+04  0.15229766828E+04  0.25500000920E-02 0.  1.
       -2    1    3    3    0  502  0.72730769178E+03 -0.60060898456E+03  0.11658951038E+03  0.95042135118E+03  0.25500000920E-02 0. -1.
</event>
<event>
 5   0  0.1398469E-05  0.2098700E+04  0.7818609E-02  0.8561816E-01
       -2   -1    0    0    0  501  0.00000000000E+00  0.00000000000E+00  0.47249675352E+03  0.47249675353E+03  0.25500000920E-02 0.  1.
        2   -1    0    0  501    0  0.00000000000E+00  0.00000000000E+00 -0.23304614958E+04  0.23304614958E+04  0.25500000920E-02 0. -1.
    10030    2    1    2    0    0  0.00000000000E+00  0.00000000000E+00 -0.18579647423E+04  0.28029582494E+04  0.20987000653E+04 0.  0.
        2    1    3    3  502    0 -0.29653168747E+03  0.11827042763E+03 -0.22640278591E+04  0.22864253941E+04  0.25500000920E-02 0. -1.
       -2    1    3    3    0  502  0.29653168747E+03 -0.11827042763E+03  0.40606311683E+03  0.51653285528E+03  0.25500000920E-02 0.  1.
</event>
<event>
 5   0  0.1441136E-05  0.2100563E+04  0.7818609E-02  0.8560995E-01
        2   -1    0    0  501    0  0.00000000000E+00  0.00000000000E+00  0.14193456688E+04  0.14193456688E+04  0.25500000920E-02 0.  1.
       -2   -1    0    0    0  501  0.00000000000E+00  0.00000000000E+00 -0.77718322007E+03  0.77718322007E+03  0.25500000920E-02 0. -1.
    10030    2    1    2    0    0  0.00000000000E+00  0.00000000000E+00  0.64216244870E+03  0.21965288889E+04  0.21005633885E+04 0.  0.
        4    1    3    3  502    0 -0.50961407530E+03  0.10842299631E+03  0.12746799722E+04  0.13770521763E+04  0.12699999809E+01 0.  1.
       -4    1    3    3    0  502  0.50961407530E+03 -0.10842299631E+03 -0.63251752353E+03  0.81947671251E+03  0.12699999809E+01 0. -1.
</event>
<event>
 5   0  0.1390735E-05  0.2102647E+04  0.7818609E-02  0.8560078E-01
        2   -1    0    0  501    0  0.00000000000E+00  0.00000000000E+00  0.10953007931E+04  0.10953007932E+04  0.25500000920E-02 0.  1.
       -2   -1    0    0    0  501  0.00000000000E+00  0.00000000000E+00 -0.10091119269E+04  0.10091119269E+04  0.25500000920E-02 0. -1.
    10030    2    1    2    0    0  0.00000000000E+00  0.00000000000E+00  0.86188866266E+02  0.21044127200E+04  0.21026469926E+04 0.  0.
        5    1    3    3  502    0 -0.95621306179E+03  0.39516265798E+02  0.47860816207E+03  0.10700433718E+04  0.46999998093E+01 0.  1.
       -5    1    3    3    0  502  0.95621306179E+03 -0.39516265798E+02 -0.39241929580E+03  0.10343693482E+04  0.46999998093E+01 0. -1.
</event>
<event>
 5   0  0.1398469E-05  0.2101719E+04  0.7818609E-02  0.8560487E-01
        2   -1    0    0  501    0  0.00000000000E+00  0.00000000000E+00  0.24147135261E+04  0.24147135261E+04  0.25500000920E-02 0.  1.
       -2   -1    0    0    0  501  0.00000000000E+00  0.00000000000E+00 -0.45732362805E+03  0.45732362805E+03  0.25500000920E-02 0. -1.
    10030    2    1    2    0    0  0.00000000000E+00  0.00000000000E+00  0.19573898980E+04  0.28720371541E+04  0.21017188684E+04 0.  0.
        2    1    3    3  502    0  0.10194561399E+04  0.18183777598E+03  0.12229531647E+04  0.16024887647E+04  0.25500000920E-02 0.  1.
       -2    1    3    3    0  502 -0.10194561399E+04 -0.18183777598E+03  0.73443673335E+03  0.12695483895E+04  0.25500000920E-02 0. -1.
</event>
<event>
 5   0  0.1395356E-05  0.2105902E+04  0.7818609E-02  0.8558648E-01
        2   -1    0    0  501    0  0.00000000000E+00  0.00000000000E+00  0.26744219378E+04  0.26744219378E+04  0.25500000920E-02 0.  1.
       -2   -1    0    0    0  501  0.00000000000E+00  0.00000000000E+00 -0.41455892138E+03  0.41455892139E+03  0.25500000920E-02 0. -1.
    10030    2    1    2    0    0  0.00000000000E+00  0.00000000000E+00  0.22598630165E+04  0.30889808592E+04  0.21059016823E+04 0.  0.
        1    1    3    3  502    0 -0.89735806233E+02 -0.53580424375E+03 -0.19311078345E+03  0.57656784271E+03  0.50400001928E-02 0. -1.
       -1    1    3    3    0  502  0.89735806233E+02  0.53580424375E+03  0.24529737999E+04  0.25124130165E+04  0.50400001928E-02 0.  1.
</event>
<event>
 5   0  0.1441136E-05  0.2078880E+04  0.7818609E-02  0.8570604E-01
        2   -1    0    0  501    0  0.00000000000E+00  0.00000000000E+00  0.67497779641E+03  0.67497779641E+03  0.25500000920E-02 0. -1.
       -2   -1    0    0    0  501  0.00000000000E+00  0.00000000000E+00 -0.16006976930E+04  0.16006976930E+04  0.25500000920E-02 0.  1.
    10030    2    1    2    0    0  0.00000000000E+00  0.00000000000E+00 -0.92571989660E+03  0.22756754894E+04  0.20788798922E+04 0.  0.
        4    1    3    3  502    0  0.40368239538E+03 -0.66987448946E+03 -0.12123193126E+04  0.14427096161E+04  0.12699999809E+01 0.  1.
       -4    1    3    3    0  502 -0.40368239538E+03  0.66987448946E+03  0.28659941595E+03  0.83296587330E+03  0.12699999809E+01 0. -1.
</event>
<event>
 5   0  0.1441136E-05  0.2080378E+04  0.7818609E-02  0.8569936E-01
       -2   -1    0    0    0  501  0.00000000000E+00  0.00000000000E+00  0.32876968707E+03  0.32876968708E+03  0.25500000920E-02 0. -1.
        2   -1    0    0  501    0  0.00000000000E+00  0.00000000000E+00 -0.32910376423E+04  0.32910376423E+04  0.25500000920E-02 0.  1.
    10030    2    1    2    0    0  0.00000000000E+00  0.00000000000E+00 -0.29622679552E+04  0.36198073294E+04  0.20803782500E+04 0.  0.
        4    1    3    3  502    0 -0.36185306754E+03 -0.67699875277E+03 -0.27025012104E+04  0.28094090764E+04  0.12699999809E+01 0. -1.
       -4    1    3    3    0  502  0.36185306754E+03  0.67699875277E+03 -0.25976674484E+03  0.81039825294E+03  0.12699999809E+01 0.  1.
</event>
<event>
 5   0  0.1390735E-05  0.2099794E+04  0.7818609E-02  0.8561334E-01
       -2   -1    0    0    0  501  0.00000000000E+00  0.00000000000E+00  0.14024635351E+04  0.14024635351E+04  0.25500000920E-02 0. -1.
        2   -1    0    0  501    0  0.00000000000E+00  0.00000000000E+00 -0.78596276578E+03  0.78596276578E+03  0.25500000920E-02 0.  1.
    10030    2    1    2    0    0  0.00000000000E+00  0.00000000000E+00  0.61650076932E+03  0.21884263009E+04  0.20997943889E+04 0.  0.
        5    1    3    3  502    0 -0.63204939005E+03  0.32132025385E+03  0.11152256312E+04  0.13215458507E+04  0.46999998093E+01 0. -1.
       -5    1    3    3    0  502  0.63204939005E+03 -0.32132025385E+03 -0.49872486191E+03  0.86688045016E+03  0.46999998093E+01 0.  1.
</event>
<event>
 5   0  0.6238363E-06  0.2103915E+04  0.7818609E-02  0.8559521E-01
        1   -1    0    0  501    0  0.00000000000E+00  0.00000000000E+00  0.24541341034E+04  0.24541341034E+04  0.50400001928E-02 0.  1.
       -1   -1    0    0    0  501  0.00000000000E+00  0.00000000000E+00 -0.45091841187E+03  0.45091841190E+03  0.50400001928E-02 0. -1.
    10030    2    1    2    0    0  0.00000000000E+00  0.00000000000E+00  0.20032156916E+04  0.29050525153E+04  0.21039146870E+04 0.  0.
        4    1    3    3  502    0  0.47868750104E+03 -0.45144683229E+03  0.21349169926E+04  0.22340139087E+04  0.12699999809E+01 0.  1.
       -4    1    3    3    0  502 -0.47868750104E+03  0.45144683229E+03 -0.13170130103E+03  0.67103860666E+03  0.12699999809E+01 0. -1.
</event>
<event>
 5   0  0.1390735E-05  0.2093889E+04  0.7818609E-02  0.8563940E-01
       -2   -1    0    0    0  501  0.00000000000E+00  0.00000000000E+00  0.98852283754E+03  0.98852283754E+03  0.25500000920E-02 0. -1.
        2   -1    0    0  501    0  0.00000000000E+00  0.00000000000E+00 -0.11088189621E+04  0.11088189621E+04  0.25500000920E-02 0.  1.
    10030    2    1    2    0    0  0.00000000000E+00  0.00000000000E+00 -0.12029612452E+03  0.20973417996E+04  0.20938890770E+04 0.  0.
        5    1    3    3  502    0  0.93084494592E+03 -0.14132043180E+03  0.39845732215E+03  0.10223669133E+04  0.46999998093E+01 0.  1.
       -5    1    3    3    0  502 -0.93084494592E+03  0.14132043180E+03 -0.51875344667E+03  0.10749748863E+04  0.46999998093E+01 0. -1.
</event>
<event>
 5   0  0.1344501E-05  0.2099199E+04  0.7818609E-02  0.8561597E-01
        2   -1    0    0  501    0  0.00000000000E+00  0.00000000000E+00  0.15327099269E+04  0.15327099269E+04  0.25500000920E-02 0. -1.
       -2   -1    0    0    0  501  0.00000000000E+00  0.00000000000E+00 -0.71876525196E+03  0.71876525197E+03  0.25500000920E-02 0.  1.
    10030    2    1    2    0    0  0.00000000000E+00  0.00000000000E+00  0.81394467492E+03  0.22514751788E+04  0.20991985488E+04 0.  0.
        3    1    3    3  502    0 -0.65004608199E+03 -0.82108139445E+03  0.48223427306E+03  0.11529459958E+04  0.10100000352E+00 0.  1.
       -3    1    3    3    0  502  0.65004608199E+03  0.82108139445E+03  0.33171040186E+03  0.10985291830E+04  0.10100000352E+00 0. -1.
</event>
<event>
 5   0  0.1390735E-05  0.2096317E+04  0.7818609E-02  0.8562867E-01
        2   -1    0    0  501    0  0.00000000000E+00  0.00000000000E+00  0.12589111292E+04  0.12589111292E+04  0.25500000920E-02 0. -1.
       -2   -1    0    0    0  501  0.00000000000E+00  0.00000000000E+00 -0.87268790631E+03  0.87268790631E+03  0.25500000920E-02 0.  1.
    10030    2    1    2    0    0  0.00000000000E+00  0.00000000000E+00  0.38622322293E+03  0.21315990355E+04  0.20963172638E+04 0.  0.
        5    1    3    3  502    0  0.70613542817E+03  0.41635053903E+03 -0.47105798470E+03  0.94545900451E+03  0.46999998093E+01 0.  1.
       -5    1    3    3    0  502 -0.70613542817E+03 -0.41635053903E+03  0.85728120763E+03  0.11861400310E+04  0.46999998093E+01 0. -1.
</event>
<event>
 5   0  0.6283269E-06  0.2095086E+04  0.7818609E-02  0.8563411E-01
       -1   -1    0    0    0  501  0.00000000000E+00  0.00000000000E+00  0.11677987856E+04  0.11677987856E+04  0.50400001928E-02 0.  1.
        1   -1    0    0  501    0  0.00000000000E+00  0.00000000000E+00 -0.93967031148E+03  0.93967031149E+03  0.50400001928E-02 0. -1.
    10030    2    1    2    0    0  0.00000000000E+00  0.00000000000E+00  0.22812847412E+03  0.21074690971E+04  0.20950855339E+04 0.  0.
        1    1    3    3  502    0 -0.84672902089E+03  0.90523966867E+01 -0.50627683733E+03  0.98658411539E+03  0.50400001928E-02 0. -1.
       -1    1    3    3    0  502  0.84672902089E+03 -0.90523966867E+01  0.73440531146E+03  0.11208849817E+04  0.50400001928E-02 0.  1.
</event>
<event>
 5   0  0.6917078E-06  0.2097292E+04  0.7818609E-02  0.8562437E-01
       -1   -1    0    0    0  501  0.00000000000E+00  0.00000000000E+00  0.74077573410E+03  0.74077573411E+03  0.50400001928E-02 0. -1.
        1   -1    0    0  501    0  0.00000000000E+00  0.00000000000E+00 -0.14844687062E+04  0.14844687062E+04  0.50400001928E-02 0.  1.
    10030    2    1    2    0    0  0.00000000000E+00  0.00000000000E+00 -0.74369297213E+03  0.22252444404E+04  0.20972919641E+04 0.  0.
        5    1    3    3  502    0 -0.16753850356E+03  0.98290935643E+03 -0.71639882692E+03  0.12277741333E+04  0.46999998093E+01 0. -1.
       -5    1    3    3    0  502  0.16753850356E+03 -0.98290935643E+03 -0.27294145216E+02  0.99747030708E+03  0.46999998093E+01 0.  1.
</event>
<event>
 5   0  0.6917078E-06  0.2100045E+04  0.7818609E-02  0.8561224E-01
        1   -1    0    0  501    0  0.00000000000E+00  0.00000000000E+00  0.88507499160E+03  0.88507499162E+03  0.50400001928E-02 0. -1.
       -1   -1    0    0    0  501  0.00000000000E+00  0.00000000000E+00 -0.12457102006E+04  0.12457102006E+04  0.50400001928E-02 0.  1.
    10030    2    1    2    0    0  0.00000000000E+00  0.00000000000E+00 -0.36063520901E+03  0.21307851922E+04  0.21000447094E+04 0.  0.
        5    1    3    3  502    0 -0.10434235832E+03  0.40468925300E+03 -0.11576748199E+04  0.12308102201E+04  0.46999998093E+01 0.  1.
       -5    1    3    3    0  502  0.10434235832E+03 -0.40468925300E+03  0.79703961088E+03  0.89997497217E+03  0.46999998093E+01 0. -1.
</event>
<event>
 5   0  0.1395356E-05  0.2102988E+04  0.7818609E-02  0.8559928E-01
       -2   -1    0    0    0  501  0.00000000000E+00  0.00000000000E+00  0.81868812139E+03  0.81868812139E+03  0.25500000920E-02 0.  1.
        2   -1    0    0  501    0  0.00000000000E+00  0.00000000000E+00 -0.13505016830E+04  0.13505016830E+04  0.25500000920E-02 0. -1.
    10030    2    1    2    0    0  0.00000000000E+00  0.00000000000E+00 -0.53181356157E+03  0.21691898044E+04  0.21029880511E+04 0.  0.
        1    1    3    3  502    0  0.15640630840E+03 -0.10021659091E+03 -0.13334427764E+04  0.13463194036E+04  0.50400001928E-02 0. -1.
       -1    1    3    3    0  502 -0.15640630840E+03  0.10021659091E+03  0.80162921484E+03  0.82287040080E+03  0.50400001928E-02 0.  1.
</event>
<event>
 5   0  0.1395356E-05  0.2098902E+04  0.7818609E-02  0.8561727E-01
       -2   -1    0    0    0  501  0.00000000000E+00  0.00000000000E+00  0.91807995757E+03  0.91807995757E+03  0.25500000920E-02 0. -1.
        2   -1    0    0  501    0  0.00000000000E+00  0.00000000000E+00 -0.11996204506E+04  0.11996204506E+04  0.25500000920E-02 0.  1.
    10030    2    1    2    0    0  0.00000000000E+00  0.00000000000E+00 -0.28154049300E+03  0.21177004081E+04  0.20989020867E+04 0.  0.
        1    1    3    3  502    0 -0.87234210114E+03 -0.24499676680E+03 -0.67498694479E+03  0.11298723525E+04  0.50400001928E-02 0.  1.
       -1    1    3    3    0  502  0.87234210114E+03  0.24499676680E+03  0.39344645179E+03  0.98782805570E+03  0.50400001928E-02 0. -1.
</event>
<event>
 5   0  0.6238363E-06  0.2104430E+04  0.7818609E-02  0.8559294E-01
        1   -1    0    0  501    0  0.00000000000E+00  0.00000000000E+00  0.10068055845E+04  0.10068055845E+04  0.50400001928E-02 0.  1.
       -1   -1    0    0    0  501  0.00000000000E+00  0.00000000000E+00 -0.10996730115E+04  0.10996730115E+04  0.50400001928E-02 0. -1.
    10030    2    1    2    0    0  0.00000000000E+00  0.00000000000E+00 -0.92867426944E+02  0.21064785960E+04  0.21044304969E+04 0.  0.
        4    1    3    3  502    0 -0.58487982051E+03 -0.49601335911E+03  0.67471290607E+03  0.10214464134E+04  0.12699999809E+01 0.  1.
       -4    1    3    3    0  502  0.58487982051E+03  0.49601335911E+03 -0.76758033301E+03  0.10850321826E+04  0.12699999809E+01 0. -1.
</event>
<event>
 5   0  0.1398469E-05  0.2102045E+04  0.7818609E-02  0.8560343E-01
       -2   -1    0    0    0  501  0.00000000000E+00  0.00000000000E+00  0.10389623697E+04  0.10389623697E+04  0.25500000920E-02 0.  1.
        2   -1    0    0  501    0  0.00000000000E+00  0.00000000000E+00 -0.10632225054E+04  0.10632225054E+04  0.25500000920E-02 0. -1.
    10030    2    1    2    0    0  0.00000000000E+00  0.00000000000E+00 -0.24260135723E+02  0.21021848751E+04  0.21020448841E+04 0.  0.
        2    1    3    3  502    0  0.77602764942E+03  0.69530797685E+03  0.12563279352E+03  0.10495025937E+04  0.25500000920E-02 0.  1.
       -2    1    3    3    0  502 -0.77602764942E+03 -0.69530797685E+03 -0.14989292925E+03  0.10526822814E+04  0.25500000920E-02 0. -1.
</event>
<event>
 5   0  0.5009125E-06  0.2099296E+04  0.7818609E-02  0.8561554E-01
       -3   -1    0    0    0  501  0.00000000000E+00  0.00000000000E+00  0.97101223282E+03  0.97101223807E+03  0.10100000352E+00 0. -1.
        3   -1    0    0  501    0  0.00000000000E+00  0.00000000000E+00 -0.11346515750E+04  0.11346515795E+04  0.10100000352E+00 0.  1.
    10030    2    1    2    0    0  0.00000000000E+00  0.00000000000E+00 -0.16363934215E+03  0.21056638175E+04  0.20992956624E+04 0.  0.
        4    1    3    3  502    0 -0.70188481305E+03 -0.65183881892E+03  0.34869419030E+03  0.10193749987E+04  0.12699999809E+01 0. -1.
       -4    1    3    3    0  502  0.70188481305E+03  0.65183881892E+03 -0.51233353245E+03  0.10862888189E+04  0.12699999809E+01 0.  1.
</event>
<event>
 5   0  0.1390735E-05  0.2122693E+04  0.7818609E-02  0.8551312E-01
        2   -1    0    0  501    0  0.00000000000E+00  0.00000000000E+00  0.19740799126E+04  0.19740799126E+04  0.25500000920E-02 0. -1.
       -2   -1    0    0    0  501  0.00000000000E+00  0.00000000000E+00 -0.57062325709E+03  0.57062325710E+03  0.25500000920E-02 0.  1.
    10030    2    1    2    0    0  0.00000000000E+00  0.00000000000E+00  0.14034566555E+04  0.25447031697E+04  0.21226925444E+04 0.  0.
        5    1    3    3  502    0  0.99672023839E+03  0.21197034967E+03  0.34600072220E+03  0.10761604214E+04  0.46999998093E+01 0.  1.
       -5    1    3    3    0  502 -0.99672023839E+03 -0.21197034967E+03  0.10574559333E+04  0.14685427483E+04  0.46999998093E+01 0. -1.
</event>
<event>
 5   0  0.1390735E-05  0.2107239E+04  0.7818609E-02  0.8558061E-01
       -2   -1    0    0    0  501  0.00000000000E+00  0.00000000000E+00  0.85514147836E+03  0.85514147837E+03  0.25500000920E-02 0.  1.
        2   -1    0    0  501    0  0.00000000000E+00  0.00000000000E+00 -0.12981643331E+04  0.12981643331E+04  0.25500000920E-02 0. -1.
    10030    2    1    2    0    0  0.00000000000E+00  0.00000000000E+00 -0.44302285470E+03  0.21533058114E+04  0.21072391103E+04 0.  0.
        5    1    3    3  502    0  0.50677011047E+03 -0.11009766084E+03  0.71568325567E+03  0.88383372431E+03  0.46999998093E+01 0.  1.
       -5    1    3    3    0  502 -0.50677011047E+03  0.11009766084E+03 -0.11587061104E+04  0.12694720871E+04  0.46999998093E+01 0. -1.
</event>
<event>
 5   0  0.6283269E-06  0.2143297E+04  0.7818609E-02  0.8542407E-01
       -1   -1    0    0    0  501  0.00000000000E+00  0.00000000000E+00  0.95386649511E+03  0.95386649512E+03  0.50400001928E-02 0.  1.
        1   -1    0    0  501    0  0.00000000000E+00  0.00000000000E+00 -0.12039737674E+04  0.12039737675E+04  0.50400001928E-02 0. -1.
    10030    2    1    2    0    0  0.00000000000E+00  0.00000000000E+00 -0.25010727234E+03  0.21578402626E+04  0.21432967483E+04 0.  0.
        1    1    3    3  502    0 -0.11789759866E+03  0.10651047078E+04 -0.13419019876E+03  0.10799791164E+04  0.50400001928E-02 0.  1.
       -1    1    3    3    0  502  0.11789759866E+03 -0.10651047078E+04 -0.11591707357E+03  0.10778611462E+04  0.50400001928E-02 0. -1.
</event>
<event>
 5   0  0.6238363E-06  0.2102762E+04  0.7818609E-02  0.8560028E-01
       -1   -1    0    0    0  501  0.00000000000E+00  0.00000000000E+00  0.53861846952E+03  0.53861846955E+03  0.50400001928E-02 0.  1.
        1   -1    0    0  501    0  0.00000000000E+00  0.00000000000E+00 -0.20522916230E+04  0.20522916230E+04  0.50400001928E-02 0. -1.
    10030    2    1    2    0    0  0.00000000000E+00  0.00000000000E+00 -0.15136731535E+04  0.25909100925E+04  0.21027621578E+04 0.  0.
        4    1    3    3  502    0 -0.24730408797E+03  0.10057169987E+04 -0.53377196889E+03  0.11651352373E+04  0.12699999809E+01 0.  1.
       -4    1    3    3    0  502  0.24730408797E+03 -0.10057169987E+04 -0.97990118458E+03  0.14257748553E+04  0.12699999809E+01 0. -1.
</event>
<event>
 5   0  0.1344501E-05  0.2085538E+04  0.7818609E-02  0.8567641E-01
       -2   -1    0    0    0  501  0.00000000000E+00  0.00000000000E+00  0.11666526064E+04  0.11666526064E+04  0.25500000920E-02 0. -1.
        2   -1    0    0  501    0  0.00000000000E+00  0.00000000000E+00 -0.93203984391E+03  0.93203984391E+03  0.25500000920E-02 0.  1.
    10030    2    1    2    0    0  0.00000000000E+00  0.00000000000E+00  0.23461276252E+03  0.20986924503E+04  0.20855375453E+04 0.  0.
        3    1    3    3  502    0  0.71117786264E+03 -0.28290787353E+03  0.82997962331E+03  0.11290159443E+04  0.10100000352E+00 0. -1.
       -3    1    3    3    0  502 -0.71117786264E+03  0.28290787353E+03 -0.59536686079E+03  0.96967650603E+03  0.10100000352E+00 0.  1.
</event>
<event>
 5   0  0.1395356E-05  0.2095967E+04  0.7818609E-02  0.8563022E-01
       -2   -1    0    0    0  501  0.00000000000E+00  0.00000000000E+00  0.11687859875E+04  0.11687859875E+04  0.25500000920E-02 0.  1.
        2   -1    0    0  501    0  0.00000000000E+00  0.00000000000E+00 -0.93966669416E+03  0.93966669416E+03  0.25500000920E-02 0. -1.
    10030    2    1    2    0    0  0.00000000000E+00  0.00000000000E+00  0.22911929330E+03  0.21084526816E+04  0.20959668557E+04 0.  0.
        1    1    3    3  502    0 -0.13199573335E+03  0.45046018595E+03  0.10571215682E+04  0.11566517465E+04  0.50400001928E-02 0.  1.
       -1    1    3    3    0  502  0.13199573335E+03 -0.45046018595E+03 -0.82800227491E+03  0.95180093509E+03  0.50400001928E-02 0. -1.
</event>
<event>
 5   0  0.1390735E-05  0.2092598E+04  0.7818609E-02  0.8564511E-01
       -2   -1    0    0    0  501  0.00000000000E+00  0.00000000000E+00  0.79540245255E+03  0.79540245256E+03  0.25500000920E-02 0.  1.
        2   -1    0    0  501    0  0.00000000000E+00  0.00000000000E+00 -0.13763361673E+04  0.13763361673E+04  0.25500000920E-02 0. -1.
    10030    2    1    2    0    0  0.00000000000E+00  0.00000000000E+00 -0.58093371477E+03  0.21717386199E+04  0.20925975849E+04 0.  0.
        5    1    3    3  502    0 -0.64662670438E+03  0.24136893514E+03 -0.11065481150E+04  0.13041686542E+04  0.46999998093E+01 0. -1.
       -5    1    3    3    0  502  0.64662670438E+03 -0.24136893514E+03  0.52561440025E+03  0.86756996572E+03  0.46999998093E+01 0.  1.
</event>
<event>
 5   0  0.1390735E-05  0.2093857E+04  0.7818609E-02  0.8563954E-01
       -2   -1    0    0    0  501  0.00000000000E+00  0.00000000000E+00  0.10236911286E+04  0.10236911286E+04  0.25500000920E-02 0.  1.
        2   -1    0    0  501    0  0.00000000000E+00  0.00000000000E+00 -0.10706935435E+04  0.10706935435E+04  0.25500000920E-02 0. -1.
    10030    2    1    2    0    0  0.00000000000E+00  0.00000000000E+00 -0.47002414917E+02  0.20943846720E+04  0.20938571889E+04 0.  0.
        5    1    3    3  502    0 -0.19313288649E+03  0.72292846390E+03 -0.75588202635E+03  0.10636285082E+04  0.46999998093E+01 0. -1.
       -5    1    3    3    0  502  0.19313288649E+03 -0.72292846390E+03  0.70887961143E+03  0.10307561638E+04  0.46999998093E+01 0.  1.
</event>
<event>
 5   0  0.1344501E-05  0.2117331E+04  0.7818609E-02  0.8553647E-01
        2   -1    0    0  501    0  0.00000000000E+00  0.00000000000E+00  0.11646789655E+04  0.11646789655E+04  0.25500000920E-02 0.  1.
       -2   -1    0    0    0  501  0.00000000000E+00  0.00000000000E+00 -0.96230147872E+03  0.96230147873E+03  0.25500000920E-02 0. -1.
    10030    2    1    2    0    0  0.00000000000E+00  0.00000000000E+00  0.20237748681E+03  0.21269804443E+04  0.21173306693E+04 0.  0.
        3    1    3    3  502    0 -0.98178795962E+01 -0.10101458483E+04 -0.21692665295E+03  0.10332222455E+04  0.10100000352E+00 0. -1.
       -3    1    3    3    0  502  0.98178795962E+01  0.10101458483E+04  0.41930413976E+03  0.10937581988E+04  0.10100000352E+00 0.  1.
</event>
<event>
 5   0  0.1441136E-05  0.2098398E+04  0.7818609E-02  0.8561950E-01
       -2   -1    0    0    0  501  0.00000000000E+00  0.00000000000E+00  0.82018092809E+03  0.82018092809E+03  0.25500000920E-02 0.  1.
        2   -1    0    0  501    0  0.00000000000E+00  0.00000000000E+00 -0.13421651342E+04  0.13421651342E+04  0.25500000920E-02 0. -1.
    10030    2    1    2    0    0  0.00000000000E+00  0.00000000000E+00 -0.52198420612E+03  0.21623460623E+04  0.20983977177E+04 0.  0.
        4    1    3    3  502    0  0.31242782875E+03 -0.42518584250E+03 -0.11955041018E+04  0.13067615770E+04  0.12699999809E+01 0. -1.
       -4    1    3    3    0  502 -0.31242782875E+03  0.42518584250E+03  0.67351989563E+03  0.85558448534E+03  0.12699999809E+01 0.  1.
</event>
<event>
 5   0  0.6917078E-06  0.2099042E+04  0.7818609E-02  0.8561665E-01
       -1   -1    0    0    0  501  0.00000000000E+00  0.00000000000E+00  0.77400927956E+03  0.77400927958E+03  0.50400001928E-02 0.  1.
        1   -1    0    0  501    0  0.00000000000E+00  0.00000000000E+00 -0.14231025017E+04  0.14231025017E+04  0.50400001928E-02 0. -1.
    10030    2    1    2    0    0  0.00000000000E+00  0.00000000000E+00 -0.64909322214E+03  0.21971117813E+04  0.20990422026E+04 0.  0.
        5    1    3    3  502    0 -0.74301044333E+03  0.32092926451E+03 -0.10239038558E+04  0.13051671570E+04  0.46999998093E+01 0. -1.
       -5    1    3    3    0  502  0.74301044333E+03 -0.32092926451E+03  0.37481063368E+03  0.89194462431E+03  0.46999998093E+01 0.  1.
</event>
<event>
 5   0  0.1344501E-05  0.2099634E+04  0.7818609E-02  0.8561405E-01
        2   -1    0    0  501    0  0.00000000000E+00  0.00000000000E+00  0.15283741098E+04  0.15283741098E+04  0.25500000920E-02 0. -1.
       -2   -1    0    0    0  501  0.00000000000E+00  0.00000000000E+00 -0.72110327753E+03  0.72110327753E+03  0.25500000920E-02 0.  1.
    10030    2    1    2    0    0  0.00000000000E+00  0.00000000000E+00  0.80727083222E+03  0.22494773873E+04  0.20996338536E+04 0.  0.
        3    1    3    3  502    0 -0.34215747139E+02 -0.10488408690E+04  0.43537542801E+03  0.11361292442E+04  0.10100000352E+00 0.  1.
       -3    1    3    3    0  502  0.34215747139E+02  0.10488408690E+04  0.37189540422E+03  0.11133481431E+04  0.10100000352E+00 0. -1.
</event>
<event>
 5   0  0.1441136E-05  0.2102195E+04  0.7818609E-02  0.8560277E-01
       -2   -1    0    0    0  501  0.00000000000E+00  0.00000000000E+00  0.17476914938E+04  0.17476914938E+04  0.25500000920E-02 0. -1.
        2   -1    0    0  501    0  0.00000000000E+00  0.00000000000E+00 -0.63215178008E+03  0.63215178009E+03  0.25500000920E-02 0.  1.
    10030    2    1    2    0    0  0.00000000000E+00  0.00000000000E+00  0.11155397137E+04  0.23798432739E+04  0.21021953181E+04 0.  0.
        4    1    3    3  502    0 -0.36769029807E+03 -0.17051873220E+03 -0.54012829440E+03  0.67528733191E+03  0.12699999809E+01 0.  1.
       -4    1    3    3    0  502  0.36769029807E+03  0.17051873220E+03  0.16556680081E+04  0.17045559420E+04  0.12699999809E+01 0. -1.
</event>
<event>
 5   0  0.1395356E-05  0.2069368E+04  0.7818609E-02  0.8574858E-01
       -2   -1    0    0    0  501  0.00000000000E+00  0.00000000000E+00  0.41868028040E+03  0.41868028041E+03  0.25500000920E-02 0.  1.
        2   -1    0    0  501    0  0.00000000000E+00  0.00000000000E+00 -0.25570130923E+04  0.25570130923E+04  0.25500000920E-02 0. -1.
    10030    2    1    2    0    0  0.00000000000E+00  0.00000000000E+00 -0.21383328119E+04  0.29756933727E+04  0.20693679794E+04 0.  0.
        1    1    3    3  502    0 -0.79172713316E+02 -0.87303759726E+03 -0.27879437855E+03  0.91988546586E+03  0.50400001928E-02 0.  1.
       -1    1    3    3    0  502  0.79172713316E+02  0.87303759726E+03 -0.18595384334E+04  0.20558079069E+04  0.50400001928E-02 0. -1.
</event>
<event>
 5   0  0.6238363E-06  0.2097997E+04  0.7818609E-02  0.8562126E-01
       -1   -1    0    0    0  501  0.00000000000E+00  0.00000000000E+00  0.88683039350E+03  0.88683039351E+03  0.50400001928E-02 0.  1.
        1   -1    0    0  501    0  0.00000000000E+00  0.00000000000E+00 -0.12408213140E+04  0.12408213140E+04  0.50400001928E-02 0. -1.
    10030    2    1    2    0    0  0.00000000000E+00  0.00000000000E+00 -0.35399092049E+03  0.21276517075E+04  0.20979971918E+04 0.  0.
        4    1    3    3  502    0  0.66603599446E+03  0.68869122387E+03  0.25623937703E+03  0.99174582379E+03  0.12699999809E+01 0.  1.
       -4    1    3    3    0  502 -0.66603599446E+03 -0.68869122387E+03 -0.61023029752E+03  0.11359058837E+04  0.12699999809E+01 0. -1.
</event>
<event>
 5   0  0.1344501E-05  0.2102397E+04  0.7818609E-02  0.8560188E-01
        2   -1    0    0  501    0  0.00000000000E+00  0.00000000000E+00  0.25616782199E+04  0.25616782199E+04  0.25500000920E-02 0. -1.
       -2   -1    0    0    0  501  0.00000000000E+00  0.00000000000E+00 -0.43136490106E+03  0.43136490107E+03  0.25500000920E-02 0.  1.
    10030    2    1    2    0    0  0.00000000000E+00  0.00000000000E+00  0.21303133188E+04  0.29930431209E+04  0.21023967959E+04 0.  0.
        3    1    3    3  502    0  0.50328832676E+03  0.85478743957E+03  0.15604857994E+04  0.18490745380E+04  0.10100000352E+00 0. -1.
       -3    1    3    3    0  502 -0.50328832676E+03 -0.85478743957E+03  0.56982751942E+03  0.11439685830E+04  0.10100000352E+00 0.  1.
</event>
<event>
 5   0  0.1390735E-05  0.2098638E+04  0.7818609E-02  0.8561843E-01
       -2   -1    0    0    0  501  0.00000000000E+00  0.00000000000E+00  0.11917112263E+04  0.11917112263E+04  0.25500000920E-02 0. -1.
        2   -1    0    0  501    0  0.00000000000E+00  0.00000000000E+00 -0.92394095971E+03  0.92394095972E+03  0.25500000920E-02 0.  1.
    10030    2    1    2    0    0  0.00000000000E+00  0.00000000000E+00  0.26777026661E+03  0.21156521860E+04  0.20986384292E+04 0.  0.
        5    1    3    3  502    0  0.53025841428E+03 -0.94613587601E+02  0.10416982659E+04  0.11727246412E+04  0.46999998093E+01 0. -1.
       -5    1    3    3    0  502 -0.53025841428E+03  0.94613587601E+02 -0.77392799925E+03  0.94292754488E+03  0.46999998093E+01 0.  1.
</event>
<event>
 5   0  0.6589193E-06  0.2104512E+04  0.7818609E-02  0.8559258E-01
        1   -1    0    0  501    0  0.00000000000E+00  0.00000000000E+00  0.13137521393E+04  0.13137521393E+04  0.50400001928E-02 0. -1.
       -1   -1    0    0    0  501  0.00000000000E+00  0.00000000000E+00 -0.84280938074E+03  0.84280938075E+03  0.50400001928E-02 0.  1.
    10030    2    1    2    0    0  0.00000000000E+00  0.00000000000E+00  0.47094275860E+03  0.21565615201E+04  0.21045119406E+04 0.  0.
        3    1    3    3  502    0 -0.92752270646E+03 -0.44180535338E+03  0.23537151619E+01  0.10273732970E+04  0.10100000352E+00 0. -1.
       -3    1    3    3    0  502  0.92752270646E+03  0.44180535338E+03  0.46858904344E+03  0.11291882231E+04  0.10100000352E+00 0.  1.
</event>
<event>
 5   0  0.5009125E-06  0.2099679E+04  0.7818609E-02  0.8561385E-01
       -3   -1    0    0    0  501  0.00000000000E+00  0.00000000000E+00  0.90973811661E+03  0.90973812222E+03  0.10100000352E+00 0. -1.
        3   -1    0    0  501    0  0.00000000000E+00  0.00000000000E+00 -0.12115165774E+04  0.12115165816E+04  0.10100000352E+00 0.  1.
    10030    2    1    2    0    0  0.00000000000E+00  0.00000000000E+00 -0.30177846081E+03  0.21212547039E+04  0.20996788515E+04 0.  0.
        5    1    3    3  502    0  0.18744573317E+03  0.28272124161E+03  0.85283566603E+03  0.91783330001E+03  0.46999998093E+01 0. -1.
       -5    1    3    3    0  502 -0.18744573317E+03 -0.28272124161E+03 -0.11546141268E+04  0.12034214039E+04  0.46999998093E+01 0.  1.
</event>
<event>
 5   0  0.6238363E-06  0.2098952E+04  0.7818609E-02  0.8561705E-01
       -1   -1    0    0    0  501  0.00000000000E+00  0.00000000000E+00  0.74939898378E+03  0.74939898380E+03  0.50400001928E-02 0. -1.
        1   -1    0    0  501    0  0.00000000000E+00  0.00000000000E+00 -0.14697105355E+04  0.14697105355E+04  0.50400001928E-02 0.  1.
    10030    2    1    2    0    0  0.00000000000E+00  0.00000000000E+00 -0.72031155173E+03  0.22191095193E+04  0.20989517210E+04 0.  0.
        4    1    3    3  502    0 -0.68469446653E+03 -0.79443856358E+03 -0.40053685286E+03  0.11226622498E+04  0.12699999809E+01 0.  1.
       -4    1    3    3    0  502  0.68469446653E+03  0.79443856358E+03 -0.31977469887E+03  0.10964472695E+04  0.12699999809E+01 0. -1.
</event>
<event>
 5   0  0.1441136E-05  0.2097990E+04  0.7818609E-02  0.8562129E-01
        2   -1    0    0  501    0  0.00000000000E+00  0.00000000000E+00  0.16318021853E+04  0.16318021853E+04  0.25500000920E-02 0. -1.
       -2   -1    0    0    0  501  0.00000000000E+00  0.00000000000E+00 -0.67434087322E+03  0.67434087323E+03  0.25500000920E-02 0.  1.
    10030    2    1    2    0    0  0.00000000000E+00  0.00000000000E+00  0.95746131208E+03  0.23061430585E+04  0.20979903818E+04 0.  0.
        4    1    3    3  502    0 -0.71972399515E+03 -0.73362763914E+03  0.70976770389E+03  0.12489931739E+04  0.12699999809E+01 0.  1.
       -4    1    3    3    0  502  0.71972399515E+03  0.73362763914E+03  0.24769360819E+03  0.10571498846E+04  0.12699999809E+01 0. -1.
</event>
<event>
 5   0  0.6589193E-06  0.2085624E+04  0.7818609E-02  0.8567603E-01
        1   -1    0    0  501    0  0.00000000000E+00  0.00000000000E+00  0.16368221995E+04  0.16368221995E+04  0.50400001928E-02 0.  1.
       -1   -1    0    0    0  501  0.00000000000E+00  0.00000000000E+00 -0.66437052356E+03  0.66437052358E+03  0.50400001928E-02 0. -1.
    10030    2    1    2    0    0  0.00000000000E+00  0.00000000000E+00  0.97245167597E+03  0.23011927231E+04  0.20856235727E+04 0.  0.
        3    1    3    3  502    0 -0.42981964186E+03  0.87817296057E+03  0.86079232172E+02  0.98150003445E+03  0.10100000352E+00 0. -1.
       -3    1    3    3    0  502  0.42981964186E+03 -0.87817296057E+03  0.88637244380E+03  0.13196926887E+04  0.10100000352E+00 0.  1.
</event>
<event>
 5   0  0.1390735E-05  0.2111732E+04  0.7818609E-02  0.8556093E-01
       -2   -1    0    0    0  501  0.00000000000E+00  0.00000000000E+00  0.11733004732E+04  0.11733004732E+04  0.25500000920E-02 0.  1.
        2   -1    0    0  501    0  0.00000000000E+00  0.00000000000E+00 -0.95018554168E+03  0.95018554168E+03  0.25500000920E-02 0. -1.
    10030    2    1    2    0    0  0.00000000000E+00  0.00000000000E+00  0.22311493153E+03  0.21234860149E+04  0.21117321285E+04 0.  0.
        5    1    3    3  502    0  0.93069177127E+03  0.49496489110E+03  0.50775687210E+02  0.10553566586E+04  0.46999998093E+01 0.  1.
       -5    1    3    3    0  502 -0.93069177127E+03 -0.49496489110E+03  0.17233924432E+03  0.10681293562E+04  0.46999998093E+01 0. -1.
</event>
<event>
 5   0  0.1398469E-05  0.2118921E+04  0.7818609E-02  0.8552954E-01
        2   -1    0    0  501    0  0.00000000000E+00  0.00000000000E+00  0.76421236642E+03  0.76421236642E+03  0.25500000920E-02 0. -1.
       -2   -1    0    0    0  501  0.00000000000E+00  0.00000000000E+00 -0.14687754341E+04  0.14687754341E+04  0.25500000920E-02 0.  1.
    10030    2    1    2    0    0  0.00000000000E+00  0.00000000000E+00 -0.70456306763E+03  0.22329878005E+04  0.21189208104E+04 0.  0.
        2    1    3    3  502    0 -0.13148422080E+03 -0.50346270899E+03 -0.13248345910E+04  0.14233585258E+04  0.25500000920E-02 0.  1.
       -2    1    3    3    0  502  0.13148422080E+03  0.50346270899E+03  0.62027152333E+03  0.80962927463E+03  0.25500000920E-02 0. -1.
</event>
<event>
 5   0  0.1390735E-05  0.2098726E+04  0.7818609E-02  0.8561805E-01
       -2   -1    0    0    0  501  0.00000000000E+00  0.00000000000E+00  0.61611986978E+03  0.61611986979E+03  0.25500000920E-02 0. -1.
        2   -1    0    0  501    0  0.00000000000E+00  0.00000000000E+00 -0.17872534330E+04  0.17872534330E+04  0.25500000920E-02 0.  1.
    10030    2    1    2    0    0  0.00000000000E+00  0.00000000000E+00 -0.11711335632E+04  0.24033733028E+04  0.20987256633E+04 0.  0.
        5    1    3    3  502    0  0.86034909553E+03 -0.35504015503E+03 -0.11405684596E+04  0.14721319842E+04  0.46999998093E+01 0. -1.
       -5    1    3    3    0  502 -0.86034909553E+03  0.35504015503E+03 -0.30565103591E+02  0.93124131857E+03  0.46999998093E+01 0.  1.
</event>
<event>
 5   0  0.6589193E-06  0.2097322E+04  0.7818609E-02  0.8562424E-01
        1   -1    0    0  501    0  0.00000000000E+00  0.00000000000E+00  0.10643645216E+04  0.10643645216E+04  0.50400001928E-02 0. -1.
       -1   -1    0    0    0  501  0.00000000000E+00  0.00000000000E+00 -0.10331893339E+04  0.10331893339E+04  0.50400001928E-02 0.  1.
    10030    2    1    2    0    0  0.00000000000E+00  0.00000000000E+00  0.31175187650E+02  0.20975538555E+04  0.20973221699E+04 0.  0.
        3    1    3    3  502    0 -0.75113386284E+03  0.61897263177E+03 -0.37478982071E+03  0.10429748888E+04  0.10100000352E+00 0.  1.
       -3    1    3    3    0  502  0.75113386284E+03 -0.61897263177E+03  0.40596500836E+03  0.10545789667E+04  0.10100000352E+00 0. -1.
</event>
<event>
 5   0  0.6238363E-06  0.2105970E+04  0.7818609E-02  0.8558618E-01
       -1   -1    0    0    0  501  0.00000000000E+00  0.00000000000E+00  0.10598065989E+04  0.10598065989E+04  0.50400001928E-02 0. -1.
        1   -1    0    0  501    0  0.00000000000E+00  0.00000000000E+00 -0.10462075504E+04  0.10462075505E+04  0.50400001928E-02 0.  1.
    10030    2    1    2    0    0  0.00000000000E+00  0.00000000000E+00  0.13599048404E+02  0.21060141493E+04  0.21059702427E+04 0.  0.
        4    1    3    3  502    0 -0.34075448571E+03 -0.78277439758E+03 -0.60959525019E+03  0.10490268629E+04  0.12699999809E+01 0. -1.
       -4    1    3    3    0  502  0.34075448571E+03  0.78277439758E+03  0.62319429859E+03  0.10569872865E+04  0.12699999809E+01 0.  1.
</event>
<event>
 5   0  0.1344501E-05  0.2108798E+04  0.7818609E-02  0.8557378E-01
       -2   -1    0    0    0  501  0.00000000000E+00  0.00000000000E+00  0.78783105389E+03  0.78783105389E+03  0.25500000920E-02 0. -1.
        2   -1    0    0  501    0  0.00000000000E+00  0.00000000000E+00 -0.14111625001E+04  0.14111625001E+04  0.25500000920E-02 0.  1.
    10030    2    1    2    0    0  0.00000000000E+00  0.00000000000E+00 -0.62333144618E+03  0.21989935540E+04  0.21087983684E+04 0.  0.
        3    1    3    3  502    0  0.29506013105E+03  0.96189553807E+03  0.17186130424E+02  0.10062797227E+04  0.10100000352E+00 0. -1.
       -3    1    3    3    0  502 -0.29506013105E+03 -0.96189553807E+03 -0.64051757661E+03  0.11927138312E+04  0.10100000352E+00 0.  1.
</event>
<event>
 5   0  0.6599245E-06  0.2099868E+04  0.7818609E-02  0.8561302E-01
       -1   -1    0    0    0  501  0.00000000000E+00  0.00000000000E+00  0.44712135609E+03  0.44712135612E+03  0.50400001928E-02 0.  1.
        1   -1    0    0  501    0  0.00000000000E+00  0.00000000000E+00 -0.24654633671E+04  0.24654633671E+04  0.50400001928E-02 0. -1.
    10030    2    1    2    0    0  0.00000000000E+00  0.00000000000E+00 -0.20183420110E+04  0.29125847232E+04  0.20998679236E+04 0.  0.
        2    1    3    3  502    0  0.79492953040E+03  0.68578957686E+03 -0.99269961898E+03  0.14448781387E+04  0.25500000920E-02 0. -1.
       -2    1    3    3    0  502 -0.79492953040E+03 -0.68578957686E+03 -0.10256423920E+04  0.14677065845E+04  0.25500000920E-02 0.  1.
</event>
<event>
 5   0  0.1441136E-05  0.2105089E+04  0.7818609E-02  0.8559005E-01
       -2   -1    0    0    0  501  0.00000000000E+00  0.00000000000E+00  0.83176841170E+03  0.83176841170E+03  0.25500000920E-02 0. -1.
        2   -1    0    0  501    0  0.00000000000E+00  0.00000000000E+00 -0.13319208658E+04  0.13319208658E+04  0.25500000920E-02 0.  1.
    10030    2    1    2    0    0  0.00000000000E+00  0.00000000000E+00 -0.50015245412E+03  0.21636892775E+04  0.21050887897E+04 0.  0.
        4    1    3    3  502    0 -0.33175278952E+03 -0.73239366323E+03  0.44808781955E+03  0.92045896064E+03  0.12699999809E+01 0. -1.
       -4    1    3    3    0  502  0.33175278952E+03  0.73239366323E+03 -0.94824027368E+03  0.12432303169E+04  0.12699999809E+01 0.  1.
</event>
<event>
 5   0  0.6238363E-06  0.2096791E+04  0.7818609E-02  0.8562658E-01
        1   -1    0    0  501    0  0.00000000000E+00  0.00000000000E+00  0.19964114113E+04  0.19964114113E+04  0.50400001928E-02 0. -1.
       -1   -1    0    0    0  501  0.00000000000E+00  0.00000000000E+00 -0.55055462515E+03  0.55055462517E+03  0.50400001928E-02 0.  1.
    10030    2    1    2    0    0  0.00000000000E+00  0.00000000000E+00  0.14458567862E+04  0.25469660365E+04  0.20967913928E+04 0.  0.
        4    1    3    3  502    0  0.44974358711E+03 -0.22923206104E+02 -0.42708693343E+03  0.62064452719E+03  0.12699999809E+01 0.  1.
       -4    1    3    3    0  502 -0.44974358711E+03  0.22923206104E+02  0.18729437196E+04  0.19263215093E+04  0.12699999809E+01 0. -1.
</event>
<event>
 5   0  0.6283269E-06  0.2100141E+04  0.7818609E-02  0.8561181E-01
        1   -1    0    0  501    0  0.00000000000E+00  0.00000000000E+00  0.22995273287E+04  0.22995273287E+04  0.50400001928E-02 0. -1.
       -1   -1    0    0    0  501  0.00000000000E+00  0.00000000000E+00 -0.47951083479E+03  0.47951083482E+03  0.50400001928E-02 0.  1.
    10030    2    1    2    0    0  0.00000000000E+00  0.00000000000E+00  0.18200164939E+04  0.27790381636E+04  0.21001412039E+04 0.  0.
        1    1    3    3  502    0 -0.22348346339E+03 -0.80367030752E+03  0.66001729282E+02  0.83677180276E+03  0.50400001928E-02 0.  1.
       -1    1    3    3    0  502  0.22348346339E+03  0.80367030752E+03  0.17540147647E+04  0.19422663608E+04  0.50400001928E-02 0. -1.
</event>
<event>
 5   0  0.6917078E-06  0.2096695E+04  0.7818609E-02  0.8562700E-01
        1   -1    0    0  501    0  0.00000000000E+00  0.00000000000E+00  0.10291589930E+04  0.10291589930E+04  0.50400001928E-02 0.  1.
       -1   -1    0    0    0  501  0.00000000000E+00  0.00000000000E+00 -0.10678942588E+04  0.10678942588E+04  0.50400001928E-02 0. -1.
    10030    2    1    2    0    0  0.00000000000E+00  0.00000000000E+00 -0.38735265798E+02  0.20970532518E+04  0.20966954762E+04 0.  0.
        5    1    3    3  502    0  0.28367379313E+02 -0.98300736017E+03 -0.38261373496E+03  0.10552362477E+04  0.46999998093E+01 0.  1.
       -5    1    3    3    0  502 -0.28367379313E+02  0.98300736017E+03  0.34387846916E+03  0.10418170040E+04  0.46999998093E+01 0. -1.
</event>
<event>
 5   0  0.6589193E-06  0.2100088E+04  0.7818609E-02  0.8561204E-01
       -1   -1    0    0    0  501  0.00000000000E+00  0.00000000000E+00  0.85210438272E+03  0.85210438273E+03  0.50400001928E-02 0. -1.
        1   -1    0    0  501    0  0.00000000000E+00  0.00000000000E+00 -0.12939643350E+04  0.12939643350E+04  0.50400001928E-02 0.  1.
    10030    2    1    2    0    0  0.00000000000E+00  0.00000000000E+00 -0.44185995232E+03  0.21460687178E+04  0.21000882658E+04 0.  0.
        3    1    3    3  502    0  0.45326758878E+03 -0.82989359475E+03 -0.68745341038E+03  0.11690881435E+04  0.10100000352E+00 0.  1.
       -3    1    3    3    0  502 -0.45326758878E+03  0.82989359475E+03  0.24559345806E+03  0.97698057427E+03  0.10100000352E+00 0. -1.
</event>
<event>
 5   0  0.1398469E-05  0.2099510E+04  0.7818609E-02  0.8561459E-01
        2   -1    0    0  501    0  0.00000000000E+00  0.00000000000E+00  0.14161743675E+04  0.14161743675E+04  0.25500000920E-02 0.  1.
       -2   -1    0    0    0  501  0.00000000000E+00  0.00000000000E+00 -0.77814253594E+03  0.77814253594E+03  0.25500000920E-02 0. -1.
    10030    2    1    2    0    0  0.00000000000E+00  0.00000000000E+00  0.63803183157E+03  0.21943169035E+04  0.20995099558E+04 0.  0.
        2    1    3    3  502    0 -0.21190629241E+02  0.32527175339E+03 -0.72390948198E+03  0.79391164144E+03  0.25500000920E-02 0. -1.
       -2    1    3    3    0  502  0.21190629241E+02 -0.32527175339E+03  0.13619413135E+04  0.14004052620E+04  0.25500000920E-02 0.  1.
</event>
<event>
 5   0  0.6238363E-06  0.2097516E+04  0.7818609E-02  0.8562338E-01
        1   -1    0    0  501    0  0.00000000000E+00  0.00000000000E+00  0.11266242196E+04  0.11266242196E+04  0.50400001928E-02 0.  1.
       -1   -1    0    0    0  501  0.00000000000E+00  0.00000000000E+00 -0.97627366482E+03  0.97627366483E+03  0.50400001928E-02 0. -1.
    10030    2    1    2    0    0  0.00000000000E+00  0.00000000000E+00  0.15035055480E+03  0.21028978845E+04  0.20975162033E+04 0.  0.
        4    1    3    3  502    0  0.67733754735E+02 -0.34947602199E+03  0.10642004556E+04  0.11221611177E+04  0.12699999809E+01 0.  1.
       -4    1    3    3    0  502 -0.67733754735E+02  0.34947602199E+03 -0.91384990083E+03  0.98073676673E+03  0.12699999809E+01 0. -1.
</event>
<event>
 5   0  0.1344501E-05  0.2109186E+04  0.7818609E-02  0.8557208E-01
        2   -1    0    0  501    0  0.00000000000E+00  0.00000000000E+00  0.19283516241E+04  0.19283516241E+04  0.25500000920E-02 0.  1.
       -2   -1    0    0    0  501  0.00000000000E+00  0.00000000000E+00 -0.57674433762E+03  0.57674433763E+03  0.25500000920E-02 0. -1.
    10030    2    1    2    0    0  0.00000000000E+00  0.00000000000E+00  0.13516072865E+04  0.25050959617E+04  0.21091855112E+04 0.  0.
        3    1    3    3  502    0 -0.13251730298E+03 -0.70969939710E+03 -0.23721210443E+03  0.75993661744E+03  0.10100000352E+00 0. -1.
       -3    1    3    3    0  502  0.13251730298E+03  0.70969939710E+03  0.15888193909E+04  0.17451593443E+04  0.10100000352E+00 0.  1.
</event>
<event>
 5   0  0.1441136E-05  0.2101951E+04  0.7818609E-02  0.8560384E-01
        2   -1    0    0  501    0  0.00000000000E+00  0.00000000000E+00  0.90945487437E+03  0.90945487438E+03  0.25500000920E-02 0. -1.
       -2   -1    0    0    0  501  0.00000000000E+00  0.00000000000E+00 -0.12145183603E+04  0.12145183603E+04  0.25500000920E-02 0.  1.
    10030    2    1    2    0    0  0.00000000000E+00  0.00000000000E+00 -0.30506348594E+03  0.21239732347E+04  0.21019511344E+04 0.  0.
        4    1    3    3  502    0  0.22134658181E+03 -0.21515594820E+03  0.86261378879E+03  0.91618259798E+03  0.12699999809E+01 0. -1.
       -4    1    3    3    0  502 -0.22134658181E+03  0.21515594820E+03 -0.11676772747E+04  0.12077906367E+04  0.12699999809E+01 0.  1.
</event>
<event>
 5   0  0.6283269E-06  0.2097470E+04  0.7818609E-02  0.8562359E-01
        1   -1    0    0  501    0  0.00000000000E+00  0.00000000000E+00  0.93321173306E+03  0.93321173308E+03  0.50400001928E-02 0.  1.
       -1   -1    0    0    0  501  0.00000000000E+00  0.00000000000E+00 -0.11785590476E+04  0.11785590476E+04  0.50400001928E-02 0. -1.
    10030    2    1    2    0    0  0.00000000000E+00  0.00000000000E+00 -0.24534731456E+03  0.21117707807E+04  0.20974700297E+04 0.  0.
        1    1    3    3  502    0  0.47628183876E+02  0.65472186691E+03 -0.94612282136E+03  0.11515544104E+04  0.50400001928E-02 0. -1.
       -1    1    3    3    0  502 -0.47628183876E+02 -0.65472186691E+03  0.70077550681E+03  0.96021637034E+03  0.50400001928E-02 0.  1.
</event>
<event>
 5   0  0.1390735E-05  0.2106942E+04  0.7818609E-02  0.8558192E-01
       -2   -1    0    0    0  501  0.00000000000E+00  0.00000000000E+00  0.87411143978E+03  0.87411143978E+03  0.25500000920E-02 0.  1.
        2   -1    0    0  501    0  0.00000000000E+00  0.00000000000E+00 -0.12696329725E+04  0.12696329725E+04  0.25500000920E-02 0. -1.
    10030    2    1    2    0    0  0.00000000000E+00  0.00000000000E+00 -0.39552153271E+03  0.21437444123E+04  0.21069415802E+04 0.  0.
        5    1    3    3  502    0  0.24452418926E+03 -0.18178431270E+03 -0.12238104481E+04  0.12611787020E+04  0.46999998093E+01 0. -1.
       -5    1    3    3    0  502 -0.24452418926E+03  0.18178431270E+03  0.82828891543E+03  0.88256571024E+03  0.46999998093E+01 0.  1.
</event>
<event>
 5   0  0.5009125E-06  0.2099793E+04  0.7818609E-02  0.8561335E-01
        3   -1    0    0  501    0  0.00000000000E+00  0.00000000000E+00  0.88318992903E+03  0.88318993480E+03  0.10100000352E+00 0.  1.
       -3   -1    0    0    0  501  0.00000000000E+00  0.00000000000E+00 -0.12480698436E+04  0.12480698477E+04  0.10100000352E+00 0. -1.
    10030    2    1    2    0    0  0.00000000000E+00  0.00000000000E+00 -0.36487991455E+03  0.21312597825E+04  0.20997930632E+04 0.  0.
        3    1    3    3  502    0  0.42023666967E+03 -0.30774693254E+03 -0.11076792136E+04  0.12240344290E+04  0.10100000352E+00 0. -1.
       -3    1    3    3    0  502 -0.42023666967E+03  0.30774693254E+03  0.74279929905E+03  0.90722535343E+03  0.10100000352E+00 0.  1.
</event>
<event>
 5   0  0.1395356E-05  0.2100231E+04  0.7818609E-02  0.8561142E-01
        2   -1    0    0  501    0  0.00000000000E+00  0.00000000000E+00  0.10778465471E+04  0.10778465471E+04  0.25500000920E-02 0.  1.
       -2   -1    0    0    0  501  0.00000000000E+00  0.00000000000E+00 -0.10230975503E+04  0.10230975503E+04  0.25500000920E-02 0. -1.
    10030    2    1    2    0    0  0.00000000000E+00  0.00000000000E+00  0.54748996718E+02  0.21009440974E+04  0.21002306178E+04 0.  0.
        1    1    3    3  502    0 -0.87940391085E+03 -0.52529446531E+03 -0.20391098417E+03  0.10444449259E+04  0.50400001928E-02 0. -1.
       -1    1    3    3    0  502  0.87940391085E+03  0.52529446531E+03  0.25865998089E+03  0.10564991715E+04  0.50400001928E-02 0.  1.
</event>
<event>
 5   0  0.1344501E-05  0.2095900E+04  0.7818609E-02  0.8563051E-01
       -2   -1    0    0    0  501  0.00000000000E+00  0.00000000000E+00  0.83371033092E+03  0.83371033092E+03  0.25500000920E-02 0. -1.
        2   -1    0    0  501    0  0.00000000000E+00  0.00000000000E+00 -0.13172434951E+04  0.13172434951E+04  0.25500000920E-02 0.  1.
    10030    2    1    2    0    0  0.00000000000E+00  0.00000000000E+00 -0.48353316422E+03  0.21509538261E+04  0.20959002937E+04 0.  0.
        3    1    3    3  502    0 -0.11381353494E+02  0.56315519870E+03  0.66514607337E+03  0.87160347760E+03  0.10100000352E+00 0. -1.
       -3    1    3    3    0  502  0.11381353494E+02 -0.56315519870E+03 -0.11486792376E+04  0.12793503485E+04  0.10100000352E+00 0.  1.
</event>
<event>
 5   0  0.6283269E-06  0.2111426E+04  0.7818609E-02  0.8556227E-01
       -1   -1    0    0    0  501  0.00000000000E+00  0.00000000000E+00  0.12196569722E+04  0.12196569723E+04  0.50400001928E-02 0.  1.
        1   -1    0    0  501    0  0.00000000000E+00  0.00000000000E+00 -0.91380641916E+03  0.91380641917E+03  0.50400001928E-02 0. -1.
    10030    2    1    2    0    0  0.00000000000E+00  0.00000000000E+00  0.30585055309E+03  0.21334633914E+04  0.21114264093E+04 0.  0.
        1    1    3    3  502    0 -0.40144201419E+00  0.28219823404E+03 -0.87498985005E+03  0.91937111232E+03  0.50400001928E-02 0. -1.
       -1    1    3    3    0  502  0.40144201419E+00 -0.28219823404E+03  0.11808404031E+04  0.12140922791E+04  0.50400001928E-02 0.  1.
</event>
<event>
 5   0  0.6599245E-06  0.2100910E+04  0.7818609E-02  0.8560842E-01
       -1   -1    0    0    0  501  0.00000000000E+00  0.00000000000E+00  0.10397382259E+04  0.10397382260E+04  0.50400001928E-02 0.  1.
        1   -1    0    0  501    0  0.00000000000E+00  0.00000000000E+00 -0.10612825622E+04  0.10612825622E+04  0.50400001928E-02 0. -1.
    10030    2    1    2    0    0  0.00000000000E+00  0.00000000000E+00 -0.21544336292E+02  0.21010207882E+04  0.21009103251E+04 0.  0.
        2    1    3    3  502    0  0.20685177750E+03  0.70616599851E+03 -0.76047682532E+03  0.10581980331E+04  0.25500000920E-02 0. -1.
       -2    1    3    3    0  502 -0.20685177750E+03 -0.70616599851E+03  0.73893248902E+03  0.10428227551E+04  0.25500000920E-02 0.  1.
</event>
<event>
 5   0  0.1395356E-05  0.2100654E+04  0.7818609E-02  0.8560955E-01
       -2   -1    0    0    0  501  0.00000000000E+00  0.00000000000E+00  0.63237023544E+03  0.63237023545E+03  0.25500000920E-02 0. -1.
        2   -1    0    0  501    0  0.00000000000E+00  0.00000000000E+00 -0.17445272688E+04  0.17445272688E+04  0.25500000920E-02 0.  1.
    10030    2    1    2    0    0  0.00000000000E+00  0.00000000000E+00 -0.11121570333E+04  0.23768975042E+04  0.21006542978E+04 0.  0.
        1    1    3    3  502    0  0.55346171408E+03  0.69361945185E+03  0.79741136202E+02  0.89094694666E+03  0.50400001928E-02 0. -1.
       -1    1    3    3    0  502 -0.55346171408E+03 -0.69361945185E+03 -0.11918981695E+04  0.14859505575E+04  0.50400001928E-02 0.  1.
</event>
<event>
 5   0  0.1344501E-05  0.2099531E+04  0.7818609E-02  0.8561450E-01
        2   -1    0    0  501    0  0.00000000000E+00  0.00000000000E+00  0.14219064790E+04  0.14219064790E+04  0.25500000920E-02 0.  1.
       -2   -1    0    0    0  501  0.00000000000E+00  0.00000000000E+00 -0.77502085023E+03  0.77502085024E+03  0.25500000920E-02 0. -1.
    10030    2    1    2    0    0  0.00000000000E+00  0.00000000000E+00  0.64688562873E+03  0.21969273292E+04  0.20995305840E+04 0.  0.
        3    1    3    3  502    0 -0.74086450096E+02  0.46403798822E+03  0.13057052861E+04  0.13876910178E+04  0.10100000352E+00 0.  1.
       -3    1    3    3    0  502  0.74086450096E+02 -0.46403798822E+03 -0.65881965734E+03  0.80923631141E+03  0.10100000352E+00 0. -1.
</event>
<event>
 5   0  0.6917078E-06  0.2098304E+04  0.7818609E-02  0.8561991E-01
        1   -1    0    0  501    0  0.00000000000E+00  0.00000000000E+00  0.11442356345E+04  0.11442356345E+04  0.50400001928E-02 0.  1.
       -1   -1    0    0    0  501  0.00000000000E+00  0.00000000000E+00 -0.96197005021E+03  0.96197005023E+03  0.50400001928E-02 0. -1.
    10030    2    1    2    0    0  0.00000000000E+00  0.00000000000E+00  0.18226558426E+03  0.21062056847E+04  0.20983044686E+04 0.  0.
        5    1    3    3  502    0  0.37611103575E+02 -0.34253395669E+03 -0.90353463069E+03  0.96702690007E+03  0.46999998093E+01 0. -1.
       -5    1    3    3    0  502 -0.37611103575E+02  0.34253395669E+03  0.10858002149E+04  0.11391787846E+04  0.46999998093E+01 0.  1.
</event>
<event>
 5   0  0.1344501E-05  0.2106416E+04  0.7818609E-02  0.8558422E-01
       -2   -1    0    0    0  501  0.00000000000E+00  0.00000000000E+00  0.13569852498E+04  0.13569852498E+04  0.25500000920E-02 0.  1.
        2   -1    0    0  501    0  0.00000000000E+00  0.00000000000E+00 -0.81743495114E+03  0.81743495114E+03  0.25500000920E-02 0. -1.
    10030    2    1    2    0    0  0.00000000000E+00  0.00000000000E+00  0.53955029866E+03  0.21744202009E+04  0.21064160761E+04 0.  0.
        3    1    3    3  502    0 -0.83534290876E+03 -0.20119102016E+03 -0.35896272331E+03  0.93119807170E+03  0.10100000352E+00 0. -1.
       -3    1    3    3    0  502  0.83534290876E+03  0.20119102016E+03  0.89851302196E+03  0.12432221292E+04  0.10100000352E+00 0.  1.
</event>
<event>
 5   0  0.6599245E-06  0.2098465E+04  0.7818609E-02  0.8561920E-01
        1   -1    0    0  501    0  0.00000000000E+00  0.00000000000E+00  0.17638835812E+04  0.17638835812E+04  0.50400001928E-02 0. -1.
       -1   -1    0    0    0  501  0.00000000000E+00  0.00000000000E+00 -0.62412803572E+03  0.62412803574E+03  0.50400001928E-02 0.  1.
    10030    2    1    2    0    0  0.00000000000E+00  0.00000000000E+00  0.11397555454E+04  0.23880116169E+04  0.20984653390E+04 0.  0.
        2    1    3    3  502    0 -0.47498127581E+03 -0.28686254110E+03  0.15832500075E+04  0.16776703836E+04  0.25500000920E-02 0. -1.
       -2    1    3    3    0  502  0.47498127581E+03  0.28686254110E+03 -0.44349446204E+03  0.71034123330E+03  0.25500000920E-02 0.  1.
</event>
<event>
 5   0  0.6238363E-06  0.2094024E+04  0.7818609E-02  0.8563881E-01
        1   -1    0    0  501    0  0.00000000000E+00  0.00000000000E+00  0.65744713663E+03  0.65744713665E+03  0.50400001928E-02 0.  1.
       -1   -1    0    0    0  501  0.00000000000E+00  0.00000000000E+00 -0.16674099712E+04  0.16674099712E+04  0.50400001928E-02 0. -1.
    10030    2    1    2    0    0  0.00000000000E+00  0.00000000000E+00 -0.10099628346E+04  0.23248571079E+04  0.20940237928E+04 0.  0.
        4    1    3    3  502    0 -0.10147505422E+03 -0.80900021433E+03 -0.12342403956E+04  0.14792327405E+04  0.12699999809E+01 0.  1.
       -4    1    3    3    0  502  0.10147505422E+03  0.80900021433E+03  0.22427756107E+03  0.84562436738E+03  0.12699999809E+01 0. -1.
</event>
<event>
 5   0  0.1344501E-05  0.2101597E+04  0.7818609E-02  0.8560540E-01
       -2   -1    0    0    0  501  0.00000000000E+00  0.00000000000E+00  0.78128613639E+03  0.78128613640E+03  0.25500000920E-02 0. -1.
        2   -1    0    0  501    0  0.00000000000E+00  0.00000000000E+00 -0.14132823166E+04  0.14132823166E+04  0.25500000920E-02 0.  1.
    10030    2    1    2    0    0  0.00000000000E+00  0.00000000000E+00 -0.63199618022E+03  0.21945684530E+04  0.21015973742E+04 0.  0.
        3    1    3    3  502    0  0.43160754185E+03  0.74209434339E+03  0.31676963485E+03  0.91505852077E+03  0.10100000352E+00 0.  1.
       -3    1    3    3    0  502 -0.43160754185E+03 -0.74209434339E+03 -0.94876581507E+03  0.12795099322E+04  0.10100000352E+00 0. -1.
</event>
<event>
 5   0  0.6589193E-06  0.2097389E+04  0.7818609E-02  0.8562394E-01
        1   -1    0    0  501    0  0.00000000000E+00  0.00000000000E+00  0.10401570084E+04  0.10401570085E+04  0.50400001928E-02 0. -1.
       -1   -1    0    0    0  501  0.00000000000E+00  0.00000000000E+00 -0.10573022314E+04  0.10573022314E+04  0.50400001928E-02 0.  1.
    10030    2    1    2    0    0  0.00000000000E+00  0.00000000000E+00 -0.17145222987E+02  0.20974592399E+04  0.20973891638E+04 0.  0.
        3    1    3    3  502    0  0.99193659633E+03  0.33951411008E+03 -0.32073903238E+02  0.10489217261E+04  0.10100000352E+00 0.  1.
       -3    1    3    3    0  502 -0.99193659633E+03 -0.33951411008E+03  0.14928680251E+02  0.10485375138E+04  0.10100000352E+00 0. -1.
</event>
<event>
 5   0  0.6283269E-06  0.2093510E+04  0.7818609E-02  0.8564108E-01
        1   -1    0    0  501    0  0.00000000000E+00  0.00000000000E+00  0.43229644621E+03  0.43229644624E+03  0.50400001928E-02 0.  1.
       -1   -1    0    0    0  501  0.00000000000E+00  0.00000000000E+00 -0.25345940089E+04  0.25345940089E+04  0.50400001928E-02 0. -1.
    10030    2    1    2    0    0  0.00000000000E+00  0.00000000000E+00 -0.21022975627E+04  0.29668904552E+04  0.20935099548E+04 0.  0.
        1    1    3    3  502    0  0.49039169745E+03  0.42317199023E+03  0.11416792077E+03  0.65771792161E+03  0.50400001928E-02 0.  1.
       -1    1    3    3    0  502 -0.49039169745E+03 -0.42317199023E+03 -0.22164654835E+04  0.23091725336E+04  0.50400001928E-02 0. -1.
</event>
<event>
 5   0  0.6238363E-06  0.2100025E+04  0.7818609E-02  0.8561232E-01
       -1   -1    0    0    0  501  0.00000000000E+00  0.00000000000E+00  0.42773649981E+03  0.42773649984E+03  0.50400001928E-02 0. -1.
        1   -1    0    0  501    0  0.00000000000E+00  0.00000000000E+00 -0.25775836661E+04  0.25775836662E+04  0.50400001928E-02 0.  1.
    10030    2    1    2    0    0  0.00000000000E+00  0.00000000000E+00 -0.21498471663E+04  0.30053201660E+04  0.21000253478E+04 0.  0.
        4    1    3    3  502    0  0.31905906660E+03 -0.31362975924E+03  0.28450617821E+03  0.53019589984E+03  0.12699999809E+01 0. -1.
       -4    1    3    3    0  502 -0.31905906660E+03  0.31362975924E+03 -0.24343533446E+04  0.24751242662E+04  0.12699999809E+01 0.  1.
</event>
<event>
 5   0  0.1398469E-05  0.2089822E+04  0.7818609E-02  0.8565740E-01
        2   -1    0    0  501    0  0.00000000000E+00  0.00000000000E+00  0.96045658858E+03  0.96045658858E+03  0.25500000920E-02 0. -1.
       -2   -1    0    0    0  501  0.00000000000E+00  0.00000000000E+00 -0.11367912085E+04  0.11367912085E+04  0.25500000920E-02 0.  1.
    10030    2    1    2    0    0  0.00000000000E+00  0.00000000000E+00 -0.17633461994E+03  0.20972477971E+04  0.20898216250E+04 0.  0.
        2    1    3    3  502    0 -0.24007479427E+03  0.34035177406E+03  0.87355082240E+03  0.96776354357E+03  0.25500000920E-02 0. -1.
       -2    1    3    3    0  502  0.24007479427E+03 -0.34035177406E+03 -0.10498854423E+04  0.11294842535E+04  0.25500000920E-02 0.  1.
</event>
<event>
 5   0  0.1398469E-05  0.2097729E+04  0.7818609E-02  0.8562244E-01
       -2   -1    0    0    0  501  0.00000000000E+00  0.00000000000E+00  0.11034839764E+04  0.11034839764E+04  0.25500000920E-02 0.  1.
        2   -1    0    0  501    0  0.00000000000E+00  0.00000000000E+00 -0.99694846958E+03  0.99694846959E+03  0.25500000920E-02 0. -1.
    10030    2    1    2    0    0  0.00000000000E+00  0.00000000000E+00  0.10653550684E+03  0.21004324460E+04  0.20977289258E+04 0.  0.
        2    1    3    3  502    0 -0.90749521118E+03  0.40008785059E+02  0.57831785291E+03  0.10768471573E+04  0.25500000920E-02 0.  1.
       -2    1    3    3    0  502  0.90749521118E+03 -0.40008785059E+02 -0.47178234607E+03  0.10235852887E+04  0.25500000920E-02 0. -1.
</event>
<event>
 5   0  0.1398469E-05  0.2101778E+04  0.7818609E-02  0.8560460E-01
       -2   -1    0    0    0  501  0.00000000000E+00  0.00000000000E+00  0.60508850551E+03  0.60508850551E+03  0.25500000920E-02 0. -1.
        2   -1    0    0  501    0  0.00000000000E+00  0.00000000000E+00 -0.18251344464E+04  0.18251344465E+04  0.25500000920E-02 0.  1.
    10030    2    1    2    0    0  0.00000000000E+00  0.00000000000E+00 -0.12200459409E+04  0.24302229520E+04  0.21017781753E+04 0.  0.
        2    1    3    3  502    0 -0.99823310721E+03  0.15136209773E+03 -0.27293893719E+03  0.10458850245E+04  0.25500000920E-02 0. -1.
       -2    1    3    3    0  502  0.99823310721E+03 -0.15136209773E+03 -0.94710700375E+03  0.13843379275E+04  0.25500000920E-02 0.  1.
</event>
<event>
 5   0  0.6599245E-06  0.2111038E+04  0.7818609E-02  0.8556396E-01
        1   -1    0    0  501    0  0.00000000000E+00  0.00000000000E+00  0.13648093419E+04  0.13648093419E+04  0.50400001928E-02 0.  1.
       -1   -1    0    0    0  501  0.00000000000E+00  0.00000000000E+00 -0.81631956155E+03  0.81631956156E+03  0.50400001928E-02 0. -1.
    10030    2    1    2    0    0  0.00000000000E+00  0.00000000000E+00  0.54848978031E+03  0.21811289034E+04  0.21110381935E+04 0.  0.
        2    1    3    3  502    0  0.49120993279E+02  0.45294598059E+03  0.12579853997E+04  0.13379462617E+04  0.25500000920E-02 0.  1.
       -2    1    3    3    0  502 -0.49120993279E+02 -0.45294598059E+03 -0.70949561941E+03  0.84318264171E+03  0.25500000920E-02 0. -1.
</event>
<event>
 5   0  0.6238363E-06  0.2098995E+04  0.7818609E-02  0.8561686E-01
        1   -1    0    0  501    0  0.00000000000E+00  0.00000000000E+00  0.28760524464E+04  0.28760524464E+04  0.50400001928E-02 0. -1.
       -1   -1    0    0    0  501  0.00000000000E+00  0.00000000000E+00 -0.38297119659E+03  0.38297119663E+03  0.50400001928E-02 0.  1.
    10030    2    1    2    0    0  0.00000000000E+00  0.00000000000E+00  0.24930812498E+04  0.32590236430E+04  0.20989952329E+04 0.  0.
        4    1    3    3  502    0  0.87840955604E+02  0.86274717849E+03  0.21643116525E+04  0.23315864276E+04  0.12699999809E+01 0. -1.
       -4    1    3    3    0  502 -0.87840955604E+02 -0.86274717849E+03  0.32876959730E+03  0.92743721539E+03  0.12699999809E+01 0.  1.
</event>
<event>
 5   0  0.6589193E-06  0.2102244E+04  0.7818609E-02  0.8560255E-01
        1   -1    0    0  501    0  0.00000000000E+00  0.00000000000E+00  0.16009242479E+04  0.16009242479E+04  0.50400001928E-02 0. -1.
       -1   -1    0    0    0  501  0.00000000000E+00  0.00000000000E+00 -0.69013740185E+03  0.69013740187E+03  0.50400001928E-02 0.  1.
    10030    2    1    2    0    0  0.00000000000E+00  0.00000000000E+00  0.91078684600E+03  0.22910616497E+04  0.21022442304E+04 0.  0.
        3    1    3    3  502    0 -0.55972377579E+03 -0.74435697201E+02 -0.51081795796E+03  0.76142391254E+03  0.10100000352E+00 0.  1.
       -3    1    3    3    0  502  0.55972377579E+03  0.74435697201E+02  0.14216048040E+04  0.15296377372E+04  0.10100000352E+00 0. -1.
</event>
<event>
 5   0  0.1390735E-05  0.2102329E+04  0.7818609E-02  0.8560218E-01
        2   -1    0    0  501    0  0.00000000000E+00  0.00000000000E+00  0.93260765909E+03  0.93260765910E+03  0.25500000920E-02 0.  1.
       -2   -1    0    0    0  501  0.00000000000E+00  0.00000000000E+00 -0.11847928877E+04  0.11847928877E+04  0.25500000920E-02 0. -1.
    10030    2    1    2    0    0  0.00000000000E+00  0.00000000000E+00 -0.25218522861E+03  0.21174005468E+04  0.21023291098E+04 0.  0.
        5    1    3    3  502    0 -0.45602802281E+03  0.43366905298E+02  0.82677786187E+03  0.94521212907E+03  0.46999998093E+01 0.  1.
       -5    1    3    3    0  502  0.45602802281E+03 -0.43366905298E+02 -0.10789630905E+04  0.11721884177E+04  0.46999998093E+01 0. -1.
</event>
<event>
 5   0  0.6238363E-06  0.2100777E+04  0.7818609E-02  0.8560901E-01
       -1   -1    0    0    0  501  0.00000000000E+00  0.00000000000E+00  0.87476252625E+03  0.87476252626E+03  0.50400001928E-02 0.  1.
        1   -1    0    0  501    0  0.00000000000E+00  0.00000000000E+00 -0.12612749060E+04  0.12612749060E+04  0.50400001928E-02 0. -1.
    10030    2    1    2    0    0  0.00000000000E+00  0.00000000000E+00 -0.38651237976E+03  0.21360374323E+04  0.21007770211E+04 0.  0.
        4    1    3    3  502    0 -0.76140753697E+03 -0.12826153882E+03  0.53082139832E+03  0.93699809472E+03  0.12699999809E+01 0.  1.
       -4    1    3    3    0  502  0.76140753697E+03  0.12826153882E+03 -0.91733377808E+03  0.11990393376E+04  0.12699999809E+01 0. -1.
</event>
<event>
 5   0  0.1390735E-05  0.2106706E+04  0.7818609E-02  0.8558295E-01
        2   -1    0    0  501    0  0.00000000000E+00  0.00000000000E+00  0.12103612237E+04  0.12103612237E+04  0.25500000920E-02 0.  1.
       -2   -1    0    0    0  501  0.00000000000E+00  0.00000000000E+00 -0.91671157248E+03  0.91671157249E+03  0.25500000920E-02 0. -1.
    10030    2    1    2    0    0  0.00000000000E+00  0.00000000000E+00  0.29364965121E+03  0.21270727962E+04  0.21067056184E+04 0.  0.
        5    1    3    3  502    0 -0.99311295542E+03  0.18905209870E+03  0.44551591056E+03  0.11047717207E+04  0.46999998093E+01 0.  1.
       -5    1    3    3    0  502  0.99311295542E+03 -0.18905209870E+03 -0.15186625936E+03  0.10223010755E+04  0.46999998093E+01 0. -1.
</event>
<event>
 5   0  0.6238363E-06  0.2142488E+04  0.7818609E-02  0.8542755E-01
       -1   -1    0    0    0  501  0.00000000000E+00  0.00000000000E+00  0.82574290317E+03  0.82574290319E+03  0.50400001928E-02 0.  1.
        1   -1    0    0  501    0  0.00000000000E+00  0.00000000000E+00 -0.13897347733E+04  0.13897347733E+04  0.50400001928E-02 0. -1.
    10030    2    1    2    0    0  0.00000000000E+00  0.00000000000E+00 -0.56399187015E+03  0.22154776765E+04  0.21424879243E+04 0.  0.
        4    1    3    3  502    0  0.32652339398E+03 -0.79160195478E+03 -0.94759413611E+03  0.12771794867E+04  0.12699999809E+01 0. -1.
       -4    1    3    3    0  502 -0.32652339398E+03  0.79160195478E+03  0.38360226596E+03  0.93829818980E+03  0.12699999809E+01 0.  1.
</event>
<event>
 5   0  0.6917078E-06  0.2101189E+04  0.7818609E-02  0.8560720E-01
        1   -1    0    0  501    0  0.00000000000E+00  0.00000000000E+00  0.69501304957E+03  0.69501304958E+03  0.50400001928E-02 0.  1.
       -1   -1    0    0    0  501  0.00000000000E+00  0.00000000000E+00 -0.15880984727E+04  0.15880984727E+04  0.50400001928E-02 0. -1.
    10030    2    1    2    0    0  0.00000000000E+00  0.00000000000E+00 -0.89308542309E+03  0.22831115222E+04  0.21011893418E+04 0.  0.
        5    1    3    3  502    0 -0.55434653321E+03 -0.28123171960E+03 -0.13668294489E+04  0.15015446019E+04  0.46999998093E+01 0. -1.
       -5    1    3    3    0  502  0.55434653321E+03  0.28123171960E+03  0.47374402584E+03  0.78156692036E+03  0.46999998093E+01 0.  1.
</event>
<event>
 5   0  0.6589193E-06  0.2103773E+04  0.7818609E-02  0.8559583E-01
        1   -1    0    0  501    0  0.00000000000E+00  0.00000000000E+00  0.14664868382E+04  0.14664868383E+04  0.50400001928E-02 0.  1.
       -1   -1    0    0    0  501  0.00000000000E+00  0.00000000000E+00 -0.75450048135E+03  0.75450048137E+03  0.50400001928E-02 0. -1.
    10030    2    1    2    0    0  0.00000000000E+00  0.00000000000E+00  0.71198635689E+03  0.22209873196E+04  0.21037728255E+04 0.  0.
        3    1    3    3  502    0 -0.30260664046E+03  0.13400329324E+03 -0.69810526573E+03  0.77257920868E+03  0.10100000352E+00 0. -1.
       -3    1    3    3    0  502  0.30260664046E+03 -0.13400329324E+03  0.14100916226E+04  0.14484081109E+04  0.10100000352E+00 0.  1.
</event>
<event>
 5   0  0.6283269E-06  0.2100656E+04  0.7818609E-02  0.8560955E-01
       -1   -1    0    0    0  501  0.00000000000E+00  0.00000000000E+00  0.18815255296E+04  0.18815255296E+04  0.50400001928E-02 0.  1.
        1   -1    0    0  501    0  0.00000000000E+00  0.00000000000E+00 -0.58632658796E+03  0.58632658798E+03  0.50400001928E-02 0. -1.
    10030    2    1    2    0    0  0.00000000000E+00  0.00000000000E+00  0.12951989416E+04  0.24678521176E+04  0.21006555586E+04 0.  0.
        1    1    3    3  502    0  0.48060170015E+03 -0.62615603448E+03 -0.16644439422E+03  0.80669269868E+03  0.50400001928E-02 0. -1.
       -1    1    3    3    0  502 -0.48060170015E+03  0.62615603448E+03  0.14616433358E+04  0.16611594189E+04  0.50400001928E-02 0.  1.
</event>
<event>
 5   0  0.1441136E-05  0.2098349E+04  0.7818609E-02  0.8561971E-01
       -2   -1    0    0    0  501  0.00000000000E+00  0.00000000000E+00  0.56651787491E+03  0.56651787492E+03  0.25500000920E-02 0.  1.
        2   -1    0    0  501    0  0.00000000000E+00  0.00000000000E+00 -0.19430404792E+04  0.19430404792E+04  0.25500000920E-02 0. -1.
    10030    2    1    2    0    0  0.00000000000E+00  0.00000000000E+00 -0.13765226043E+04  0.25095583541E+04  0.20983490302E+04 0.  0.
        4    1    3    3  502    0  0.47879993159E+03  0.18619065523E+03 -0.17823264332E+04  0.18548869136E+04  0.12699999809E+01 0. -1.
       -4    1    3    3    0  502 -0.47879993159E+03 -0.18619065523E+03  0.40580382895E+03  0.65467144055E+03  0.12699999809E+01 0.  1.
</event>
<event>
 5   0  0.1398469E-05  0.2086800E+04  0.7818609E-02  0.8567080E-01
       -2   -1    0    0    0  501  0.00000000000E+00  0.00000000000E+00  0.61023017898E+03  0.61023017898E+03  0.25500000920E-02 0.  1.
        2   -1    0    0  501    0  0.00000000000E+00  0.00000000000E+00 -0.17840541404E+04  0.17840541404E+04  0.25500000920E-02 0. -1.
    10030    2    1    2    0    0  0.00000000000E+00  0.00000000000E+00 -0.11738239614E+04  0.23942843193E+04  0.20868001125E+04 0.  0.
        2    1    3    3  502    0  0.43597432370E+03  0.93079024169E+03 -0.79292261590E+03  0.12981411170E+04  0.25500000920E-02 0.  1.
       -2    1    3    3    0  502 -0.43597432370E+03 -0.93079024169E+03 -0.38090134548E+03  0.10961432023E+04  0.25500000920E-02 0. -1.
</event>
<event>
 5   0  0.6589193E-06  0.2090564E+04  0.7818609E-02  0.8565411E-01
        1   -1    0    0  501    0  0.00000000000E+00  0.00000000000E+00  0.12863088085E+04  0.12863088085E+04  0.50400001928E-02 0. -1.
       -1   -1    0    0    0  501  0.00000000000E+00  0.00000000000E+00 -0.84941858268E+03  0.84941858270E+03  0.50400001928E-02 0.  1.
    10030    2    1    2    0    0  0.00000000000E+00  0.00000000000E+00  0.43689022579E+03  0.21357273912E+04  0.20905641392E+04 0.  0.
        3    1    3    3  502    0  0.70459949819E+03  0.36318659987E+03  0.91452343215E+03  0.12102553769E+04  0.10100000352E+00 0. -1.
       -3    1    3    3    0  502 -0.70459949819E+03 -0.36318659987E+03 -0.47763320637E+03  0.92547201427E+03  0.10100000352E+00 0.  1.
</event>
<event>
 5   0  0.1344501E-05  0.2100054E+04  0.7818609E-02  0.8561220E-01
        2   -1    0    0  501    0  0.00000000000E+00  0.00000000000E+00  0.22142412923E+04  0.22142412923E+04  0.25500000920E-02 0.  1.
       -2   -1    0    0    0  501  0.00000000000E+00  0.00000000000E+00 -0.49793891232E+03  0.49793891233E+03  0.25500000920E-02 0. -1.
    10030    2    1    2    0    0  0.00000000000E+00  0.00000000000E+00  0.17163023799E+04  0.27121802046E+04  0.21000541904E+04 0.  0.
        3    1    3    3  502    0  0.84978778605E+03 -0.15721641135E+03  0.16283987740E+04  0.18435126413E+04  0.10100000352E+00 0.  1.
       -3    1    3    3    0  502 -0.84978778605E+03  0.15721641135E+03  0.87903605914E+02  0.86866756326E+03  0.10100000352E+00 0. -1.
</event>
<event>
 5   0  0.6283269E-06  0.2095210E+04  0.7818609E-02  0.8563356E-01
       -1   -1    0    0    0  501  0.00000000000E+00  0.00000000000E+00  0.18198965166E+04  0.18198965166E+04  0.50400001928E-02 0.  1.
        1   -1    0    0  501    0  0.00000000000E+00  0.00000000000E+00 -0.60304331442E+03  0.60304331444E+03  0.50400001928E-02 0. -1.
    10030    2    1    2    0    0  0.00000000000E+00  0.00000000000E+00  0.12168532022E+04  0.24229398311E+04  0.20952101826E+04 0.  0.
        1    1    3    3  502    0  0.32188586538E+03  0.73384328579E+03  0.13887648785E+04  0.16033728095E+04  0.50400001928E-02 0.  1.
       -1    1    3    3    0  502 -0.32188586538E+03 -0.73384328579E+03 -0.17191167627E+03  0.81956702160E+03  0.50400001928E-02 0. -1.
</event>
<event>
 5   0  0.6238363E-06  0.2103992E+04  0.7818609E-02  0.8559487E-01
        1   -1    0    0  501    0  0.00000000000E+00  0.00000000000E+00  0.17020709615E+04  0.17020709615E+04  0.50400001928E-02 0.  1.
       -1   -1    0    0    0  501  0.00000000000E+00  0.00000000000E+00 -0.65020561157E+03  0.65020561159E+03  0.50400001928E-02 0. -1.
    10030    2    1    2    0    0  0.00000000000E+00  0.00000000000E+00  0.10518653499E+04  0.23522765731E+04  0.21039924814E+04 0.  0.
        4    1    3    3  502    0 -0.28114583615E+03  0.99745442907E+03  0.32365029438E+03  0.10856838606E+04  0.12699999809E+01 0. -1.
       -4    1    3    3    0  502  0.28114583615E+03 -0.99745442907E+03  0.72821505552E+03  0.12665927125E+04  0.12699999809E+01 0.  1.
</event>
<event>
 5   0  0.6917078E-06  0.2109429E+04  0.7818609E-02  0.8557101E-01
       -1   -1    0    0    0  501  0.00000000000E+00  0.00000000000E+00  0.74722219101E+03  0.74722219103E+03  0.50400001928E-02 0.  1.
        1   -1    0    0  501    0  0.00000000000E+00  0.00000000000E+00 -0.14887440174E+04  0.14887440174E+04  0.50400001928E-02 0. -1.
    10030    2    1    2    0    0  0.00000000000E+00  0.00000000000E+00 -0.74152182638E+03  0.22359662084E+04  0.21094288958E+04 0.  0.
        5    1    3    3  502    0  0.77951226707E+03  0.12502773752E+03 -0.11120918520E+04  0.13638334528E+04  0.46999998093E+01 0. -1.
       -5    1    3    3    0  502 -0.77951226707E+03 -0.12502773752E+03  0.37057002558E+03  0.87213275567E+03  0.46999998093E+01 0.  1.
</event>
<event>
 5   0  0.1344501E-05  0.2101112E+04  0.7818609E-02  0.8560754E-01
        2   -1    0    0  501    0  0.00000000000E+00  0.00000000000E+00  0.26424899775E+04  0.26424899775E+04  0.25500000920E-02 0.  1.
       -2   -1    0    0    0  501  0.00000000000E+00  0.00000000000E+00 -0.41766207737E+03  0.41766207738E+03  0.25500000920E-02 0. -1.
    10030    2    1    2    0    0  0.00000000000E+00  0.00000000000E+00  0.22248279001E+04  0.30601520548E+04  0.21011119470E+04 0.  0.
        3    1    3    3  502    0  0.31654801654E+03  0.87639313263E+03  0.40577544941E+03  0.10163273563E+04  0.10100000352E+00 0. -1.
       -3    1    3    3    0  502 -0.31654801654E+03 -0.87639313263E+03  0.18190524507E+04  0.20438246985E+04  0.10100000352E+00 0.  1.
</event>
<event>
 5   0  0.6283269E-06  0.2089295E+04  0.7818609E-02  0.8565974E-01
        1   -1    0    0  501    0  0.00000000000E+00  0.00000000000E+00  0.22117191358E+04  0.22117191358E+04  0.50400001928E-02 0. -1.
       -1   -1    0    0    0  501  0.00000000000E+00  0.00000000000E+00 -0.49341161016E+03  0.49341161019E+03  0.50400001928E-02 0.  1.
    10030    2    1    2    0    0  0.00000000000E+00  0.00000000000E+00  0.17183075256E+04  0.27051307460E+04  0.20892945221E+04 0.  0.
        1    1    3    3  502    0 -0.46678440602E+03 -0.49447380556E+03  0.18859351031E+04  0.20047800975E+04  0.50400001928E-02 0. -1.
       -1    1    3    3    0  502  0.46678440602E+03  0.49447380556E+03 -0.16762757748E+03  0.70035064850E+03  0.50400001928E-02 0.  1.
</event>
<event>
 5   0  0.1395356E-05  0.2101869E+04  0.7818609E-02  0.8560421E-01
        2   -1    0    0  501    0  0.00000000000E+00  0.00000000000E+00  0.14864748136E+04  0.14864748136E+04  0.25500000920E-02 0.  1.
       -2   -1    0    0    0  501  0.00000000000E+00  0.00000000000E+00 -0.74300826332E+03  0.74300826333E+03  0.25500000920E-02 0. -1.
    10030    2    1    2    0    0  0.00000000000E+00  0.00000000000E+00  0.74346655023E+03  0.22294830769E+04  0.21018687587E+04 0.  0.
        1    1    3    3  502    0 -0.14865951201E+03  0.10309780208E+04  0.51965540518E+03  0.11640691861E+04  0.50400001928E-02 0. -1.
       -1    1    3    3    0  502  0.14865951201E+03 -0.10309780208E+04  0.22381114505E+03  0.10654138908E+04  0.50400001928E-02 0.  1.
</event>
<event>
 5   0  0.6238363E-06  0.2099392E+04  0.7818609E-02  0.8561511E-01
        1   -1    0    0  501    0  0.00000000000E+00  0.00000000000E+00  0.17826903598E+04  0.17826903598E+04  0.50400001928E-02 0. -1.
       -1   -1    0    0    0  501  0.00000000000E+00  0.00000000000E+00 -0.61808922579E+03  0.61808922581E+03  0.50400001928E-02 0.  1.
    10030    2    1    2    0    0  0.00000000000E+00  0.00000000000E+00  0.11646011340E+04  0.24007795856E+04  0.20993920114E+04 0.  0.
        4    1    3    3  502    0  0.69742381599E+03  0.72360462852E+03  0.92888861901E+03  0.13685171964E+04  0.12699999809E+01 0.  1.
       -4    1    3    3    0  502 -0.69742381599E+03 -0.72360462852E+03  0.23571251503E+03  0.10322623892E+04  0.12699999809E+01 0. -1.
</event>
<event>
 5   0  0.6917078E-06  0.2114269E+04  0.7818609E-02  0.8554984E-01
       -1   -1    0    0    0  501  0.00000000000E+00  0.00000000000E+00  0.86811862657E+03  0.86811862659E+03  0.50400001928E-02 0.  1.
        1   -1    0    0  501    0  0.00000000000E+00  0.00000000000E+00 -0.12873044152E+04  0.12873044152E+04  0.50400001928E-02 0. -1.
    10030    2    1    2    0    0  0.00000000000E+00  0.00000000000E+00 -0.41918578865E+03  0.21554230418E+04  0.21142686120E+04 0.  0.
        5    1    3    3  502    0 -0.69135365983E+03  0.13716995038E+03  0.59360416135E+03  0.92150608713E+03  0.46999998093E+01 0.  1.
       -5    1    3    3    0  502  0.69135365983E+03 -0.13716995038E+03 -0.10127899500E+04  0.12339169547E+04  0.46999998093E+01 0. -1.
</event>
<event>
 5   0  0.6599245E-06  0.2125619E+04  0.7818609E-02  0.8550041E-01
       -1   -1    0    0    0  501  0.00000000000E+00  0.00000000000E+00  0.54322251677E+03  0.54322251679E+03  0.50400001928E-02 0. -1.
        1   -1    0    0  501    0  0.00000000000E+00  0.00000000000E+00 -0.20793762522E+04  0.20793762522E+04  0.50400001928E-02 0.  1.
    10030    2    1    2    0    0  0.00000000000E+00  0.00000000000E+00 -0.15361537354E+04  0.26225987690E+04  0.21256189697E+04 0.  0.
        2    1    3    3  502    0 -0.16037848862E+03 -0.90874918328E+03 -0.11752394812E+03  0.93024632013E+03  0.25500000920E-02 0. -1.
       -2    1    3    3    0  502  0.16037848862E+03  0.90874918328E+03 -0.14186297873E+04  0.16923524489E+04  0.25500000920E-02 0.  1.
</event>
<event>
 5   0  0.6599245E-06  0.2104817E+04  0.7818609E-02  0.8559124E-01
       -1   -1    0    0    0  501  0.00000000000E+00  0.00000000000E+00  0.89969535428E+03  0.89969535430E+03  0.50400001928E-02 0. -1.
        1   -1    0    0  501    0  0.00000000000E+00  0.00000000000E+00 -0.12310430099E+04  0.12310430099E+04  0.50400001928E-02 0.  1.
    10030    2    1    2    0    0  0.00000000000E+00  0.00000000000E+00 -0.33134765563E+03  0.21307383642E+04  0.21048170248E+04 0.  0.
        2    1    3    3  502    0  0.14920928366E+03 -0.10377575717E+04 -0.25823005457E+03  0.10797624503E+04  0.25500000920E-02 0.  1.
       -2    1    3    3    0  502 -0.14920928366E+03  0.10377575717E+04 -0.73117601054E+02  0.10509759139E+04  0.25500000920E-02 0. -1.
</event>
<event>
 5   0  0.6917078E-06  0.2101132E+04  0.7818609E-02  0.8560745E-01
        1   -1    0    0  501    0  0.00000000000E+00  0.00000000000E+00  0.17157965416E+04  0.17157965416E+04  0.50400001928E-02 0.  1.
       -1   -1    0    0    0  501  0.00000000000E+00  0.00000000000E+00 -0.64325149377E+03  0.64325149379E+03  0.50400001928E-02 0. -1.
    10030    2    1    2    0    0  0.00000000000E+00  0.00000000000E+00  0.10725450478E+04  0.23590480354E+04  0.21011317792E+04 0.  0.
        5    1    3    3  502    0  0.94412181481E+01  0.81630475917E+03 -0.20612324877E+03  0.84199256536E+03  0.46999998093E+01 0.  1.
       -5    1    3    3    0  502 -0.94412181481E+01 -0.81630475917E+03  0.12786682966E+04  0.15170554700E+04  0.46999998093E+01 0. -1.
</event>
<event>
 5   0  0.1398469E-05  0.2101671E+04  0.7818609E-02  0.8560507E-01
        2   -1    0    0  501    0  0.00000000000E+00  0.00000000000E+00  0.12555353475E+04  0.12555353475E+04  0.25500000920E-02 0. -1.
       -2   -1    0    0    0  501  0.00000000000E+00  0.00000000000E+00 -0.87950977132E+03  0.87950977132E+03  0.25500000920E-02 0.  1.
    10030    2    1    2    0    0  0.00000000000E+00  0.00000000000E+00  0.37602557617E+03  0.21350451188E+04  0.21016713410E+04 0.  0.
        2    1    3    3  502    0  0.15347829890E+03  0.10146310833E+04 -0.41907915368E+02  0.10270287711E+04  0.25500000920E-02 0.  1.
       -2    1    3    3    0  502 -0.15347829890E+03 -0.10146310833E+04  0.41793349154E+03  0.11080163477E+04  0.25500000920E-02 0. -1.
</event>
<event>
 5   0  0.6238363E-06  0.2098768E+04  0.7818609E-02  0.8561786E-01
        1   -1    0    0  501    0  0.00000000000E+00  0.00000000000E+00  0.15604469336E+04  0.15604469336E+04  0.50400001928E-02 0.  1.
       -1   -1    0    0    0  501  0.00000000000E+00  0.00000000000E+00 -0.70569955453E+03  0.70569955455E+03  0.50400001928E-02 0. -1.
    10030    2    1    2    0    0  0.00000000000E+00  0.00000000000E+00  0.85474737906E+03  0.22661464881E+04  0.20987679299E+04 0.  0.
        4    1    3    3  502    0  0.97928322375E+03 -0.32216514201E+03  0.63901334815E+03  0.12128997003E+04  0.12699999809E+01 0.  1.
       -4    1    3    3    0  502 -0.97928322375E+03  0.32216514201E+03  0.21573403091E+03  0.10532467878E+04  0.12699999809E+01 0. -1.
</event>
<event>
 5   0  0.6283269E-06  0.2096600E+04  0.7818609E-02  0.8562743E-01
       -1   -1    0    0    0  501  0.00000000000E+00  0.00000000000E+00  0.11129432258E+04  0.11129432258E+04  0.50400001928E-02 0.  1.
        1   -1    0    0  501    0  0.00000000000E+00  0.00000000000E+00 -0.98741135386E+03  0.98741135388E+03  0.50400001928E-02 0. -1.
    10030    2    1    2    0    0  0.00000000000E+00  0.00000000000E+00  0.12553187194E+03  0.21003545797E+04  0.20965998926E+04 0.  0.
        1    1    3    3  502    0 -0.10429393822E+04  0.85858710571E+02  0.12483255219E+03  0.10538868247E+04  0.50400001928E-02 0.  1.
       -1    1    3    3    0  502  0.10429393822E+04 -0.85858710571E+02  0.69931974547E+00  0.10464677550E+04  0.50400001928E-02 0. -1.
</event>
<event>
 5   0  0.6283269E-06  0.2100862E+04  0.7818609E-02  0.8560864E-01
        1   -1    0    0  501    0  0.00000000000E+00  0.00000000000E+00  0.16236977316E+04  0.16236977316E+04  0.50400001928E-02 0. -1.
       -1   -1    0    0    0  501  0.00000000000E+00  0.00000000000E+00 -0.67956354774E+03  0.67956354776E+03  0.50400001928E-02 0.  1.
    10030    2    1    2    0    0  0.00000000000E+00  0.00000000000E+00  0.94413418385E+03  0.23032612794E+04  0.21008624810E+04 0.  0.
        1    1    3    3  502    0 -0.46120586754E+03 -0.93913393242E+03  0.36967569379E+03  0.11096591882E+04  0.50400001928E-02 0. -1.
       -1    1    3    3    0  502  0.46120586754E+03  0.93913393242E+03  0.57445849006E+03  0.11936020912E+04  0.50400001928E-02 0.  1.
</event>
<event>
 5   0  0.1441136E-05  0.2095315E+04  0.7818609E-02  0.8563310E-01
        2   -1    0    0  501    0  0.00000000000E+00  0.00000000000E+00  0.20900255611E+04  0.20900255611E+04  0.25500000920E-02 0. -1.
       -2   -1    0    0    0  501  0.00000000000E+00  0.00000000000E+00 -0.52515460523E+03  0.52515460524E+03  0.25500000920E-02 0.  1.
    10030    2    1    2    0    0  0.00000000000E+00  0.00000000000E+00  0.15648709559E+04  0.26151801663E+04  0.20953152970E+04 0.  0.
        4    1    3    3  502    0  0.38183970392E+03 -0.19221980386E+03 -0.41134259560E+03  0.59325741153E+03  0.12699999809E+01 0.  1.
       -4    1    3    3    0  502 -0.38183970392E+03  0.19221980386E+03  0.19762135515E+04  0.20219227548E+04  0.12699999809E+01 0. -1.
</event>
<event>
 5   0  0.6283269E-06  0.2099757E+04  0.7818609E-02  0.8561350E-01
       -1   -1    0    0    0  501  0.00000000000E+00  0.00000000000E+00  0.59618703165E+03  0.59618703167E+03  0.50400001928E-02 0. -1.
        1   -1    0    0  501    0  0.00000000000E+00  0.00000000000E+00 -0.18488242857E+04  0.18488242857E+04  0.50400001928E-02 0.  1.
    10030    2    1    2    0    0  0.00000000000E+00  0.00000000000E+00 -0.12526372540E+04  0.24450113174E+04  0.20997571888E+04 0.  0.
        1    1    3    3  502    0  0.10378606356E+04 -0.61539008621E+02 -0.45636306403E+03  0.11354333952E+04  0.50400001928E-02 0.  1.
       -1    1    3    3    0  502 -0.10378606356E+04  0.61539008621E+02 -0.79627419000E+03  0.13095779222E+04  0.50400001928E-02 0. -1.
</event>
<event>
 5   0  0.1441136E-05  0.2097959E+04  0.7818609E-02  0.8562143E-01
        2   -1    0    0  501    0  0.00000000000E+00  0.00000000000E+00  0.10148332628E+04  0.10148332628E+04  0.25500000920E-02 0. -1.
       -2   -1    0    0    0  501  0.00000000000E+00  0.00000000000E+00 -0.10842743389E+04  0.10842743389E+04  0.25500000920E-02 0.  1.
    10030    2    1    2    0    0  0.00000000000E+00  0.00000000000E+00 -0.69441076074E+02  0.20991076017E+04  0.20979586889E+04 0.  0.
        4    1    3    3  502    0  0.13453965312E+03 -0.98203689750E+03 -0.37821404297E+03  0.10609169909E+04  0.12699999809E+01 0.  1.
       -4    1    3    3    0  502 -0.13453965312E+03  0.98203689750E+03  0.30877296689E+03  0.10381906108E+04  0.12699999809E+01 0. -1.
</event>
<event>
 5   0  0.1344501E-05  0.2093759E+04  0.7818609E-02  0.8563998E-01
       -2   -1    0    0    0  501  0.00000000000E+00  0.00000000000E+00  0.76380660184E+03  0.76380660184E+03  0.25500000920E-02 0. -1.
        2   -1    0    0  501    0  0.00000000000E+00  0.00000000000E+00 -0.14348608504E+04  0.14348608504E+04  0.25500000920E-02 0.  1.
    10030    2    1    2    0    0  0.00000000000E+00  0.00000000000E+00 -0.67105424857E+03  0.21986674523E+04  0.20937585250E+04 0.  0.
        3    1    3    3  502    0 -0.56890153111E+02  0.98277664729E+03 -0.70956191547E+03  0.12134927070E+04  0.10100000352E+00 0.  1.
       -3    1    3    3    0  502  0.56890153111E+02 -0.98277664729E+03  0.38507666900E+02  0.98517474520E+03  0.10100000352E+00 0. -1.
</event>
<event>
 5   0  0.1395356E-05  0.2099555E+04  0.7818609E-02  0.8561440E-01
       -2   -1    0    0    0  501  0.00000000000E+00  0.00000000000E+00  0.39952853105E+03  0.39952853106E+03  0.25500000920E-02 0. -1.
        2   -1    0    0  501    0  0.00000000000E+00  0.00000000000E+00 -0.27583323263E+04  0.27583323263E+04  0.25500000920E-02 0.  1.
    10030    2    1    2    0    0  0.00000000000E+00  0.00000000000E+00 -0.23588037952E+04  0.31578608573E+04  0.20995546789E+04 0.  0.
        1    1    3    3  502    0  0.75873365018E+03 -0.72518427007E+03 -0.11470213915E+04  0.15547434033E+04  0.50400001928E-02 0.  1.
       -1    1    3    3    0  502 -0.75873365018E+03  0.72518427007E+03 -0.12117824038E+04  0.16031174541E+04  0.50400001928E-02 0. -1.
</event>
<event>
 5   0  0.1441136E-05  0.2100697E+04  0.7818609E-02  0.8560936E-01
       -2   -1    0    0    0  501  0.00000000000E+00  0.00000000000E+00  0.64991266137E+03  0.64991266138E+03  0.25500000920E-02 0.  1.
        2   -1    0    0  501    0  0.00000000000E+00  0.00000000000E+00 -0.16975088458E+04  0.16975088458E+04  0.25500000920E-02 0. -1.
    10030    2    1    2    0    0  0.00000000000E+00  0.00000000000E+00 -0.10475961845E+04  0.23474215072E+04  0.21006974953E+04 0.  0.
        4    1    3    3  502    0 -0.78039311223E+03 -0.67515514307E+03 -0.74272393532E+03  0.12714119450E+04  0.12699999809E+01 0. -1.
       -4    1    3    3    0  502  0.78039311223E+03  0.67515514307E+03 -0.30487224914E+03  0.10760095622E+04  0.12699999809E+01 0.  1.
</event>
<event>
 5   0  0.6283269E-06  0.2100880E+04  0.7818609E-02  0.8560856E-01
        1   -1    0    0  501    0  0.00000000000E+00  0.00000000000E+00  0.88906680794E+03  0.88906680796E+03  0.50400001928E-02 0. -1.
       -1   -1    0    0    0  501  0.00000000000E+00  0.00000000000E+00 -0.12411033377E+04  0.12411033377E+04  0.50400001928E-02 0.  1.
    10030    2    1    2    0    0  0.00000000000E+00  0.00000000000E+00 -0.35203652974E+03  0.21301701457E+04  0.21008796089E+04 0.  0.
        1    1    3    3  502    0  0.62943370976E+03  0.64904907196E+03  0.36620120050E+03  0.97547671016E+03  0.50400001928E-02 0.  1.
       -1    1    3    3    0  502 -0.62943370976E+03 -0.64904907196E+03 -0.71823773024E+03  0.11546934355E+04  0.50400001928E-02 0. -1.
</event>
<event>
 5   0  0.1344501E-05  0.2100305E+04  0.7818609E-02  0.8561109E-01
       -2   -1    0    0    0  501  0.00000000000E+00  0.00000000000E+00  0.12817122830E+04  0.12817122830E+04  0.25500000920E-02 0. -1.
        2   -1    0    0  501    0  0.00000000000E+00  0.00000000000E+00 -0.86042693235E+03  0.86042693235E+03  0.25500000920E-02 0.  1.
    10030    2    1    2    0    0  0.00000000000E+00  0.00000000000E+00  0.42128535069E+03  0.21421392154E+04  0.21003045187E+04 0.  0.
        3    1    3    3  502    0 -0.12710641502E+03 -0.76681339045E+03  0.93086752432E+03  0.12127131460E+04  0.10100000352E+00 0. -1.
       -3    1    3    3    0  502  0.12710641502E+03  0.76681339045E+03 -0.50958217363E+03  0.92942606936E+03  0.10100000352E+00 0.  1.
</event>
<event>
 5   0  0.6283269E-06  0.2098521E+04  0.7818609E-02  0.8561895E-01
       -1   -1    0    0    0  501  0.00000000000E+00  0.00000000000E+00  0.79781700787E+03  0.79781700788E+03  0.50400001928E-02 0.  1.
        1   -1    0    0  501    0  0.00000000000E+00  0.00000000000E+00 -0.13799495540E+04  0.13799495540E+04  0.50400001928E-02 0. -1.
    10030    2    1    2    0    0  0.00000000000E+00  0.00000000000E+00 -0.58213254614E+03  0.21777665619E+04  0.20985206448E+04 0.  0.
        1    1    3    3  502    0  0.85787542615E+03 -0.16530774362E+02  0.33566314153E+03  0.92135403505E+03  0.50400001928E-02 0.  1.
       -1    1    3    3    0  502 -0.85787542615E+03  0.16530774362E+02 -0.91779568767E+03  0.12564125268E+04  0.50400001928E-02 0. -1.
</event>
<event>
 5   0  0.1441136E-05  0.2097450E+04  0.7818609E-02  0.8562368E-01
        2   -1    0    0  501    0  0.00000000000E+00  0.00000000000E+00  0.91765451258E+03  0.91765451258E+03  0.25500000920E-02 0.  1.
       -2   -1    0    0    0  501  0.00000000000E+00  0.00000000000E+00 -0.11985164618E+04  0.11985164618E+04  0.25500000920E-02 0. -1.
    10030    2    1    2    0    0  0.00000000000E+00  0.00000000000E+00 -0.28086194917E+03  0.21161709743E+04  0.20974499179E+04 0.  0.
        4    1    3    3  502    0  0.96808955649E+02 -0.10383298625E+04 -0.25242421628E+03  0.10729494280E+04  0.12699999809E+01 0.  1.
       -4    1    3    3    0  502 -0.96808955649E+02  0.10383298625E+04 -0.28437732894E+02  0.10432215463E+04  0.12699999809E+01 0. -1.
</event>
<event>
 5   0  0.1398469E-05  0.2100051E+04  0.7818609E-02  0.8561221E-01
        2   -1    0    0  501    0  0.00000000000E+00  0.00000000000E+00  0.15802501611E+04  0.15802501611E+04  0.25500000920E-02 0.  1.
       -2   -1    0    0    0  501  0.00000000000E+00  0.00000000000E+00 -0.69770831067E+03  0.69770831067E+03  0.25500000920E-02 0. -1.
    10030    2    1    2    0    0  0.00000000000E+00  0.00000000000E+00  0.88254185039E+03  0.22779584717E+04  0.21000511140E+04 0.  0.
        2    1    3    3  502    0  0.38950816337E+02 -0.50081482026E+03 -0.55891757300E+03  0.75147954310E+03  0.25500000920E-02 0. -1.
       -2    1    3    3    0  502 -0.38950816337E+02  0.50081482026E+03  0.14414594234E+04  0.15264789286E+04  0.25500000920E-02 0.  1.
</event>
<event>
 5   0  0.1395356E-05  0.2084710E+04  0.7818609E-02  0.8568009E-01
       -2   -1    0    0    0  501  0.00000000000E+00  0.00000000000E+00  0.85504080740E+03  0.85504080740E+03  0.25500000920E-02 0. -1.
        2   -1    0    0  501    0  0.00000000000E+00  0.00000000000E+00 -0.12707041799E+04  0.12707041799E+04  0.25500000920E-02 0.  1.
    10030    2    1    2    0    0  0.00000000000E+00  0.00000000000E+00 -0.41566337249E+03  0.21257449873E+04  0.20847099827E+04 0.  0.
        1    1    3    3  502    0  0.83825783954E+03  0.60576309315E+03 -0.34030739973E+03  0.10887764954E+04  0.50400001928E-02 0.  1.
       -1    1    3    3    0  502 -0.83825783954E+03 -0.60576309315E+03 -0.75355972758E+02  0.10369684919E+04  0.50400001928E-02 0. -1.
</event>
<event>
 5   0  0.1344501E-05  0.2159849E+04  0.7818609E-02  0.8535328E-01
        2   -1    0    0  501    0  0.00000000000E+00  0.00000000000E+00  0.13836567725E+04  0.13836567725E+04  0.25500000920E-02 0.  1.
       -2   -1    0    0    0  501  0.00000000000E+00  0.00000000000E+00 -0.84286602215E+03  0.84286602215E+03  0.25500000920E-02 0. -1.
    10030    2    1    2    0    0  0.00000000000E+00  0.00000000000E+00  0.54079075039E+03  0.22265227947E+04  0.21598493280E+04 0.  0.
        3    1    3    3  502    0  0.52173695542E+02  0.82938201683E+03 -0.44056135523E+03  0.94058010944E+03  0.10100000352E+00 0. -1.
       -3    1    3    3    0  502 -0.52173695542E+02 -0.82938201683E+03  0.98135210562E+03  0.12859426853E+04  0.10100000352E+00 0.  1.
</event>
<event>
 5   0  0.1398469E-05  0.2147344E+04  0.7818609E-02  0.8540670E-01
       -2   -1    0    0    0  501  0.00000000000E+00  0.00000000000E+00  0.99372371761E+03  0.99372371762E+03  0.25500000920E-02 0. -1.
        2   -1    0    0  501    0  0.00000000000E+00  0.00000000000E+00 -0.11600528321E+04  0.11600528321E+04  0.25500000920E-02 0.  1.
    10030    2    1    2    0    0  0.00000000000E+00  0.00000000000E+00 -0.16632911444E+03  0.21537765497E+04  0.21473444185E+04 0.  0.
        2    1    3    3  502    0  0.90408966495E+03  0.57758956578E+03 -0.40798429310E+02  0.10736164774E+04  0.25500000920E-02 0.  1.
       -2    1    3    3    0  502 -0.90408966495E+03 -0.57758956578E+03 -0.12553068513E+03  0.10801600722E+04  0.25500000920E-02 0. -1.
</event>
<event>
 5   0  0.6599245E-06  0.2098783E+04  0.7818609E-02  0.8561780E-01
        1   -1    0    0  501    0  0.00000000000E+00  0.00000000000E+00  0.60361976610E+03  0.60361976612E+03  0.50400001928E-02 0.  1.
       -1   -1    0    0    0  501  0.00000000000E+00  0.00000000000E+00 -0.18243646694E+04  0.18243646694E+04  0.50400001928E-02 0. -1.
    10030    2    1    2    0    0  0.00000000000E+00  0.00000000000E+00 -0.12207449033E+04  0.24279844355E+04  0.20987830522E+04 0.  0.
        2    1    3    3  502    0 -0.32147866628E+03  0.61779164671E+03 -0.15184895400E+04  0.16705764079E+04  0.25500000920E-02 0. -1.
       -2    1    3    3    0  502  0.32147866628E+03 -0.61779164671E+03  0.29774463668E+03  0.75740802762E+03  0.25500000920E-02 0.  1.
</event>
<event>
 5   0  0.6599245E-06  0.2097093E+04  0.7818609E-02  0.8562525E-01
        1   -1    0    0  501    0  0.00000000000E+00  0.00000000000E+00  0.12134265559E+04  0.12134265560E+04  0.50400001928E-02 0. -1.
       -1   -1    0    0    0  501  0.00000000000E+00  0.00000000000E+00 -0.90607045167E+03  0.90607045169E+03  0.50400001928E-02 0.  1.
    10030    2    1    2    0    0  0.00000000000E+00  0.00000000000E+00  0.30735610427E+03  0.21194970076E+04  0.20970931764E+04 0.  0.
        2    1    3    3  502    0  0.92022837327E+03  0.27321789220E+03  0.58006384130E+03  0.11215802849E+04  0.25500000920E-02 0. -1.
       -2    1    3    3    0  502 -0.92022837327E+03 -0.27321789220E+03 -0.27270773703E+03  0.99791672270E+03  0.25500000920E-02 0.  1.
</event>
<event>
 5   0  0.6238363E-06  0.2101305E+04  0.7818609E-02  0.8560669E-01
        1   -1    0    0  501    0  0.00000000000E+00  0.00000000000E+00  0.18668946448E+04  0.18668946448E+04  0.50400001928E-02 0. -1.
       -1   -1    0    0    0  501  0.00000000000E+00  0.00000000000E+00 -0.59128718774E+03  0.59128718776E+03  0.50400001928E-02 0.  1.
    10030    2    1    2    0    0  0.00000000000E+00  0.00000000000E+00  0.12756074570E+04  0.24581818325E+04  0.21013051985E+04 0.  0.
        4    1    3    3  502    0 -0.10354509373E+04 -0.25739423866E+02  0.43167313478E+03  0.11221249795E+04  0.12699999809E+01 0.  1.
       -4    1    3    3    0  502  0.10354509373E+04  0.25739423866E+02  0.84393432224E+03  0.13360568530E+04  0.12699999809E+01 0. -1.
</event>
<event>
 5   0  0.6917078E-06  0.2098832E+04  0.7818609E-02  0.8561758E-01
       -1   -1    0    0    0  501  0.00000000000E+00  0.00000000000E+00  0.58488948598E+03  0.58488948600E+03  0.50400001928E-02 0.  1.
        1   -1    0    0  501    0  0.00000000000E+00  0.00000000000E+00 -0.18828743700E+04  0.18828743700E+04  0.50400001928E-02 0. -1.
    10030    2    1    2    0    0  0.00000000000E+00  0.00000000000E+00 -0.12979848840E+04  0.24677638560E+04  0.20988315058E+04 0.  0.
        5    1    3    3  502    0  0.54934118446E+03  0.39067801722E+03 -0.15946340384E+04  0.17312668357E+04  0.46999998093E+01 0. -1.
       -5    1    3    3    0  502 -0.54934118446E+03 -0.39067801722E+03  0.29664915437E+03  0.73649702028E+03  0.46999998093E+01 0.  1.
</event>
<event>
 5   0  0.6917078E-06  0.2135055E+04  0.7818609E-02  0.8545957E-01
        1   -1    0    0  501    0  0.00000000000E+00  0.00000000000E+00  0.10661080541E+04  0.10661080541E+04  0.50400001928E-02 0. -1.
       -1   -1    0    0    0  501  0.00000000000E+00  0.00000000000E+00 -0.10689490355E+04  0.10689490355E+04  0.50400001928E-02 0.  1.
    10030    2    1    2    0    0  0.00000000000E+00  0.00000000000E+00 -0.28409814460E+01  0.21350570896E+04  0.21350551994E+04 0.  0.
        5    1    3    3  502    0 -0.91837589218E+03  0.16938095011E+03 -0.51861423989E+03  0.10682167408E+04  0.46999998093E+01 0.  1.
       -5    1    3    3    0  502  0.91837589218E+03 -0.16938095011E+03  0.51577325844E+03  0.10668403488E+04  0.46999998093E+01 0. -1.
</event>
<event>
 5   0  0.1344501E-05  0.2098547E+04  0.7818609E-02  0.8561884E-01
        2   -1    0    0  501    0  0.00000000000E+00  0.00000000000E+00  0.17235942509E+04  0.17235942509E+04  0.25500000920E-02 0. -1.
       -2   -1    0    0    0  501  0.00000000000E+00  0.00000000000E+00 -0.63876656177E+03  0.63876656177E+03  0.25500000920E-02 0.  1.
    10030    2    1    2    0    0  0.00000000000E+00  0.00000000000E+00  0.10848276892E+04  0.23623608127E+04  0.20985465194E+04 0.  0.
        3    1    3    3  502    0  0.57871180502E+03  0.44890999659E+03  0.13882331893E+04  0.15695919649E+04  0.10100000352E+00 0. -1.
       -3    1    3    3    0  502 -0.57871180502E+03 -0.44890999659E+03 -0.30340550012E+03  0.79276884778E+03  0.10100000352E+00 0.  1.
</event>
<event>
 5   0  0.1344501E-05  0.2112891E+04  0.7818609E-02  0.8555586E-01
       -2   -1    0    0    0  501  0.00000000000E+00  0.00000000000E+00  0.52864366546E+03  0.52864366547E+03  0.25500000920E-02 0.  1.
        2   -1    0    0  501    0  0.00000000000E+00  0.00000000000E+00 -0.21112086947E+04  0.21112086947E+04  0.25500000920E-02 0. -1.
    10030    2    1    2    0    0  0.00000000000E+00  0.00000000000E+00 -0.15825650293E+04  0.26398523602E+04  0.21128910080E+04 0.  0.
        3    1    3    3  502    0 -0.13177579595E+03 -0.98518516875E+03 -0.12384962183E+04  0.15880263128E+04  0.10100000352E+00 0. -1.
       -3    1    3    3    0  502  0.13177579595E+03  0.98518516875E+03 -0.34406881093E+03  0.10518260474E+04  0.10100000352E+00 0.  1.
</event>
<event>
 5   0  0.6917078E-06  0.2096313E+04  0.7818609E-02  0.8562869E-01
       -1   -1    0    0    0  501  0.00000000000E+00  0.00000000000E+00  0.18429659467E+04  0.18429659467E+04  0.50400001928E-02 0.  1.
        1   -1    0    0  501    0  0.00000000000E+00  0.00000000000E+00 -0.59612196136E+03  0.59612196138E+03  0.50400001928E-02 0. -1.
    10030    2    1    2    0    0  0.00000000000E+00  0.00000000000E+00  0.12468439853E+04  0.24390879081E+04  0.20963134068E+04 0.  0.
        5    1    3    3  502    0  0.63113039675E+03 -0.69619131302E+03  0.11636761283E+04  0.14957179359E+04  0.46999998093E+01 0.  1.
       -5    1    3    3    0  502 -0.63113039675E+03  0.69619131302E+03  0.83167857003E+02  0.94336997221E+03  0.46999998093E+01 0. -1.
</event>
<event>
 5   0  0.1395356E-05  0.2100516E+04  0.7818609E-02  0.8561016E-01
       -2   -1    0    0    0  501  0.00000000000E+00  0.00000000000E+00  0.50510630764E+03  0.50510630764E+03  0.25500000920E-02 0. -1.
        2   -1    0    0  501    0  0.00000000000E+00  0.00000000000E+00 -0.21837809175E+04  0.21837809175E+04  0.25500000920E-02 0.  1.
    10030    2    1    2    0    0  0.00000000000E+00  0.00000000000E+00 -0.16786746099E+04  0.26888872252E+04  0.21005156662E+04 0.  0.
        1    1    3    3  502    0 -0.11471599025E+03 -0.52592289581E+03  0.31509518808E+03  0.62373041319E+03  0.50400001928E-02 0. -1.
       -1    1    3    3    0  502  0.11471599025E+03  0.52592289581E+03 -0.19937697980E+04  0.20651568120E+04  0.50400001928E-02 0.  1.
</event>
<event>
 5   0  0.6599245E-06  0.2102366E+04  0.7818609E-02  0.8560202E-01
       -1   -1    0    0    0  501  0.00000000000E+00  0.00000000000E+00  0.12434629499E+04  0.12434629499E+04  0.50400001928E-02 0.  1.
        1   -1    0    0  501    0  0.00000000000E+00  0.00000000000E+00 -0.88863564049E+03  0.88863564050E+03  0.50400001928E-02 0. -1.
    10030    2    1    2    0    0  0.00000000000E+00  0.00000000000E+00  0.35482730936E+03  0.21320985904E+04  0.21023658054E+04 0.  0.
        2    1    3    3  502    0 -0.10367460169E+03  0.84668793882E+03  0.80039490706E+03  0.11697268468E+04  0.25500000920E-02 0.  1.
       -2    1    3    3    0  502  0.10367460169E+03 -0.84668793882E+03 -0.44556759770E+03  0.96237174361E+03  0.25500000920E-02 0. -1.
</event>
<event>
 5   0  0.1344501E-05  0.2103623E+04  0.7818609E-02  0.8559649E-01
       -2   -1    0    0    0  501  0.00000000000E+00  0.00000000000E+00  0.80094317202E+03  0.80094317202E+03  0.25500000920E-02 0. -1.
        2   -1    0    0  501    0  0.00000000000E+00  0.00000000000E+00 -0.13812563375E+04  0.13812563375E+04  0.25500000920E-02 0.  1.
    10030    2    1    2    0    0  0.00000000000E+00  0.00000000000E+00 -0.58031316549E+03  0.21821995095E+04  0.21036233811E+04 0.  0.
        3    1    3    3  502    0  0.10036039902E+04 -0.27769397571E+03 -0.44392609661E+03  0.11319917415E+04  0.10100000352E+00 0.  1.
       -3    1    3    3    0  502 -0.10036039902E+04  0.27769397571E+03 -0.13638706888E+03  0.10502077681E+04  0.10100000352E+00 0. -1.
</event>
<event>
 5   0  0.1441136E-05  0.2099540E+04  0.7818609E-02  0.8561446E-01
        2   -1    0    0  501    0  0.00000000000E+00  0.00000000000E+00  0.11371735288E+04  0.11371735288E+04  0.25500000920E-02 0.  1.
       -2   -1    0    0    0  501  0.00000000000E+00  0.00000000000E+00 -0.96908400209E+03  0.96908400209E+03  0.25500000920E-02 0. -1.
    10030    2    1    2    0    0  0.00000000000E+00  0.00000000000E+00  0.16808952672E+03  0.21062575309E+04  0.20995396394E+04 0.  0.
        4    1    3    3  502    0 -0.20902343939E+03  0.94528694074E+03  0.49124605746E+03  0.10856253960E+04  0.12699999809E+01 0. -1.
       -4    1    3    3    0  502  0.20902343939E+03 -0.94528694074E+03 -0.32315653074E+03  0.10206321349E+04  0.12699999809E+01 0.  1.
</event>
<event>
 5   0  0.1390735E-05  0.2098689E+04  0.7818609E-02  0.8561821E-01
       -2   -1    0    0    0  501  0.00000000000E+00  0.00000000000E+00  0.63090325918E+03  0.63090325918E+03  0.25500000920E-02 0.  1.
        2   -1    0    0  501    0  0.00000000000E+00  0.00000000000E+00 -0.17453127081E+04  0.17453127081E+04  0.25500000920E-02 0. -1.
    10030    2    1    2    0    0  0.00000000000E+00  0.00000000000E+00 -0.11144094490E+04  0.23762159673E+04  0.20986886152E+04 0.  0.
        5    1    3    3  502    0  0.77382791649E+03  0.65541254739E+03 -0.25186510858E+03  0.10449083091E+04  0.46999998093E+01 0.  1.
       -5    1    3    3    0  502 -0.77382791649E+03 -0.65541254739E+03 -0.86254434038E+03  0.13313076582E+04  0.46999998093E+01 0. -1.
</event>
<event>
 5   0  0.6283269E-06  0.2098871E+04  0.7818609E-02  0.8561741E-01
       -1   -1    0    0    0  501  0.00000000000E+00  0.00000000000E+00  0.75974687123E+03  0.75974687125E+03  0.50400001928E-02 0. -1.
        1   -1    0    0  501    0  0.00000000000E+00  0.00000000000E+00 -0.14495812924E+04  0.14495812924E+04  0.50400001928E-02 0.  1.
    10030    2    1    2    0    0  0.00000000000E+00  0.00000000000E+00 -0.68983442120E+03  0.22093281637E+04  0.20988709837E+04 0.  0.
        1    1    3    3  502    0 -0.87998090717E+03 -0.14646932349E+03  0.23688675202E+03  0.92300324648E+03  0.50400001928E-02 0. -1.
       -1    1    3    3    0  502  0.87998090717E+03  0.14646932349E+03 -0.92672117322E+03  0.12863249172E+04  0.50400001928E-02 0.  1.
</event>
<event>
 5   0  0.6589193E-06  0.2094186E+04  0.7818609E-02  0.8563809E-01
        1   -1    0    0  501    0  0.00000000000E+00  0.00000000000E+00  0.13381369151E+04  0.13381369151E+04  0.50400001928E-02 0.  1.
       -1   -1    0    0    0  501  0.00000000000E+00  0.00000000000E+00 -0.81935073026E+03  0.81935073028E+03  0.50400001928E-02 0. -1.
    10030    2    1    2    0    0  0.00000000000E+00  0.00000000000E+00  0.51878618479E+03  0.21574876453E+04  0.20941857211E+04 0.  0.
        3    1    3    3  502    0 -0.86012227216E+03  0.58189987603E+02 -0.35288371009E+03  0.93151667767E+03  0.10100000352E+00 0. -1.
       -3    1    3    3    0  502  0.86012227216E+03 -0.58189987603E+02  0.87166989488E+03  0.12259709677E+04  0.10100000352E+00 0.  1.
</event>
<event>
 5   0  0.6238363E-06  0.2100552E+04  0.7818609E-02  0.8561000E-01
       -1   -1    0    0    0  501  0.00000000000E+00  0.00000000000E+00  0.59732070073E+03  0.59732070075E+03  0.50400001928E-02 0. -1.
        1   -1    0    0  501    0  0.00000000000E+00  0.00000000000E+00 -0.18467117722E+04  0.18467117722E+04  0.50400001928E-02 0.  1.
    10030    2    1    2    0    0  0.00000000000E+00  0.00000000000E+00 -0.12493910715E+04  0.24440324730E+04  0.21005515179E+04 0.  0.
        4    1    3    3  502    0  0.11331365525E+02  0.99588736841E+03 -0.10126163052E+04  0.14203215991E+04  0.12699999809E+01 0.  1.
       -4    1    3    3    0  502 -0.11331365525E+02 -0.99588736841E+03 -0.23677476625E+03  0.10237108738E+04  0.12699999809E+01 0. -1.
</event>
<event>
 5   0  0.6917078E-06  0.2093495E+04  0.7818609E-02  0.8564115E-01
        1   -1    0    0  501    0  0.00000000000E+00  0.00000000000E+00  0.20009916640E+04  0.20009916640E+04  0.50400001928E-02 0. -1.
       -1   -1    0    0    0  501  0.00000000000E+00  0.00000000000E+00 -0.54756841355E+03  0.54756841357E+03  0.50400001928E-02 0.  1.
    10030    2    1    2    0    0  0.00000000000E+00  0.00000000000E+00  0.14534232505E+04  0.25485600776E+04  0.20934945245E+04 0.  0.
        5    1    3    3  502    0  0.86683037401E+03  0.33653279729E+03  0.13118209849E+04  0.16079631859E+04  0.46999998093E+01 0. -1.
       -5    1    3    3    0  502 -0.86683037401E+03 -0.33653279729E+03  0.14160226558E+03  0.94059689165E+03  0.46999998093E+01 0.  1.
</event>
<event>
 5   0  0.1344501E-05  0.2097247E+04  0.7818609E-02  0.8562457E-01
       -2   -1    0    0    0  501  0.00000000000E+00  0.00000000000E+00  0.54980670492E+03  0.54980670493E+03  0.25500000920E-02 0. -1.
        2   -1    0    0  501    0  0.00000000000E+00  0.00000000000E+00 -0.19999955029E+04  0.19999955029E+04  0.25500000920E-02 0.  1.
    10030    2    1    2    0    0  0.00000000000E+00  0.00000000000E+00 -0.14501887979E+04  0.25498022078E+04  0.20972467068E+04 0.  0.
        3    1    3    3  502    0 -0.18653109380E+03 -0.50912647126E+03  0.36614156856E+03  0.65426544393E+03  0.10100000352E+00 0. -1.
       -3    1    3    3    0  502  0.18653109380E+03  0.50912647126E+03 -0.18163303665E+04  0.18955367639E+04  0.10100000352E+00 0.  1.
</event>
<event>
 5   0  0.6599245E-06  0.2098218E+04  0.7818609E-02  0.8562029E-01
       -1   -1    0    0    0  501  0.00000000000E+00  0.00000000000E+00  0.67676041310E+03  0.67676041312E+03  0.50400001928E-02 0. -1.
        1   -1    0    0  501    0  0.00000000000E+00  0.00000000000E+00 -0.16263203215E+04  0.16263203215E+04  0.50400001928E-02 0.  1.
    10030    2    1    2    0    0  0.00000000000E+00  0.00000000000E+00 -0.94955990839E+03  0.23030807346E+04  0.20982175413E+04 0.  0.
        2    1    3    3  502    0  0.91125386944E+03  0.41944015743E+03 -0.81187339757E+03  0.12905239533E+04  0.25500000920E-02 0.  1.
       -2    1    3    3    0  502 -0.91125386944E+03 -0.41944015743E+03 -0.13768651082E+03  0.10125567814E+04  0.25500000920E-02 0. -1.
</event>
<event>
 5   0  0.6238363E-06  0.2096861E+04  0.7818609E-02  0.8562627E-01
        1   -1    0    0  501    0  0.00000000000E+00  0.00000000000E+00  0.67029487754E+03  0.67029487756E+03  0.50400001928E-02 0. -1.
       -1   -1    0    0    0  501  0.00000000000E+00  0.00000000000E+00 -0.16398857062E+04  0.16398857062E+04  0.50400001928E-02 0.  1.
    10030    2    1    2    0    0  0.00000000000E+00  0.00000000000E+00 -0.96959082863E+03  0.23101805837E+04  0.20968614533E+04 0.  0.
        4    1    3    3  502    0 -0.47466670272E+03 -0.93365774906E+03 -0.53623706153E+03  0.11766805302E+04  0.12699999809E+01 0. -1.
       -4    1    3    3    0  502  0.47466670272E+03  0.93365774906E+03 -0.43335376710E+03  0.11335000536E+04  0.12699999809E+01 0.  1.
</event>
<event>
 5   0  0.6589193E-06  0.2101188E+04  0.7818609E-02  0.8560720E-01
       -1   -1    0    0    0  501  0.00000000000E+00  0.00000000000E+00  0.65213958142E+03  0.65213958144E+03  0.50400001928E-02 0.  1.
        1   -1    0    0  501    0  0.00000000000E+00  0.00000000000E+00 -0.16925022732E+04  0.16925022732E+04  0.50400001928E-02 0. -1.
    10030    2    1    2    0    0  0.00000000000E+00  0.00000000000E+00 -0.10403626918E+04  0.23446418546E+04  0.21011879726E+04 0.  0.
        3    1    3    3  502    0 -0.90502592817E+03 -0.43723172394E+03 -0.86139560596E+03  0.13237242580E+04  0.10100000352E+00 0. -1.
       -3    1    3    3    0  502  0.90502592817E+03  0.43723172394E+03 -0.17896708581E+03  0.10209175966E+04  0.10100000352E+00 0.  1.
</event>
<event>
 5   0  0.6238363E-06  0.2077949E+04  0.7818609E-02  0.8571019E-01
        1   -1    0    0  501    0  0.00000000000E+00  0.00000000000E+00  0.12493988263E+04  0.12493988263E+04  0.50400001928E-02 0. -1.
       -1   -1    0    0    0  501  0.00000000000E+00  0.00000000000E+00 -0.86399033706E+03  0.86399033708E+03  0.50400001928E-02 0.  1.
    10030    2    1    2    0    0  0.00000000000E+00  0.00000000000E+00  0.38540848920E+03  0.21133891634E+04  0.20779494826E+04 0.  0.
        4    1    3    3  502    0  0.64478167207E+03  0.93381331938E+02 -0.63042167148E+03  0.90658511711E+03  0.12699999809E+01 0.  1.
       -4    1    3    3    0  502 -0.64478167207E+03 -0.93381331938E+02  0.10158301607E+04  0.12068040463E+04  0.12699999809E+01 0. -1.
</event>
<event>
 5   0  0.1398469E-05  0.2098880E+04  0.7818609E-02  0.8561737E-01
        2   -1    0    0  501    0  0.00000000000E+00  0.00000000000E+00  0.17719507039E+04  0.17719507039E+04  0.25500000920E-02 0.  1.
       -2   -1    0    0    0  501  0.00000000000E+00  0.00000000000E+00 -0.62153243489E+03  0.62153243489E+03  0.25500000920E-02 0. -1.
    10030    2    1    2    0    0  0.00000000000E+00  0.00000000000E+00  0.11504182690E+04  0.23934831388E+04  0.20988804973E+04 0.  0.
        2    1    3    3  502    0 -0.42078163094E+02  0.93841030823E+03  0.11087965413E+04  0.14532082605E+04  0.25500000920E-02 0.  1.
       -2    1    3    3    0  502  0.42078163094E+02 -0.93841030823E+03  0.41621727644E+02  0.94027487822E+03  0.25500000920E-02 0. -1.
</event>
<event>
 5   0  0.1390735E-05  0.2101346E+04  0.7818609E-02  0.8560651E-01
        2   -1    0    0  501    0  0.00000000000E+00  0.00000000000E+00  0.69412086906E+03  0.69412086906E+03  0.25500000920E-02 0.  1.
       -2   -1    0    0    0  501  0.00000000000E+00  0.00000000000E+00 -0.15903770382E+04  0.15903770382E+04  0.25500000920E-02 0. -1.
    10030    2    1    2    0    0  0.00000000000E+00  0.00000000000E+00 -0.89625616911E+03  0.22844979072E+04  0.21013461322E+04 0.  0.
        5    1    3    3  502    0  0.29303765902E+03 -0.11587709637E+02 -0.15449669672E+04  0.15725617204E+04  0.46999998093E+01 0. -1.
       -5    1    3    3    0  502 -0.29303765902E+03  0.11587709637E+02  0.64871079809E+03  0.71193618687E+03  0.46999998093E+01 0.  1.
</event>
<event>
 5   0  0.1344501E-05  0.2101017E+04  0.7818609E-02  0.8560796E-01
       -2   -1    0    0    0  501  0.00000000000E+00  0.00000000000E+00  0.10371256120E+04  0.10371256120E+04  0.25500000920E-02 0. -1.
        2   -1    0    0  501    0  0.00000000000E+00  0.00000000000E+00 -0.10640638547E+04  0.10640638547E+04  0.25500000920E-02 0.  1.
    10030    2    1    2    0    0  0.00000000000E+00  0.00000000000E+00 -0.26938242728E+02  0.21011894667E+04  0.21010167791E+04 0.  0.
        3    1    3    3  502    0 -0.85926097430E+02 -0.82021041967E+03  0.63730660764E+03  0.10422514807E+04  0.10100000352E+00 0. -1.
       -3    1    3    3    0  502  0.85926097430E+02  0.82021041967E+03 -0.66424485037E+03  0.10589379860E+04  0.10100000352E+00 0.  1.
</event>
<event>
 5   0  0.1390735E-05  0.2103441E+04  0.7818609E-02  0.8559729E-01
       -2   -1    0    0    0  501  0.00000000000E+00  0.00000000000E+00  0.69608355274E+03  0.69608355274E+03  0.25500000920E-02 0.  1.
        2   -1    0    0  501    0  0.00000000000E+00  0.00000000000E+00 -0.15890569916E+04  0.15890569916E+04  0.25500000920E-02 0. -1.
    10030    2    1    2    0    0  0.00000000000E+00  0.00000000000E+00 -0.89297343887E+03  0.22851405443E+04  0.21034414051E+04 0.  0.
        5    1    3    3  502    0 -0.96915405909E+03 -0.40840616118E+03 -0.45328537700E+03  0.11452270106E+04  0.46999998093E+01 0.  1.
       -5    1    3    3    0  502  0.96915405909E+03  0.40840616118E+03 -0.43968806187E+03  0.11399135338E+04  0.46999998093E+01 0. -1.
</event>
<event>
 5   0  0.6238363E-06  0.2119453E+04  0.7818609E-02  0.8552722E-01
       -1   -1    0    0    0  501  0.00000000000E+00  0.00000000000E+00  0.74095127755E+03  0.74095127757E+03  0.50400001928E-02 0.  1.
        1   -1    0    0  501    0  0.00000000000E+00  0.00000000000E+00 -0.15156460088E+04  0.15156460088E+04  0.50400001928E-02 0. -1.
    10030    2    1    2    0    0  0.00000000000E+00  0.00000000000E+00 -0.77469473123E+03  0.22565972863E+04  0.21194526147E+04 0.  0.
        4    1    3    3  502    0  0.39882227624E+03  0.97238147925E+03 -0.53190189773E+03  0.11779245268E+04  0.12699999809E+01 0.  1.
       -4    1    3    3    0  502 -0.39882227624E+03 -0.97238147925E+03 -0.24279283350E+03  0.10786727595E+04  0.12699999809E+01 0. -1.
</event>
<event>
 5   0  0.6589193E-06  0.2097927E+04  0.7818609E-02  0.8562157E-01
        1   -1    0    0  501    0  0.00000000000E+00  0.00000000000E+00  0.14872450576E+04  0.14872450576E+04  0.50400001928E-02 0. -1.
       -1   -1    0    0    0  501  0.00000000000E+00  0.00000000000E+00 -0.73984100386E+03  0.73984100387E+03  0.50400001928E-02 0.  1.
    10030    2    1    2    0    0  0.00000000000E+00  0.00000000000E+00  0.74740405372E+03  0.22270860615E+04  0.20979274310E+04 0.  0.
        3    1    3    3  502    0  0.98375434240E+03 -0.24120835613E+03  0.84202583769E+02  0.10163878013E+04  0.10100000352E+00 0.  1.
       -3    1    3    3    0  502 -0.98375434240E+03  0.24120835613E+03  0.66320146995E+03  0.12106982602E+04  0.10100000352E+00 0. -1.
</event>
<event>
 5   0  0.6589193E-06  0.2098952E+04  0.7818609E-02  0.8561705E-01
       -1   -1    0    0    0  501  0.00000000000E+00  0.00000000000E+00  0.10114224424E+04  0.10114224424E+04  0.50400001928E-02 0. -1.
        1   -1    0    0  501    0  0.00000000000E+00  0.00000000000E+00 -0.10889610485E+04  0.10889610486E+04  0.50400001928E-02 0.  1.
    10030    2    1    2    0    0  0.00000000000E+00  0.00000000000E+00 -0.77538606124E+02  0.21003834910E+04  0.20989517798E+04 0.  0.
        3    1    3    3  502    0 -0.10400908028E+04  0.50045548054E+02  0.92110576033E+02  0.10453601310E+04  0.10100000352E+00 0. -1.
       -3    1    3    3    0  502  0.10400908028E+04 -0.50045548054E+02 -0.16964918216E+03  0.10550233600E+04  0.10100000352E+00 0.  1.
</event>
<event>
 5   0  0.6917078E-06  0.2098873E+04  0.7818609E-02  0.8561740E-01
       -1   -1    0    0    0  501  0.00000000000E+00  0.00000000000E+00  0.99693256846E+03  0.99693256847E+03  0.50400001928E-02 0.  1.
        1   -1    0    0  501    0  0.00000000000E+00  0.00000000000E+00 -0.11047059052E+04  0.11047059053E+04  0.50400001928E-02 0. -1.
    10030    2    1    2    0    0  0.00000000000E+00  0.00000000000E+00 -0.10777333678E+03  0.21016384737E+04  0.20988733126E+04 0.  0.
        5    1    3    3  502    0  0.60285263336E+03  0.40157115706E+03 -0.81423185982E+03  0.10898102143E+04  0.46999998093E+01 0. -1.
       -5    1    3    3    0  502 -0.60285263336E+03 -0.40157115706E+03  0.70645852304E+03  0.10118282594E+04  0.46999998093E+01 0.  1.
</event>
<event>
 5   0  0.1398469E-05  0.2101741E+04  0.7818609E-02  0.8560477E-01
        2   -1    0    0  501    0  0.00000000000E+00  0.00000000000E+00  0.30321580523E+04  0.30321580523E+04  0.25500000920E-02 0.  1.
       -2   -1    0    0    0  501  0.00000000000E+00  0.00000000000E+00 -0.36420572442E+03  0.36420572443E+03  0.25500000920E-02 0. -1.
    10030    2    1    2    0    0  0.00000000000E+00  0.00000000000E+00  0.26679523279E+04  0.33963637767E+04  0.21017414874E+04 0.  0.
        2    1    3    3  502    0 -0.50713844498E+03  0.29301028509E+03 -0.75989408159E+02  0.59060885508E+03  0.25500000920E-02 0. -1.
       -2    1    3    3    0  502  0.50713844498E+03 -0.29301028509E+03  0.27439417360E+04  0.28057549216E+04  0.25500000920E-02 0.  1.
</event>
<event>
 5   0  0.1344501E-05  0.2120177E+04  0.7818609E-02  0.8552407E-01
       -2   -1    0    0    0  501  0.00000000000E+00  0.00000000000E+00  0.12594234233E+04  0.12594234233E+04  0.25500000920E-02 0.  1.
        2   -1    0    0  501    0  0.00000000000E+00  0.00000000000E+00 -0.89230352885E+03  0.89230352886E+03  0.25500000920E-02 0. -1.
    10030    2    1    2    0    0  0.00000000000E+00  0.00000000000E+00  0.36711989444E+03  0.21517269522E+04  0.21201773180E+04 0.  0.
        3    1    3    3  502    0 -0.57871594220E+03  0.45575122725E+03  0.95724696792E+03  0.12078671660E+04  0.10100000352E+00 0.  1.
       -3    1    3    3    0  502  0.57871594220E+03 -0.45575122725E+03 -0.59012707347E+03  0.94385978617E+03  0.10100000352E+00 0. -1.
</event>
<event>
 5   0  0.1344501E-05  0.2098624E+04  0.7818609E-02  0.8561850E-01
        2   -1    0    0  501    0  0.00000000000E+00  0.00000000000E+00  0.60462803762E+03  0.60462803763E+03  0.25500000920E-02 0.  1.
       -2   -1    0    0    0  501  0.00000000000E+00  0.00000000000E+00 -0.18210456246E+04  0.18210456246E+04  0.25500000920E-02 0. -1.
    10030    2    1    2    0    0  0.00000000000E+00  0.00000000000E+00 -0.12164175870E+04  0.24256736622E+04  0.20986235893E+04 0.  0.
        3    1    3    3  502    0 -0.89198786524E+03  0.32270414563E+03 -0.11267611931E+04  0.14728785129E+04  0.10100000352E+00 0. -1.
       -3    1    3    3    0  502  0.89198786524E+03 -0.32270414563E+03 -0.89656393846E+02  0.95279514928E+03  0.10100000352E+00 0.  1.
</event>
<event>
 5   0  0.6599245E-06  0.2099434E+04  0.7818609E-02  0.8561493E-01
        1   -1    0    0  501    0  0.00000000000E+00  0.00000000000E+00  0.17363257980E+04  0.17363257980E+04  0.50400001928E-02 0. -1.
       -1   -1    0    0    0  501  0.00000000000E+00  0.00000000000E+00 -0.63461920489E+03  0.63461920491E+03  0.50400001928E-02 0.  1.
    10030    2    1    2    0    0  0.00000000000E+00  0.00000000000E+00  0.11017065931E+04  0.23709450029E+04  0.20994339212E+04 0.  0.
        2    1    3    3  502    0  0.32421652525E+03 -0.10731148298E+03  0.16718328483E+04  0.17063578706E+04  0.25500000920E-02 0. -1.
       -2    1    3    3    0  502 -0.32421652525E+03  0.10731148298E+03 -0.57012625522E+03  0.66458713237E+03  0.25500000920E-02 0.  1.
</event>
<event>
 5   0  0.1441136E-05  0.2100659E+04  0.7818609E-02  0.8560953E-01
       -2   -1    0    0    0  501  0.00000000000E+00  0.00000000000E+00  0.62475949763E+03  0.62475949763E+03  0.25500000920E-02 0. -1.
        2   -1    0    0  501    0  0.00000000000E+00  0.00000000000E+00 -0.17657874008E+04  0.17657874008E+04  0.25500000920E-02 0.  1.
    10030    2    1    2    0    0  0.00000000000E+00  0.00000000000E+00 -0.11410279032E+04  0.23905468984E+04  0.21006593722E+04 0.  0.
        4    1    3    3  502    0  0.53042365684E+03 -0.66831084529E+03 -0.12675806212E+04  0.15279891641E+04  0.12699999809E+01 0.  1.
       -4    1    3    3    0  502 -0.53042365684E+03  0.66831084529E+03  0.12655271799E+03  0.86255773430E+03  0.12699999809E+01 0. -1.
</event>
<event>
 5   0  0.1344501E-05  0.2100628E+04  0.7818609E-02  0.8560967E-01
        2   -1    0    0  501    0  0.00000000000E+00  0.00000000000E+00  0.25923624452E+04  0.25923624452E+04  0.25500000920E-02 0. -1.
       -2   -1    0    0    0  501  0.00000000000E+00  0.00000000000E+00 -0.42554216321E+03  0.42554216322E+03  0.25500000920E-02 0.  1.
    10030    2    1    2    0    0  0.00000000000E+00  0.00000000000E+00  0.21668202820E+04  0.30179046085E+04  0.21006280230E+04 0.  0.
        3    1    3    3  502    0  0.93591019596E+03  0.47565285082E+03  0.11285220400E+04  0.15413421211E+04  0.10100000352E+00 0.  1.
       -3    1    3    3    0  502 -0.93591019596E+03 -0.47565285082E+03  0.10382982420E+04  0.14765624873E+04  0.10100000352E+00 0. -1.
</event>
<event>
 5   0  0.1344501E-05  0.2088274E+04  0.7818609E-02  0.8566426E-01
       -2   -1    0    0    0  501  0.00000000000E+00  0.00000000000E+00  0.39566084934E+03  0.39566084935E+03  0.25500000920E-02 0.  1.
        2   -1    0    0  501    0  0.00000000000E+00  0.00000000000E+00 -0.27554461900E+04  0.27554461900E+04  0.25500000920E-02 0. -1.
    10030    2    1    2    0    0  0.00000000000E+00  0.00000000000E+00 -0.23597853407E+04  0.31511070394E+04  0.20882741007E+04 0.  0.
        3    1    3    3  502    0  0.77722740457E+02 -0.78436290363E+03 -0.22132292076E+04  0.23493934376E+04  0.10100000352E+00 0. -1.
       -3    1    3    3    0  502 -0.77722740457E+02  0.78436290363E+03 -0.14655613310E+03  0.80171360181E+03  0.10100000352E+00 0.  1.
</event>
<event>
 5   0  0.1344501E-05  0.2096760E+04  0.7818609E-02  0.8562672E-01
       -2   -1    0    0    0  501  0.00000000000E+00  0.00000000000E+00  0.58579583289E+03  0.58579583289E+03  0.25500000920E-02 0. -1.
        2   -1    0    0  501    0  0.00000000000E+00  0.00000000000E+00 -0.18762527228E+04  0.18762527228E+04  0.25500000920E-02 0.  1.
    10030    2    1    2    0    0  0.00000000000E+00  0.00000000000E+00 -0.12904568899E+04  0.24620485557E+04  0.20967603835E+04 0.  0.
        3    1    3    3  502    0  0.95632514374E+03 -0.35204429123E+03 -0.93430507068E+03  0.13825407549E+04  0.10100000352E+00 0.  1.
       -3    1    3    3    0  502 -0.95632514374E+03  0.35204429123E+03 -0.35615181922E+03  0.10795078008E+04  0.10100000352E+00 0. -1.
</event>
<event>
 5   0  0.1390735E-05  0.2101707E+04  0.7818609E-02  0.8560492E-01
        2   -1    0    0  501    0  0.00000000000E+00  0.00000000000E+00  0.28585788160E+04  0.28585788161E+04  0.25500000920E-02 0.  1.
       -2   -1    0    0    0  501  0.00000000000E+00  0.00000000000E+00 -0.38630848851E+03  0.38630848852E+03  0.25500000920E-02 0. -1.
    10030    2    1    2    0    0  0.00000000000E+00  0.00000000000E+00  0.24722703275E+04  0.32448873046E+04  0.21017071744E+04 0.  0.
        5    1    3    3  502    0 -0.65153284635E+03  0.37064840983E+03  0.99069351918E+02  0.75611647255E+03  0.46999998093E+01 0. -1.
       -5    1    3    3    0  502  0.65153284635E+03 -0.37064840983E+03  0.23732009756E+04  0.24887708320E+04  0.46999998093E+01 0.  1.
</event>
<event>
 5   0  0.6589193E-06  0.2102105E+04  0.7818609E-02  0.8560317E-01
       -1   -1    0    0    0  501  0.00000000000E+00  0.00000000000E+00  0.11491723586E+04  0.11491723586E+04  0.50400001928E-02 0.  1.
        1   -1    0    0  501    0  0.00000000000E+00  0.00000000000E+00 -0.96131064999E+03  0.96131065000E+03  0.50400001928E-02 0. -1.
    10030    2    1    2    0    0  0.00000000000E+00  0.00000000000E+00  0.18786170863E+03  0.21104830086E+04  0.21021052562E+04 0.  0.
        3    1    3    3  502    0 -0.83764158428E+03  0.53733490823E+03 -0.24555785602E+03  0.10250223891E+04  0.10100000352E+00 0. -1.
       -3    1    3    3    0  502  0.83764158428E+03 -0.53733490823E+03  0.43341956466E+03  0.10854606195E+04  0.10100000352E+00 0.  1.
</event>
<event>
 5   0  0.6599245E-06  0.2105141E+04  0.7818609E-02  0.8558982E-01
        1   -1    0    0  501    0  0.00000000000E+00  0.00000000000E+00  0.14979463473E+04  0.14979463474E+04  0.50400001928E-02 0.  1.
       -1   -1    0    0    0  501  0.00000000000E+00  0.00000000000E+00 -0.73961589695E+03  0.73961589696E+03  0.50400001928E-02 0. -1.
    10030    2    1    2    0    0  0.00000000000E+00  0.00000000000E+00  0.75833045040E+03  0.22375622443E+04  0.21051412602E+04 0.  0.
        2    1    3    3  502    0 -0.61264762186E+03  0.33676758214E+03  0.12155261244E+04  0.14022315330E+04  0.25500000920E-02 0.  1.
       -2    1    3    3    0  502  0.61264762186E+03 -0.33676758214E+03 -0.45719567401E+03  0.83533071134E+03  0.25500000920E-02 0. -1.
</event>
<event>
 5   0  0.6238363E-06  0.2099675E+04  0.7818609E-02  0.8561386E-01
        1   -1    0    0  501    0  0.00000000000E+00  0.00000000000E+00  0.23321058409E+04  0.23321058409E+04  0.50400001928E-02 0. -1.
       -1   -1    0    0    0  501  0.00000000000E+00  0.00000000000E+00 -0.47260247598E+03  0.47260247600E+03  0.50400001928E-02 0.  1.
    10030    2    1    2    0    0  0.00000000000E+00  0.00000000000E+00  0.18595033649E+04  0.28047083169E+04  0.20996752079E+04 0.  0.
        4    1    3    3  502    0 -0.55173224523E+03 -0.62932370650E+03  0.17763683484E+04  0.19636554993E+04  0.12699999809E+01 0. -1.
       -4    1    3    3    0  502  0.55173224523E+03  0.62932370650E+03  0.83135016473E+02  0.84105281752E+03  0.12699999809E+01 0.  1.
</event>
<event>
 5   0  0.1344501E-05  0.2151257E+04  0.7818609E-02  0.8538994E-01
       -2   -1    0    0    0  501  0.00000000000E+00  0.00000000000E+00  0.71285972804E+03  0.71285972804E+03  0.25500000920E-02 0. -1.
        2   -1    0    0  501    0  0.00000000000E+00  0.00000000000E+00 -0.16230077802E+04  0.16230077802E+04  0.25500000920E-02 0.  1.
    10030    2    1    2    0    0  0.00000000000E+00  0.00000000000E+00 -0.91014805219E+03  0.23358675083E+04  0.21512571997E+04 0.  0.
        3    1    3    3  502    0  0.33972742916E+03  0.19922141813E+03 -0.15419054826E+04  0.15914070589E+04  0.10100000352E+00 0.  1.
       -3    1    3    3    0  502 -0.33972742916E+03 -0.19922141813E+03  0.63175743044E+03  0.74446044937E+03  0.10100000352E+00 0. -1.
</event>
<event>
 5   0  0.1344501E-05  0.2098962E+04  0.7818609E-02  0.8561701E-01
        2   -1    0    0  501    0  0.00000000000E+00  0.00000000000E+00  0.16238191930E+04  0.16238191930E+04  0.25500000920E-02 0. -1.
       -2   -1    0    0    0  501  0.00000000000E+00  0.00000000000E+00 -0.67828373499E+03  0.67828373499E+03  0.25500000920E-02 0.  1.
    10030    2    1    2    0    0  0.00000000000E+00  0.00000000000E+00  0.94553545798E+03  0.23021029280E+04  0.20989617883E+04 0.  0.
        3    1    3    3  502    0 -0.24424737479E+03  0.35543350129E+03  0.15221421989E+04  0.15820577226E+04  0.10100000352E+00 0. -1.
       -3    1    3    3    0  502  0.24424737479E+03 -0.35543350129E+03 -0.57660674087E+03  0.72004520535E+03  0.10100000352E+00 0.  1.
</event>
<event>
 5   0  0.1395356E-05  0.2096250E+04  0.7818609E-02  0.8562897E-01
       -2   -1    0    0    0  501  0.00000000000E+00  0.00000000000E+00  0.75529893652E+03  0.75529893652E+03  0.25500000920E-02 0. -1.
        2   -1    0    0  501    0  0.00000000000E+00  0.00000000000E+00 -0.14544782509E+04  0.14544782509E+04  0.25500000920E-02 0.  1.
    10030    2    1    2    0    0  0.00000000000E+00  0.00000000000E+00 -0.69917931441E+03  0.22097771875E+04  0.20962498669E+04 0.  0.
        1    1    3    3  502    0  0.80028314271E+03 -0.37841870402E+03  0.24197208424E+03  0.91771690277E+03  0.50400001928E-02 0. -1.
       -1    1    3    3    0  502 -0.80028314271E+03  0.37841870402E+03 -0.94115139865E+03  0.12920602847E+04  0.50400001928E-02 0.  1.
</event>
<event>
 5   0  0.6283269E-06  0.2102067E+04  0.7818609E-02  0.8560333E-01
       -1   -1    0    0    0  501  0.00000000000E+00  0.00000000000E+00  0.89345951637E+03  0.89345951639E+03  0.50400001928E-02 0.  1.
        1   -1    0    0  501    0  0.00000000000E+00  0.00000000000E+00 -0.12363977775E+04  0.12363977776E+04  0.50400001928E-02 0. -1.
    10030    2    1    2    0    0  0.00000000000E+00  0.00000000000E+00 -0.34293826117E+03  0.21298572939E+04  0.21020669451E+04 0.  0.
        1    1    3    3  502    0 -0.92644027156E+03 -0.49162168789E+03 -0.10209570935E+03  0.10537585087E+04  0.50400001928E-02 0. -1.
       -1    1    3    3    0  502  0.92644027156E+03  0.49162168789E+03 -0.24084255182E+03  0.10760987852E+04  0.50400001928E-02 0.  1.
</event>
<event>
 5   0  0.1398469E-05  0.2099181E+04  0.7818609E-02  0.8561604E-01
       -2   -1    0    0    0  501  0.00000000000E+00  0.00000000000E+00  0.76039816972E+03  0.76039816972E+03  0.25500000920E-02 0. -1.
        2   -1    0    0  501    0  0.00000000000E+00  0.00000000000E+00 -0.14487676234E+04  0.14487676234E+04  0.25500000920E-02 0.  1.
    10030    2    1    2    0    0  0.00000000000E+00  0.00000000000E+00 -0.68836945364E+03  0.22091657931E+04  0.20991810300E+04 0.  0.
        2    1    3    3  502    0  0.84199619700E+03  0.25641864169E+03  0.25755297256E+03  0.91708322918E+03  0.25500000920E-02 0. -1.
       -2    1    3    3    0  502 -0.84199619700E+03 -0.25641864169E+03 -0.94592242620E+03  0.12920825639E+04  0.25500000920E-02 0.  1.
</event>
<event>
 5   0  0.1344501E-05  0.2102751E+04  0.7818609E-02  0.8560032E-01
        2   -1    0    0  501    0  0.00000000000E+00  0.00000000000E+00  0.96528399371E+03  0.96528399372E+03  0.25500000920E-02 0.  1.
       -2   -1    0    0    0  501  0.00000000000E+00  0.00000000000E+00 -0.11451454999E+04  0.11451454999E+04  0.25500000920E-02 0. -1.
    10030    2    1    2    0    0  0.00000000000E+00  0.00000000000E+00 -0.17986150620E+03  0.21104294936E+04  0.21027511708E+04 0.  0.
        3    1    3    3  502    0  0.49915035143E+03  0.34552752335E+03  0.77160357599E+03  0.98179042132E+03  0.10100000352E+00 0.  1.
       -3    1    3    3    0  502 -0.49915035143E+03 -0.34552752335E+03 -0.95146508219E+03  0.11286390723E+04  0.10100000352E+00 0. -1.
</event>
<event>
 5   0  0.6283269E-06  0.2096272E+04  0.7818609E-02  0.8562887E-01
       -1   -1    0    0    0  501  0.00000000000E+00  0.00000000000E+00  0.72159663372E+03  0.72159663373E+03  0.50400001928E-02 0. -1.
        1   -1    0    0  501    0  0.00000000000E+00  0.00000000000E+00 -0.15224422423E+04  0.15224422423E+04  0.50400001928E-02 0.  1.
    10030    2    1    2    0    0  0.00000000000E+00  0.00000000000E+00 -0.80084560856E+03  0.22440388760E+04  0.20962721170E+04 0.  0.
        1    1    3    3  502    0  0.73778190231E+03 -0.28193213953E+02  0.39597604961E+03  0.83780309416E+03  0.50400001928E-02 0. -1.
       -1    1    3    3    0  502 -0.73778190231E+03  0.28193213953E+02 -0.11968216582E+04  0.14062357819E+04  0.50400001928E-02 0.  1.
</event>
<event>
 5   0  0.1441136E-05  0.2104947E+04  0.7818609E-02  0.8559067E-01
       -2   -1    0    0    0  501  0.00000000000E+00  0.00000000000E+00  0.11603085420E+04  0.11603085420E+04  0.25500000920E-02 0.  1.
        2   -1    0    0  501    0  0.00000000000E+00  0.00000000000E+00 -0.95466015163E+03  0.95466015164E+03  0.25500000920E-02 0. -1.
    10030    2    1    2    0    0  0.00000000000E+00  0.00000000000E+00  0.20564839036E+03  0.21149686936E+04  0.21049468674E+04 0.  0.
        4    1    3    3  502    0 -0.71398994888E+03 -0.75512102705E+03  0.27007784634E+03  0.10737472089E+04  0.12699999809E+01 0.  1.
       -4    1    3    3    0  502  0.71398994888E+03  0.75512102705E+03 -0.64429455981E+02  0.10412214847E+04  0.12699999809E+01 0. -1.
</event>
<event>
 5   0  0.6917078E-06  0.2105632E+04  0.7818609E-02  0.8558767E-01
       -1   -1    0    0    0  501  0.00000000000E+00  0.00000000000E+00  0.50236347865E+03  0.50236347867E+03  0.50400001928E-02 0.  1.
        1   -1    0    0  501    0  0.00000000000E+00  0.00000000000E+00 -0.22064124935E+04  0.22064124935E+04  0.50400001928E-02 0. -1.
    10030    2    1    2    0    0  0.00000000000E+00  0.00000000000E+00 -0.17040490149E+04  0.27087759722E+04  0.21056315496E+04 0.  0.
        5    1    3    3  502    0 -0.35366190203E+02  0.92695529670E+03 -0.14925416996E+04  0.17573274324E+04  0.46999998093E+01 0. -1.
       -5    1    3    3    0  502  0.35366190203E+02 -0.92695529670E+03 -0.21150731523E+03  0.95144853980E+03  0.46999998093E+01 0.  1.
</event>
<event>
 5   0  0.1390735E-05  0.2102807E+04  0.7818609E-02  0.8560008E-01
        2   -1    0    0  501    0  0.00000000000E+00  0.00000000000E+00  0.11239038571E+04  0.11239038571E+04  0.25500000920E-02 0. -1.
       -2   -1    0    0    0  501  0.00000000000E+00  0.00000000000E+00 -0.98358037687E+03  0.98358037687E+03  0.25500000920E-02 0.  1.
    10030    2    1    2    0    0  0.00000000000E+00  0.00000000000E+00  0.14032348024E+03  0.21074842340E+04  0.21028074371E+04 0.  0.
        5    1    3    3  502    0 -0.23189988042E+03 -0.76783798891E+03  0.75143453421E+03  0.10991035806E+04  0.46999998093E+01 0. -1.
       -5    1    3    3    0  502  0.23189988042E+03  0.76783798891E+03 -0.61111105397E+03  0.10083806533E+04  0.46999998093E+01 0.  1.
</event>
<event>
 5   0  0.1441136E-05  0.2076830E+04  0.7818609E-02  0.8571519E-01
       -2   -1    0    0    0  501  0.00000000000E+00  0.00000000000E+00  0.69846703427E+03  0.69846703427E+03  0.25500000920E-02 0. -1.
        2   -1    0    0  501    0  0.00000000000E+00  0.00000000000E+00 -0.15438181778E+04  0.15438181778E+04  0.25500000920E-02 0.  1.
    10030    2    1    2    0    0  0.00000000000E+00  0.00000000000E+00 -0.84535114349E+03  0.22422852120E+04  0.20768303774E+04 0.  0.
        4    1    3    3  502    0  0.24223099282E+03  0.10089139394E+04 -0.46746939489E+03  0.11380300695E+04  0.12699999809E+01 0. -1.
       -4    1    3    3    0  502 -0.24223099282E+03 -0.10089139394E+04 -0.37788174860E+03  0.11042551425E+04  0.12699999809E+01 0.  1.
</event>
<event>
 5   0  0.1344501E-05  0.2103386E+04  0.7818609E-02  0.8559753E-01
       -2   -1    0    0    0  501  0.00000000000E+00  0.00000000000E+00  0.11315797673E+04  0.11315797673E+04  0.25500000920E-02 0.  1.
        2   -1    0    0  501    0  0.00000000000E+00  0.00000000000E+00 -0.97744625000E+03  0.97744625000E+03  0.25500000920E-02 0. -1.
    10030    2    1    2    0    0  0.00000000000E+00  0.00000000000E+00  0.15413351725E+03  0.21090260173E+04  0.21033862223E+04 0.  0.
        3    1    3    3  502    0 -0.10233464590E+04 -0.14556308387E+03 -0.11744256680E+03  0.10402977234E+04  0.10100000352E+00 0. -1.
       -3    1    3    3    0  502  0.10233464590E+04  0.14556308387E+03  0.27157608405E+03  0.10687282939E+04  0.10100000352E+00 0.  1.
</event>
<event>
 5   0  0.1344501E-05  0.2090629E+04  0.7818609E-02  0.8565382E-01
        2   -1    0    0  501    0  0.00000000000E+00  0.00000000000E+00  0.13729814285E+04  0.13729814285E+04  0.25500000920E-02 0. -1.
       -2   -1    0    0    0  501  0.00000000000E+00  0.00000000000E+00 -0.79584670661E+03  0.79584670661E+03  0.25500000920E-02 0.  1.
    10030    2    1    2    0    0  0.00000000000E+00  0.00000000000E+00  0.57713472187E+03  0.21688281351E+04  0.20906293293E+04 0.  0.
        3    1    3    3  502    0 -0.96838437706E+03 -0.33500641065E+03  0.74235635715E+02  0.10273794512E+04  0.10100000352E+00 0.  1.
       -3    1    3    3    0  502  0.96838437706E+03  0.33500641065E+03  0.50289908616E+03  0.11414486839E+04  0.10100000352E+00 0. -1.
</event>
<event>
 5   0  0.1441136E-05  0.2094899E+04  0.7818609E-02  0.8563494E-01
       -2   -1    0    0    0  501  0.00000000000E+00  0.00000000000E+00  0.95201767693E+03  0.95201767694E+03  0.25500000920E-02 0.  1.
        2   -1    0    0  501    0  0.00000000000E+00  0.00000000000E+00 -0.11524480980E+04  0.11524480980E+04  0.25500000920E-02 0. -1.
    10030    2    1    2    0    0  0.00000000000E+00  0.00000000000E+00 -0.20043042110E+03  0.21044657750E+04  0.20948994831E+04 0.  0.
        4    1    3    3  502    0 -0.36207917154E+02  0.12293350449E+03  0.94411156941E+03  0.95277065875E+03  0.12699999809E+01 0.  1.
       -4    1    3    3    0  502  0.36207917154E+02 -0.12293350449E+03 -0.11445419905E+04  0.11516951162E+04  0.12699999809E+01 0. -1.
</event>
<event>
 5   0  0.1344501E-05  0.2101589E+04  0.7818609E-02  0.8560544E-01
        2   -1    0    0  501    0  0.00000000000E+00  0.00000000000E+00  0.14644292339E+04  0.14644292339E+04  0.25500000920E-02 0.  1.
       -2   -1    0    0    0  501  0.00000000000E+00  0.00000000000E+00 -0.75399292544E+03  0.75399292544E+03  0.25500000920E-02 0. -1.
    10030    2    1    2    0    0  0.00000000000E+00  0.00000000000E+00  0.71043630846E+03  0.22184221593E+04  0.21015891912E+04 0.  0.
        3    1    3    3  502    0  0.79446743880E+02 -0.19937243611E+03  0.14410470426E+04  0.14569412282E+04  0.10100000352E+00 0.  1.
       -3    1    3    3    0  502 -0.79446743880E+02  0.19937243611E+03 -0.73061073414E+03  0.76148093110E+03  0.10100000352E+00 0. -1.
</event>
<event>
 5   0  0.6917078E-06  0.2115262E+04  0.7818609E-02  0.8554550E-01
       -1   -1    0    0    0  501  0.00000000000E+00  0.00000000000E+00  0.11650852427E+04  0.11650852427E+04  0.50400001928E-02 0. -1.
        1   -1    0    0  501    0  0.00000000000E+00  0.00000000000E+00 -0.96008689396E+03  0.96008689397E+03  0.50400001928E-02 0.  1.
    10030    2    1    2    0    0  0.00000000000E+00  0.00000000000E+00  0.20499834874E+03  0.21251721367E+04  0.21152617539E+04 0.  0.
        5    1    3    3  502    0 -0.37606666795E+03 -0.92141545061E+03  0.46212652661E+03  0.10972764410E+04  0.46999998093E+01 0. -1.
       -5    1    3    3    0  502  0.37606666795E+03  0.92141545061E+03 -0.25712817786E+03  0.10278956957E+04  0.46999998093E+01 0.  1.
</event>
<event>
 5   0  0.1395356E-05  0.2100331E+04  0.7818609E-02  0.8561097E-01
        2   -1    0    0  501    0  0.00000000000E+00  0.00000000000E+00  0.17208766785E+04  0.17208766785E+04  0.25500000920E-02 0. -1.
       -2   -1    0    0    0  501  0.00000000000E+00  0.00000000000E+00 -0.64086397971E+03  0.64086397972E+03  0.25500000920E-02 0.  1.
    10030    2    1    2    0    0  0.00000000000E+00  0.00000000000E+00  0.10800126988E+04  0.23617406582E+04  0.21003312851E+04 0.  0.
        1    1    3    3  502    0  0.16314332899E+02  0.88221108198E+03  0.11803425480E+04  0.14736930079E+04  0.50400001928E-02 0. -1.
       -1    1    3    3    0  502 -0.16314332899E+02 -0.88221108198E+03 -0.10032984927E+03  0.88804765036E+03  0.50400001928E-02 0.  1.
</event>
<event>
 5   0  0.6283269E-06  0.2101078E+04  0.7818609E-02  0.8560769E-01
       -1   -1    0    0    0  501  0.00000000000E+00  0.00000000000E+00  0.86381882370E+03  0.86381882371E+03  0.50400001928E-02 0. -1.
        1   -1    0    0  501    0  0.00000000000E+00  0.00000000000E+00 -0.12776197967E+04  0.12776197967E+04  0.50400001928E-02 0.  1.
    10030    2    1    2    0    0  0.00000000000E+00  0.00000000000E+00 -0.41380097304E+03  0.21414386205E+04  0.21010778472E+04 0.  0.
        1    1    3    3  502    0  0.10289180453E+04  0.62704731425E+02 -0.41334465350E+03  0.11106115567E+04  0.50400001928E-02 0.  1.
       -1    1    3    3    0  502 -0.10289180453E+04 -0.62704731425E+02 -0.45631953586E+00  0.10308270638E+04  0.50400001928E-02 0. -1.
</event>
<event>
 5   0  0.1441136E-05  0.2100817E+04  0.7818609E-02  0.8560883E-01
       -2   -1    0    0    0  501  0.00000000000E+00  0.00000000000E+00  0.11144764365E+04  0.11144764365E+04  0.25500000920E-02 0. -1.
        2   -1    0    0  501    0  0.00000000000E+00  0.00000000000E+00 -0.99002389576E+03  0.99002389576E+03  0.25500000920E-02 0.  1.
    10030    2    1    2    0    0  0.00000000000E+00  0.00000000000E+00  0.12445254077E+03  0.21045003323E+04  0.21008172728E+04 0.  0.
        4    1    3    3  502    0 -0.10910608808E+03 -0.93541401224E+03  0.52828720551E+03  0.10798113248E+04  0.12699999809E+01 0. -1.
       -4    1    3    3    0  502  0.10910608808E+03  0.93541401224E+03 -0.40383466474E+03  0.10246890075E+04  0.12699999809E+01 0.  1.
</event>
<event>
 5   0  0.1441136E-05  0.2099109E+04  0.7818609E-02  0.8561636E-01
       -2   -1    0    0    0  501  0.00000000000E+00  0.00000000000E+00  0.45048364374E+03  0.45048364374E+03  0.25500000920E-02 0. -1.
        2   -1    0    0  501    0  0.00000000000E+00  0.00000000000E+00 -0.24452938271E+04  0.24452938271E+04  0.25500000920E-02 0.  1.
    10030    2    1    2    0    0  0.00000000000E+00  0.00000000000E+00 -0.19948101833E+04  0.28957774708E+04  0.20991092142E+04 0.  0.
        4    1    3    3  502    0  0.17156363474E+03 -0.88217326967E+03 -0.24952912887E+03  0.93270046507E+03  0.12699999809E+01 0. -1.
       -4    1    3    3    0  502 -0.17156363474E+03  0.88217326967E+03 -0.17452810545E+04  0.19630770057E+04  0.12699999809E+01 0.  1.
</event>
<event>
 5   0  0.5009125E-06  0.2116649E+04  0.7818609E-02  0.8553945E-01
        3   -1    0    0  501    0  0.00000000000E+00  0.00000000000E+00  0.12868764352E+04  0.12868764392E+04  0.10100000352E+00 0.  1.
       -3   -1    0    0    0  501  0.00000000000E+00  0.00000000000E+00 -0.87036386453E+03  0.87036387039E+03  0.10100000352E+00 0. -1.
    10030    2    1    2    0    0  0.00000000000E+00  0.00000000000E+00  0.41651257068E+03  0.21572403096E+04  0.21166490100E+04 0.  0.
        4    1    3    3  502    0 -0.50847873523E+03 -0.91993122411E+03  0.33401243703E+03  0.11029007219E+04  0.12699999809E+01 0.  1.
       -4    1    3    3    0  502  0.50847873523E+03  0.91993122411E+03  0.82500133645E+02  0.10543395877E+04  0.12699999809E+01 0. -1.
</event>
<event>
 5   0  0.1441136E-05  0.2094415E+04  0.7818609E-02  0.8563708E-01
        2   -1    0    0  501    0  0.00000000000E+00  0.00000000000E+00  0.21097101080E+04  0.21097101080E+04  0.25500000920E-02 0. -1.
       -2   -1    0    0    0  501  0.00000000000E+00  0.00000000000E+00 -0.51980768655E+03  0.51980768656E+03  0.25500000920E-02 0.  1.
    10030    2    1    2    0    0  0.00000000000E+00  0.00000000000E+00  0.15899024215E+04  0.26295177946E+04  0.20944149833E+04 0.  0.
        4    1    3    3  502    0 -0.46821330182E+03 -0.70971440167E+03  0.15624694273E+04  0.17788284212E+04  0.12699999809E+01 0.  1.
       -4    1    3    3    0  502  0.46821330182E+03  0.70971440167E+03  0.27432994184E+02  0.85068937339E+03  0.12699999809E+01 0. -1.
</event>
<event>
 5   0  0.1395356E-05  0.2106525E+04  0.7818609E-02  0.8558374E-01
       -2   -1    0    0    0  501  0.00000000000E+00  0.00000000000E+00  0.51453217574E+03  0.51453217574E+03  0.25500000920E-02 0. -1.
        2   -1    0    0  501    0  0.00000000000E+00  0.00000000000E+00 -0.21560603160E+04  0.21560603160E+04  0.25500000920E-02 0.  1.
    10030    2    1    2    0    0  0.00000000000E+00  0.00000000000E+00 -0.16415281403E+04  0.26705924917E+04  0.21065254856E+04 0.  0.
        1    1    3    3  502    0 -0.74932921372E+03  0.68262674941E+03 -0.45797574093E+03  0.11123018155E+04  0.50400001928E-02 0. -1.
       -1    1    3    3    0  502  0.74932921372E+03 -0.68262674941E+03 -0.11835523993E+04  0.15582906762E+04  0.50400001928E-02 0.  1.
</event>
<event>
 5   0  0.6238363E-06  0.2106679E+04  0.7818609E-02  0.8558307E-01
       -1   -1    0    0    0  501  0.00000000000E+00  0.00000000000E+00  0.59271743585E+03  0.59271743587E+03  0.50400001928E-02 0. -1.
        1   -1    0    0  501    0  0.00000000000E+00  0.00000000000E+00 -0.18719271402E+04  0.18719271402E+04  0.50400001928E-02 0.  1.
    10030    2    1    2    0    0  0.00000000000E+00  0.00000000000E+00 -0.12792097044E+04  0.24646445761E+04  0.21066787649E+04 0.  0.
        4    1    3    3  502    0  0.22550979253E+03 -0.96050370147E+03 -0.10712087781E+04  0.14563350872E+04  0.12699999809E+01 0. -1.
       -4    1    3    3    0  502 -0.22550979253E+03  0.96050370147E+03 -0.20800092621E+03  0.10083094888E+04  0.12699999809E+01 0.  1.
</event>
<event>
 5   0  0.5009125E-06  0.2096961E+04  0.7818609E-02  0.8562583E-01
        3   -1    0    0  501    0  0.00000000000E+00  0.00000000000E+00  0.15045632666E+04  0.15045632700E+04  0.10100000352E+00 0.  1.
       -3   -1    0    0    0  501  0.00000000000E+00  0.00000000000E+00 -0.73065151949E+03  0.73065152647E+03  0.10100000352E+00 0. -1.
    10030    2    1    2    0    0  0.00000000000E+00  0.00000000000E+00  0.77391174708E+03  0.22352147964E+04  0.20969610855E+04 0.  0.
        1    1    3    3  502    0  0.12680832336E+03  0.50221504135E+03  0.13586561315E+04  0.14540449726E+04  0.50400001928E-02 0.  1.
       -1    1    3    3    0  502 -0.12680832336E+03 -0.50221504135E+03 -0.58474438439E+03  0.78116982387E+03  0.50400001928E-02 0. -1.
</event>
<event>
 5   0  0.6589193E-06  0.2094010E+04  0.7818609E-02  0.8563887E-01
        1   -1    0    0  501    0  0.00000000000E+00  0.00000000000E+00  0.23216753572E+04  0.23216753572E+04  0.50400001928E-02 0.  1.
       -1   -1    0    0    0  501  0.00000000000E+00  0.00000000000E+00 -0.47216747992E+03  0.47216747995E+03  0.50400001928E-02 0. -1.
    10030    2    1    2    0    0  0.00000000000E+00  0.00000000000E+00  0.18495078773E+04  0.27938428371E+04  0.20940101267E+04 0.  0.
        3    1    3    3  502    0  0.12136257591E+03  0.90710665051E+03  0.24621002397E+03  0.94772925265E+03  0.10100000352E+00 0. -1.
       -3    1    3    3    0  502 -0.12136257591E+03 -0.90710665051E+03  0.16032978533E+04  0.18461135845E+04  0.10100000352E+00 0.  1.
</event>
<event>
 5   0  0.1441136E-05  0.2140192E+04  0.7818609E-02  0.8543742E-01
       -2   -1    0    0    0  501  0.00000000000E+00  0.00000000000E+00  0.88026314237E+03  0.88026314237E+03  0.25500000920E-02 0. -1.
        2   -1    0    0  501    0  0.00000000000E+00  0.00000000000E+00 -0.13008676389E+04  0.13008676389E+04  0.25500000920E-02 0.  1.
    10030    2    1    2    0    0  0.00000000000E+00  0.00000000000E+00 -0.42060449653E+03  0.21811307813E+04  0.21401923611E+04 0.  0.
        4    1    3    3  502    0 -0.91812597070E+03 -0.52902492042E+03 -0.36242762852E+03  0.11199009167E+04  0.12699999809E+01 0. -1.
       -4    1    3    3    0  502  0.91812597070E+03  0.52902492042E+03 -0.58176868012E+02  0.10612298645E+04  0.12699999809E+01 0.  1.
</event>
<event>
 5   0  0.1395356E-05  0.2099110E+04  0.7818609E-02  0.8561636E-01
        2   -1    0    0  501    0  0.00000000000E+00  0.00000000000E+00  0.15006176922E+04  0.15006176922E+04  0.25500000920E-02 0. -1.
       -2   -1    0    0    0  501  0.00000000000E+00  0.00000000000E+00 -0.73407461579E+03  0.73407461580E+03  0.25500000920E-02 0.  1.
    10030    2    1    2    0    0  0.00000000000E+00  0.00000000000E+00  0.76654307642E+03  0.22346923080E+04  0.20991096740E+04 0.  0.
        1    1    3    3  502    0 -0.41991996262E+03 -0.81718261557E+03 -0.15689162562E+03  0.93205964638E+03  0.50400001928E-02 0.  1.
       -1    1    3    3    0  502  0.41991996262E+03  0.81718261557E+03  0.92343470204E+03  0.13026326616E+04  0.50400001928E-02 0. -1.
</event>
<event>
 5   0  0.1398469E-05  0.2099357E+04  0.7818609E-02  0.8561527E-01
        2   -1    0    0  501    0  0.00000000000E+00  0.00000000000E+00  0.19736212108E+04  0.19736212108E+04  0.25500000920E-02 0. -1.
       -2   -1    0    0    0  501  0.00000000000E+00  0.00000000000E+00 -0.55827564612E+03  0.55827564612E+03  0.25500000920E-02 0.  1.
    10030    2    1    2    0    0  0.00000000000E+00  0.00000000000E+00  0.14153455647E+04  0.25318968570E+04  0.20993567174E+04 0.  0.
        2    1    3    3  502    0 -0.87798469118E+03 -0.56136363161E+03  0.55589241965E+03  0.11811022932E+04  0.25500000920E-02 0.  1.
       -2    1    3    3    0  502  0.87798469118E+03  0.56136363161E+03  0.85945314506E+03  0.13507945637E+04  0.25500000920E-02 0. -1.
</event>
<event>
 5   0  0.1390735E-05  0.2100178E+04  0.7818609E-02  0.8561165E-01
        2   -1    0    0  501    0  0.00000000000E+00  0.00000000000E+00  0.16970340503E+04  0.16970340503E+04  0.25500000920E-02 0.  1.
       -2   -1    0    0    0  501  0.00000000000E+00  0.00000000000E+00 -0.64977318870E+03  0.64977318870E+03  0.25500000920E-02 0. -1.
    10030    2    1    2    0    0  0.00000000000E+00  0.00000000000E+00  0.10472608616E+04  0.23468072390E+04  0.21001783031E+04 0.  0.
        5    1    3    3  502    0 -0.30309027323E+03 -0.93813964509E+03  0.92760260399E+03  0.13536758801E+04  0.46999998093E+01 0.  1.
       -5    1    3    3    0  502  0.30309027323E+03  0.93813964509E+03  0.11965825761E+03  0.99313135890E+03  0.46999998093E+01 0. -1.
</event>
<event>
 5   0  0.1398469E-05  0.2094396E+04  0.7818609E-02  0.8563716E-01
       -2   -1    0    0    0  501  0.00000000000E+00  0.00000000000E+00  0.62649473962E+03  0.62649473963E+03  0.25500000920E-02 0. -1.
        2   -1    0    0  501    0  0.00000000000E+00  0.00000000000E+00 -0.17504116050E+04  0.17504116050E+04  0.25500000920E-02 0.  1.
    10030    2    1    2    0    0  0.00000000000E+00  0.00000000000E+00 -0.11239168654E+04  0.23769063446E+04  0.20943960110E+04 0.  0.
        2    1    3    3  502    0  0.37152776119E+03  0.57366839992E+03 -0.14623875530E+04  0.16142198318E+04  0.25500000920E-02 0.  1.
       -2    1    3    3    0  502 -0.37152776119E+03 -0.57366839992E+03  0.33847068761E+03  0.76268651278E+03  0.25500000920E-02 0. -1.
</event>
<event>
 5   0  0.6589193E-06  0.2102364E+04  0.7818609E-02  0.8560203E-01
        1   -1    0    0  501    0  0.00000000000E+00  0.00000000000E+00  0.10976052647E+04  0.10976052647E+04  0.50400001928E-02 0.  1.
       -1   -1    0    0    0  501  0.00000000000E+00  0.00000000000E+00 -0.10067219644E+04  0.10067219644E+04  0.50400001928E-02 0. -1.
    10030    2    1    2    0    0  0.00000000000E+00  0.00000000000E+00  0.90883300251E+02  0.21043272291E+04  0.21023637442E+04 0.  0.
        3    1    3    3  502    0 -0.53778750535E+03  0.14541656306E+03 -0.84680657452E+03  0.10136285131E+04  0.10100000352E+00 0. -1.
       -3    1    3    3    0  502  0.53778750535E+03 -0.14541656306E+03  0.93768987477E+03  0.10906987160E+04  0.10100000352E+00 0.  1.
</event>
<event>
 5   0  0.1395356E-05  0.2101642E+04  0.7818609E-02  0.8560520E-01
        2   -1    0    0  501    0  0.00000000000E+00  0.00000000000E+00  0.13618943180E+04  0.13618943180E+04  0.25500000920E-02 0.  1.
       -2   -1    0    0    0  501  0.00000000000E+00  0.00000000000E+00 -0.81080070673E+03  0.81080070673E+03  0.25500000920E-02 0. -1.
    10030    2    1    2    0    0  0.00000000000E+00  0.00000000000E+00  0.55109361124E+03  0.21726950247E+04  0.21016420966E+04 0.  0.
        1    1    3    3  502    0 -0.19490345751E+03 -0.24563703360E+03 -0.76130671717E+03  0.82335461841E+03  0.50400001928E-02 0. -1.
       -1    1    3    3    0  502  0.19490345751E+03  0.24563703360E+03  0.13124003284E+04  0.13493404063E+04  0.50400001928E-02 0.  1.
</event>
<event>
 5   0  0.6599245E-06  0.2098749E+04  0.7818609E-02  0.8561795E-01
       -1   -1    0    0    0  501  0.00000000000E+00  0.00000000000E+00  0.99011909779E+03  0.99011909780E+03  0.50400001928E-02 0.  1.
        1   -1    0    0  501    0  0.00000000000E+00  0.00000000000E+00 -0.11121764013E+04  0.11121764013E+04  0.50400001928E-02 0. -1.
    10030    2    1    2    0    0  0.00000000000E+00  0.00000000000E+00 -0.12205730354E+03  0.21022954991E+04  0.20987492419E+04 0.  0.
        2    1    3    3  502    0  0.14581160839E+03 -0.34533396768E+03 -0.10428228023E+04  0.11081497965E+04  0.25500000920E-02 0. -1.
       -2    1    3    3    0  502 -0.14581160839E+03  0.34533396768E+03  0.92076549878E+03  0.99414570266E+03  0.25500000920E-02 0.  1.
</event>
<event>
 5   0  0.6238363E-06  0.2103293E+04  0.7818609E-02  0.8559794E-01
        1   -1    0    0  501    0  0.00000000000E+00  0.00000000000E+00  0.19843463838E+04  0.19843463838E+04  0.50400001928E-02 0. -1.
       -1   -1    0    0    0  501  0.00000000000E+00  0.00000000000E+00 -0.55734253166E+03  0.55734253168E+03  0.50400001928E-02 0.  1.
    10030    2    1    2    0    0  0.00000000000E+00  0.00000000000E+00  0.14270038522E+04  0.25416889155E+04  0.21032932628E+04 0.  0.
        4    1    3    3  502    0  0.38145099685E+03 -0.58112247213E+03 -0.24012767450E+03  0.73543939490E+03  0.12699999809E+01 0.  1.
       -4    1    3    3    0  502 -0.38145099685E+03  0.58112247213E+03  0.16671315267E+04  0.18062495206E+04  0.12699999809E+01 0. -1.
</event>
<event>
 5   0  0.1344501E-05  0.2096686E+04  0.7818609E-02  0.8562705E-01
       -2   -1    0    0    0  501  0.00000000000E+00  0.00000000000E+00  0.12490559111E+04  0.12490559111E+04  0.25500000920E-02 0. -1.
        2   -1    0    0  501    0  0.00000000000E+00  0.00000000000E+00 -0.87988308986E+03  0.87988308986E+03  0.25500000920E-02 0.  1.
    10030    2    1    2    0    0  0.00000000000E+00  0.00000000000E+00  0.36917282126E+03  0.21289390010E+04  0.20966861229E+04 0.  0.
        3    1    3    3  502    0 -0.88858039914E+03 -0.52440772814E+03 -0.38610117016E+01  0.10317914075E+04  0.10100000352E+00 0. -1.
       -3    1    3    3    0  502  0.88858039914E+03  0.52440772814E+03  0.37303383297E+03  0.10971475934E+04  0.10100000352E+00 0.  1.
</event>
<event>
 5   0  0.1390735E-05  0.2098916E+04  0.7818609E-02  0.8561721E-01
       -2   -1    0    0    0  501  0.00000000000E+00  0.00000000000E+00  0.10628445949E+04  0.10628445949E+04  0.25500000920E-02 0.  1.
        2   -1    0    0  501    0  0.00000000000E+00  0.00000000000E+00 -0.10362404300E+04  0.10362404300E+04  0.25500000920E-02 0. -1.
    10030    2    1    2    0    0  0.00000000000E+00  0.00000000000E+00  0.26604164900E+02  0.20990850248E+04  0.20989164252E+04 0.  0.
        5    1    3    3  502    0 -0.66959476595E+03 -0.38965869746E+02  0.82050071044E+03  0.10597730868E+04  0.46999998093E+01 0.  1.
       -5    1    3    3    0  502  0.66959476595E+03  0.38965869746E+02 -0.79389654554E+03  0.10393119381E+04  0.46999998093E+01 0. -1.
</event>
<event>
 5   0  0.5009125E-06  0.2103414E+04  0.7818609E-02  0.8559741E-01
        3   -1    0    0  501    0  0.00000000000E+00  0.00000000000E+00  0.18401496820E+04  0.18401496848E+04  0.10100000352E+00 0.  1.
       -3   -1    0    0    0  501  0.00000000000E+00  0.00000000000E+00 -0.60108584734E+03  0.60108585582E+03  0.10100000352E+00 0. -1.
    10030    2    1    2    0    0  0.00000000000E+00  0.00000000000E+00  0.12390638347E+04  0.24412355406E+04  0.21034143145E+04 0.  0.
        4    1    3    3  502    0  0.20023819581E+03 -0.10161909879E+04  0.40759216850E+03  0.11130464714E+04  0.12699999809E+01 0. -1.
       -4    1    3    3    0  502 -0.20023819581E+03  0.10161909879E+04  0.83147166615E+03  0.13281890691E+04  0.12699999809E+01 0.  1.
</event>
<event>
 5   0  0.1390735E-05  0.2099406E+04  0.7818609E-02  0.8561505E-01
       -2   -1    0    0    0  501  0.00000000000E+00  0.00000000000E+00  0.72821643462E+03  0.72821643462E+03  0.25500000920E-02 0. -1.
        2   -1    0    0  501    0  0.00000000000E+00  0.00000000000E+00 -0.15131167584E+04  0.15131167584E+04  0.25500000920E-02 0.  1.
    10030    2    1    2    0    0  0.00000000000E+00  0.00000000000E+00 -0.78490032375E+03  0.22413331930E+04  0.20994060979E+04 0.  0.
        5    1    3    3  502    0 -0.52125938188E+03  0.16107881618E+03  0.56494472672E+03  0.78539312606E+03  0.46999998093E+01 0. -1.
       -5    1    3    3    0  502  0.52125938188E+03 -0.16107881618E+03 -0.13498450505E+04  0.14559400669E+04  0.46999998093E+01 0.  1.
</event>
<event>
 5   0  0.1395356E-05  0.2100694E+04  0.7818609E-02  0.8560938E-01
        2   -1    0    0  501    0  0.00000000000E+00  0.00000000000E+00  0.10863441458E+04  0.10863441458E+04  0.25500000920E-02 0.  1.
       -2   -1    0    0    0  501  0.00000000000E+00  0.00000000000E+00 -0.10155431382E+04  0.10155431382E+04  0.25500000920E-02 0. -1.
    10030    2    1    2    0    0  0.00000000000E+00  0.00000000000E+00  0.70801007613E+02  0.21018872840E+04  0.21006944975E+04 0.  0.
        1    1    3    3  502    0  0.48874085651E+02  0.86443692910E+02  0.10816366859E+04  0.10861855774E+04  0.50400001928E-02 0.  1.
       -1    1    3    3    0  502 -0.48874085651E+02 -0.86443692910E+02 -0.10108356783E+04  0.10157017066E+04  0.50400001928E-02 0. -1.
</event>
<event>
 5   0  0.6238363E-06  0.2100427E+04  0.7818609E-02  0.8561055E-01
        1   -1    0    0  501    0  0.00000000000E+00  0.00000000000E+00  0.12172854701E+04  0.12172854701E+04  0.50400001928E-02 0.  1.
       -1   -1    0    0    0  501  0.00000000000E+00  0.00000000000E+00 -0.90607221883E+03  0.90607221884E+03  0.50400001928E-02 0. -1.
    10030    2    1    2    0    0  0.00000000000E+00  0.00000000000E+00  0.31121325124E+03  0.21233576889E+04  0.21004271440E+04 0.  0.
        4    1    3    3  502    0  0.31609233760E+03 -0.53048137628E+03 -0.70315067637E+03  0.93581373310E+03  0.12699999809E+01 0. -1.
       -4    1    3    3    0  502 -0.31609233760E+03  0.53048137628E+03  0.10143639276E+04  0.11875439558E+04  0.12699999809E+01 0.  1.
</event>
<event>
 5   0  0.6917078E-06  0.2094208E+04  0.7818609E-02  0.8563799E-01
        1   -1    0    0  501    0  0.00000000000E+00  0.00000000000E+00  0.15503192833E+04  0.15503192833E+04  0.50400001928E-02 0.  1.
       -1   -1    0    0    0  501  0.00000000000E+00  0.00000000000E+00 -0.70722659861E+03  0.70722659863E+03  0.50400001928E-02 0. -1.
    10030    2    1    2    0    0  0.00000000000E+00  0.00000000000E+00  0.84309268472E+03  0.22575458820E+04  0.20942082356E+04 0.  0.
        5    1    3    3  502    0  0.67672871200E+03  0.31031533374E+03  0.12152812622E+04  0.14251975275E+04  0.46999998093E+01 0.  1.
       -5    1    3    3    0  502 -0.67672871200E+03 -0.31031533374E+03 -0.37218857751E+03  0.83234835449E+03  0.46999998093E+01 0. -1.
</event>
<event>
 5   0  0.1390735E-05  0.2100779E+04  0.7818609E-02  0.8560900E-01
        2   -1    0    0  501    0  0.00000000000E+00  0.00000000000E+00  0.13076235123E+04  0.13076235123E+04  0.25500000920E-02 0. -1.
       -2   -1    0    0    0  501  0.00000000000E+00  0.00000000000E+00 -0.84375790841E+03  0.84375790842E+03  0.25500000920E-02 0.  1.
    10030    2    1    2    0    0  0.00000000000E+00  0.00000000000E+00  0.46386560390E+03  0.21513814207E+04  0.21007785983E+04 0.  0.
        5    1    3    3  502    0 -0.69508137005E+03 -0.11349489788E+03  0.10299832148E+04  0.12477606805E+04  0.46999998093E+01 0. -1.
       -5    1    3    3    0  502  0.69508137005E+03  0.11349489788E+03 -0.56611761094E+03  0.90362074028E+03  0.46999998093E+01 0.  1.
</event>
<event>
 5   0  0.1398469E-05  0.2103197E+04  0.7818609E-02  0.8559836E-01
       -2   -1    0    0    0  501  0.00000000000E+00  0.00000000000E+00  0.65198444356E+03  0.65198444356E+03  0.25500000920E-02 0. -1.
        2   -1    0    0  501    0  0.00000000000E+00  0.00000000000E+00 -0.16961444686E+04  0.16961444686E+04  0.25500000920E-02 0.  1.
    10030    2    1    2    0    0  0.00000000000E+00  0.00000000000E+00 -0.10441600250E+04  0.23481289122E+04  0.21031973826E+04 0.  0.
        2    1    3    3  502    0  0.87108973293E+03 -0.35250334198E+02  0.13446860767E+03  0.88211207640E+03  0.25500000920E-02 0. -1.
       -2    1    3    3    0  502 -0.87108973293E+03  0.35250334198E+02 -0.11786286327E+04  0.14660168358E+04  0.25500000920E-02 0.  1.
</event>
<event>
 5   0  0.1344501E-05  0.2101903E+04  0.7818609E-02  0.8560406E-01
       -2   -1    0    0    0  501  0.00000000000E+00  0.00000000000E+00  0.48321671389E+03  0.48321671389E+03  0.25500000920E-02 0.  1.
        2   -1    0    0  501    0  0.00000000000E+00  0.00000000000E+00 -0.22857221028E+04  0.22857221028E+04  0.25500000920E-02 0. -1.
    10030    2    1    2    0    0  0.00000000000E+00  0.00000000000E+00 -0.18025053890E+04  0.27689388167E+04  0.21019030648E+04 0.  0.
        3    1    3    3  502    0  0.55885519804E+03 -0.83806685361E+03 -0.50643491494E+03  0.11274535541E+04  0.10100000352E+00 0. -1.
       -3    1    3    3    0  502 -0.55885519804E+03  0.83806685361E+03 -0.12960704740E+04  0.16414852626E+04  0.10100000352E+00 0.  1.
</event>
<event>
 5   0  0.6283269E-06  0.2100767E+04  0.7818609E-02  0.8560905E-01
        1   -1    0    0  501    0  0.00000000000E+00  0.00000000000E+00  0.66558881611E+03  0.66558881613E+03  0.50400001928E-02 0. -1.
       -1   -1    0    0    0  501  0.00000000000E+00  0.00000000000E+00 -0.16576389284E+04  0.16576389284E+04  0.50400001928E-02 0.  1.
    10030    2    1    2    0    0  0.00000000000E+00  0.00000000000E+00 -0.99205011226E+03  0.23232277445E+04  0.21007674140E+04 0.  0.
        1    1    3    3  502    0  0.58637969466E+03  0.10208874073E+03 -0.14531466042E+04  0.15703179012E+04  0.50400001928E-02 0.  1.
       -1    1    3    3    0  502 -0.58637969466E+03 -0.10208874073E+03  0.46109649196E+03  0.75290984335E+03  0.50400001928E-02 0. -1.
</event>
<event>
 5   0  0.1344501E-05  0.2103088E+04  0.7818609E-02  0.8559884E-01
       -2   -1    0    0    0  501  0.00000000000E+00  0.00000000000E+00  0.15626596123E+04  0.15626596123E+04  0.25500000920E-02 0. -1.
        2   -1    0    0  501    0  0.00000000000E+00  0.00000000000E+00 -0.70760466655E+03  0.70760466656E+03  0.25500000920E-02 0.  1.
    10030    2    1    2    0    0  0.00000000000E+00  0.00000000000E+00  0.85505494571E+03  0.22702642788E+04  0.21030884279E+04 0.  0.
        3    1    3    3  502    0  0.44953394251E+03  0.65668053088E+03  0.11695036784E+04  0.14145843733E+04  0.10100000352E+00 0. -1.
       -3    1    3    3    0  502 -0.44953394251E+03 -0.65668053088E+03 -0.31444873268E+03  0.85567990556E+03  0.10100000352E+00 0.  1.
</event>
<event>
 5   0  0.1390735E-05  0.2096985E+04  0.7818609E-02  0.8562573E-01
        2   -1    0    0  501    0  0.00000000000E+00  0.00000000000E+00  0.23181430719E+04  0.23181430719E+04  0.25500000920E-02 0. -1.
       -2   -1    0    0    0  501  0.00000000000E+00  0.00000000000E+00 -0.47423156228E+03  0.47423156229E+03  0.25500000920E-02 0.  1.
    10030    2    1    2    0    0  0.00000000000E+00  0.00000000000E+00  0.18439115096E+04  0.27923746342E+04  0.20969850840E+04 0.  0.
        5    1    3    3  502    0  0.41236722061E+03  0.25144425482E+03  0.21611751925E+04  0.22144911923E+04  0.46999998093E+01 0. -1.
       -5    1    3    3    0  502 -0.41236722061E+03 -0.25144425482E+03 -0.31726368292E+03  0.57788344189E+03  0.46999998093E+01 0.  1.
</event>
<event>
 5   0  0.6283269E-06  0.2097846E+04  0.7818609E-02  0.8562193E-01
        1   -1    0    0  501    0  0.00000000000E+00  0.00000000000E+00  0.16158564135E+04  0.16158564135E+04  0.50400001928E-02 0. -1.
       -1   -1    0    0    0  501  0.00000000000E+00  0.00000000000E+00 -0.68090182830E+03  0.68090182831E+03  0.50400001928E-02 0.  1.
    10030    2    1    2    0    0  0.00000000000E+00  0.00000000000E+00  0.93495458517E+03  0.22967582418E+04  0.20978461204E+04 0.  0.
        1    1    3    3  502    0  0.38577692972E+03 -0.34908195649E+03  0.14646374341E+04  0.15542988339E+04  0.50400001928E-02 0. -1.
       -1    1    3    3    0  502 -0.38577692972E+03  0.34908195649E+03 -0.52968284891E+03  0.74245940785E+03  0.50400001928E-02 0.  1.
</event>
<event>
 5   0  0.6599245E-06  0.2098150E+04  0.7818609E-02  0.8562059E-01
       -1   -1    0    0    0  501  0.00000000000E+00  0.00000000000E+00  0.66684039418E+03  0.66684039419E+03  0.50400001928E-02 0. -1.
        1   -1    0    0  501    0  0.00000000000E+00  0.00000000000E+00 -0.16504072814E+04  0.16504072814E+04  0.50400001928E-02 0.  1.
    10030    2    1    2    0    0  0.00000000000E+00  0.00000000000E+00 -0.98356688725E+03  0.23172476756E+04  0.20981498918E+04 0.  0.
        2    1    3    3  502    0 -0.52994045101E+02  0.76143435204E+03 -0.12866372199E+04  0.14960033345E+04  0.25500000920E-02 0.  1.
       -2    1    3    3    0  502  0.52994045101E+02 -0.76143435204E+03  0.30307033264E+03  0.82124434111E+03  0.25500000920E-02 0. -1.
</event>
<event>
 5   0  0.1441136E-05  0.2106126E+04  0.7818609E-02  0.8558550E-01
        2   -1    0    0  501    0  0.00000000000E+00  0.00000000000E+00  0.20945485144E+04  0.20945485144E+04  0.25500000920E-02 0.  1.
       -2   -1    0    0    0  501  0.00000000000E+00  0.00000000000E+00 -0.52944186870E+03  0.52944186870E+03  0.25500000920E-02 0. -1.
    10030    2    1    2    0    0  0.00000000000E+00  0.00000000000E+00  0.15651066457E+04  0.26239903831E+04  0.21061259977E+04 0.  0.
        4    1    3    3  502    0 -0.87017763918E+03  0.46667196003E+03  0.32657271738E+03  0.10400207665E+04  0.12699999809E+01 0. -1.
       -4    1    3    3    0  502  0.87017763918E+03 -0.46667196003E+03  0.12385339284E+04  0.15839696167E+04  0.12699999809E+01 0.  1.
</event>
<event>
 5   0  0.1441136E-05  0.2061344E+04  0.7818609E-02  0.8578465E-01
        2   -1    0    0  501    0  0.00000000000E+00  0.00000000000E+00  0.14695537924E+04  0.14695537924E+04  0.25500000920E-02 0. -1.
       -2   -1    0    0    0  501  0.00000000000E+00  0.00000000000E+00 -0.72286231119E+03  0.72286231119E+03  0.25500000920E-02 0.  1.
    10030    2    1    2    0    0  0.00000000000E+00  0.00000000000E+00  0.74669148117E+03  0.21924161036E+04  0.20613442709E+04 0.  0.
        4    1    3    3  502    0  0.37740760659E+02  0.32310520038E+03 -0.66682907886E+03  0.74194606869E+03  0.12699999809E+01 0.  1.
       -4    1    3    3    0  502 -0.37740760659E+02 -0.32310520038E+03  0.14135205600E+04  0.14504700349E+04  0.12699999809E+01 0. -1.
</event>
<event>
 5   0  0.1398469E-05  0.2099076E+04  0.7818609E-02  0.8561650E-01
        2   -1    0    0  501    0  0.00000000000E+00  0.00000000000E+00  0.21240529850E+04  0.21240529850E+04  0.25500000920E-02 0. -1.
       -2   -1    0    0    0  501  0.00000000000E+00  0.00000000000E+00 -0.51859833115E+03  0.51859833115E+03  0.25500000920E-02 0.  1.
    10030    2    1    2    0    0  0.00000000000E+00  0.00000000000E+00  0.16054546538E+04  0.26426513162E+04  0.20990763048E+04 0.  0.
        2    1    3    3  502    0  0.24659896709E+03 -0.30476186808E+03  0.20284127934E+04  0.20659499770E+04  0.25500000920E-02 0. -1.
       -2    1    3    3    0  502 -0.24659896709E+03  0.30476186808E+03 -0.42295813956E+03  0.57670133920E+03  0.25500000920E-02 0.  1.
</event>
<event>
 5   0  0.1395356E-05  0.2098335E+04  0.7818609E-02  0.8561977E-01
       -2   -1    0    0    0  501  0.00000000000E+00  0.00000000000E+00  0.10559213611E+04  0.10559213611E+04  0.25500000920E-02 0. -1.
        2   -1    0    0  501    0  0.00000000000E+00  0.00000000000E+00 -0.10424569142E+04  0.10424569142E+04  0.25500000920E-02 0.  1.
    10030    2    1    2    0    0  0.00000000000E+00  0.00000000000E+00  0.13464446882E+02  0.20983782753E+04  0.20983350769E+04 0.  0.
        1    1    3    3  502    0  0.99944542044E+03  0.24673394805E+03 -0.19571634200E+03  0.10478901069E+04  0.50400001928E-02 0.  1.
       -1    1    3    3    0  502 -0.99944542044E+03 -0.24673394805E+03  0.20918078888E+03  0.10504881684E+04  0.50400001928E-02 0. -1.
</event>
<event>
 5   0  0.1441136E-05  0.2063434E+04  0.7818609E-02  0.8577524E-01
        2   -1    0    0  501    0  0.00000000000E+00  0.00000000000E+00  0.12012315141E+04  0.12012315141E+04  0.25500000920E-02 0.  1.
       -2   -1    0    0    0  501  0.00000000000E+00  0.00000000000E+00 -0.88612366681E+03  0.88612366681E+03  0.25500000920E-02 0. -1.
    10030    2    1    2    0    0  0.00000000000E+00  0.00000000000E+00  0.31510784727E+03  0.20873551809E+04  0.20634337149E+04 0.  0.
        4    1    3    3  502    0 -0.83916269357E+03 -0.47453586907E+03  0.52931917365E+03  0.10997993989E+04  0.12699999809E+01 0.  1.
       -4    1    3    3    0  502  0.83916269357E+03  0.47453586907E+03 -0.21421132638E+03  0.98755578200E+03  0.12699999809E+01 0. -1.
</event>
<event>
 5   0  0.1344501E-05  0.2099983E+04  0.7818609E-02  0.8561251E-01
        2   -1    0    0  501    0  0.00000000000E+00  0.00000000000E+00  0.69320409166E+03  0.69320409167E+03  0.25500000920E-02 0. -1.
       -2   -1    0    0    0  501  0.00000000000E+00  0.00000000000E+00 -0.15904149428E+04  0.15904149428E+04  0.25500000920E-02 0.  1.
    10030    2    1    2    0    0  0.00000000000E+00  0.00000000000E+00 -0.89721085116E+03  0.22836190345E+04  0.20999829959E+04 0.  0.
        3    1    3    3  502    0  0.29812195312E+03  0.72879244309E+03  0.30673319038E+03  0.84504460493E+03  0.10100000352E+00 0. -1.
       -3    1    3    3    0  502 -0.29812195312E+03 -0.72879244309E+03 -0.12039440415E+04  0.14385744296E+04  0.10100000352E+00 0.  1.
</event>
<event>
 5   0  0.6283269E-06  0.2086064E+04  0.7818609E-02  0.8567407E-01
        1   -1    0    0  501    0  0.00000000000E+00  0.00000000000E+00  0.85666379420E+03  0.85666379421E+03  0.50400001928E-02 0.  1.
       -1   -1    0    0    0  501  0.00000000000E+00  0.00000000000E+00 -0.12699442769E+04  0.12699442770E+04  0.50400001928E-02 0. -1.
    10030    2    1    2    0    0  0.00000000000E+00  0.00000000000E+00 -0.41328048274E+03  0.21266080712E+04  0.20860635491E+04 0.  0.
        1    1    3    3  502    0  0.12039672312E+03  0.44613446761E+03  0.74661897226E+03  0.87804967051E+03  0.50400001928E-02 0.  1.
       -1    1    3    3    0  502 -0.12039672312E+03 -0.44613446761E+03 -0.11598994550E+04  0.12485584007E+04  0.50400001928E-02 0. -1.
</event>
<event>
 5   0  0.6283269E-06  0.2100550E+04  0.7818609E-02  0.8561001E-01
        1   -1    0    0  501    0  0.00000000000E+00  0.00000000000E+00  0.11795570094E+04  0.11795570094E+04  0.50400001928E-02 0.  1.
       -1   -1    0    0    0  501  0.00000000000E+00  0.00000000000E+00 -0.93516221419E+03  0.93516221421E+03  0.50400001928E-02 0. -1.
    10030    2    1    2    0    0  0.00000000000E+00  0.00000000000E+00  0.24439479520E+03  0.21147192236E+04  0.21005495897E+04 0.  0.
        1    1    3    3  502    0  0.33997563299E+03  0.24363662359E+03 -0.84769895987E+03  0.94527020580E+03  0.50400001928E-02 0. -1.
       -1    1    3    3    0  502 -0.33997563299E+03 -0.24363662359E+03  0.10920937551E+04  0.11694490178E+04  0.50400001928E-02 0.  1.
</event>
<event>
 5   0  0.6238363E-06  0.2104226E+04  0.7818609E-02  0.8559384E-01
        1   -1    0    0  501    0  0.00000000000E+00  0.00000000000E+00  0.24288505996E+04  0.24288505996E+04  0.50400001928E-02 0. -1.
       -1   -1    0    0    0  501  0.00000000000E+00  0.00000000000E+00 -0.45574717969E+03  0.45574717972E+03  0.50400001928E-02 0.  1.
    10030    2    1    2    0    0  0.00000000000E+00  0.00000000000E+00  0.19731034199E+04  0.28845977793E+04  0.21042260437E+04 0.  0.
        4    1    3    3  502    0 -0.10077846650E+04  0.46890834325E+02  0.13957744795E+04  0.17222127314E+04  0.12699999809E+01 0. -1.
       -4    1    3    3    0  502  0.10077846650E+04 -0.46890834325E+02  0.57732894036E+03  0.11623850480E+04  0.12699999809E+01 0.  1.
</event>
<event>
 5   0  0.6283269E-06  0.2103832E+04  0.7818609E-02  0.8559557E-01
       -1   -1    0    0    0  501  0.00000000000E+00  0.00000000000E+00  0.57561204797E+03  0.57561204799E+03  0.50400001928E-02 0. -1.
        1   -1    0    0  501    0  0.00000000000E+00  0.00000000000E+00 -0.19223494484E+04  0.19223494484E+04  0.50400001928E-02 0.  1.
    10030    2    1    2    0    0  0.00000000000E+00  0.00000000000E+00 -0.13467374004E+04  0.24979614963E+04  0.21038322204E+04 0.  0.
        1    1    3    3  502    0 -0.74999607376E+03 -0.73406063850E+03 -0.75889312440E+03  0.12950899220E+04  0.50400001928E-02 0. -1.
       -1    1    3    3    0  502  0.74999607376E+03  0.73406063850E+03 -0.58784427599E+03  0.12028715744E+04  0.50400001928E-02 0.  1.
</event>
<event>
 5   0  0.1395356E-05  0.2101714E+04  0.7818609E-02  0.8560489E-01
        2   -1    0    0  501    0  0.00000000000E+00  0.00000000000E+00  0.13222888922E+04  0.13222888922E+04  0.25500000920E-02 0.  1.
       -2   -1    0    0    0  501  0.00000000000E+00  0.00000000000E+00 -0.83514335517E+03  0.83514335517E+03  0.25500000920E-02 0. -1.
    10030    2    1    2    0    0  0.00000000000E+00  0.00000000000E+00  0.48714553700E+03  0.21574322473E+04  0.21017143306E+04 0.  0.
        1    1    3    3  502    0 -0.83331244164E+03  0.38270511521E+02  0.89959785887E+03  0.12268457789E+04  0.50400001928E-02 0.  1.
       -1    1    3    3    0  502  0.83331244164E+03 -0.38270511521E+02 -0.41245232187E+03  0.93058646846E+03  0.50400001928E-02 0. -1.
</event>
<event>
 5   0  0.1441136E-05  0.2135842E+04  0.7818609E-02  0.8545617E-01
       -2   -1    0    0    0  501  0.00000000000E+00  0.00000000000E+00  0.46280021474E+03  0.46280021475E+03  0.25500000920E-02 0.  1.
        2   -1    0    0  501    0  0.00000000000E+00  0.00000000000E+00 -0.24642495917E+04  0.24642495917E+04  0.25500000920E-02 0. -1.
    10030    2    1    2    0    0  0.00000000000E+00  0.00000000000E+00 -0.20014493769E+04  0.29270498064E+04  0.21358419794E+04 0.  0.
        4    1    3    3  502    0 -0.23568123070E+03  0.27973433569E+03  0.37427210525E+03  0.52333370112E+03  0.12699999809E+01 0.  1.
       -4    1    3    3    0  502  0.23568123070E+03 -0.27973433569E+03 -0.23757214822E+04  0.24037161053E+04  0.12699999809E+01 0. -1.
</event>
<event>
 5   0  0.1398469E-05  0.2101522E+04  0.7818609E-02  0.8560573E-01
       -2   -1    0    0    0  501  0.00000000000E+00  0.00000000000E+00  0.20075369560E+04  0.20075369560E+04  0.25500000920E-02 0. -1.
        2   -1    0    0  501    0  0.00000000000E+00  0.00000000000E+00 -0.54997674053E+03  0.54997674054E+03  0.25500000920E-02 0.  1.
    10030    2    1    2    0    0  0.00000000000E+00  0.00000000000E+00  0.14575602155E+04  0.25575136966E+04  0.21015219548E+04 0.  0.
        2    1    3    3  502    0 -0.11961867335E+03  0.10296001346E+04  0.93855882951E+03  0.13983124617E+04  0.25500000920E-02 0.  1.
       -2    1    3    3    0  502  0.11961867335E+03 -0.10296001346E+04  0.51900138600E+03  0.11592012348E+04  0.25500000920E-02 0. -1.
</event>
<event>
 5   0  0.6917078E-06  0.2109962E+04  0.7818609E-02  0.8556868E-01
        1   -1    0    0  501    0  0.00000000000E+00  0.00000000000E+00  0.15451224617E+04  0.15451224617E+04  0.50400001928E-02 0.  1.
       -1   -1    0    0    0  501  0.00000000000E+00  0.00000000000E+00 -0.72032168732E+03  0.72032168734E+03  0.50400001928E-02 0. -1.
    10030    2    1    2    0    0  0.00000000000E+00  0.00000000000E+00  0.82480077433E+03  0.22654441490E+04  0.21099622923E+04 0.  0.
        5    1    3    3  502    0 -0.12358620839E+03  0.15306444459E+02  0.15371920382E+04  0.15422351606E+04  0.46999998093E+01 0.  1.
       -5    1    3    3    0  502  0.12358620839E+03 -0.15306444459E+02 -0.71239126386E+03  0.72320898845E+03  0.46999998093E+01 0. -1.
</event>
<event>
 5   0  0.6589193E-06  0.2107940E+04  0.7818609E-02  0.8557754E-01
       -1   -1    0    0    0  501  0.00000000000E+00  0.00000000000E+00  0.89981325980E+03  0.89981325981E+03  0.50400001928E-02 0. -1.
        1   -1    0    0  501    0  0.00000000000E+00  0.00000000000E+00 -0.12345375782E+04  0.12345375782E+04  0.50400001928E-02 0.  1.
    10030    2    1    2    0    0  0.00000000000E+00  0.00000000000E+00 -0.33472431842E+03  0.21343508380E+04  0.21079404950E+04 0.  0.
        3    1    3    3  502    0 -0.47353943874E+03  0.29795407976E+03 -0.10717705001E+04  0.12090112691E+04  0.10100000352E+00 0.  1.
       -3    1    3    3    0  502  0.47353943874E+03 -0.29795407976E+03  0.73704618170E+03  0.92533956894E+03  0.10100000352E+00 0. -1.
</event>
<event>
 5   0  0.1395356E-05  0.2104183E+04  0.7818609E-02  0.8559403E-01
        2   -1    0    0  501    0  0.00000000000E+00  0.00000000000E+00  0.15472436971E+04  0.15472436971E+04  0.25500000920E-02 0.  1.
       -2   -1    0    0    0  501  0.00000000000E+00  0.00000000000E+00 -0.71539892055E+03  0.71539892055E+03  0.25500000920E-02 0. -1.
    10030    2    1    2    0    0  0.00000000000E+00  0.00000000000E+00  0.83184477656E+03  0.22626426177E+04  0.21041829490E+04 0.  0.
        1    1    3    3  502    0 -0.27465068725E+03  0.41667923187E+03  0.14118690734E+04  0.14974741609E+04  0.50400001928E-02 0.  1.
       -1    1    3    3    0  502  0.27465068725E+03 -0.41667923187E+03 -0.58002429681E+03  0.76516845674E+03  0.50400001928E-02 0. -1.
</event>
<event>
 5   0  0.6238363E-06  0.2100468E+04  0.7818609E-02  0.8561037E-01
       -1   -1    0    0    0  501  0.00000000000E+00  0.00000000000E+00  0.74679350517E+03  0.74679350519E+03  0.50400001928E-02 0.  1.
        1   -1    0    0  501    0  0.00000000000E+00  0.00000000000E+00 -0.14769698539E+04  0.14769698539E+04  0.50400001928E-02 0. -1.
    10030    2    1    2    0    0  0.00000000000E+00  0.00000000000E+00 -0.73017634873E+03  0.22237633591E+04  0.21004680376E+04 0.  0.
        4    1    3    3  502    0 -0.68645825070E+03 -0.56570453127E+03 -0.95620195082E+03  0.13059748582E+04  0.12699999809E+01 0. -1.
       -4    1    3    3    0  502  0.68645825070E+03  0.56570453127E+03  0.22602560209E+03  0.91778850088E+03  0.12699999809E+01 0.  1.
</event>
<event>
 5   0  0.6589193E-06  0.2082809E+04  0.7818609E-02  0.8568854E-01
        1   -1    0    0  501    0  0.00000000000E+00  0.00000000000E+00  0.99405570762E+03  0.99405570764E+03  0.50400001928E-02 0. -1.
       -1   -1    0    0    0  501  0.00000000000E+00  0.00000000000E+00 -0.10910084506E+04  0.10910084506E+04  0.50400001928E-02 0.  1.
    10030    2    1    2    0    0  0.00000000000E+00  0.00000000000E+00 -0.96952742927E+02  0.20850641582E+04  0.20828088509E+04 0.  0.
        3    1    3    3  502    0 -0.99026494263E+03  0.15154845833E+03  0.23631642847E+03  0.10292895882E+04  0.10100000352E+00 0. -1.
       -3    1    3    3    0  502  0.99026494263E+03 -0.15154845833E+03 -0.33326917140E+03  0.10557745700E+04  0.10100000352E+00 0.  1.
</event>
<event>
 5   0  0.6283269E-06  0.2098320E+04  0.7818609E-02  0.8561984E-01
       -1   -1    0    0    0  501  0.00000000000E+00  0.00000000000E+00  0.67936307003E+03  0.67936307005E+03  0.50400001928E-02 0.  1.
        1   -1    0    0  501    0  0.00000000000E+00  0.00000000000E+00 -0.16202487254E+04  0.16202487254E+04  0.50400001928E-02 0. -1.
    10030    2    1    2    0    0  0.00000000000E+00  0.00000000000E+00 -0.94088565535E+03  0.22996117954E+04  0.20983204220E+04 0.  0.
        1    1    3    3  502    0 -0.19970840437E+03 -0.58537925798E+03 -0.13991971173E+04  0.15298055090E+04  0.50400001928E-02 0. -1.
       -1    1    3    3    0  502  0.19970840437E+03  0.58537925798E+03  0.45831146192E+03  0.76980628641E+03  0.50400001928E-02 0.  1.
</event>
<event>
 5   0  0.6917078E-06  0.2099474E+04  0.7818609E-02  0.8561475E-01
        1   -1    0    0  501    0  0.00000000000E+00  0.00000000000E+00  0.11401502328E+04  0.11401502328E+04  0.50400001928E-02 0.  1.
       -1   -1    0    0    0  501  0.00000000000E+00  0.00000000000E+00 -0.96649337781E+03  0.96649337783E+03  0.50400001928E-02 0. -1.
    10030    2    1    2    0    0  0.00000000000E+00  0.00000000000E+00  0.17365685500E+03  0.21066436107E+04  0.20994738862E+04 0.  0.
        5    1    3    3  502    0 -0.22643002028E+03 -0.12253923796E+03  0.11079673284E+04  0.11374973010E+04  0.46999998093E+01 0.  1.
       -5    1    3    3    0  502  0.22643002028E+03  0.12253923796E+03 -0.93431047338E+03  0.96914630969E+03  0.46999998093E+01 0. -1.
</event>
<event>
 5   0  0.6589193E-06  0.2102593E+04  0.7818609E-02  0.8560102E-01
       -1   -1    0    0    0  501  0.00000000000E+00  0.00000000000E+00  0.62746677981E+03  0.62746677983E+03  0.50400001928E-02 0. -1.
        1   -1    0    0  501    0  0.00000000000E+00  0.00000000000E+00 -0.17614069147E+04  0.17614069147E+04  0.50400001928E-02 0.  1.
    10030    2    1    2    0    0  0.00000000000E+00  0.00000000000E+00 -0.11339401348E+04  0.23888736945E+04  0.21025929941E+04 0.  0.
        3    1    3    3  502    0  0.33850617354E+02  0.10308256715E+04 -0.33558195541E+03  0.10846025485E+04  0.10100000352E+00 0. -1.
       -3    1    3    3    0  502 -0.33850617354E+02 -0.10308256715E+04 -0.79835817943E+03  0.13042711460E+04  0.10100000352E+00 0.  1.
</event>
<event>
 5   0  0.1441136E-05  0.2084329E+04  0.7818609E-02  0.8568178E-01
        2   -1    0    0  501    0  0.00000000000E+00  0.00000000000E+00  0.21612565358E+04  0.21612565358E+04  0.25500000920E-02 0. -1.
       -2   -1    0    0    0  501  0.00000000000E+00  0.00000000000E+00 -0.50253500852E+03  0.50253500853E+03  0.25500000920E-02 0.  1.
    10030    2    1    2    0    0  0.00000000000E+00  0.00000000000E+00  0.16587215273E+04  0.26637915443E+04  0.20843292174E+04 0.  0.
        4    1    3    3  502    0  0.10136966402E+04  0.79749271627E+02  0.11212526356E+04  0.15136544885E+04  0.12699999809E+01 0.  1.
       -4    1    3    3    0  502 -0.10136966402E+04 -0.79749271627E+02  0.53746889165E+03  0.11501370558E+04  0.12699999809E+01 0. -1.
</event>
<event>
 5   0  0.1395356E-05  0.2088566E+04  0.7818609E-02  0.8566297E-01
       -2   -1    0    0    0  501  0.00000000000E+00  0.00000000000E+00  0.88748026237E+03  0.88748026237E+03  0.25500000920E-02 0.  1.
        2   -1    0    0  501    0  0.00000000000E+00  0.00000000000E+00 -0.12287906344E+04  0.12287906344E+04  0.25500000920E-02 0. -1.
    10030    2    1    2    0    0  0.00000000000E+00  0.00000000000E+00 -0.34131037204E+03  0.21162708968E+04  0.20885664314E+04 0.  0.
        1    1    3    3  502    0  0.10137275663E+04 -0.24551651040E+03 -0.11893400558E+03  0.10497939004E+04  0.50400001928E-02 0.  1.
       -1    1    3    3    0  502 -0.10137275663E+04  0.24551651040E+03 -0.22237636646E+03  0.10664769964E+04  0.50400001928E-02 0. -1.
</event>
<event>
 5   0  0.6238363E-06  0.2091801E+04  0.7818609E-02  0.8564864E-01
       -1   -1    0    0    0  501  0.00000000000E+00  0.00000000000E+00  0.56309789934E+03  0.56309789936E+03  0.50400001928E-02 0.  1.
        1   -1    0    0  501    0  0.00000000000E+00  0.00000000000E+00 -0.19426601008E+04  0.19426601008E+04  0.50400001928E-02 0. -1.
    10030    2    1    2    0    0  0.00000000000E+00  0.00000000000E+00 -0.13795622014E+04  0.25057580001E+04  0.20918009675E+04 0.  0.
        4    1    3    3  502    0 -0.29046609265E+03  0.85594918241E+03 -0.13201137148E+04  0.15999129310E+04  0.12699999809E+01 0. -1.
       -4    1    3    3    0  502  0.29046609265E+03 -0.85594918241E+03 -0.59448486630E+02  0.90584506915E+03  0.12699999809E+01 0.  1.
</event>
<event>
 5   0  0.1390735E-05  0.2094991E+04  0.7818609E-02  0.8563453E-01
        2   -1    0    0  501    0  0.00000000000E+00  0.00000000000E+00  0.22929939638E+04  0.22929939638E+04  0.25500000920E-02 0. -1.
       -2   -1    0    0    0  501  0.00000000000E+00  0.00000000000E+00 -0.47852148927E+03  0.47852148927E+03  0.25500000920E-02 0.  1.
    10030    2    1    2    0    0  0.00000000000E+00  0.00000000000E+00  0.18144724746E+04  0.27715154531E+04  0.20949910611E+04 0.  0.
        5    1    3    3  502    0  0.35674705187E+03 -0.35214550767E+03 -0.30953082935E+03  0.58915731507E+03  0.46999998093E+01 0.  1.
       -5    1    3    3    0  502 -0.35674705187E+03  0.35214550767E+03  0.21240033039E+04  0.21823581380E+04  0.46999998093E+01 0. -1.
</event>
<event>
 5   0  0.6238363E-06  0.2104000E+04  0.7818609E-02  0.8559483E-01
       -1   -1    0    0    0  501  0.00000000000E+00  0.00000000000E+00  0.76665276215E+03  0.76665276217E+03  0.50400001928E-02 0.  1.
        1   -1    0    0  501    0  0.00000000000E+00  0.00000000000E+00 -0.14435531036E+04  0.14435531036E+04  0.50400001928E-02 0. -1.
    10030    2    1    2    0    0  0.00000000000E+00  0.00000000000E+00 -0.67690034145E+03  0.22102058658E+04  0.21039999755E+04 0.  0.
        4    1    3    3  502    0 -0.17922544498E+03 -0.32683963826E+03 -0.13718539238E+04  0.14215944255E+04  0.12699999809E+01 0. -1.
       -4    1    3    3    0  502  0.17922544498E+03  0.32683963826E+03  0.69495358237E+03  0.78861144033E+03  0.12699999809E+01 0.  1.
</event>
<event>
 5   0  0.6283269E-06  0.2105211E+04  0.7818609E-02  0.8558951E-01
        1   -1    0    0  501    0  0.00000000000E+00  0.00000000000E+00  0.97768234754E+03  0.97768234755E+03  0.50400001928E-02 0. -1.
       -1   -1    0    0    0  501  0.00000000000E+00  0.00000000000E+00 -0.11332703277E+04  0.11332703277E+04  0.50400001928E-02 0.  1.
    10030    2    1    2    0    0  0.00000000000E+00  0.00000000000E+00 -0.15558798019E+03  0.21109526753E+04  0.21052110530E+04 0.  0.
        1    1    3    3  502    0 -0.24545870578E+03  0.95585899516E+03  0.28934938997E+03  0.10284159977E+04  0.50400001928E-02 0. -1.
       -1    1    3    3    0  502  0.24545870578E+03 -0.95585899516E+03 -0.44493737016E+03  0.10825366776E+04  0.50400001928E-02 0.  1.
</event>
<event>
 5   0  0.6283269E-06  0.2101001E+04  0.7818609E-02  0.8560803E-01
       -1   -1    0    0    0  501  0.00000000000E+00  0.00000000000E+00  0.10781270071E+04  0.10781270071E+04  0.50400001928E-02 0. -1.
        1   -1    0    0  501    0  0.00000000000E+00  0.00000000000E+00 -0.10235818284E+04  0.10235818284E+04  0.50400001928E-02 0.  1.
    10030    2    1    2    0    0  0.00000000000E+00  0.00000000000E+00  0.54545178671E+02  0.21017088356E+04  0.21010009169E+04 0.  0.
        1    1    3    3  502    0  0.54332472293E+03  0.13603660650E+03 -0.86175826239E+03  0.10277815992E+04  0.50400001928E-02 0.  1.
       -1    1    3    3    0  502 -0.54332472293E+03 -0.13603660650E+03  0.91630344106E+03  0.10739272364E+04  0.50400001928E-02 0. -1.
</event>
<event>
 5   0  0.6589193E-06  0.2103960E+04  0.7818609E-02  0.8559501E-01
       -1   -1    0    0    0  501  0.00000000000E+00  0.00000000000E+00  0.11624752258E+04  0.11624752258E+04  0.50400001928E-02 0.  1.
        1   -1    0    0  501    0  0.00000000000E+00  0.00000000000E+00 -0.95198762010E+03  0.95198762011E+03  0.50400001928E-02 0. -1.
    10030    2    1    2    0    0  0.00000000000E+00  0.00000000000E+00  0.21048760573E+03  0.21144628460E+04  0.21039600982E+04 0.  0.
        3    1    3    3  502    0 -0.66468234942E+03  0.81270622395E+03  0.38823179002E+02  0.10506194751E+04  0.10100000352E+00 0.  1.
       -3    1    3    3    0  502  0.66468234942E+03 -0.81270622395E+03  0.17166442673E+03  0.10638433708E+04  0.10100000352E+00 0. -1.
</event>
<event>
 5   0  0.1390735E-05  0.2101372E+04  0.7818609E-02  0.8560639E-01
        2   -1    0    0  501    0  0.00000000000E+00  0.00000000000E+00  0.80241946469E+03  0.80241946470E+03  0.25500000920E-02 0.  1.
       -2   -1    0    0    0  501  0.00000000000E+00  0.00000000000E+00 -0.13757661275E+04  0.13757661275E+04  0.25500000920E-02 0. -1.
    10030    2    1    2    0    0  0.00000000000E+00  0.00000000000E+00 -0.57334666277E+03  0.21781855922E+04  0.21013724273E+04 0.  0.
        5    1    3    3  502    0 -0.10444199771E+04  0.11215944897E+03 -0.26288675919E+03  0.10828316438E+04  0.46999998093E+01 0.  1.
       -5    1    3    3    0  502  0.10444199771E+04 -0.11215944897E+03 -0.31045990358E+03  0.10953539484E+04  0.46999998093E+01 0. -1.
</event>
<event>
 5   0  0.1395356E-05  0.2100882E+04  0.7818609E-02  0.8560855E-01
       -2   -1    0    0    0  501  0.00000000000E+00  0.00000000000E+00  0.55049362087E+03  0.55049362088E+03  0.25500000920E-02 0.  1.
        2   -1    0    0  501    0  0.00000000000E+00  0.00000000000E+00 -0.20044299408E+04  0.20044299408E+04  0.25500000920E-02 0. -1.
    10030    2    1    2    0    0  0.00000000000E+00  0.00000000000E+00 -0.14539363199E+04  0.25549235617E+04  0.21008816205E+04 0.  0.
        1    1    3    3  502    0 -0.99689696172E+02 -0.34286815368E+03 -0.19283622905E+04  0.19611419453E+04  0.50400001928E-02 0. -1.
       -1    1    3    3    0  502  0.99689696172E+02  0.34286815368E+03  0.47442597057E+03  0.59378161634E+03  0.50400001928E-02 0.  1.
</event>
<event>
 5   0  0.6238363E-06  0.2103728E+04  0.7818609E-02  0.8559603E-01
       -1   -1    0    0    0  501  0.00000000000E+00  0.00000000000E+00  0.12939887800E+04  0.12939887800E+04  0.50400001928E-02 0.  1.
        1   -1    0    0  501    0  0.00000000000E+00  0.00000000000E+00 -0.85504479015E+03  0.85504479017E+03  0.50400001928E-02 0. -1.
    10030    2    1    2    0    0  0.00000000000E+00  0.00000000000E+00  0.43894398982E+03  0.21490335702E+04  0.21037284662E+04 0.  0.
        4    1    3    3  502    0 -0.70737951052E+03 -0.27822123124E+03 -0.52325109276E+03  0.92281425238E+03  0.12699999809E+01 0. -1.
       -4    1    3    3    0  502  0.70737951052E+03  0.27822123124E+03  0.96219508259E+03  0.12262193178E+04  0.12699999809E+01 0.  1.
</event>
<event>
 5   0  0.6589193E-06  0.2099024E+04  0.7818609E-02  0.8561673E-01
       -1   -1    0    0    0  501  0.00000000000E+00  0.00000000000E+00  0.68349523344E+03  0.68349523346E+03  0.50400001928E-02 0.  1.
        1   -1    0    0  501    0  0.00000000000E+00  0.00000000000E+00 -0.16115340380E+04  0.16115340380E+04  0.50400001928E-02 0. -1.
    10030    2    1    2    0    0  0.00000000000E+00  0.00000000000E+00 -0.92803880452E+03  0.22950292714E+04  0.20990243767E+04 0.  0.
        3    1    3    3  502    0 -0.16829215331E+03  0.41188443035E+03 -0.15033075549E+04  0.15677705979E+04  0.10100000352E+00 0. -1.
       -3    1    3    3    0  502  0.16829215331E+03 -0.41188443035E+03  0.57526875039E+03  0.72725867352E+03  0.10100000352E+00 0.  1.
</event>
<event>
 5   0  0.1390735E-05  0.2142624E+04  0.7818609E-02  0.8542696E-01
        2   -1    0    0  501    0  0.00000000000E+00  0.00000000000E+00  0.20079935656E+04  0.20079935656E+04  0.25500000920E-02 0. -1.
       -2   -1    0    0    0  501  0.00000000000E+00  0.00000000000E+00 -0.57157011627E+03  0.57157011628E+03  0.25500000920E-02 0.  1.
    10030    2    1    2    0    0  0.00000000000E+00  0.00000000000E+00  0.14364234493E+04  0.25795636819E+04  0.21426237334E+04 0.  0.
        5    1    3    3  502    0 -0.44518485771E+03  0.59201841384E+03 -0.21357814138E+03  0.77091703337E+03  0.46999998093E+01 0.  1.
       -5    1    3    3    0  502  0.44518485771E+03 -0.59201841384E+03  0.16500015907E+04  0.18086466485E+04  0.46999998093E+01 0. -1.
</event>
<event>
 5   0  0.6589193E-06  0.2100927E+04  0.7818609E-02  0.8560835E-01
        1   -1    0    0  501    0  0.00000000000E+00  0.00000000000E+00  0.51905765214E+03  0.51905765216E+03  0.50400001928E-02 0.  1.
       -1   -1    0    0    0  501  0.00000000000E+00  0.00000000000E+00 -0.21259165605E+04  0.21259165605E+04  0.50400001928E-02 0. -1.
    10030    2    1    2    0    0  0.00000000000E+00  0.00000000000E+00 -0.16068589084E+04  0.26449742127E+04  0.21009267085E+04 0.  0.
        3    1    3    3  502    0 -0.76672378150E+03 -0.59684829418E+03 -0.30082369801E+03  0.10171470645E+04  0.10100000352E+00 0.  1.
       -3    1    3    3    0  502  0.76672378150E+03  0.59684829418E+03 -0.13060352104E+04  0.16278271482E+04  0.10100000352E+00 0. -1.
</event>
<event>
 5   0  0.6283269E-06  0.2104917E+04  0.7818609E-02  0.8559081E-01
       -1   -1    0    0    0  501  0.00000000000E+00  0.00000000000E+00  0.16764107295E+04  0.16764107295E+04  0.50400001928E-02 0.  1.
        1   -1    0    0  501    0  0.00000000000E+00  0.00000000000E+00 -0.66073805918E+03  0.66073805920E+03  0.50400001928E-02 0. -1.
    10030    2    1    2    0    0  0.00000000000E+00  0.00000000000E+00  0.10156726703E+04  0.23371487887E+04  0.21049165036E+04 0.  0.
        1    1    3    3  502    0 -0.82203561766E+03  0.13815885634E+02  0.12373947736E+04  0.14856241992E+04  0.50400001928E-02 0.  1.
       -1    1    3    3    0  502  0.82203561766E+03 -0.13815885634E+02 -0.22172210332E+03  0.85152458950E+03  0.50400001928E-02 0. -1.
</event>
<event>
 5   0  0.1441136E-05  0.2109316E+04  0.7818609E-02  0.8557151E-01
       -2   -1    0    0    0  501  0.00000000000E+00  0.00000000000E+00  0.47899866279E+03  0.47899866279E+03  0.25500000920E-02 0.  1.
        2   -1    0    0  501    0  0.00000000000E+00  0.00000000000E+00 -0.23221434537E+04  0.23221434537E+04  0.25500000920E-02 0. -1.
    10030    2    1    2    0    0  0.00000000000E+00  0.00000000000E+00 -0.18431447909E+04  0.28011421165E+04  0.21093161063E+04 0.  0.
        4    1    3    3  502    0 -0.11451819805E+03 -0.50949168210E+03  0.29526119743E+03  0.59989747409E+03  0.12699999809E+01 0.  1.
       -4    1    3    3    0  502  0.11451819805E+03  0.50949168210E+03 -0.21384059883E+04  0.22012446424E+04  0.12699999809E+01 0. -1.
</event>
<event>
 5   0  0.1398469E-05  0.2101228E+04  0.7818609E-02  0.8560703E-01
       -2   -1    0    0    0  501  0.00000000000E+00  0.00000000000E+00  0.78560825544E+03  0.78560825544E+03  0.25500000920E-02 0.  1.
        2   -1    0    0  501    0  0.00000000000E+00  0.00000000000E+00 -0.14050131504E+04  0.14050131504E+04  0.25500000920E-02 0. -1.
    10030    2    1    2    0    0  0.00000000000E+00  0.00000000000E+00 -0.61940489499E+03  0.21906214059E+04  0.21012281456E+04 0.  0.
        2    1    3    3  502    0 -0.51738793831E+03 -0.39670862061E+03  0.54919251553E+03  0.85245552816E+03  0.25500000920E-02 0.  1.
       -2    1    3    3    0  502  0.51738793831E+03  0.39670862061E+03 -0.11685974105E+04  0.13381658777E+04  0.25500000920E-02 0. -1.
</event>
<event>
 5   0  0.6599245E-06  0.2101040E+04  0.7818609E-02  0.8560785E-01
        1   -1    0    0  501    0  0.00000000000E+00  0.00000000000E+00  0.12567245265E+04  0.12567245265E+04  0.50400001928E-02 0.  1.
       -1   -1    0    0    0  501  0.00000000000E+00  0.00000000000E+00 -0.87814955163E+03  0.87814955164E+03  0.50400001928E-02 0. -1.
    10030    2    1    2    0    0  0.00000000000E+00  0.00000000000E+00  0.37857497484E+03  0.21348740781E+04  0.21010398182E+04 0.  0.
        2    1    3    3  502    0  0.48737998783E+03 -0.19779624656E+03  0.11132880085E+04  0.12312890796E+04  0.25500000920E-02 0.  1.
       -2    1    3    3    0  502 -0.48737998783E+03  0.19779624656E+03 -0.73471303366E+03  0.90358499851E+03  0.25500000920E-02 0. -1.
</event>
<event>
 5   0  0.1398469E-05  0.2101976E+04  0.7818609E-02  0.8560373E-01
       -2   -1    0    0    0  501  0.00000000000E+00  0.00000000000E+00  0.10207491923E+04  0.10207491923E+04  0.25500000920E-02 0.  1.
        2   -1    0    0  501    0  0.00000000000E+00  0.00000000000E+00 -0.10821228074E+04  0.10821228074E+04  0.25500000920E-02 0. -1.
    10030    2    1    2    0    0  0.00000000000E+00  0.00000000000E+00 -0.61373615073E+02  0.21028719997E+04  0.21019761956E+04 0.  0.
        2    1    3    3  502    0  0.94127924973E+01  0.46105409673E+03  0.91412898574E+03  0.10238609688E+04  0.25500000920E-02 0.  1.
       -2    1    3    3    0  502 -0.94127924973E+01 -0.46105409673E+03 -0.97550260082E+03  0.10790110310E+04  0.25500000920E-02 0. -1.
</event>
<event>
 5   0  0.6599245E-06  0.2098205E+04  0.7818609E-02  0.8562035E-01
        1   -1    0    0  501    0  0.00000000000E+00  0.00000000000E+00  0.11448516572E+04  0.11448516572E+04  0.50400001928E-02 0.  1.
       -1   -1    0    0    0  501  0.00000000000E+00  0.00000000000E+00 -0.96136127158E+03  0.96136127160E+03  0.50400001928E-02 0. -1.
    10030    2    1    2    0    0  0.00000000000E+00  0.00000000000E+00  0.18349038559E+03  0.21062129288E+04  0.20982049899E+04 0.  0.
        2    1    3    3  502    0 -0.27677220920E+03 -0.74079423391E+03 -0.60026027138E+03  0.99281989615E+03  0.25500000920E-02 0. -1.
       -2    1    3    3    0  502  0.27677220920E+03  0.74079423391E+03  0.78375065697E+03  0.11133930326E+04  0.25500000920E-02 0.  1.
</event>
<event>
 5   0  0.5009125E-06  0.2100315E+04  0.7818609E-02  0.8561105E-01
       -3   -1    0    0    0  501  0.00000000000E+00  0.00000000000E+00  0.87756403643E+03  0.87756404224E+03  0.10100000352E+00 0.  1.
        3   -1    0    0  501    0  0.00000000000E+00  0.00000000000E+00 -0.12566957227E+04  0.12566957267E+04  0.10100000352E+00 0. -1.
    10030    2    1    2    0    0  0.00000000000E+00  0.00000000000E+00 -0.37913168626E+03  0.21342597690E+04  0.21003151968E+04 0.  0.
        4    1    3    3  502    0  0.10329934469E+04  0.18816252972E+03 -0.17058864358E+03  0.10637587589E+04  0.12699999809E+01 0.  1.
       -4    1    3    3    0  502 -0.10329934469E+04 -0.18816252972E+03 -0.20854304268E+03  0.10705010101E+04  0.12699999809E+01 0. -1.
</event>
<event>
 5   0  0.6283269E-06  0.2096688E+04  0.7818609E-02  0.8562704E-01
       -1   -1    0    0    0  501  0.00000000000E+00  0.00000000000E+00  0.83796573828E+03  0.83796573829E+03  0.50400001928E-02 0. -1.
        1   -1    0    0  501    0  0.00000000000E+00  0.00000000000E+00 -0.13115397104E+04  0.13115397104E+04  0.50400001928E-02 0.  1.
    10030    2    1    2    0    0  0.00000000000E+00  0.00000000000E+00 -0.47357397210E+03  0.21495054487E+04  0.20966881902E+04 0.  0.
        1    1    3    3  502    0  0.73508971217E+03  0.12922423594E+03  0.51794394013E+03  0.90847218627E+03  0.50400001928E-02 0. -1.
       -1    1    3    3    0  502 -0.73508971217E+03 -0.12922423594E+03 -0.99151791223E+03  0.12410332624E+04  0.50400001928E-02 0.  1.
</event>
<event>
 5   0  0.1398469E-05  0.2103696E+04  0.7818609E-02  0.8559617E-01
       -2   -1    0    0    0  501  0.00000000000E+00  0.00000000000E+00  0.14297802503E+04  0.14297802503E+04  0.25500000920E-02 0. -1.
        2   -1    0    0  501    0  0.00000000000E+00  0.00000000000E+00 -0.77381451942E+03  0.77381451942E+03  0.25500000920E-02 0.  1.
    10030    2    1    2    0    0  0.00000000000E+00  0.00000000000E+00  0.65596573086E+03  0.22035947697E+04  0.21036964774E+04 0.  0.
        2    1    3    3  502    0 -0.68956101866E+03 -0.77371559477E+03  0.51610668646E+03  0.11577980531E+04  0.25500000920E-02 0.  1.
       -2    1    3    3    0  502  0.68956101866E+03  0.77371559477E+03  0.13985904439E+03  0.10457967166E+04  0.25500000920E-02 0. -1.
</event>
<event>
 5   0  0.1441136E-05  0.2097128E+04  0.7818609E-02  0.8562510E-01
        2   -1    0    0  501    0  0.00000000000E+00  0.00000000000E+00  0.14308098931E+04  0.14308098931E+04  0.25500000920E-02 0. -1.
       -2   -1    0    0    0  501  0.00000000000E+00  0.00000000000E+00 -0.76843641823E+03  0.76843641823E+03  0.25500000920E-02 0.  1.
    10030    2    1    2    0    0  0.00000000000E+00  0.00000000000E+00  0.66237347484E+03  0.21992463113E+04  0.20971279688E+04 0.  0.
        4    1    3    3  502    0  0.80366846417E+03  0.12179168231E+03  0.10258378108E+04  0.13088395781E+04  0.12699999809E+01 0. -1.
       -4    1    3    3    0  502 -0.80366846417E+03 -0.12179168231E+03 -0.36346433595E+03  0.89040673324E+03  0.12699999809E+01 0.  1.
</event>
<event>
 5   0  0.1395356E-05  0.2096363E+04  0.7818609E-02  0.8562847E-01
       -2   -1    0    0    0  501  0.00000000000E+00  0.00000000000E+00  0.51658394205E+03  0.51658394206E+03  0.25500000920E-02 0.  1.
        2   -1    0    0  501    0  0.00000000000E+00  0.00000000000E+00 -0.21268260921E+04  0.21268260921E+04  0.25500000920E-02 0. -1.
    10030    2    1    2    0    0  0.00000000000E+00  0.00000000000E+00 -0.16102421500E+04  0.26434100341E+04  0.20963627613E+04 0.  0.
        1    1    3    3  502    0  0.13559493801E+03  0.10369079463E+04 -0.89534850861E+03  0.13766673630E+04  0.50400001928E-02 0. -1.
       -1    1    3    3    0  502 -0.13559493801E+03 -0.10369079463E+04 -0.71489364141E+03  0.12667426712E+04  0.50400001928E-02 0.  1.
</event>
<event>
 5   0  0.1395356E-05  0.2098808E+04  0.7818609E-02  0.8561769E-01
        2   -1    0    0  501    0  0.00000000000E+00  0.00000000000E+00  0.13520803339E+04  0.13520803339E+04  0.25500000920E-02 0.  1.
       -2   -1    0    0    0  501  0.00000000000E+00  0.00000000000E+00 -0.81448479270E+03  0.81448479270E+03  0.25500000920E-02 0. -1.
    10030    2    1    2    0    0  0.00000000000E+00  0.00000000000E+00  0.53759554123E+03  0.21665651266E+04  0.20988081099E+04 0.  0.
        1    1    3    3  502    0 -0.37471445425E+03  0.75426506734E+02  0.12776661952E+04  0.13336157567E+04  0.50400001928E-02 0.  1.
       -1    1    3    3    0  502  0.37471445425E+03 -0.75426506734E+02 -0.74007065392E+03  0.83294936998E+03  0.50400001928E-02 0. -1.
</event>
<event>
 5   0  0.6599245E-06  0.2102904E+04  0.7818609E-02  0.8559965E-01
        1   -1    0    0  501    0  0.00000000000E+00  0.00000000000E+00  0.66858341581E+03  0.66858341583E+03  0.50400001928E-02 0. -1.
       -1   -1    0    0    0  501  0.00000000000E+00  0.00000000000E+00 -0.16535724119E+04  0.16535724119E+04  0.50400001928E-02 0.  1.
    10030    2    1    2    0    0  0.00000000000E+00  0.00000000000E+00 -0.98498899611E+03  0.23221558278E+04  0.21029037938E+04 0.  0.
        2    1    3    3  502    0  0.33679121635E+03 -0.94057446421E+03 -0.13053506678E+03  0.10075455572E+04  0.25500000920E-02 0. -1.
       -2    1    3    3    0  502 -0.33679121635E+03  0.94057446421E+03 -0.85445392933E+03  0.13146102706E+04  0.25500000920E-02 0.  1.
</event>
<event>
 5   0  0.1390735E-05  0.2101858E+04  0.7818609E-02  0.8560425E-01
       -2   -1    0    0    0  501  0.00000000000E+00  0.00000000000E+00  0.48152182493E+03  0.48152182494E+03  0.25500000920E-02 0.  1.
        2   -1    0    0  501    0  0.00000000000E+00  0.00000000000E+00 -0.22936686129E+04  0.22936686129E+04  0.25500000920E-02 0. -1.
    10030    2    1    2    0    0  0.00000000000E+00  0.00000000000E+00 -0.18121467880E+04  0.27751904378E+04  0.21018577462E+04 0.  0.
        5    1    3    3  502    0 -0.46045598085E+03  0.36975692896E+03  0.24171325172E+03  0.63811228077E+03  0.46999998093E+01 0.  1.
       -5    1    3    3    0  502  0.46045598085E+03 -0.36975692896E+03 -0.20538600397E+04  0.21370781571E+04  0.46999998093E+01 0. -1.
</event>
<event>
 5   0  0.1395356E-05  0.2107503E+04  0.7818609E-02  0.8557945E-01
        2   -1    0    0  501    0  0.00000000000E+00  0.00000000000E+00  0.12940662261E+04  0.12940662261E+04  0.25500000920E-02 0.  1.
       -2   -1    0    0    0  501  0.00000000000E+00  0.00000000000E+00 -0.85806484939E+03  0.85806484939E+03  0.25500000920E-02 0. -1.
    10030    2    1    2    0    0  0.00000000000E+00  0.00000000000E+00  0.43600137675E+03  0.21521310755E+04  0.21075034913E+04 0.  0.
        1    1    3    3  502    0 -0.83641752587E+03 -0.27877150973E+03  0.80735693935E+03  0.11954635334E+04  0.50400001928E-02 0.  1.
       -1    1    3    3    0  502  0.83641752587E+03  0.27877150973E+03 -0.37135556260E+03  0.95666754211E+03  0.50400001928E-02 0. -1.
</event>
<event>
 5   0  0.1390735E-05  0.2101904E+04  0.7818609E-02  0.8560405E-01
        2   -1    0    0  501    0  0.00000000000E+00  0.00000000000E+00  0.15568458446E+04  0.15568458446E+04  0.25500000920E-02 0.  1.
       -2   -1    0    0    0  501  0.00000000000E+00  0.00000000000E+00 -0.70944700315E+03  0.70944700315E+03  0.25500000920E-02 0. -1.
    10030    2    1    2    0    0  0.00000000000E+00  0.00000000000E+00  0.84739884148E+03  0.22662928478E+04  0.21019035362E+04 0.  0.
        5    1    3    3  502    0  0.10340413748E+04 -0.13555412919E+03  0.28369380535E+03  0.10807963508E+04  0.46999998093E+01 0.  1.
       -5    1    3    3    0  502 -0.10340413748E+04  0.13555412919E+03  0.56370503613E+03  0.11854964970E+04  0.46999998093E+01 0. -1.
</event>
<event>
 5   0  0.1441136E-05  0.2101737E+04  0.7818609E-02  0.8560479E-01
       -2   -1    0    0    0  501  0.00000000000E+00  0.00000000000E+00  0.71073782810E+03  0.71073782810E+03  0.25500000920E-02 0. -1.
        2   -1    0    0  501    0  0.00000000000E+00  0.00000000000E+00 -0.15537721466E+04  0.15537721466E+04  0.25500000920E-02 0.  1.
    10030    2    1    2    0    0  0.00000000000E+00  0.00000000000E+00 -0.84303431846E+03  0.22645099747E+04  0.21017370348E+04 0.  0.
        4    1    3    3  502    0 -0.97183896417E+03  0.97941225421E+02 -0.83917143773E+03  0.12877397915E+04  0.12699999809E+01 0. -1.
       -4    1    3    3    0  502  0.97183896417E+03 -0.97941225421E+02 -0.38628807343E+01  0.97677018313E+03  0.12699999809E+01 0.  1.
</event>
<event>
 5   0  0.6283269E-06  0.2104146E+04  0.7818609E-02  0.8559419E-01
       -1   -1    0    0    0  501  0.00000000000E+00  0.00000000000E+00  0.81605019048E+03  0.81605019049E+03  0.50400001928E-02 0. -1.
        1   -1    0    0  501    0  0.00000000000E+00  0.00000000000E+00 -0.13563592481E+04  0.13563592482E+04  0.50400001928E-02 0.  1.
    10030    2    1    2    0    0  0.00000000000E+00  0.00000000000E+00 -0.54030905767E+03  0.21724094386E+04  0.21041456440E+04 0.  0.
        1    1    3    3  502    0  0.10218037338E+04 -0.12473429542E+03 -0.45813277983E+02  0.10304078664E+04  0.50400001928E-02 0.  1.
       -1    1    3    3    0  502 -0.10218037338E+04  0.12473429542E+03 -0.49449577968E+03  0.11420015722E+04  0.50400001928E-02 0. -1.
</event>
<event>
 5   0  0.1344501E-05  0.2112953E+04  0.7818609E-02  0.8555559E-01
        2   -1    0    0  501    0  0.00000000000E+00  0.00000000000E+00  0.13521889829E+04  0.13521889829E+04  0.25500000920E-02 0. -1.
       -2   -1    0    0    0  501  0.00000000000E+00  0.00000000000E+00 -0.82543378744E+03  0.82543378744E+03  0.25500000920E-02 0.  1.
    10030    2    1    2    0    0  0.00000000000E+00  0.00000000000E+00  0.52675519544E+03  0.21776227703E+04  0.21129528849E+04 0.  0.
        3    1    3    3  502    0 -0.97163835331E+02 -0.16854564342E+03 -0.80681374628E+03  0.82993787490E+03  0.10100000352E+00 0.  1.
       -3    1    3    3    0  502  0.97163835331E+02  0.16854564342E+03  0.13335689417E+04  0.13476848954E+04  0.10100000352E+00 0. -1.
</event>
<event>
 5   0  0.1395356E-05  0.2045412E+04  0.7818609E-02  0.8585679E-01
        2   -1    0    0  501    0  0.00000000000E+00  0.00000000000E+00  0.22059004002E+04  0.22059004002E+04  0.25500000920E-02 0. -1.
       -2   -1    0    0    0  501  0.00000000000E+00  0.00000000000E+00 -0.47414992525E+03  0.47414992525E+03  0.25500000920E-02 0.  1.
    10030    2    1    2    0    0  0.00000000000E+00  0.00000000000E+00  0.17317504749E+04  0.26800503254E+04  0.20454119486E+04 0.  0.
        1    1    3    3  502    0 -0.10854400008E+03 -0.95333094077E+03  0.40205702848E+03  0.10403228041E+04  0.50400001928E-02 0. -1.
       -1    1    3    3    0  502  0.10854400008E+03  0.95333094077E+03  0.13296934465E+04  0.16397275213E+04  0.50400001928E-02 0.  1.
</event>
<event>
 5   0  0.6238363E-06  0.2103590E+04  0.7818609E-02  0.8559664E-01
        1   -1    0    0  501    0  0.00000000000E+00  0.00000000000E+00  0.90457416505E+03  0.90457416506E+03  0.50400001928E-02 0. -1.
       -1   -1    0    0    0  501  0.00000000000E+00  0.00000000000E+00 -0.12229758731E+04  0.12229758731E+04  0.50400001928E-02 0.  1.
    10030    2    1    2    0    0  0.00000000000E+00  0.00000000000E+00 -0.31840170801E+03  0.21275500381E+04  0.21035896741E+04 0.  0.
        4    1    3    3  502    0 -0.63772419776E+03  0.19912843690E+03 -0.98081239331E+03  0.11867345325E+04  0.12699999809E+01 0.  1.
       -4    1    3    3    0  502  0.63772419776E+03 -0.19912843690E+03  0.66241068531E+03  0.94081550566E+03  0.12699999809E+01 0. -1.
</event>
<event>
 5   0  0.1344501E-05  0.2093799E+04  0.7818609E-02  0.8563980E-01
        2   -1    0    0  501    0  0.00000000000E+00  0.00000000000E+00  0.11709398778E+04  0.11709398778E+04  0.25500000920E-02 0.  1.
       -2   -1    0    0    0  501  0.00000000000E+00  0.00000000000E+00 -0.93599943202E+03  0.93599943202E+03  0.25500000920E-02 0. -1.
    10030    2    1    2    0    0  0.00000000000E+00  0.00000000000E+00  0.23494044575E+03  0.21069393098E+04  0.20937994751E+04 0.  0.
        3    1    3    3  502    0  0.28348413225E+03  0.25181836194E+03 -0.86447292428E+03  0.94397520500E+03  0.10100000352E+00 0. -1.
       -3    1    3    3    0  502 -0.28348413225E+03 -0.25181836194E+03  0.10994133700E+04  0.11629641048E+04  0.10100000352E+00 0.  1.
</event>
<event>
 5   0  0.1395356E-05  0.2100647E+04  0.7818609E-02  0.8560958E-01
       -2   -1    0    0    0  501  0.00000000000E+00  0.00000000000E+00  0.10185652723E+04  0.10185652723E+04  0.25500000920E-02 0. -1.
        2   -1    0    0  501    0  0.00000000000E+00  0.00000000000E+00 -0.10830718618E+04  0.10830718618E+04  0.25500000920E-02 0.  1.
    10030    2    1    2    0    0  0.00000000000E+00  0.00000000000E+00 -0.64506589487E+02  0.21016371341E+04  0.21006469344E+04 0.  0.
        1    1    3    3  502    0 -0.83015311223E+03 -0.44262271997E+02 -0.67447959205E+03  0.10705307369E+04  0.50400001928E-02 0.  1.
       -1    1    3    3    0  502  0.83015311223E+03  0.44262271997E+02  0.60997300257E+03  0.10311063972E+04  0.50400001928E-02 0. -1.
</event>
<event>
 5   0  0.6599245E-06  0.2102843E+04  0.7818609E-02  0.8559992E-01
        1   -1    0    0  501    0  0.00000000000E+00  0.00000000000E+00  0.10570738947E+04  0.10570738947E+04  0.50400001928E-02 0.  1.
       -1   -1    0    0    0  501  0.00000000000E+00  0.00000000000E+00 -0.10457990979E+04  0.10457990979E+04  0.50400001928E-02 0. -1.
    10030    2    1    2    0    0  0.00000000000E+00  0.00000000000E+00  0.11274796844E+02  0.21028729926E+04  0.21028427668E+04 0.  0.
        2    1    3    3  502    0  0.21648867348E+03  0.97506314671E+03  0.33407999731E+03  0.10531974793E+04  0.25500000920E-02 0.  1.
       -2    1    3    3    0  502 -0.21648867348E+03 -0.97506314671E+03 -0.32280520047E+03  0.10496755133E+04  0.25500000920E-02 0. -1.
</event>
<event>
 5   0  0.1390735E-05  0.2099361E+04  0.7818609E-02  0.8561525E-01
        2   -1    0    0  501    0  0.00000000000E+00  0.00000000000E+00  0.19397288276E+04  0.19397288276E+04  0.25500000920E-02 0.  1.
       -2   -1    0    0    0  501  0.00000000000E+00  0.00000000000E+00 -0.56803276927E+03  0.56803276927E+03  0.25500000920E-02 0. -1.
    10030    2    1    2    0    0  0.00000000000E+00  0.00000000000E+00  0.13716960583E+04  0.25077615968E+04  0.20993613672E+04 0.  0.
        5    1    3    3  502    0  0.90185132544E+03 -0.46780517334E+03  0.37064012370E+03  0.10814683004E+04  0.46999998093E+01 0.  1.
       -5    1    3    3    0  502 -0.90185132544E+03  0.46780517334E+03  0.10010559346E+04  0.14262932965E+04  0.46999998093E+01 0. -1.
</event>
<event>
 5   0  0.6283269E-06  0.2099251E+04  0.7818609E-02  0.8561574E-01
        1   -1    0    0  501    0  0.00000000000E+00  0.00000000000E+00  0.10534228897E+04  0.10534228897E+04  0.50400001928E-02 0. -1.
       -1   -1    0    0    0  501  0.00000000000E+00  0.00000000000E+00 -0.10458413778E+04  0.10458413778E+04  0.50400001928E-02 0.  1.
    10030    2    1    2    0    0  0.00000000000E+00  0.00000000000E+00  0.75815119470E+01  0.20992642675E+04  0.20992505771E+04 0.  0.
        1    1    3    3  502    0  0.42832087156E+03 -0.50396520925E+02 -0.95314529823E+03  0.10461761505E+04  0.50400001928E-02 0.  1.
       -1    1    3    3    0  502 -0.42832087156E+03  0.50396520925E+02  0.96072681018E+03  0.10530881170E+04  0.50400001928E-02 0. -1.
</event>
<event>
 5   0  0.1395356E-05  0.2102780E+04  0.7818609E-02  0.8560020E-01
       -2   -1    0    0    0  501  0.00000000000E+00  0.00000000000E+00  0.67736379824E+03  0.67736379824E+03  0.25500000920E-02 0. -1.
        2   -1    0    0  501    0  0.00000000000E+00  0.00000000000E+00 -0.16319451248E+04  0.16319451248E+04  0.25500000920E-02 0.  1.
    10030    2    1    2    0    0  0.00000000000E+00  0.00000000000E+00 -0.95458132656E+03  0.23093089230E+04  0.21027796349E+04 0.  0.
        1    1    3    3  502    0 -0.96152004184E+03  0.39669796720E+03 -0.30882799845E+03  0.10850183412E+04  0.50400001928E-02 0. -1.
       -1    1    3    3    0  502  0.96152004184E+03 -0.39669796720E+03 -0.64575332811E+03  0.12242905819E+04  0.50400001928E-02 0.  1.
</event>
<event>
 5   0  0.1398469E-05  0.2099140E+04  0.7818609E-02  0.8561622E-01
       -2   -1    0    0    0  501  0.00000000000E+00  0.00000000000E+00  0.58168305997E+03  0.58168305997E+03  0.25500000920E-02 0.  1.
        2   -1    0    0  501    0  0.00000000000E+00  0.00000000000E+00 -0.18938104052E+04  0.18938104052E+04  0.25500000920E-02 0. -1.
    10030    2    1    2    0    0  0.00000000000E+00  0.00000000000E+00 -0.13121273452E+04  0.24754934651E+04  0.20991402349E+04 0.  0.
        2    1    3    3  502    0  0.88844912659E+02  0.93332239728E+03 -0.99652425137E+02  0.94282274135E+03  0.25500000920E-02 0.  1.
       -2    1    3    3    0  502 -0.88844912659E+02 -0.93332239728E+03 -0.12124749201E+04  0.15326707238E+04  0.25500000920E-02 0. -1.
</event>
<event>
 5   0  0.6917078E-06  0.2100844E+04  0.7818609E-02  0.8560872E-01
       -1   -1    0    0    0  501  0.00000000000E+00  0.00000000000E+00  0.85015836547E+03  0.85015836548E+03  0.50400001928E-02 0. -1.
        1   -1    0    0  501    0  0.00000000000E+00  0.00000000000E+00 -0.12978602696E+04  0.12978602696E+04  0.50400001928E-02 0.  1.
    10030    2    1    2    0    0  0.00000000000E+00  0.00000000000E+00 -0.44770190416E+03  0.21480186351E+04  0.21008443688E+04 0.  0.
        5    1    3    3  502    0 -0.40544556913E+01  0.49363760321E+03 -0.11718547742E+04  0.12715975085E+04  0.46999998093E+01 0.  1.
       -5    1    3    3    0  502  0.40544556913E+01 -0.49363760321E+03  0.72415287004E+03  0.87642112657E+03  0.46999998093E+01 0. -1.
</event>
<event>
 5   0  0.6589193E-06  0.2099693E+04  0.7818609E-02  0.8561379E-01
        1   -1    0    0  501    0  0.00000000000E+00  0.00000000000E+00  0.15154562499E+04  0.15154562499E+04  0.50400001928E-02 0.  1.
       -1   -1    0    0    0  501  0.00000000000E+00  0.00000000000E+00 -0.72729107094E+03  0.72729107095E+03  0.50400001928E-02 0. -1.
    10030    2    1    2    0    0  0.00000000000E+00  0.00000000000E+00  0.78816517893E+03  0.22427473208E+04  0.20996931194E+04 0.  0.
        3    1    3    3  502    0 -0.60488594529E+03  0.36572994309E+03 -0.43503231206E+03  0.82999910893E+03  0.10100000352E+00 0. -1.
       -3    1    3    3    0  502  0.60488594529E+03 -0.36572994309E+03  0.12231974910E+04  0.14127482119E+04  0.10100000352E+00 0.  1.
</event>
<event>
 5   0  0.1344501E-05  0.2098307E+04  0.7818609E-02  0.8561990E-01
       -2   -1    0    0    0  501  0.00000000000E+00  0.00000000000E+00  0.52304658091E+03  0.52304658091E+03  0.25500000920E-02 0.  1.
        2   -1    0    0  501    0  0.00000000000E+00  0.00000000000E+00 -0.21044448380E+04  0.21044448380E+04  0.25500000920E-02 0. -1.
    10030    2    1    2    0    0  0.00000000000E+00  0.00000000000E+00 -0.15813982571E+04  0.26274914189E+04  0.20983066289E+04 0.  0.
        3    1    3    3  502    0 -0.11742978879E+03 -0.39189636253E+03  0.41904815379E+03  0.58563971831E+03  0.10100000352E+00 0.  1.
       -3    1    3    3    0  502  0.11742978879E+03  0.39189636253E+03 -0.20004464109E+04  0.20418517006E+04  0.10100000352E+00 0. -1.
</event>
<event>
 5   0  0.1390735E-05  0.2079954E+04  0.7818609E-02  0.8570126E-01
        2   -1    0    0  501    0  0.00000000000E+00  0.00000000000E+00  0.10802409912E+04  0.10802409912E+04  0.25500000920E-02 0. -1.
       -2   -1    0    0    0  501  0.00000000000E+00  0.00000000000E+00 -0.10012137490E+04  0.10012137490E+04  0.25500000920E-02 0.  1.
    10030    2    1    2    0    0  0.00000000000E+00  0.00000000000E+00  0.79027242140E+02  0.20814547402E+04  0.20799539732E+04 0.  0.
        5    1    3    3  502    0  0.53157595642E+03 -0.82965834068E+03 -0.29332835285E+03  0.10280902549E+04  0.46999998093E+01 0. -1.
       -5    1    3    3    0  502 -0.53157595642E+03  0.82965834068E+03  0.37235559498E+03  0.10533644853E+04  0.46999998093E+01 0.  1.
</event>
<event>
 5   0  0.6917078E-06  0.2095434E+04  0.7818609E-02  0.8563258E-01
       -1   -1    0    0    0  501  0.00000000000E+00  0.00000000000E+00  0.70052878117E+03  0.70052878119E+03  0.50400001928E-02 0.  1.
        1   -1    0    0  501    0  0.00000000000E+00  0.00000000000E+00 -0.15669742421E+04  0.15669742421E+04  0.50400001928E-02 0. -1.
    10030    2    1    2    0    0  0.00000000000E+00  0.00000000000E+00 -0.86644546095E+03  0.22675030233E+04  0.20954336601E+04 0.  0.
        5    1    3    3  502    0  0.57148257413E+03 -0.17306592909E+03  0.49836841162E+03  0.77777716092E+03  0.46999998093E+01 0.  1.
       -5    1    3    3    0  502 -0.57148257413E+03  0.17306592909E+03 -0.13648138726E+04  0.14897258624E+04  0.46999998093E+01 0. -1.
</event>
<event>
 5   0  0.1395356E-05  0.2099127E+04  0.7818609E-02  0.8561628E-01
        2   -1    0    0  501    0  0.00000000000E+00  0.00000000000E+00  0.15658434630E+04  0.15658434630E+04  0.25500000920E-02 0. -1.
       -2   -1    0    0    0  501  0.00000000000E+00  0.00000000000E+00 -0.70350822667E+03  0.70350822667E+03  0.25500000920E-02 0.  1.
    10030    2    1    2    0    0  0.00000000000E+00  0.00000000000E+00  0.86233523629E+03  0.22693516896E+04  0.20991272071E+04 0.  0.
        1    1    3    3  502    0 -0.55958410283E+03 -0.19781252876E+03 -0.50466158175E+03  0.77906833897E+03  0.50400001928E-02 0.  1.
       -1    1    3    3    0  502  0.55958410283E+03  0.19781252876E+03  0.13669968180E+04  0.14902833507E+04  0.50400001928E-02 0. -1.
</event>
<event>
 5   0  0.6283269E-06  0.2096499E+04  0.7818609E-02  0.8562787E-01
        1   -1    0    0  501    0  0.00000000000E+00  0.00000000000E+00  0.10364151835E+04  0.10364151835E+04  0.50400001928E-02 0.  1.
       -1   -1    0    0    0  501  0.00000000000E+00  0.00000000000E+00 -0.10602189571E+04  0.10602189571E+04  0.50400001928E-02 0. -1.
    10030    2    1    2    0    0  0.00000000000E+00  0.00000000000E+00 -0.23803773620E+02  0.20966341406E+04  0.20964990102E+04 0.  0.
        1    1    3    3  502    0  0.53843280035E+03 -0.44442147525E+03  0.77007350670E+03  0.10394390477E+04  0.50400001928E-02 0.  1.
       -1    1    3    3    0  502 -0.53843280035E+03  0.44442147525E+03 -0.79387728032E+03  0.10571950929E+04  0.50400001928E-02 0. -1.
</event>
<event>
 5   0  0.1344501E-05  0.2100912E+04  0.7818609E-02  0.8560842E-01
        2   -1    0    0  501    0  0.00000000000E+00  0.00000000000E+00  0.13767530065E+04  0.13767530065E+04  0.25500000920E-02 0.  1.
       -2   -1    0    0    0  501  0.00000000000E+00  0.00000000000E+00 -0.80149315255E+03  0.80149315255E+03  0.25500000920E-02 0. -1.
    10030    2    1    2    0    0  0.00000000000E+00  0.00000000000E+00  0.57525985397E+03  0.21782461591E+04  0.21009122852E+04 0.  0.
        3    1    3    3  502    0 -0.68417627434E+03 -0.34060076708E+03 -0.45955819164E+03  0.89179582788E+03  0.10100000352E+00 0. -1.
       -3    1    3    3    0  502  0.68417627434E+03  0.34060076708E+03  0.10348180456E+04  0.12864503312E+04  0.10100000352E+00 0.  1.
</event>
<event>
 5   0  0.1441136E-05  0.2051121E+04  0.7818609E-02  0.8583086E-01
       -2   -1    0    0    0  501  0.00000000000E+00  0.00000000000E+00  0.10699821790E+04  0.10699821790E+04  0.25500000920E-02 0. -1.
        2   -1    0    0  501    0  0.00000000000E+00  0.00000000000E+00 -0.98298267767E+03  0.98298267767E+03  0.25500000920E-02 0.  1.
    10030    2    1    2    0    0  0.00000000000E+00  0.00000000000E+00  0.86999501311E+02  0.20529648567E+04  0.20511206180E+04 0.  0.
        4    1    3    3  502    0  0.49790988190E+03  0.89549033852E+03 -0.75694419450E+00  0.10246069406E+04  0.12699999809E+01 0. -1.
       -4    1    3    3    0  502 -0.49790988190E+03 -0.89549033852E+03  0.87756445505E+02  0.10283579161E+04  0.12699999809E+01 0.  1.
</event>
<event>
 5   0  0.1398469E-05  0.2100718E+04  0.7818609E-02  0.8560927E-01
       -2   -1    0    0    0  501  0.00000000000E+00  0.00000000000E+00  0.70519827885E+03  0.70519827886E+03  0.25500000920E-02 0. -1.
        2   -1    0    0  501    0  0.00000000000E+00  0.00000000000E+00 -0.15644600340E+04  0.15644600340E+04  0.25500000920E-02 0.  1.
    10030    2    1    2    0    0  0.00000000000E+00  0.00000000000E+00 -0.85926175519E+03  0.22696583129E+04  0.21007184708E+04 0.  0.
        2    1    3    3  502    0 -0.75091703900E+03  0.48341390501E+03  0.16772428038E+03  0.90867862155E+03  0.25500000920E-02 0. -1.
       -2    1    3    3    0  502  0.75091703900E+03 -0.48341390501E+03 -0.10269860356E+04  0.13609796914E+04  0.25500000920E-02 0.  1.
</event>
<event>
 5   0  0.1398469E-05  0.2098398E+04  0.7818609E-02  0.8561949E-01
       -2   -1    0    0    0  501  0.00000000000E+00  0.00000000000E+00  0.41091630555E+03  0.41091630556E+03  0.25500000920E-02 0. -1.
        2   -1    0    0  501    0  0.00000000000E+00  0.00000000000E+00 -0.26789374022E+04  0.26789374022E+04  0.25500000920E-02 0.  1.
    10030    2    1    2    0    0  0.00000000000E+00  0.00000000000E+00 -0.22680210967E+04  0.30898537078E+04  0.20983984942E+04 0.  0.
        2    1    3    3  502    0 -0.24673797554E+03  0.42820916347E+03  0.22879216636E+03  0.54459945983E+03  0.25500000920E-02 0. -1.
       -2    1    3    3    0  502  0.24673797554E+03 -0.42820916347E+03 -0.24968132630E+04  0.25452542479E+04  0.25500000920E-02 0.  1.
</event>
<event>
 5   0  0.1395356E-05  0.2102544E+04  0.7818609E-02  0.8560123E-01
        2   -1    0    0  501    0  0.00000000000E+00  0.00000000000E+00  0.94558182171E+03  0.94558182171E+03  0.25500000920E-02 0. -1.
       -2   -1    0    0    0  501  0.00000000000E+00  0.00000000000E+00 -0.11687756997E+04  0.11687756997E+04  0.25500000920E-02 0.  1.
    10030    2    1    2    0    0  0.00000000000E+00  0.00000000000E+00 -0.22319387803E+03  0.21143575214E+04  0.21025442258E+04 0.  0.
        1    1    3    3  502    0 -0.92700055957E+02  0.75226186402E+03  0.62097520329E+03  0.97984764916E+03  0.50400001928E-02 0. -1.
       -1    1    3    3    0  502  0.92700055957E+02 -0.75226186402E+03 -0.84416908132E+03  0.11345098723E+04  0.50400001928E-02 0.  1.
</event>
<event>
 5   0  0.6917078E-06  0.2103588E+04  0.7818609E-02  0.8559665E-01
       -1   -1    0    0    0  501  0.00000000000E+00  0.00000000000E+00  0.11988637436E+04  0.11988637436E+04  0.50400001928E-02 0.  1.
        1   -1    0    0  501    0  0.00000000000E+00  0.00000000000E+00 -0.92276561537E+03  0.92276561538E+03  0.50400001928E-02 0. -1.
    10030    2    1    2    0    0  0.00000000000E+00  0.00000000000E+00  0.27609812826E+03  0.21216293590E+04  0.21035876403E+04 0.  0.
        5    1    3    3  502    0  0.42199712371E+03 -0.59107514897E+03 -0.62926285867E+03  0.96096058163E+03  0.46999998093E+01 0. -1.
       -5    1    3    3    0  502 -0.42199712371E+03  0.59107514897E+03  0.90536098693E+03  0.11606687774E+04  0.46999998093E+01 0.  1.
</event>
<event>
 5   0  0.6283269E-06  0.2101808E+04  0.7818609E-02  0.8560447E-01
       -1   -1    0    0    0  501  0.00000000000E+00  0.00000000000E+00  0.11053161690E+04  0.11053161690E+04  0.50400001928E-02 0. -1.
        1   -1    0    0  501    0  0.00000000000E+00  0.00000000000E+00 -0.99917081369E+03  0.99917081371E+03  0.50400001928E-02 0.  1.
    10030    2    1    2    0    0  0.00000000000E+00  0.00000000000E+00  0.10614535534E+03  0.21044869828E+04  0.21018084176E+04 0.  0.
        1    1    3    3  502    0  0.57829109060E+03  0.77365902424E+02 -0.82210850945E+03  0.10081014183E+04  0.50400001928E-02 0.  1.
       -1    1    3    3    0  502 -0.57829109060E+03 -0.77365902424E+02  0.92825386479E+03  0.10963855644E+04  0.50400001928E-02 0. -1.
</event>
<event>
 5   0  0.1395356E-05  0.2098429E+04  0.7818609E-02  0.8561936E-01
       -2   -1    0    0    0  501  0.00000000000E+00  0.00000000000E+00  0.11840575675E+04  0.11840575675E+04  0.25500000920E-02 0. -1.
        2   -1    0    0  501    0  0.00000000000E+00  0.00000000000E+00 -0.92972784239E+03  0.92972784240E+03  0.25500000920E-02 0.  1.
    10030    2    1    2    0    0  0.00000000000E+00  0.00000000000E+00  0.25432972510E+03  0.21137854099E+04  0.20984292101E+04 0.  0.
        1    1    3    3  502    0  0.65057068998E+03 -0.71353408540E+03  0.54062952348E+03  0.11066405900E+04  0.50400001928E-02 0.  1.
       -1    1    3    3    0  502 -0.65057068998E+03  0.71353408540E+03 -0.28629979839E+03  0.10071448199E+04  0.50400001928E-02 0. -1.
</event>
<event>
 5   0  0.6599245E-06  0.2104199E+04  0.7818609E-02  0.8559396E-01
       -1   -1    0    0    0  501  0.00000000000E+00  0.00000000000E+00  0.35226113632E+04  0.35226113632E+04  0.50400001928E-02 0. -1.
        1   -1    0    0  501    0  0.00000000000E+00  0.00000000000E+00 -0.31423076836E+03  0.31423076840E+03  0.50400001928E-02 0.  1.
    10030    2    1    2    0    0  0.00000000000E+00  0.00000000000E+00  0.32083805948E+04  0.38368421316E+04  0.21041985414E+04 0.  0.
        2    1    3    3  502    0 -0.11615842375E+03 -0.59147720674E+02  0.35078304363E+04  0.35102515012E+04  0.25500000920E-02 0. -1.
       -2    1    3    3    0  502  0.11615842375E+03  0.59147720674E+02 -0.29944984147E+03  0.32659063035E+03  0.25500000920E-02 0.  1.
</event>
<event>
 5   0  0.6589193E-06  0.2099783E+04  0.7818609E-02  0.8561339E-01
       -1   -1    0    0    0  501  0.00000000000E+00  0.00000000000E+00  0.14028925888E+04  0.14028925888E+04  0.50400001928E-02 0.  1.
        1   -1    0    0  501    0  0.00000000000E+00  0.00000000000E+00 -0.78571414050E+03  0.78571414051E+03  0.50400001928E-02 0. -1.
    10030    2    1    2    0    0  0.00000000000E+00  0.00000000000E+00  0.61717844830E+03  0.21886067293E+04  0.20997833647E+04 0.  0.
        3    1    3    3  502    0  0.32200107827E+03 -0.96308648298E+03  0.58642118689E+03  0.11726508802E+04  0.10100000352E+00 0. -1.
       -3    1    3    3    0  502 -0.32200107827E+03  0.96308648298E+03  0.30757261409E+02  0.10159558492E+04  0.10100000352E+00 0.  1.
</event>
<event>
 5   0  0.6238363E-06  0.2099456E+04  0.7818609E-02  0.8561483E-01
        1   -1    0    0  501    0  0.00000000000E+00  0.00000000000E+00  0.13674797880E+04  0.13674797880E+04  0.50400001928E-02 0. -1.
       -1   -1    0    0    0  501  0.00000000000E+00  0.00000000000E+00 -0.80580987583E+03  0.80580987584E+03  0.50400001928E-02 0.  1.
    10030    2    1    2    0    0  0.00000000000E+00  0.00000000000E+00  0.56166991212E+03  0.21732896638E+04  0.20994558516E+04 0.  0.
        4    1    3    3  502    0  0.64287339679E+03  0.82922548727E+03  0.24767737051E+03  0.10780755103E+04  0.12699999809E+01 0.  1.
       -4    1    3    3    0  502 -0.64287339679E+03 -0.82922548727E+03  0.31399254161E+03  0.10952141536E+04  0.12699999809E+01 0. -1.
</event>
<event>
 5   0  0.1395356E-05  0.2099044E+04  0.7818609E-02  0.8561665E-01
       -2   -1    0    0    0  501  0.00000000000E+00  0.00000000000E+00  0.60739022353E+03  0.60739022354E+03  0.25500000920E-02 0.  1.
        2   -1    0    0  501    0  0.00000000000E+00  0.00000000000E+00 -0.18134905772E+04  0.18134905772E+04  0.25500000920E-02 0. -1.
    10030    2    1    2    0    0  0.00000000000E+00  0.00000000000E+00 -0.12061003536E+04  0.24208808007E+04  0.20990440177E+04 0.  0.
        1    1    3    3  502    0  0.62603801822E+03 -0.16747811935E+03  0.34907141456E+03  0.73608652563E+03  0.50400001928E-02 0.  1.
       -1    1    3    3    0  502 -0.62603801822E+03  0.16747811935E+03 -0.15551717682E+04  0.16847942751E+04  0.50400001928E-02 0. -1.
</event>
<event>
 5   0  0.6599245E-06  0.2099916E+04  0.7818609E-02  0.8561280E-01
        1   -1    0    0  501    0  0.00000000000E+00  0.00000000000E+00  0.11244725388E+04  0.11244725388E+04  0.50400001928E-02 0. -1.
       -1   -1    0    0    0  501  0.00000000000E+00  0.00000000000E+00 -0.98038133499E+03  0.98038133500E+03  0.50400001928E-02 0.  1.
    10030    2    1    2    0    0  0.00000000000E+00  0.00000000000E+00  0.14409120383E+03  0.21048538738E+04  0.20999160829E+04 0.  0.
        2    1    3    3  502    0  0.31155445097E+02 -0.69792037338E+03  0.85769244504E+03  0.11062096725E+04  0.25500000920E-02 0. -1.
       -2    1    3    3    0  502 -0.31155445097E+02  0.69792037338E+03 -0.71360124120E+03  0.99864420130E+03  0.25500000920E-02 0.  1.
</event>
<event>
 5   0  0.6589193E-06  0.2098653E+04  0.7818609E-02  0.8561837E-01
       -1   -1    0    0    0  501  0.00000000000E+00  0.00000000000E+00  0.85839263013E+03  0.85839263014E+03  0.50400001928E-02 0. -1.
        1   -1    0    0  501    0  0.00000000000E+00  0.00000000000E+00 -0.12827295425E+04  0.12827295425E+04  0.50400001928E-02 0.  1.
    10030    2    1    2    0    0  0.00000000000E+00  0.00000000000E+00 -0.42433691240E+03  0.21411221727E+04  0.20986525065E+04 0.  0.
        3    1    3    3  502    0  0.52878796375E+03  0.10614940075E+03  0.70615853142E+03  0.88856304649E+03  0.10100000352E+00 0. -1.
       -3    1    3    3    0  502 -0.52878796375E+03 -0.10614940075E+03 -0.11304954438E+04  0.12525591262E+04  0.10100000352E+00 0.  1.
</event>
<event>
 5   0  0.6917078E-06  0.2098834E+04  0.7818609E-02  0.8561757E-01
       -1   -1    0    0    0  501  0.00000000000E+00  0.00000000000E+00  0.64235933203E+03  0.64235933205E+03  0.50400001928E-02 0.  1.
        1   -1    0    0  501    0  0.00000000000E+00  0.00000000000E+00 -0.17144241975E+04  0.17144241975E+04  0.50400001928E-02 0. -1.
    10030    2    1    2    0    0  0.00000000000E+00  0.00000000000E+00 -0.10720648655E+04  0.23567835295E+04  0.20988343263E+04 0.  0.
        5    1    3    3  502    0 -0.74328896656E+03 -0.66033017737E+03 -0.15899863356E+03  0.10068848427E+04  0.46999998093E+01 0.  1.
       -5    1    3    3    0  502  0.74328896656E+03  0.66033017737E+03 -0.91306623190E+03  0.13498986869E+04  0.46999998093E+01 0. -1.
</event>
<event>
 5   0  0.1395356E-05  0.2105946E+04  0.7818609E-02  0.8558628E-01
       -2   -1    0    0    0  501  0.00000000000E+00  0.00000000000E+00  0.12045601656E+04  0.12045601656E+04  0.25500000920E-02 0. -1.
        2   -1    0    0  501    0  0.00000000000E+00  0.00000000000E+00 -0.92046258058E+03  0.92046258058E+03  0.25500000920E-02 0.  1.
    10030    2    1    2    0    0  0.00000000000E+00  0.00000000000E+00  0.28409758505E+03  0.21250227462E+04  0.21059463987E+04 0.  0.
        1    1    3    3  502    0  0.44138366328E+03 -0.79992554862E+02 -0.81922648428E+03  0.93399699123E+03  0.50400001928E-02 0.  1.
       -1    1    3    3    0  502 -0.44138366328E+03  0.79992554862E+02  0.11033240693E+04  0.11910257550E+04  0.50400001928E-02 0. -1.
</event>
<event>
 5   0  0.5009125E-06  0.2099825E+04  0.7818609E-02  0.8561320E-01
       -3   -1    0    0    0  501  0.00000000000E+00  0.00000000000E+00  0.10490237028E+04  0.10490237076E+04  0.10100000352E+00 0. -1.
        3   -1    0    0  501    0  0.00000000000E+00  0.00000000000E+00 -0.10508022225E+04  0.10508022274E+04  0.10100000352E+00 0.  1.
    10030    2    1    2    0    0  0.00000000000E+00  0.00000000000E+00 -0.17785197860E+01  0.20998259350E+04  0.20998251818E+04 0.  0.
        5    1    3    3  502    0  0.65994866403E+03  0.29243005553E+02  0.81514226141E+03  0.10492218016E+04  0.46999998093E+01 0. -1.
       -5    1    3    3    0  502 -0.65994866403E+03 -0.29243005553E+02 -0.81692078119E+03  0.10506041335E+04  0.46999998093E+01 0.  1.
</event>
<event>
 5   0  0.6917078E-06  0.2099450E+04  0.7818609E-02  0.8561486E-01
        1   -1    0    0  501    0  0.00000000000E+00  0.00000000000E+00  0.17553763458E+04  0.17553763458E+04  0.50400001928E-02 0. -1.
       -1   -1    0    0    0  501  0.00000000000E+00  0.00000000000E+00 -0.62774165525E+03  0.62774165527E+03  0.50400001928E-02 0.  1.
    10030    2    1    2    0    0  0.00000000000E+00  0.00000000000E+00  0.11276346906E+04  0.23831180011E+04  0.20994502642E+04 0.  0.
        5    1    3    3  502    0 -0.65073618402E+03 -0.72609329976E+03  0.12238782178E+03  0.98268506148E+03  0.46999998093E+01 0.  1.
       -5    1    3    3    0  502  0.65073618402E+03  0.72609329976E+03  0.10052468688E+04  0.14004329396E+04  0.46999998093E+01 0. -1.
</event>
<event>
 5   0  0.1398469E-05  0.2102088E+04  0.7818609E-02  0.8560324E-01
       -2   -1    0    0    0  501  0.00000000000E+00  0.00000000000E+00  0.70526869266E+03  0.70526869267E+03  0.25500000920E-02 0. -1.
        2   -1    0    0  501    0  0.00000000000E+00  0.00000000000E+00 -0.15663440027E+04  0.15663440027E+04  0.25500000920E-02 0.  1.
    10030    2    1    2    0    0  0.00000000000E+00  0.00000000000E+00 -0.86107531008E+03  0.22716126954E+04  0.21020879021E+04 0.  0.
        2    1    3    3  502    0  0.73499864794E+03 -0.34837375756E+03 -0.11498827367E+04  0.14084805983E+04  0.25500000920E-02 0.  1.
       -2    1    3    3    0  502 -0.73499864794E+03  0.34837375756E+03  0.28880742665E+03  0.86313209715E+03  0.25500000920E-02 0. -1.
</event>
<event>
 5   0  0.6599245E-06  0.2094252E+04  0.7818609E-02  0.8563780E-01
        1   -1    0    0  501    0  0.00000000000E+00  0.00000000000E+00  0.94795878363E+03  0.94795878364E+03  0.50400001928E-02 0.  1.
       -1   -1    0    0    0  501  0.00000000000E+00  0.00000000000E+00 -0.11566673368E+04  0.11566673368E+04  0.50400001928E-02 0. -1.
    10030    2    1    2    0    0  0.00000000000E+00  0.00000000000E+00 -0.20870855315E+03  0.21046261204E+04  0.20942520972E+04 0.  0.
        2    1    3    3  502    0  0.24739837334E+03 -0.42501094786E+03  0.82468858382E+03  0.96018306652E+03  0.25500000920E-02 0.  1.
       -2    1    3    3    0  502 -0.24739837334E+03  0.42501094786E+03 -0.10333971370E+04  0.11444430539E+04  0.25500000920E-02 0. -1.
</event>
<event>
 5   0  0.1390735E-05  0.2094935E+04  0.7818609E-02  0.8563478E-01
       -2   -1    0    0    0  501  0.00000000000E+00  0.00000000000E+00  0.12663079654E+04  0.12663079654E+04  0.25500000920E-02 0. -1.
        2   -1    0    0  501    0  0.00000000000E+00  0.00000000000E+00 -0.86644641743E+03  0.86644641744E+03  0.25500000920E-02 0.  1.
    10030    2    1    2    0    0  0.00000000000E+00  0.00000000000E+00  0.39986154798E+03  0.21327543829E+04  0.20949348439E+04 0.  0.
        5    1    3    3  502    0 -0.16492085732E+03 -0.76379705606E+02  0.12501218210E+04  0.12632732902E+04  0.46999998093E+01 0. -1.
       -5    1    3    3    0  502  0.16492085732E+03  0.76379705606E+02 -0.85026027298E+03  0.86948109261E+03  0.46999998093E+01 0.  1.
</event>
<event>
 5   0  0.1441136E-05  0.2077431E+04  0.7818609E-02  0.8571251E-01
        2   -1    0    0  501    0  0.00000000000E+00  0.00000000000E+00  0.27630685221E+04  0.27630685221E+04  0.25500000920E-02 0. -1.
       -2   -1    0    0    0  501  0.00000000000E+00  0.00000000000E+00 -0.39048255456E+03  0.39048255457E+03  0.25500000920E-02 0.  1.
    10030    2    1    2    0    0  0.00000000000E+00  0.00000000000E+00  0.23725859676E+04  0.31535510767E+04  0.20774311589E+04 0.  0.
        4    1    3    3  502    0 -0.30699398803E+03  0.83652278234E+02 -0.31467973864E+03  0.44751308713E+03  0.12699999809E+01 0.  1.
       -4    1    3    3    0  502  0.30699398803E+03 -0.83652278234E+02  0.26872657062E+04  0.27060379896E+04  0.12699999809E+01 0. -1.
</event>
<event>
 5   0  0.1441136E-05  0.2090325E+04  0.7818609E-02  0.8565517E-01
        2   -1    0    0  501    0  0.00000000000E+00  0.00000000000E+00  0.12818926610E+04  0.12818926610E+04  0.25500000920E-02 0. -1.
       -2   -1    0    0    0  501  0.00000000000E+00  0.00000000000E+00 -0.85215006296E+03  0.85215006297E+03  0.25500000920E-02 0.  1.
    10030    2    1    2    0    0  0.00000000000E+00  0.00000000000E+00  0.42974259801E+03  0.21340427239E+04  0.20903252491E+04 0.  0.
        4    1    3    3  502    0 -0.11330946852E+03 -0.57821119610E+03 -0.66643022887E+03  0.88954937232E+03  0.12699999809E+01 0.  1.
       -4    1    3    3    0  502  0.11330946852E+03  0.57821119610E+03  0.10961728269E+04  0.12444933516E+04  0.12699999809E+01 0. -1.
</event>
<event>
 5   0  0.6917078E-06  0.2096859E+04  0.7818609E-02  0.8562628E-01
        1   -1    0    0  501    0  0.00000000000E+00  0.00000000000E+00  0.83244665890E+03  0.83244665892E+03  0.50400001928E-02 0.  1.
       -1   -1    0    0    0  501  0.00000000000E+00  0.00000000000E+00 -0.13204502108E+04  0.13204502108E+04  0.50400001928E-02 0. -1.
    10030    2    1    2    0    0  0.00000000000E+00  0.00000000000E+00 -0.48800355185E+03  0.21528968697E+04  0.20968589521E+04 0.  0.
        5    1    3    3  502    0 -0.57325417367E+02  0.41483335005E+03 -0.12308382397E+04  0.13001375981E+04  0.46999998093E+01 0. -1.
       -5    1    3    3    0  502  0.57325417367E+02 -0.41483335005E+03  0.74283468783E+03  0.85275927156E+03  0.46999998093E+01 0.  1.
</event>
<event>
 5   0  0.6917078E-06  0.2101301E+04  0.7818609E-02  0.8560670E-01
        1   -1    0    0  501    0  0.00000000000E+00  0.00000000000E+00  0.11504953124E+04  0.11504953124E+04  0.50400001928E-02 0. -1.
       -1   -1    0    0    0  501  0.00000000000E+00  0.00000000000E+00 -0.95947078668E+03  0.95947078669E+03  0.50400001928E-02 0.  1.
    10030    2    1    2    0    0  0.00000000000E+00  0.00000000000E+00  0.19102452572E+03  0.21099660991E+04  0.21013011612E+04 0.  0.
        5    1    3    3  502    0  0.56878786918E+03  0.25830014918E+03  0.94374768947E+03  0.11317775393E+04  0.46999998093E+01 0. -1.
       -5    1    3    3    0  502 -0.56878786918E+03 -0.25830014918E+03 -0.75272316375E+03  0.97818855975E+03  0.46999998093E+01 0.  1.
</event>
<event>
 5   0  0.6917078E-06  0.2096671E+04  0.7818609E-02  0.8562711E-01
        1   -1    0    0  501    0  0.00000000000E+00  0.00000000000E+00  0.15399771761E+04  0.15399771761E+04  0.50400001928E-02 0. -1.
       -1   -1    0    0    0  501  0.00000000000E+00  0.00000000000E+00 -0.71365141635E+03  0.71365141637E+03  0.50400001928E-02 0.  1.
    10030    2    1    2    0    0  0.00000000000E+00  0.00000000000E+00  0.82632575970E+03  0.22536285924E+04  0.20966705920E+04 0.  0.
        5    1    3    3  502    0 -0.24760193950E+03 -0.57107052940E+03 -0.49352298543E+03  0.79436471293E+03  0.46999998093E+01 0.  1.
       -5    1    3    3    0  502  0.24760193950E+03  0.57107052940E+03  0.13198487451E+04  0.14592638795E+04  0.46999998093E+01 0. -1.
</event>
<event>
 5   0  0.1441136E-05  0.2098932E+04  0.7818609E-02  0.8561714E-01
        2   -1    0    0  501    0  0.00000000000E+00  0.00000000000E+00  0.11542252895E+04  0.11542252895E+04  0.25500000920E-02 0. -1.
       -2   -1    0    0    0  501  0.00000000000E+00  0.00000000000E+00 -0.95421512502E+03  0.95421512502E+03  0.25500000920E-02 0.  1.
    10030    2    1    2    0    0  0.00000000000E+00  0.00000000000E+00  0.20001016446E+03  0.21084404145E+04  0.20989323276E+04 0.  0.
        4    1    3    3  502    0 -0.83018452401E+03  0.63733503245E+03  0.17765549875E+03  0.10615862549E+04  0.12699999809E+01 0. -1.
       -4    1    3    3    0  502  0.83018452401E+03 -0.63733503245E+03  0.22354665712E+02  0.10468541596E+04  0.12699999809E+01 0.  1.
</event>
<event>
 5   0  0.1390735E-05  0.2103058E+04  0.7818609E-02  0.8559898E-01
       -2   -1    0    0    0  501  0.00000000000E+00  0.00000000000E+00  0.90468674515E+03  0.90468674515E+03  0.25500000920E-02 0.  1.
        2   -1    0    0  501    0  0.00000000000E+00  0.00000000000E+00 -0.12222056021E+04  0.12222056021E+04  0.25500000920E-02 0. -1.
    10030    2    1    2    0    0  0.00000000000E+00  0.00000000000E+00 -0.31751885692E+03  0.21268923472E+04  0.21030579717E+04 0.  0.
        5    1    3    3  502    0 -0.67504876040E+02 -0.10482847236E+04 -0.20655332871E+03  0.10705812148E+04  0.46999998093E+01 0. -1.
       -5    1    3    3    0  502  0.67504876040E+02  0.10482847236E+04 -0.11096552821E+03  0.10563111324E+04  0.46999998093E+01 0.  1.
</event>
<event>
 5   0  0.6589193E-06  0.2101241E+04  0.7818609E-02  0.8560697E-01
        1   -1    0    0  501    0  0.00000000000E+00  0.00000000000E+00  0.74830317851E+03  0.74830317853E+03  0.50400001928E-02 0.  1.
       -1   -1    0    0    0  501  0.00000000000E+00  0.00000000000E+00 -0.14750751496E+04  0.14750751496E+04  0.50400001928E-02 0. -1.
    10030    2    1    2    0    0  0.00000000000E+00  0.00000000000E+00 -0.72677197109E+03  0.22233783281E+04  0.21012409886E+04 0.  0.
        3    1    3    3  502    0  0.35193740089E+03 -0.88372384825E+03  0.10860907960E+03  0.95740467749E+03  0.10100000352E+00 0.  1.
       -3    1    3    3    0  502 -0.35193740089E+03  0.88372384825E+03 -0.83538105069E+03  0.12659736507E+04  0.10100000352E+00 0. -1.
</event>
<event>
 5   0  0.1441136E-05  0.2101043E+04  0.7818609E-02  0.8560784E-01
        2   -1    0    0  501    0  0.00000000000E+00  0.00000000000E+00  0.72495066350E+03  0.72495066350E+03  0.25500000920E-02 0. -1.
       -2   -1    0    0    0  501  0.00000000000E+00  0.00000000000E+00 -0.15223046165E+04  0.15223046165E+04  0.25500000920E-02 0.  1.
    10030    2    1    2    0    0  0.00000000000E+00  0.00000000000E+00 -0.79735395299E+03  0.22472552800E+04  0.21010433044E+04 0.  0.
        4    1    3    3  502    0 -0.76264803413E+03  0.31914760847E+03  0.29458489896E+03  0.87764975677E+03  0.12699999809E+01 0. -1.
       -4    1    3    3    0  502  0.76264803413E+03 -0.31914760847E+03 -0.10919388519E+04  0.13696055232E+04  0.12699999809E+01 0.  1.
</event>
<event>
 5   0  0.1395356E-05  0.2099677E+04  0.7818609E-02  0.8561386E-01
       -2   -1    0    0    0  501  0.00000000000E+00  0.00000000000E+00  0.14535720816E+04  0.14535720816E+04  0.25500000920E-02 0.  1.
        2   -1    0    0  501    0  0.00000000000E+00  0.00000000000E+00 -0.75824298541E+03  0.75824298542E+03  0.25500000920E-02 0. -1.
    10030    2    1    2    0    0  0.00000000000E+00  0.00000000000E+00  0.69532909616E+03  0.22118150670E+04  0.20996769605E+04 0.  0.
        1    1    3    3  502    0  0.45346810990E+03 -0.71759789448E+03 -0.30304858087E+03  0.90134261369E+03  0.50400001928E-02 0. -1.
       -1    1    3    3    0  502 -0.45346810990E+03  0.71759789448E+03  0.99837767703E+03  0.13104724533E+04  0.50400001928E-02 0.  1.
</event>
<event>
 5   0  0.6283269E-06  0.2099277E+04  0.7818609E-02  0.8561562E-01
        1   -1    0    0  501    0  0.00000000000E+00  0.00000000000E+00  0.18064553658E+04  0.18064553658E+04  0.50400001928E-02 0. -1.
       -1   -1    0    0    0  501  0.00000000000E+00  0.00000000000E+00 -0.60989115665E+03  0.60989115667E+03  0.50400001928E-02 0.  1.
    10030    2    1    2    0    0  0.00000000000E+00  0.00000000000E+00  0.11965642092E+04  0.24163465225E+04  0.20992771637E+04 0.  0.
        1    1    3    3  502    0  0.37044784225E+03  0.37618214832E+03  0.16424935251E+04  0.17252621808E+04  0.50400001928E-02 0. -1.
       -1    1    3    3    0  502 -0.37044784225E+03 -0.37618214832E+03 -0.44592931590E+03  0.69108434170E+03  0.50400001928E-02 0.  1.
</event>
<event>
 5   0  0.1344501E-05  0.2100224E+04  0.7818609E-02  0.8561145E-01
       -2   -1    0    0    0  501  0.00000000000E+00  0.00000000000E+00  0.14285339707E+04  0.14285339707E+04  0.25500000920E-02 0.  1.
        2   -1    0    0  501    0  0.00000000000E+00  0.00000000000E+00 -0.77193514157E+03  0.77193514157E+03  0.25500000920E-02 0. -1.
    10030    2    1    2    0    0  0.00000000000E+00  0.00000000000E+00  0.65659882912E+03  0.22004691123E+04  0.21002243432E+04 0.  0.
        3    1    3    3  502    0  0.21506981073E+03 -0.81872000496E+03 -0.32279415402E+03  0.90595449449E+03  0.10100000352E+00 0. -1.
       -3    1    3    3    0  502 -0.21506981073E+03  0.81872000496E+03  0.97939298314E+03  0.12945146178E+04  0.10100000352E+00 0.  1.
</event>
<event>
 5   0  0.6589193E-06  0.2099584E+04  0.7818609E-02  0.8561427E-01
       -1   -1    0    0    0  501  0.00000000000E+00  0.00000000000E+00  0.41335400460E+03  0.41335400463E+03  0.50400001928E-02 0. -1.
        1   -1    0    0  501    0  0.00000000000E+00  0.00000000000E+00 -0.26661474532E+04  0.26661474532E+04  0.50400001928E-02 0.  1.
    10030    2    1    2    0    0  0.00000000000E+00  0.00000000000E+00 -0.22527934486E+04  0.30795014579E+04  0.20995835079E+04 0.  0.
        3    1    3    3  502    0 -0.64171319833E+03 -0.63377615783E+03 -0.33845987100E+03  0.96333957752E+03  0.10100000352E+00 0. -1.
       -3    1    3    3    0  502  0.64171319833E+03  0.63377615783E+03 -0.19143335776E+04  0.21161618803E+04  0.10100000352E+00 0.  1.
</event>
<event>
 5   0  0.6917078E-06  0.2102977E+04  0.7818609E-02  0.8559933E-01
        1   -1    0    0  501    0  0.00000000000E+00  0.00000000000E+00  0.13749746388E+04  0.13749746388E+04  0.50400001928E-02 0. -1.
       -1   -1    0    0    0  501  0.00000000000E+00  0.00000000000E+00 -0.80410812010E+03  0.80410812012E+03  0.50400001928E-02 0.  1.
    10030    2    1    2    0    0  0.00000000000E+00  0.00000000000E+00  0.57086651867E+03  0.21790827589E+04  0.21029771963E+04 0.  0.
        5    1    3    3  502    0  0.93596465276E+03  0.17651892276E+03  0.74699421193E+03  0.12104590881E+04  0.46999998093E+01 0.  1.
       -5    1    3    3    0  502 -0.93596465276E+03 -0.17651892276E+03 -0.17612769326E+03  0.96862367080E+03  0.46999998093E+01 0. -1.
</event>
<event>
 5   0  0.6283269E-06  0.2099265E+04  0.7818609E-02  0.8561567E-01
       -1   -1    0    0    0  501  0.00000000000E+00  0.00000000000E+00  0.10938898412E+04  0.10938898412E+04  0.50400001928E-02 0. -1.
        1   -1    0    0  501    0  0.00000000000E+00  0.00000000000E+00 -0.10071656196E+04  0.10071656196E+04  0.50400001928E-02 0.  1.
    10030    2    1    2    0    0  0.00000000000E+00  0.00000000000E+00  0.86724221542E+02  0.21010554608E+04  0.20992648615E+04 0.  0.
        1    1    3    3  502    0  0.36374987523E+03  0.72636070785E+03  0.70862026806E+03  0.10779872606E+04  0.50400001928E-02 0. -1.
       -1    1    3    3    0  502 -0.36374987523E+03 -0.72636070785E+03 -0.62189604652E+03  0.10230682002E+04  0.50400001928E-02 0.  1.
</event>
<event>
 5   0  0.6283269E-06  0.2107049E+04  0.7818609E-02  0.8558144E-01
       -1   -1    0    0    0  501  0.00000000000E+00  0.00000000000E+00  0.10685901586E+04  0.10685901586E+04  0.50400001928E-02 0. -1.
        1   -1    0    0  501    0  0.00000000000E+00  0.00000000000E+00 -0.10386714379E+04  0.10386714379E+04  0.50400001928E-02 0.  1.
    10030    2    1    2    0    0  0.00000000000E+00  0.00000000000E+00  0.29918720709E+02  0.21072615965E+04  0.21070491941E+04 0.  0.
        1    1    3    3  502    0 -0.54007440680E+03  0.62312985306E+03  0.67072576967E+03  0.10629413139E+04  0.50400001928E-02 0. -1.
       -1    1    3    3    0  502  0.54007440680E+03 -0.62312985306E+03 -0.64080704896E+03  0.10443202826E+04  0.50400001928E-02 0.  1.
</event>
<event>
 5   0  0.1344501E-05  0.2107189E+04  0.7818609E-02  0.8558083E-01
       -2   -1    0    0    0  501  0.00000000000E+00  0.00000000000E+00  0.37678498544E+03  0.37678498545E+03  0.25500000920E-02 0.  1.
        2   -1    0    0  501    0  0.00000000000E+00  0.00000000000E+00 -0.29461410117E+04  0.29461410117E+04  0.25500000920E-02 0. -1.
    10030    2    1    2    0    0  0.00000000000E+00  0.00000000000E+00 -0.25693560263E+04  0.33229259972E+04  0.21071893111E+04 0.  0.
        3    1    3    3  502    0  0.54241878597E+03  0.81361962130E+03 -0.19032487616E+04  0.21397548659E+04  0.10100000352E+00 0.  1.
       -3    1    3    3    0  502 -0.54241878597E+03 -0.81361962130E+03 -0.66610726465E+03  0.11831711312E+04  0.10100000352E+00 0. -1.
</event>
<event>
 5   0  0.6283269E-06  0.2056134E+04  0.7818609E-02  0.8580817E-01
        1   -1    0    0  501    0  0.00000000000E+00  0.00000000000E+00  0.78904769533E+03  0.78904769535E+03  0.50400001928E-02 0.  1.
       -1   -1    0    0    0  501  0.00000000000E+00  0.00000000000E+00 -0.13394897047E+04  0.13394897047E+04  0.50400001928E-02 0. -1.
    10030    2    1    2    0    0  0.00000000000E+00  0.00000000000E+00 -0.55044200935E+03  0.21285374000E+04  0.20561335214E+04 0.  0.
        1    1    3    3  502    0  0.57339124011E+03 -0.41663843207E+03  0.49568733102E+03  0.86491099396E+03  0.50400001928E-02 0.  1.
       -1    1    3    3    0  502 -0.57339124011E+03  0.41663843207E+03 -0.10461293404E+04  0.12636264061E+04  0.50400001928E-02 0. -1.
</event>
<event>
 5   0  0.6599245E-06  0.2110061E+04  0.7818609E-02  0.8556824E-01
       -1   -1    0    0    0  501  0.00000000000E+00  0.00000000000E+00  0.85891754589E+03  0.85891754591E+03  0.50400001928E-02 0.  1.
        1   -1    0    0  501    0  0.00000000000E+00  0.00000000000E+00 -0.12959215615E+04  0.12959215615E+04  0.50400001928E-02 0. -1.
    10030    2    1    2    0    0  0.00000000000E+00  0.00000000000E+00 -0.43700401563E+03  0.21548391074E+04  0.21100613899E+04 0.  0.
        2    1    3    3  502    0  0.50386368307E+03  0.89495451715E+03  0.28007233730E+02  0.10274271770E+04  0.25500000920E-02 0.  1.
       -2    1    3    3    0  502 -0.50386368307E+03 -0.89495451715E+03 -0.46501124936E+03  0.11274119304E+04  0.25500000920E-02 0. -1.
</event>
<event>
 5   0  0.6589193E-06  0.2049079E+04  0.7818609E-02  0.8584012E-01
        1   -1    0    0  501    0  0.00000000000E+00  0.00000000000E+00  0.14400857672E+04  0.14400857672E+04  0.50400001928E-02 0. -1.
       -1   -1    0    0    0  501  0.00000000000E+00  0.00000000000E+00 -0.72890156707E+03  0.72890156709E+03  0.50400001928E-02 0.  1.
    10030    2    1    2    0    0  0.00000000000E+00  0.00000000000E+00  0.71118420011E+03  0.21689873343E+04  0.20490785953E+04 0.  0.
        3    1    3    3  502    0  0.71977687396E+03 -0.44823282629E+03  0.96429938839E+03  0.12840812807E+04  0.10100000352E+00 0. -1.
       -3    1    3    3    0  502 -0.71977687396E+03  0.44823282629E+03 -0.25311518828E+03  0.88490605355E+03  0.10100000352E+00 0.  1.
</event>
<event>
 5   0  0.1395356E-05  0.2108469E+04  0.7818609E-02  0.8557522E-01
        2   -1    0    0  501    0  0.00000000000E+00  0.00000000000E+00  0.19756692985E+04  0.19756692985E+04  0.25500000920E-02 0. -1.
       -2   -1    0    0    0  501  0.00000000000E+00  0.00000000000E+00 -0.56254853475E+03  0.56254853475E+03  0.25500000920E-02 0.  1.
    10030    2    1    2    0    0  0.00000000000E+00  0.00000000000E+00  0.14131207637E+04  0.25382178332E+04  0.21084685144E+04 0.  0.
        1    1    3    3  502    0  0.47210335701E+03  0.40231652383E+03 -0.31963557219E+03  0.69778726276E+03  0.50400001928E-02 0.  1.
       -1    1    3    3    0  502 -0.47210335701E+03 -0.40231652383E+03  0.17327563359E+04  0.18404305705E+04  0.50400001928E-02 0. -1.
</event>
<event>
 5   0  0.1344501E-05  0.2100251E+04  0.7818609E-02  0.8561133E-01
       -2   -1    0    0    0  501  0.00000000000E+00  0.00000000000E+00  0.84799030758E+03  0.84799030759E+03  0.25500000920E-02 0. -1.
        2   -1    0    0  501    0  0.00000000000E+00  0.00000000000E+00 -0.13004430445E+04  0.13004430445E+04  0.25500000920E-02 0.  1.
    10030    2    1    2    0    0  0.00000000000E+00  0.00000000000E+00 -0.45245273695E+03  0.21484333521E+04  0.21002505539E+04 0.  0.
        3    1    3    3  502    0  0.86003227353E+03 -0.52491532374E+03  0.76487361160E+02  0.10104661970E+04  0.10100000352E+00 0. -1.
       -3    1    3    3    0  502 -0.86003227353E+03  0.52491532374E+03 -0.52894009811E+03  0.11379671551E+04  0.10100000352E+00 0.  1.
</event>
<event>
 5   0  0.6238363E-06  0.2085002E+04  0.7818609E-02  0.8567879E-01
       -1   -1    0    0    0  501  0.00000000000E+00  0.00000000000E+00  0.13402799637E+04  0.13402799638E+04  0.50400001928E-02 0. -1.
        1   -1    0    0  501    0  0.00000000000E+00  0.00000000000E+00 -0.81088121678E+03  0.81088121680E+03  0.50400001928E-02 0.  1.
    10030    2    1    2    0    0  0.00000000000E+00  0.00000000000E+00  0.52939874697E+03  0.21511611806E+04  0.20850015327E+04 0.  0.
        4    1    3    3  502    0  0.72395131297E+03  0.31980252776E+02 -0.50853344453E+03  0.88528871970E+03  0.12699999809E+01 0.  1.
       -4    1    3    3    0  502 -0.72395131297E+03 -0.31980252776E+02  0.10379321915E+04  0.12658724609E+04  0.12699999809E+01 0. -1.
</event>
<event>
 5   0  0.6599245E-06  0.2102334E+04  0.7818609E-02  0.8560216E-01
       -1   -1    0    0    0  501  0.00000000000E+00  0.00000000000E+00  0.58491491958E+03  0.58491491960E+03  0.50400001928E-02 0. -1.
        1   -1    0    0  501    0  0.00000000000E+00  0.00000000000E+00 -0.18890817296E+04  0.18890817296E+04  0.50400001928E-02 0.  1.
    10030    2    1    2    0    0  0.00000000000E+00  0.00000000000E+00 -0.13041668100E+04  0.24739966492E+04  0.21023340248E+04 0.  0.
        2    1    3    3  502    0  0.37396877313E+03 -0.84033770907E+03 -0.12508950447E+04  0.15526617537E+04  0.25500000920E-02 0.  1.
       -2    1    3    3    0  502 -0.37396877313E+03  0.84033770907E+03 -0.53271765251E+02  0.92133489543E+03  0.25500000920E-02 0. -1.
</event>
<event>
 5   0  0.6238363E-06  0.2101679E+04  0.7818609E-02  0.8560504E-01
        1   -1    0    0  501    0  0.00000000000E+00  0.00000000000E+00  0.12217618206E+04  0.12217618206E+04  0.50400001928E-02 0. -1.
       -1   -1    0    0    0  501  0.00000000000E+00  0.00000000000E+00 -0.90382896424E+03  0.90382896425E+03  0.50400001928E-02 0.  1.
    10030    2    1    2    0    0  0.00000000000E+00  0.00000000000E+00  0.31793285639E+03  0.21255907849E+04  0.21016790629E+04 0.  0.
        4    1    3    3  502    0  0.28193021572E+03 -0.55197762458E+03 -0.69927428446E+03  0.93442500094E+03  0.12699999809E+01 0.  1.
       -4    1    3    3    0  502 -0.28193021572E+03  0.55197762458E+03  0.10172071408E+04  0.11911657840E+04  0.12699999809E+01 0. -1.
</event>
<event>
 5   0  0.6283269E-06  0.2085624E+04  0.7818609E-02  0.8567603E-01
        1   -1    0    0  501    0  0.00000000000E+00  0.00000000000E+00  0.13801233684E+04  0.13801233684E+04  0.50400001928E-02 0.  1.
       -1   -1    0    0    0  501  0.00000000000E+00  0.00000000000E+00 -0.78794168961E+03  0.78794168963E+03  0.50400001928E-02 0. -1.
    10030    2    1    2    0    0  0.00000000000E+00  0.00000000000E+00  0.59218167880E+03  0.21680650580E+04  0.20856238767E+04 0.  0.
        1    1    3    3  502    0 -0.62141993193E+03 -0.49030072581E+03  0.10018220099E+04  0.12767947655E+04  0.50400001928E-02 0.  1.
       -1    1    3    3    0  502  0.62141993193E+03  0.49030072581E+03 -0.40964033113E+03  0.89127029258E+03  0.50400001928E-02 0. -1.
</event>
<event>
 5   0  0.5009125E-06  0.2103387E+04  0.7818609E-02  0.8559753E-01
        3   -1    0    0  501    0  0.00000000000E+00  0.00000000000E+00  0.15170664745E+04  0.15170664779E+04  0.10100000352E+00 0.  1.
       -3   -1    0    0    0  501  0.00000000000E+00  0.00000000000E+00 -0.72907781700E+03  0.72907782400E+03  0.10100000352E+00 0. -1.
    10030    2    1    2    0    0  0.00000000000E+00  0.00000000000E+00  0.78798865751E+03  0.22461443019E+04  0.21033872921E+04 0.  0.
        4    1    3    3  502    0 -0.45058989523E+03 -0.89862178655E+03  0.72400858226E+03  0.12388472097E+04  0.12699999809E+01 0. -1.
       -4    1    3    3    0  502  0.45058989523E+03  0.89862178655E+03  0.63980075255E+02  0.10072970922E+04  0.12699999809E+01 0.  1.
</event>
<event>
 5   0  0.6238363E-06  0.2102444E+04  0.7818609E-02  0.8560168E-01
        1   -1    0    0  501    0  0.00000000000E+00  0.00000000000E+00  0.86765341899E+03  0.86765341900E+03  0.50400001928E-02 0. -1.
       -1   -1    0    0    0  501  0.00000000000E+00  0.00000000000E+00 -0.12736276055E+04  0.12736276055E+04  0.50400001928E-02 0.  1.
    10030    2    1    2    0    0  0.00000000000E+00  0.00000000000E+00 -0.40597418647E+03  0.21412810245E+04  0.21024436700E+04 0.  0.
        4    1    3    3  502    0 -0.46784039582E+03 -0.66145089529E+03  0.47921753243E+03  0.94129856004E+03  0.12699999809E+01 0. -1.
       -4    1    3    3    0  502  0.46784039582E+03  0.66145089529E+03 -0.88519171891E+03  0.11999824644E+04  0.12699999809E+01 0.  1.
</event>
<event>
 5   0  0.1441136E-05  0.2098430E+04  0.7818609E-02  0.8561935E-01
       -2   -1    0    0    0  501  0.00000000000E+00  0.00000000000E+00  0.62931853833E+03  0.62931853833E+03  0.25500000920E-02 0.  1.
        2   -1    0    0  501    0  0.00000000000E+00  0.00000000000E+00 -0.17492766899E+04  0.17492766899E+04  0.25500000920E-02 0. -1.
    10030    2    1    2    0    0  0.00000000000E+00  0.00000000000E+00 -0.11199581516E+04  0.23785952282E+04  0.20984301271E+04 0.  0.
        4    1    3    3  502    0 -0.90905300389E+03  0.39561730429E+03 -0.17067063498E+03  0.10059922932E+04  0.12699999809E+01 0. -1.
       -4    1    3    3    0  502  0.90905300389E+03 -0.39561730429E+03 -0.94928751660E+03  0.13726029351E+04  0.12699999809E+01 0.  1.
</event>
<event>
 5   0  0.1441136E-05  0.2097398E+04  0.7818609E-02  0.8562391E-01
        2   -1    0    0  501    0  0.00000000000E+00  0.00000000000E+00  0.97169836459E+03  0.97169836459E+03  0.25500000920E-02 0.  1.
       -2   -1    0    0    0  501  0.00000000000E+00  0.00000000000E+00 -0.11318011195E+04  0.11318011195E+04  0.25500000920E-02 0. -1.
    10030    2    1    2    0    0  0.00000000000E+00  0.00000000000E+00 -0.16010275489E+03  0.21034994841E+04  0.20973977180E+04 0.  0.
        4    1    3    3  502    0  0.23048801363E+03 -0.22229044564E+02  0.94573837301E+03  0.97367424631E+03  0.12699999809E+01 0.  1.
       -4    1    3    3    0  502 -0.23048801363E+03  0.22229044564E+02 -0.11058411279E+04  0.11298252378E+04  0.12699999809E+01 0. -1.
</event>
<event>
 5   0  0.6283269E-06  0.2100923E+04  0.7818609E-02  0.8560837E-01
       -1   -1    0    0    0  501  0.00000000000E+00  0.00000000000E+00  0.13681690834E+04  0.13681690834E+04  0.50400001928E-02 0. -1.
        1   -1    0    0  501    0  0.00000000000E+00  0.00000000000E+00 -0.80652965574E+03  0.80652965576E+03  0.50400001928E-02 0.  1.
    10030    2    1    2    0    0  0.00000000000E+00  0.00000000000E+00  0.56163942764E+03  0.21746987392E+04  0.21009225972E+04 0.  0.
        1    1    3    3  502    0 -0.45360673324E+03 -0.80562513261E+03  0.79700752854E+03  0.12206604455E+04  0.50400001928E-02 0. -1.
       -1    1    3    3    0  502  0.45360673324E+03  0.80562513261E+03 -0.23536810090E+03  0.95403829361E+03  0.50400001928E-02 0.  1.
</event>
<event>
 5   0  0.6238363E-06  0.2099838E+04  0.7818609E-02  0.8561315E-01
        1   -1    0    0  501    0  0.00000000000E+00  0.00000000000E+00  0.20088026623E+04  0.20088026623E+04  0.50400001928E-02 0.  1.
       -1   -1    0    0    0  501  0.00000000000E+00  0.00000000000E+00 -0.54874959493E+03  0.54874959495E+03  0.50400001928E-02 0. -1.
    10030    2    1    2    0    0  0.00000000000E+00  0.00000000000E+00  0.14600530674E+04  0.25575522573E+04  0.20998377530E+04 0.  0.
        4    1    3    3  502    0 -0.21584605902E+03 -0.50090287178E+03  0.18227044275E+04  0.19025630741E+04  0.12699999809E+01 0.  1.
       -4    1    3    3    0  502  0.21584605902E+03  0.50090287178E+03 -0.36265136010E+03  0.65498918314E+03  0.12699999809E+01 0. -1.
</event>
<event>
 5   0  0.1441136E-05  0.2101630E+04  0.7818609E-02  0.8560526E-01
       -2   -1    0    0    0  501  0.00000000000E+00  0.00000000000E+00  0.22869650430E+04  0.22869650430E+04  0.25500000920E-02 0.  1.
        2   -1    0    0  501    0  0.00000000000E+00  0.00000000000E+00 -0.48282841611E+03  0.48282841612E+03  0.25500000920E-02 0. -1.
    10030    2    1    2    0    0  0.00000000000E+00  0.00000000000E+00  0.18041366269E+04  0.27697934591E+04  0.21016295672E+04 0.  0.
        4    1    3    3  502    0 -0.95634182798E+03 -0.25739175905E+02  0.14749616115E+04  0.17580573271E+04  0.12699999809E+01 0.  1.
       -4    1    3    3    0  502  0.95634182798E+03  0.25739175905E+02  0.32917501535E+03  0.10117361320E+04  0.12699999809E+01 0. -1.
</event>
<event>
 5   0  0.1441136E-05  0.2046545E+04  0.7818609E-02  0.8585163E-01
       -2   -1    0    0    0  501  0.00000000000E+00  0.00000000000E+00  0.13281867790E+04  0.13281867790E+04  0.25500000920E-02 0. -1.
        2   -1    0    0  501    0  0.00000000000E+00  0.00000000000E+00 -0.78835769262E+03  0.78835769263E+03  0.25500000920E-02 0.  1.
    10030    2    1    2    0    0  0.00000000000E+00  0.00000000000E+00  0.53982908640E+03  0.21165444717E+04  0.20465446631E+04 0.  0.
        4    1    3    3  502    0  0.18905364315E+03  0.88280917913E+03  0.76804379261E+03  0.11853211409E+04  0.12699999809E+01 0. -1.
       -4    1    3    3    0  502 -0.18905364315E+03 -0.88280917913E+03 -0.22821470621E+03  0.93122333077E+03  0.12699999809E+01 0.  1.
</event>
<event>
 5   0  0.1390735E-05  0.2101357E+04  0.7818609E-02  0.8560646E-01
        2   -1    0    0  501    0  0.00000000000E+00  0.00000000000E+00  0.11068308020E+04  0.11068308020E+04  0.25500000920E-02 0. -1.
       -2   -1    0    0    0  501  0.00000000000E+00  0.00000000000E+00 -0.99737496013E+03  0.99737496013E+03  0.25500000920E-02 0.  1.
    10030    2    1    2    0    0  0.00000000000E+00  0.00000000000E+00  0.10945584186E+03  0.21042057621E+04  0.21013570158E+04 0.  0.
        5    1    3    3  502    0  0.48770604179E+03  0.59012510629E+03 -0.66582970462E+03  0.10146211657E+04  0.46999998093E+01 0.  1.
       -5    1    3    3    0  502 -0.48770604179E+03 -0.59012510629E+03  0.77528554648E+03  0.10895845965E+04  0.46999998093E+01 0. -1.
</event>
<event>
 5   0  0.1395356E-05  0.2113295E+04  0.7818609E-02  0.8555409E-01
        2   -1    0    0  501    0  0.00000000000E+00  0.00000000000E+00  0.77794882855E+03  0.77794882855E+03  0.25500000920E-02 0. -1.
       -2   -1    0    0    0  501  0.00000000000E+00  0.00000000000E+00 -0.14351897685E+04  0.14351897685E+04  0.25500000920E-02 0.  1.
    10030    2    1    2    0    0  0.00000000000E+00  0.00000000000E+00 -0.65724093993E+03  0.22131385970E+04  0.21132952460E+04 0.  0.
        1    1    3    3  502    0 -0.32599352759E+03 -0.28653878650E+02  0.72354133776E+03  0.79410634821E+03  0.50400001928E-02 0. -1.
       -1    1    3    3    0  502  0.32599352759E+03  0.28653878650E+02 -0.13807822777E+04  0.14190322488E+04  0.50400001928E-02 0.  1.
</event>
<event>
 5   0  0.6917078E-06  0.2101991E+04  0.7818609E-02  0.8560367E-01
        1   -1    0    0  501    0  0.00000000000E+00  0.00000000000E+00  0.11410893285E+04  0.11410893285E+04  0.50400001928E-02 0.  1.
       -1   -1    0    0    0  501  0.00000000000E+00  0.00000000000E+00 -0.96801516815E+03  0.96801516817E+03  0.50400001928E-02 0. -1.
    10030    2    1    2    0    0  0.00000000000E+00  0.00000000000E+00  0.17307416030E+03  0.21091044966E+04  0.21019912257E+04 0.  0.
        5    1    3    3  502    0  0.62641467561E+03 -0.30343830112E+03  0.87666590069E+03  0.11193906109E+04  0.46999998093E+01 0.  1.
       -5    1    3    3    0  502 -0.62641467561E+03  0.30343830112E+03 -0.70359174039E+03  0.98971388570E+03  0.46999998093E+01 0. -1.
</event>
<event>
 5   0  0.1390735E-05  0.2102364E+04  0.7818609E-02  0.8560203E-01
       -2   -1    0    0    0  501  0.00000000000E+00  0.00000000000E+00  0.17750843410E+04  0.17750843410E+04  0.25500000920E-02 0.  1.
        2   -1    0    0  501    0  0.00000000000E+00  0.00000000000E+00 -0.62249612258E+03  0.62249612259E+03  0.25500000920E-02 0. -1.
    10030    2    1    2    0    0  0.00000000000E+00  0.00000000000E+00  0.11525882184E+04  0.23975804636E+04  0.21023635457E+04 0.  0.
        5    1    3    3  502    0 -0.90210632429E+03 -0.11397313855E+03  0.11777789440E+04  0.14879418764E+04  0.46999998093E+01 0.  1.
       -5    1    3    3    0  502  0.90210632429E+03  0.11397313855E+03 -0.25190725597E+02  0.90963858718E+03  0.46999998093E+01 0. -1.
</event>
<event>
 5   0  0.6599245E-06  0.2086592E+04  0.7818609E-02  0.8567173E-01
       -1   -1    0    0    0  501  0.00000000000E+00  0.00000000000E+00  0.87098581773E+03  0.87098581775E+03  0.50400001928E-02 0. -1.
        1   -1    0    0  501    0  0.00000000000E+00  0.00000000000E+00 -0.12496948107E+04  0.12496948107E+04  0.50400001928E-02 0.  1.
    10030    2    1    2    0    0  0.00000000000E+00  0.00000000000E+00 -0.37870899298E+03  0.21206806285E+04  0.20865919166E+04 0.  0.
        2    1    3    3  502    0  0.46306443978E+03 -0.47885103211E+03  0.62672013529E+03  0.91460653525E+03  0.25500000920E-02 0. -1.
       -2    1    3    3    0  502 -0.46306443978E+03  0.47885103211E+03 -0.10054291283E+04  0.12060740932E+04  0.25500000920E-02 0.  1.
</event>
<event>
 5   0  0.1390735E-05  0.2097565E+04  0.7818609E-02  0.8562317E-01
       -2   -1    0    0    0  501  0.00000000000E+00  0.00000000000E+00  0.89067085435E+03  0.89067085435E+03  0.25500000920E-02 0. -1.
        2   -1    0    0  501    0  0.00000000000E+00  0.00000000000E+00 -0.12349618420E+04  0.12349618420E+04  0.25500000920E-02 0.  1.
    10030    2    1    2    0    0  0.00000000000E+00  0.00000000000E+00 -0.34429098769E+03  0.21256326964E+04  0.20975647966E+04 0.  0.
        5    1    3    3  502    0  0.88823533888E+02  0.67590457506E+03 -0.97979555679E+03  0.11936322875E+04  0.46999998093E+01 0.  1.
       -5    1    3    3    0  502 -0.88823533888E+02 -0.67590457506E+03  0.63550456910E+03  0.93200040886E+03  0.46999998093E+01 0. -1.
</event>
<event>
 5   0  0.6589193E-06  0.2099933E+04  0.7818609E-02  0.8561273E-01
        1   -1    0    0  501    0  0.00000000000E+00  0.00000000000E+00  0.18693183538E+04  0.18693183538E+04  0.50400001928E-02 0.  1.
       -1   -1    0    0    0  501  0.00000000000E+00  0.00000000000E+00 -0.58974959670E+03  0.58974959672E+03  0.50400001928E-02 0. -1.
    10030    2    1    2    0    0  0.00000000000E+00  0.00000000000E+00  0.12795687570E+04  0.24590679505E+04  0.20999330897E+04 0.  0.
        3    1    3    3  502    0 -0.47695707651E+03  0.59708195439E+03  0.14829485713E+04  0.16682719767E+04  0.10100000352E+00 0.  1.
       -3    1    3    3    0  502  0.47695707651E+03 -0.59708195439E+03 -0.20337981421E+03  0.79079597376E+03  0.10100000352E+00 0. -1.
</event>
<event>
 5   0  0.6238363E-06  0.2096344E+04  0.7818609E-02  0.8562856E-01
       -1   -1    0    0    0  501  0.00000000000E+00  0.00000000000E+00  0.17353874263E+04  0.17353874263E+04  0.50400001928E-02 0.  1.
        1   -1    0    0  501    0  0.00000000000E+00  0.00000000000E+00 -0.63309439356E+03  0.63309439358E+03  0.50400001928E-02 0. -1.
    10030    2    1    2    0    0  0.00000000000E+00  0.00000000000E+00  0.11022930328E+04  0.23684818199E+04  0.20963435313E+04 0.  0.
        4    1    3    3  502    0  0.48313551559E+03 -0.60312789703E+03  0.13512277557E+04  0.15565992571E+04  0.12699999809E+01 0.  1.
       -4    1    3    3    0  502 -0.48313551559E+03  0.60312789703E+03 -0.24893472291E+03  0.81188256280E+03  0.12699999809E+01 0. -1.
</event>
<event>
 5   0  0.6589193E-06  0.2099189E+04  0.7818609E-02  0.8561601E-01
        1   -1    0    0  501    0  0.00000000000E+00  0.00000000000E+00  0.11590688692E+04  0.11590688692E+04  0.50400001928E-02 0. -1.
       -1   -1    0    0    0  501  0.00000000000E+00  0.00000000000E+00 -0.95046021820E+03  0.95046021821E+03  0.50400001928E-02 0.  1.
    10030    2    1    2    0    0  0.00000000000E+00  0.00000000000E+00  0.20860865101E+03  0.21095290874E+04  0.20991892248E+04 0.  0.
        3    1    3    3  502    0 -0.86196163624E+03  0.50016706715E+03 -0.22671745425E+03  0.10220302205E+04  0.10100000352E+00 0.  1.
       -3    1    3    3    0  502  0.86196163624E+03 -0.50016706715E+03  0.43532610525E+03  0.10874988669E+04  0.10100000352E+00 0. -1.
</event>
<event>
 5   0  0.6589193E-06  0.2103109E+04  0.7818609E-02  0.8559875E-01
       -1   -1    0    0    0  501  0.00000000000E+00  0.00000000000E+00  0.10225038627E+04  0.10225038627E+04  0.50400001928E-02 0. -1.
        1   -1    0    0  501    0  0.00000000000E+00  0.00000000000E+00 -0.10814305043E+04  0.10814305044E+04  0.50400001928E-02 0.  1.
    10030    2    1    2    0    0  0.00000000000E+00  0.00000000000E+00 -0.58926641629E+02  0.21039343671E+04  0.21031090014E+04 0.  0.
        3    1    3    3  502    0 -0.96360740734E+02  0.99242926894E+03 -0.36360879311E+03  0.10613258740E+04  0.10100000352E+00 0. -1.
       -3    1    3    3    0  502  0.96360740734E+02 -0.99242926894E+03  0.30468215148E+03  0.10426084931E+04  0.10100000352E+00 0.  1.
</event>
<event>
 5   0  0.1398469E-05  0.2100722E+04  0.7818609E-02  0.8560925E-01
        2   -1    0    0  501    0  0.00000000000E+00  0.00000000000E+00  0.11738150731E+04  0.11738150731E+04  0.25500000920E-02 0. -1.
       -2   -1    0    0    0  501  0.00000000000E+00  0.00000000000E+00 -0.93989086570E+03  0.93989086570E+03  0.25500000920E-02 0.  1.
    10030    2    1    2    0    0  0.00000000000E+00  0.00000000000E+00  0.23392420743E+03  0.21137059388E+04  0.21007218429E+04 0.  0.
        2    1    3    3  502    0 -0.75315754391E+03  0.30756036019E+03 -0.55153762389E+03  0.98286998717E+03  0.25500000920E-02 0.  1.
       -2    1    3    3    0  502  0.75315754391E+03 -0.30756036019E+03  0.78546183132E+03  0.11308359517E+04  0.25500000920E-02 0. -1.
</event>
<event>
 5   0  0.6917078E-06  0.2098807E+04  0.7818609E-02  0.8561769E-01
        1   -1    0    0  501    0  0.00000000000E+00  0.00000000000E+00  0.18630690622E+04  0.18630690622E+04  0.50400001928E-02 0.  1.
       -1   -1    0    0    0  501  0.00000000000E+00  0.00000000000E+00 -0.59109319011E+03  0.59109319014E+03  0.50400001928E-02 0. -1.
    10030    2    1    2    0    0  0.00000000000E+00  0.00000000000E+00  0.12719758720E+04  0.24541622523E+04  0.20988067423E+04 0.  0.
        5    1    3    3  502    0 -0.65194020677E+03  0.76290291318E+03  0.27714317741E+03  0.10410942892E+04  0.46999998093E+01 0.  1.
       -5    1    3    3    0  502  0.65194020677E+03 -0.76290291318E+03  0.99483269463E+03  0.14130679631E+04  0.46999998093E+01 0. -1.
</event>
<event>
 5   0  0.6599245E-06  0.2103636E+04  0.7818609E-02  0.8559643E-01
       -1   -1    0    0    0  501  0.00000000000E+00  0.00000000000E+00  0.71182095175E+03  0.71182095176E+03  0.50400001928E-02 0.  1.
        1   -1    0    0  501    0  0.00000000000E+00  0.00000000000E+00 -0.15542125521E+04  0.15542125521E+04  0.50400001928E-02 0. -1.
    10030    2    1    2    0    0  0.00000000000E+00  0.00000000000E+00 -0.84239160039E+03  0.22660335039E+04  0.21036359553E+04 0.  0.
        2    1    3    3  502    0  0.10335296264E+04 -0.34518590502E+02 -0.62824791402E+03  0.12099877946E+04  0.25500000920E-02 0. -1.
       -2    1    3    3    0  502 -0.10335296264E+04  0.34518590502E+02 -0.21414368637E+03  0.10560457093E+04  0.25500000920E-02 0.  1.
</event>
<event>
 5   0  0.6589193E-06  0.2100558E+04  0.7818609E-02  0.8560997E-01
       -1   -1    0    0    0  501  0.00000000000E+00  0.00000000000E+00  0.10517823601E+04  0.10517823601E+04  0.50400001928E-02 0. -1.
        1   -1    0    0  501    0  0.00000000000E+00  0.00000000000E+00 -0.10487780449E+04  0.10487780449E+04  0.50400001928E-02 0.  1.
    10030    2    1    2    0    0  0.00000000000E+00  0.00000000000E+00  0.30043152091E+01  0.21005604049E+04  0.21005582565E+04 0.  0.
        3    1    3    3  502    0  0.15511841436E+03  0.90530280572E+03  0.51086634484E+03  0.10510087179E+04  0.10100000352E+00 0. -1.
       -3    1    3    3    0  502 -0.15511841436E+03 -0.90530280572E+03 -0.50786202963E+03  0.10495516871E+04  0.10100000352E+00 0.  1.
</event>
<event>
 5   0  0.1395356E-05  0.2128324E+04  0.7818609E-02  0.8548868E-01
        2   -1    0    0  501    0  0.00000000000E+00  0.00000000000E+00  0.62178109515E+03  0.62178109515E+03  0.25500000920E-02 0. -1.
       -2   -1    0    0    0  501  0.00000000000E+00  0.00000000000E+00 -0.18212858950E+04  0.18212858950E+04  0.25500000920E-02 0.  1.
    10030    2    1    2    0    0  0.00000000000E+00  0.00000000000E+00 -0.11995047998E+04  0.24430669901E+04  0.21283243534E+04 0.  0.
        1    1    3    3  502    0 -0.75417074014E+03  0.29835728344E+03 -0.13905849970E+04  0.16098189985E+04  0.50400001928E-02 0.  1.
       -1    1    3    3    0  502  0.75417074014E+03 -0.29835728344E+03  0.19108019718E+03  0.83324799168E+03  0.50400001928E-02 0. -1.
</event>
<event>
 5   0  0.1398469E-05  0.2097543E+04  0.7818609E-02  0.8562326E-01
       -2   -1    0    0    0  501  0.00000000000E+00  0.00000000000E+00  0.12325594327E+04  0.12325594327E+04  0.25500000920E-02 0.  1.
        2   -1    0    0  501    0  0.00000000000E+00  0.00000000000E+00 -0.89238858053E+03  0.89238858054E+03  0.25500000920E-02 0. -1.
    10030    2    1    2    0    0  0.00000000000E+00  0.00000000000E+00  0.34017085217E+03  0.21249480132E+04  0.20975432893E+04 0.  0.
        2    1    3    3  502    0  0.94880449793E+03 -0.34560784141E+03  0.45706589472E+03  0.11084150790E+04  0.25500000920E-02 0. -1.
       -2    1    3    3    0  502 -0.94880449793E+03  0.34560784141E+03 -0.11689504256E+03  0.10165329342E+04  0.25500000920E-02 0.  1.
</event>
<event>
 5   0  0.6589193E-06  0.2097660E+04  0.7818609E-02  0.8562275E-01
        1   -1    0    0  501    0  0.00000000000E+00  0.00000000000E+00  0.23294702688E+04  0.23294702688E+04  0.50400001928E-02 0. -1.
       -1   -1    0    0    0  501  0.00000000000E+00  0.00000000000E+00 -0.47222923246E+03  0.47222923248E+03  0.50400001928E-02 0.  1.
    10030    2    1    2    0    0  0.00000000000E+00  0.00000000000E+00  0.18572410363E+04  0.28016995013E+04  0.20976596074E+04 0.  0.
        3    1    3    3  502    0 -0.38390058995E+03  0.51882705307E+03 -0.17558604379E+03  0.66887341324E+03  0.10100000352E+00 0.  1.
       -3    1    3    3    0  502  0.38390058995E+03 -0.51882705307E+03  0.20328270801E+04  0.21328260880E+04  0.10100000352E+00 0. -1.
</event>
<event>
 5   0  0.1395356E-05  0.2102859E+04  0.7818609E-02  0.8559985E-01
       -2   -1    0    0    0  501  0.00000000000E+00  0.00000000000E+00  0.95378230384E+03  0.95378230385E+03  0.25500000920E-02 0.  1.
        2   -1    0    0  501    0  0.00000000000E+00  0.00000000000E+00 -0.11590733596E+04  0.11590733596E+04  0.25500000920E-02 0. -1.
    10030    2    1    2    0    0  0.00000000000E+00  0.00000000000E+00 -0.20529105571E+03  0.21128556634E+04  0.21028586821E+04 0.  0.
        1    1    3    3  502    0 -0.10879307380E+02  0.19371504516E+03 -0.11409311904E+04  0.11573106149E+04  0.50400001928E-02 0. -1.
       -1    1    3    3    0  502  0.10879307380E+02 -0.19371504516E+03  0.93564013470E+03  0.95554504851E+03  0.50400001928E-02 0.  1.
</event>
<event>
 5   0  0.6283269E-06  0.2094542E+04  0.7818609E-02  0.8563651E-01
        1   -1    0    0  501    0  0.00000000000E+00  0.00000000000E+00  0.16448683102E+04  0.16448683102E+04  0.50400001928E-02 0.  1.
       -1   -1    0    0    0  501  0.00000000000E+00  0.00000000000E+00 -0.66678701633E+03  0.66678701635E+03  0.50400001928E-02 0. -1.
    10030    2    1    2    0    0  0.00000000000E+00  0.00000000000E+00  0.97808129391E+03  0.23116553266E+04  0.20945422726E+04 0.  0.
        1    1    3    3  502    0  0.65966740032E+03 -0.34560379191E+02 -0.40786033077E+03  0.77634112882E+03  0.50400001928E-02 0. -1.
       -1    1    3    3    0  502 -0.65966740032E+03  0.34560379191E+02  0.13859416247E+04  0.15353141978E+04  0.50400001928E-02 0.  1.
</event>
<event>
 5   0  0.6589193E-06  0.2100620E+04  0.7818609E-02  0.8560970E-01
       -1   -1    0    0    0  501  0.00000000000E+00  0.00000000000E+00  0.10682624183E+04  0.10682624183E+04  0.50400001928E-02 0. -1.
        1   -1    0    0  501    0  0.00000000000E+00  0.00000000000E+00 -0.10326596259E+04  0.10326596259E+04  0.50400001928E-02 0.  1.
    10030    2    1    2    0    0  0.00000000000E+00  0.00000000000E+00  0.35602792420E+02  0.21009220443E+04  0.21006203553E+04 0.  0.
        3    1    3    3  502    0 -0.53448918483E+03  0.83672328735E+03 -0.32483635051E+03  0.10446545903E+04  0.10100000352E+00 0. -1.
       -3    1    3    3    0  502  0.53448918483E+03 -0.83672328735E+03  0.36043914293E+03  0.10562674539E+04  0.10100000352E+00 0.  1.
</event>
<event>
 5   0  0.1441136E-05  0.2109970E+04  0.7818609E-02  0.8556864E-01
       -2   -1    0    0    0  501  0.00000000000E+00  0.00000000000E+00  0.71184091887E+03  0.71184091888E+03  0.25500000920E-02 0. -1.
        2   -1    0    0  501    0  0.00000000000E+00  0.00000000000E+00 -0.15635422096E+04  0.15635422096E+04  0.25500000920E-02 0.  1.
    10030    2    1    2    0    0  0.00000000000E+00  0.00000000000E+00 -0.85170129069E+03  0.22753831284E+04  0.21099699743E+04 0.  0.
        4    1    3    3  502    0  0.25060354685E+03 -0.49485581741E+03 -0.13935914966E+04  0.14999277616E+04  0.12699999809E+01 0.  1.
       -4    1    3    3    0  502 -0.25060354685E+03  0.49485581741E+03  0.54189020594E+03  0.77545536681E+03  0.12699999809E+01 0. -1.
</event>
<event>
 5   0  0.1390735E-05  0.2099105E+04  0.7818609E-02  0.8561638E-01
        2   -1    0    0  501    0  0.00000000000E+00  0.00000000000E+00  0.10115414382E+04  0.10115414382E+04  0.25500000920E-02 0.  1.
       -2   -1    0    0    0  501  0.00000000000E+00  0.00000000000E+00 -0.10889917797E+04  0.10889917797E+04  0.25500000920E-02 0. -1.
    10030    2    1    2    0    0  0.00000000000E+00  0.00000000000E+00 -0.77450341413E+02  0.21005332179E+04  0.20991048674E+04 0.  0.
        5    1    3    3  502    0 -0.22817243384E+03  0.46939945416E+03  0.87246552592E+03  0.10166694109E+04  0.46999998093E+01 0.  1.
       -5    1    3    3    0  502  0.22817243384E+03 -0.46939945416E+03 -0.94991586733E+03  0.10838638070E+04  0.46999998093E+01 0. -1.
</event>
<event>
 5   0  0.5009125E-06  0.2095194E+04  0.7818609E-02  0.8563364E-01
       -3   -1    0    0    0  501  0.00000000000E+00  0.00000000000E+00  0.50402715796E+03  0.50402716808E+03  0.10100000352E+00 0.  1.
        3   -1    0    0  501    0  0.00000000000E+00  0.00000000000E+00 -0.21773807772E+04  0.21773807795E+04  0.10100000352E+00 0. -1.
    10030    2    1    2    0    0  0.00000000000E+00  0.00000000000E+00 -0.16733536192E+04  0.26814079476E+04  0.20951936060E+04 0.  0.
        3    1    3    3  502    0  0.34680759200E+03 -0.29196920210E+03  0.37198820495E+03  0.58642711028E+03  0.10100000352E+00 0.  1.
       -3    1    3    3    0  502 -0.34680759200E+03  0.29196920210E+03 -0.20453418242E+04  0.20949808373E+04  0.10100000352E+00 0. -1.
</event>
<event>
 5   0  0.1395356E-05  0.2104662E+04  0.7818609E-02  0.8559192E-01
       -2   -1    0    0    0  501  0.00000000000E+00  0.00000000000E+00  0.82841818952E+03  0.82841818953E+03  0.25500000920E-02 0. -1.
        2   -1    0    0  501    0  0.00000000000E+00  0.00000000000E+00 -0.13367653389E+04  0.13367653389E+04  0.25500000920E-02 0.  1.
    10030    2    1    2    0    0  0.00000000000E+00  0.00000000000E+00 -0.50834714938E+03  0.21651835284E+04  0.21046621790E+04 0.  0.
        1    1    3    3  502    0 -0.64093796158E+03 -0.34579062561E+03  0.52729370218E+03  0.89911694219E+03  0.50400001928E-02 0. -1.
       -1    1    3    3    0  502  0.64093796158E+03  0.34579062561E+03 -0.10356408516E+04  0.12660665862E+04  0.50400001928E-02 0.  1.
</event>
<event>
 5   0  0.1390735E-05  0.2099682E+04  0.7818609E-02  0.8561383E-01
       -2   -1    0    0    0  501  0.00000000000E+00  0.00000000000E+00  0.17155350184E+04  0.17155350184E+04  0.25500000920E-02 0. -1.
        2   -1    0    0  501    0  0.00000000000E+00  0.00000000000E+00 -0.64246225927E+03  0.64246225928E+03  0.25500000920E-02 0.  1.
    10030    2    1    2    0    0  0.00000000000E+00  0.00000000000E+00  0.10730727591E+04  0.23579972777E+04  0.20996823605E+04 0.  0.
        5    1    3    3  502    0 -0.21173310688E+03 -0.98271766051E+03  0.19668515005E+03  0.10243398104E+04  0.46999998093E+01 0.  1.
       -5    1    3    3    0  502  0.21173310688E+03  0.98271766051E+03  0.87638760907E+03  0.13336574673E+04  0.46999998093E+01 0. -1.
</event>
<event>
 5   0  0.1441136E-05  0.2102516E+04  0.7818609E-02  0.8560136E-01
        2   -1    0    0  501    0  0.00000000000E+00  0.00000000000E+00  0.15779087340E+04  0.15779087340E+04  0.25500000920E-02 0. -1.
       -2   -1    0    0    0  501  0.00000000000E+00  0.00000000000E+00 -0.70038492298E+03  0.70038492298E+03  0.25500000920E-02 0.  1.
    10030    2    1    2    0    0  0.00000000000E+00  0.00000000000E+00  0.87752381101E+03  0.22782936570E+04  0.21025160995E+04 0.  0.
        4    1    3    3  502    0 -0.14427020768E+03 -0.84113511333E+03  0.11039388261E+04  0.13953511086E+04  0.12699999809E+01 0. -1.
       -4    1    3    3    0  502  0.14427020768E+03  0.84113511333E+03 -0.22641501510E+03  0.88294254833E+03  0.12699999809E+01 0.  1.
</event>
<event>
 5   0  0.6589193E-06  0.2099128E+04  0.7818609E-02  0.8561627E-01
       -1   -1    0    0    0  501  0.00000000000E+00  0.00000000000E+00  0.14331465459E+04  0.14331465459E+04  0.50400001928E-02 0.  1.
        1   -1    0    0  501    0  0.00000000000E+00  0.00000000000E+00 -0.76864779061E+03  0.76864779062E+03  0.50400001928E-02 0. -1.
    10030    2    1    2    0    0  0.00000000000E+00  0.00000000000E+00  0.66449875529E+03  0.22017943365E+04  0.20991283202E+04 0.  0.
        3    1    3    3  502    0 -0.78927833926E+03 -0.52350850991E+03  0.80665714597E+03  0.12440728347E+04  0.10100000352E+00 0.  1.
       -3    1    3    3    0  502  0.78927833926E+03  0.52350850991E+03 -0.14215839068E+03  0.95772150180E+03  0.10100000352E+00 0. -1.
</event>
<event>
 5   0  0.6589193E-06  0.2100932E+04  0.7818609E-02  0.8560833E-01
        1   -1    0    0  501    0  0.00000000000E+00  0.00000000000E+00  0.17785637326E+04  0.17785637326E+04  0.50400001928E-02 0. -1.
       -1   -1    0    0    0  501  0.00000000000E+00  0.00000000000E+00 -0.62043232174E+03  0.62043232176E+03  0.50400001928E-02 0.  1.
    10030    2    1    2    0    0  0.00000000000E+00  0.00000000000E+00  0.11581314109E+04  0.23989960544E+04  0.21009316277E+04 0.  0.
        3    1    3    3  502    0 -0.52339825793E+03 -0.21899047885E+02  0.16187674947E+04  0.17014210286E+04  0.10100000352E+00 0. -1.
       -3    1    3    3    0  502  0.52339825793E+03  0.21899047885E+02 -0.46063608377E+03  0.69757502577E+03  0.10100000352E+00 0.  1.
</event>
<event>
 5   0  0.1344501E-05  0.2099889E+04  0.7818609E-02  0.8561292E-01
       -2   -1    0    0    0  501  0.00000000000E+00  0.00000000000E+00  0.68120040810E+03  0.68120040810E+03  0.25500000920E-02 0. -1.
        2   -1    0    0  501    0  0.00000000000E+00  0.00000000000E+00 -0.16182958085E+04  0.16182958085E+04  0.25500000920E-02 0.  1.
    10030    2    1    2    0    0  0.00000000000E+00  0.00000000000E+00 -0.93709540036E+03  0.22994962166E+04  0.20998892972E+04 0.  0.
        3    1    3    3  502    0  0.70590031168E+03 -0.77335238472E+03 -0.55347346308E+03  0.11843572288E+04  0.10100000352E+00 0.  1.
       -3    1    3    3    0  502 -0.70590031168E+03  0.77335238472E+03 -0.38362193728E+03  0.11151389877E+04  0.10100000352E+00 0. -1.
</event>
<event>
 5   0  0.1441136E-05  0.2101569E+04  0.7818609E-02  0.8560552E-01
       -2   -1    0    0    0  501  0.00000000000E+00  0.00000000000E+00  0.79082842715E+03  0.79082842715E+03  0.25500000920E-02 0. -1.
        2   -1    0    0  501    0  0.00000000000E+00  0.00000000000E+00 -0.13961920463E+04  0.13961920463E+04  0.25500000920E-02 0.  1.
    10030    2    1    2    0    0  0.00000000000E+00  0.00000000000E+00 -0.60536361920E+03  0.21870204735E+04  0.21015692803E+04 0.  0.
        4    1    3    3  502    0 -0.44490817215E+03  0.95495687938E+02 -0.12883385632E+04  0.13663383821E+04  0.12699999809E+01 0.  1.
       -4    1    3    3    0  502  0.44490817215E+03 -0.95495687938E+02  0.68297494402E+03  0.82068209139E+03  0.12699999809E+01 0. -1.
</event>
<event>
 5   0  0.6599245E-06  0.2104115E+04  0.7818609E-02  0.8559433E-01
       -1   -1    0    0    0  501  0.00000000000E+00  0.00000000000E+00  0.11511519049E+04  0.11511519049E+04  0.50400001928E-02 0.  1.
        1   -1    0    0  501    0  0.00000000000E+00  0.00000000000E+00 -0.96149322169E+03  0.96149322170E+03  0.50400001928E-02 0. -1.
    10030    2    1    2    0    0  0.00000000000E+00  0.00000000000E+00  0.18965868325E+03  0.21126451266E+04  0.21041147818E+04 0.  0.
        2    1    3    3  502    0  0.52103339163E+03  0.17858104923E+03  0.99482134704E+03  0.11371176275E+04  0.25500000920E-02 0.  1.
       -2    1    3    3    0  502 -0.52103339163E+03 -0.17858104923E+03 -0.80516266379E+03  0.97552749910E+03  0.25500000920E-02 0. -1.
</event>
<event>
 5   0  0.6283269E-06  0.2105853E+04  0.7818609E-02  0.8558669E-01
        1   -1    0    0  501    0  0.00000000000E+00  0.00000000000E+00  0.10209439648E+04  0.10209439648E+04  0.50400001928E-02 0.  1.
       -1   -1    0    0    0  501  0.00000000000E+00  0.00000000000E+00 -0.10859112858E+04  0.10859112859E+04  0.50400001928E-02 0. -1.
    10030    2    1    2    0    0  0.00000000000E+00  0.00000000000E+00 -0.64967321053E+02  0.21068552506E+04  0.21058533411E+04 0.  0.
        1    1    3    3  502    0  0.62919301468E+03  0.52822874839E+03 -0.69139028547E+03  0.10737457740E+04  0.50400001928E-02 0. -1.
       -1    1    3    3    0  502 -0.62919301468E+03 -0.52822874839E+03  0.62642296442E+03  0.10331094766E+04  0.50400001928E-02 0.  1.
</event>
<event>
 5   0  0.6599245E-06  0.2096432E+04  0.7818609E-02  0.8562817E-01
        1   -1    0    0  501    0  0.00000000000E+00  0.00000000000E+00  0.11660373653E+04  0.11660373653E+04  0.50400001928E-02 0. -1.
       -1   -1    0    0    0  501  0.00000000000E+00  0.00000000000E+00 -0.94229980754E+03  0.94229980755E+03  0.50400001928E-02 0.  1.
    10030    2    1    2    0    0  0.00000000000E+00  0.00000000000E+00  0.22373755772E+03  0.21083371728E+04  0.20964320021E+04 0.  0.
        2    1    3    3  502    0 -0.44286410891E+03 -0.79713895688E+03  0.63171585062E+03  0.11093349591E+04  0.25500000920E-02 0. -1.
       -2    1    3    3    0  502  0.44286410891E+03  0.79713895688E+03 -0.40797829290E+03  0.99900221372E+03  0.25500000920E-02 0.  1.
</event>
<event>
 5   0  0.1441136E-05  0.2103554E+04  0.7818609E-02  0.8559679E-01
        2   -1    0    0  501    0  0.00000000000E+00  0.00000000000E+00  0.15297452538E+04  0.15297452538E+04  0.25500000920E-02 0. -1.
       -2   -1    0    0    0  501  0.00000000000E+00  0.00000000000E+00 -0.72314966751E+03  0.72314966752E+03  0.25500000920E-02 0.  1.
    10030    2    1    2    0    0  0.00000000000E+00  0.00000000000E+00  0.80659558628E+03  0.22528949213E+04  0.21035539182E+04 0.  0.
        4    1    3    3  502    0  0.94339060523E+03  0.60735528889E+02 -0.90474306533E+02  0.94966407300E+03  0.12699999809E+01 0.  1.
       -4    1    3    3    0  502 -0.94339060523E+03 -0.60735528889E+02  0.89706989282E+03  0.13032308483E+04  0.12699999809E+01 0. -1.
</event>
<event>
 5   0  0.1441136E-05  0.2076139E+04  0.7818609E-02  0.8571828E-01
       -2   -1    0    0    0  501  0.00000000000E+00  0.00000000000E+00  0.79922540883E+03  0.79922540883E+03  0.25500000920E-02 0. -1.
        2   -1    0    0  501    0  0.00000000000E+00  0.00000000000E+00 -0.13482914166E+04  0.13482914166E+04  0.25500000920E-02 0.  1.
    10030    2    1    2    0    0  0.00000000000E+00  0.00000000000E+00 -0.54906600780E+03  0.21475168255E+04  0.20761394545E+04 0.  0.
        4    1    3    3  502    0  0.88913511700E+02  0.35298027941E+03 -0.12801111420E+04  0.13308594362E+04  0.12699999809E+01 0.  1.
       -4    1    3    3    0  502 -0.88913511700E+02 -0.35298027941E+03  0.73104513422E+03  0.81665738922E+03  0.12699999809E+01 0. -1.
</event>
<event>
 5   0  0.1390735E-05  0.2097121E+04  0.7818609E-02  0.8562512E-01
       -2   -1    0    0    0  501  0.00000000000E+00  0.00000000000E+00  0.13391495762E+04  0.13391495762E+04  0.25500000920E-02 0.  1.
        2   -1    0    0  501    0  0.00000000000E+00  0.00000000000E+00 -0.82102815507E+03  0.82102815507E+03  0.25500000920E-02 0. -1.
    10030    2    1    2    0    0  0.00000000000E+00  0.00000000000E+00  0.51812142115E+03  0.21601777313E+04  0.20971213660E+04 0.  0.
        5    1    3    3  502    0 -0.15690573479E+03 -0.82777885542E+03 -0.38390325973E+03  0.92587312626E+03  0.46999998093E+01 0. -1.
       -5    1    3    3    0  502  0.15690573479E+03  0.82777885542E+03  0.90202468088E+03  0.12343046050E+04  0.46999998093E+01 0.  1.
</event>
<event>
 5   0  0.6589193E-06  0.2097551E+04  0.7818609E-02  0.8562323E-01
       -1   -1    0    0    0  501  0.00000000000E+00  0.00000000000E+00  0.93549751111E+03  0.93549751112E+03  0.50400001928E-02 0.  1.
        1   -1    0    0  501    0  0.00000000000E+00  0.00000000000E+00 -0.11757701853E+04  0.11757701853E+04  0.50400001928E-02 0. -1.
    10030    2    1    2    0    0  0.00000000000E+00  0.00000000000E+00 -0.24027267417E+03  0.21112676964E+04  0.20975510311E+04 0.  0.
        3    1    3    3  502    0 -0.70634184565E+03  0.54187779153E+03  0.43790757959E+03  0.99212569886E+03  0.10100000352E+00 0.  1.
       -3    1    3    3    0  502  0.70634184565E+03 -0.54187779153E+03 -0.67818025377E+03  0.11191419975E+04  0.10100000352E+00 0. -1.
</event>
<event>
 5   0  0.6599245E-06  0.2103739E+04  0.7818609E-02  0.8559598E-01
       -1   -1    0    0    0  501  0.00000000000E+00  0.00000000000E+00  0.63286884606E+03  0.63286884608E+03  0.50400001928E-02 0. -1.
        1   -1    0    0  501    0  0.00000000000E+00  0.00000000000E+00 -0.17482752941E+04  0.17482752941E+04  0.50400001928E-02 0.  1.
    10030    2    1    2    0    0  0.00000000000E+00  0.00000000000E+00 -0.11154064480E+04  0.23811441402E+04  0.21037385465E+04 0.  0.
        2    1    3    3  502    0 -0.37117245063E+03  0.18647093321E+03 -0.16515121208E+04  0.17029482324E+04  0.25500000920E-02 0.  1.
       -2    1    3    3    0  502  0.37117245063E+03 -0.18647093321E+03  0.53610567274E+03  0.67819590783E+03  0.25500000920E-02 0. -1.
</event>
<event>
 5   0  0.1395356E-05  0.2100129E+04  0.7818609E-02  0.8561187E-01
        2   -1    0    0  501    0  0.00000000000E+00  0.00000000000E+00  0.12678158704E+04  0.12678158704E+04  0.25500000920E-02 0. -1.
       -2   -1    0    0    0  501  0.00000000000E+00  0.00000000000E+00 -0.86971258232E+03  0.86971258232E+03  0.25500000920E-02 0.  1.
    10030    2    1    2    0    0  0.00000000000E+00  0.00000000000E+00  0.39810328810E+03  0.21375284528E+04  0.21001289623E+04 0.  0.
        1    1    3    3  502    0 -0.93189862395E+03  0.31098913083E+03 -0.17834269679E+03  0.99847654070E+03  0.50400001928E-02 0.  1.
       -1    1    3    3    0  502  0.93189862395E+03 -0.31098913083E+03  0.57644598490E+03  0.11390519120E+04  0.50400001928E-02 0. -1.
</event>
<event>
 5   0  0.6238363E-06  0.2100617E+04  0.7818609E-02  0.8560971E-01
       -1   -1    0    0    0  501  0.00000000000E+00  0.00000000000E+00  0.12390879913E+04  0.12390879913E+04  0.50400001928E-02 0. -1.
        1   -1    0    0  501    0  0.00000000000E+00  0.00000000000E+00 -0.89029063329E+03  0.89029063331E+03  0.50400001928E-02 0.  1.
    10030    2    1    2    0    0  0.00000000000E+00  0.00000000000E+00  0.34879735805E+03  0.21293786247E+04  0.21006174640E+04 0.  0.
        4    1    3    3  502    0  0.77776999460E+03 -0.61721021463E+03  0.52153772526E+03  0.11215515259E+04  0.12699999809E+01 0. -1.
       -4    1    3    3    0  502 -0.77776999460E+03  0.61721021463E+03 -0.17274036721E+03  0.10078270987E+04  0.12699999809E+01 0.  1.
</event>
<event>
 5   0  0.1441136E-05  0.2100664E+04  0.7818609E-02  0.8560951E-01
        2   -1    0    0  501    0  0.00000000000E+00  0.00000000000E+00  0.97822536235E+03  0.97822536235E+03  0.25500000920E-02 0. -1.
       -2   -1    0    0    0  501  0.00000000000E+00  0.00000000000E+00 -0.11277541834E+04  0.11277541834E+04  0.25500000920E-02 0.  1.
    10030    2    1    2    0    0  0.00000000000E+00  0.00000000000E+00 -0.14952882100E+03  0.21059795457E+04  0.21006644136E+04 0.  0.
        4    1    3    3  502    0 -0.87445620988E+03  0.54008670734E+03 -0.29171161845E+03  0.10683934648E+04  0.12699999809E+01 0.  1.
       -4    1    3    3    0  502  0.87445620988E+03 -0.54008670734E+03  0.14218279745E+03  0.10375860809E+04  0.12699999809E+01 0. -1.
</event>
<event>
 5   0  0.5009125E-06  0.2096570E+04  0.7818609E-02  0.8562756E-01
       -3   -1    0    0    0  501  0.00000000000E+00  0.00000000000E+00  0.15419346626E+04  0.15419346660E+04  0.10100000352E+00 0. -1.
        3   -1    0    0  501    0  0.00000000000E+00  0.00000000000E+00 -0.71267683120E+03  0.71267683835E+03  0.10100000352E+00 0.  1.
    10030    2    1    2    0    0  0.00000000000E+00  0.00000000000E+00  0.82925783145E+03  0.22546115043E+04  0.20965696946E+04 0.  0.
        1    1    3    3  502    0  0.16107816719E+03  0.42139674546E+03  0.14322030135E+04  0.15015747950E+04  0.50400001928E-02 0. -1.
       -1    1    3    3    0  502 -0.16107816719E+03 -0.42139674546E+03 -0.60294518204E+03  0.75303670933E+03  0.50400001928E-02 0.  1.
</event>
<event>
 5   0  0.1398469E-05  0.2099326E+04  0.7818609E-02  0.8561540E-01
       -2   -1    0    0    0  501  0.00000000000E+00  0.00000000000E+00  0.73529749026E+03  0.73529749026E+03  0.25500000920E-02 0.  1.
        2   -1    0    0  501    0  0.00000000000E+00  0.00000000000E+00 -0.14984311175E+04  0.14984311175E+04  0.25500000920E-02 0. -1.
    10030    2    1    2    0    0  0.00000000000E+00  0.00000000000E+00 -0.76313362725E+03  0.22337286078E+04  0.20993262158E+04 0.  0.
        2    1    3    3  502    0 -0.59223166805E+03 -0.77268445838E+03  0.36003094945E+02  0.97420523696E+03  0.25500000920E-02 0.  1.
       -2    1    3    3    0  502  0.59223166805E+03  0.77268445838E+03 -0.79913672220E+03  0.12595233708E+04  0.25500000920E-02 0. -1.
</event>
<event>
 5   0  0.6238363E-06  0.2109525E+04  0.7818609E-02  0.8557059E-01
        1   -1    0    0  501    0  0.00000000000E+00  0.00000000000E+00  0.12056556390E+04  0.12056556390E+04  0.50400001928E-02 0.  1.
       -1   -1    0    0    0  501  0.00000000000E+00  0.00000000000E+00 -0.92275452387E+03  0.92275452388E+03  0.50400001928E-02 0. -1.
    10030    2    1    2    0    0  0.00000000000E+00  0.00000000000E+00  0.28290111514E+03  0.21284101629E+04  0.21095252500E+04 0.  0.
        4    1    3    3  502    0  0.62932074908E+03 -0.40380817586E+02 -0.71160488219E+03  0.95081982358E+03  0.12699999809E+01 0. -1.
       -4    1    3    3    0  502 -0.62932074908E+03  0.40380817586E+02  0.99450599733E+03  0.11775903393E+04  0.12699999809E+01 0.  1.
</event>
<event>
 5   0  0.1441136E-05  0.2117433E+04  0.7818609E-02  0.8553603E-01
       -2   -1    0    0    0  501  0.00000000000E+00  0.00000000000E+00  0.13468511841E+04  0.13468511841E+04  0.25500000920E-02 0. -1.
        2   -1    0    0  501    0  0.00000000000E+00  0.00000000000E+00 -0.83222299552E+03  0.83222299552E+03  0.25500000920E-02 0.  1.
    10030    2    1    2    0    0  0.00000000000E+00  0.00000000000E+00  0.51462818854E+03  0.21790741796E+04  0.21174329051E+04 0.  0.
        4    1    3    3  502    0 -0.54550127624E+03 -0.63508828776E+03  0.92423074822E+03  0.12470416450E+04  0.12699999809E+01 0. -1.
       -4    1    3    3    0  502  0.54550127624E+03  0.63508828776E+03 -0.40960255968E+03  0.93203253453E+03  0.12699999809E+01 0.  1.
</event>
<event>
 5   0  0.6589193E-06  0.2095072E+04  0.7818609E-02  0.8563417E-01
       -1   -1    0    0    0  501  0.00000000000E+00  0.00000000000E+00  0.11267564058E+04  0.11267564058E+04  0.50400001928E-02 0.  1.
        1   -1    0    0  501    0  0.00000000000E+00  0.00000000000E+00 -0.97388572173E+03  0.97388572175E+03  0.50400001928E-02 0. -1.
    10030    2    1    2    0    0  0.00000000000E+00  0.00000000000E+00  0.15287068403E+03  0.21006421275E+04  0.20950722904E+04 0.  0.
        3    1    3    3  502    0  0.97625562146E+03  0.85165328845E+02  0.44755961032E+03  0.10773290058E+04  0.10100000352E+00 0.  1.
       -3    1    3    3    0  502 -0.97625562146E+03 -0.85165328845E+02 -0.29468892629E+03  0.10233131218E+04  0.10100000352E+00 0. -1.
</event>
<event>
 5   0  0.1390735E-05  0.2097149E+04  0.7818609E-02  0.8562500E-01
        2   -1    0    0  501    0  0.00000000000E+00  0.00000000000E+00  0.13320314742E+04  0.13320314742E+04  0.25500000920E-02 0.  1.
       -2   -1    0    0    0  501  0.00000000000E+00  0.00000000000E+00 -0.82543716655E+03  0.82543716656E+03  0.25500000920E-02 0. -1.
    10030    2    1    2    0    0  0.00000000000E+00  0.00000000000E+00  0.50659430767E+03  0.21574686408E+04  0.20971488129E+04 0.  0.
        5    1    3    3  502    0 -0.66883912721E+03  0.79577059614E+03  0.39468964581E+03  0.11119346322E+04  0.46999998093E+01 0.  1.
       -5    1    3    3    0  502  0.66883912721E+03 -0.79577059614E+03  0.11190466186E+03  0.10455340086E+04  0.46999998093E+01 0. -1.
</event>
<event>
 5   0  0.1390735E-05  0.2102216E+04  0.7818609E-02  0.8560268E-01
       -2   -1    0    0    0  501  0.00000000000E+00  0.00000000000E+00  0.73612618086E+03  0.73612618086E+03  0.25500000920E-02 0. -1.
        2   -1    0    0  501    0  0.00000000000E+00  0.00000000000E+00 -0.15008681720E+04  0.15008681720E+04  0.25500000920E-02 0.  1.
    10030    2    1    2    0    0  0.00000000000E+00  0.00000000000E+00 -0.76474199111E+03  0.22369943528E+04  0.21022163118E+04 0.  0.
        5    1    3    3  502    0  0.90380270946E+02 -0.10390058431E+04 -0.52154017257E+03  0.11660737442E+04  0.46999998093E+01 0.  1.
       -5    1    3    3    0  502 -0.90380270946E+02  0.10390058431E+04 -0.24320181855E+03  0.10709206086E+04  0.46999998093E+01 0. -1.
</event>
<event>
 5   0  0.1395356E-05  0.2099340E+04  0.7818609E-02  0.8561534E-01
       -2   -1    0    0    0  501  0.00000000000E+00  0.00000000000E+00  0.11019044736E+04  0.11019044736E+04  0.25500000920E-02 0.  1.
        2   -1    0    0  501    0  0.00000000000E+00  0.00000000000E+00 -0.99991190674E+03  0.99991190675E+03  0.25500000920E-02 0. -1.
    10030    2    1    2    0    0  0.00000000000E+00  0.00000000000E+00  0.10199256683E+03  0.21018163803E+04  0.20993402804E+04 0.  0.
        1    1    3    3  502    0  0.18317013430E+03  0.89225203072E+03 -0.47129172399E+03  0.10255636858E+04  0.50400001928E-02 0. -1.
       -1    1    3    3    0  502 -0.18317013430E+03 -0.89225203072E+03  0.57328429083E+03  0.10762526946E+04  0.50400001928E-02 0.  1.
</event>
<event>
 5   0  0.6599245E-06  0.2099232E+04  0.7818609E-02  0.8561582E-01
       -1   -1    0    0    0  501  0.00000000000E+00  0.00000000000E+00  0.11205630756E+04  0.11205630756E+04  0.50400001928E-02 0.  1.
        1   -1    0    0  501    0  0.00000000000E+00  0.00000000000E+00 -0.98316086231E+03  0.98316086233E+03  0.50400001928E-02 0. -1.
    10030    2    1    2    0    0  0.00000000000E+00  0.00000000000E+00  0.13740221325E+03  0.21037239379E+04  0.20992320116E+04 0.  0.
        2    1    3    3  502    0  0.10117119602E+04  0.21424053036E+03 -0.11122042854E+03  0.10401106090E+04  0.25500000920E-02 0.  1.
       -2    1    3    3    0  502 -0.10117119602E+04 -0.21424053036E+03  0.24862264179E+03  0.10636133289E+04  0.25500000920E-02 0. -1.
</event>
<event>
 5   0  0.6589193E-06  0.2100375E+04  0.7818609E-02  0.8561078E-01
       -1   -1    0    0    0  501  0.00000000000E+00  0.00000000000E+00  0.13283319062E+04  0.13283319062E+04  0.50400001928E-02 0.  1.
        1   -1    0    0  501    0  0.00000000000E+00  0.00000000000E+00 -0.83028466121E+03  0.83028466122E+03  0.50400001928E-02 0. -1.
    10030    2    1    2    0    0  0.00000000000E+00  0.00000000000E+00  0.49804724497E+03  0.21586165674E+04  0.21003748301E+04 0.  0.
        3    1    3    3  502    0  0.18376657904E+03  0.85367923918E+03  0.84860052505E+03  0.12176457861E+04  0.10100000352E+00 0.  1.
       -3    1    3    3    0  502 -0.18376657904E+03 -0.85367923918E+03 -0.35055328008E+03  0.94097078135E+03  0.10100000352E+00 0. -1.
</event>
<event>
 5   0  0.6283269E-06  0.2095434E+04  0.7818609E-02  0.8563257E-01
       -1   -1    0    0    0  501  0.00000000000E+00  0.00000000000E+00  0.11273112536E+04  0.11273112536E+04  0.50400001928E-02 0. -1.
        1   -1    0    0  501    0  0.00000000000E+00  0.00000000000E+00 -0.97374283995E+03  0.97374283996E+03  0.50400001928E-02 0.  1.
    10030    2    1    2    0    0  0.00000000000E+00  0.00000000000E+00  0.15356841368E+03  0.21010540936E+04  0.20954343336E+04 0.  0.
        1    1    3    3  502    0  0.72248468797E+03 -0.24904198840E+03 -0.64187032729E+03  0.99799977626E+03  0.50400001928E-02 0.  1.
       -1    1    3    3    0  502 -0.72248468797E+03  0.24904198840E+03  0.79543874097E+03  0.11030543173E+04  0.50400001928E-02 0. -1.
</event>
<event>
 5   0  0.1441136E-05  0.2095436E+04  0.7818609E-02  0.8563257E-01
        2   -1    0    0  501    0  0.00000000000E+00  0.00000000000E+00  0.63428757405E+03  0.63428757405E+03  0.25500000920E-02 0.  1.
       -2   -1    0    0    0  501  0.00000000000E+00  0.00000000000E+00 -0.17306231285E+04  0.17306231285E+04  0.25500000920E-02 0. -1.
    10030    2    1    2    0    0  0.00000000000E+00  0.00000000000E+00 -0.10963355544E+04  0.23649107025E+04  0.20954357502E+04 0.  0.
        4    1    3    3  502    0  0.38214043116E+03 -0.90115246113E+03 -0.12648153650E+03  0.98696821595E+03  0.12699999809E+01 0.  1.
       -4    1    3    3    0  502 -0.38214043116E+03  0.90115246113E+03 -0.96985401792E+03  0.13779424866E+04  0.12699999809E+01 0. -1.
</event>
<event>
 5   0  0.6917078E-06  0.2099812E+04  0.7818609E-02  0.8561326E-01
        1   -1    0    0  501    0  0.00000000000E+00  0.00000000000E+00  0.23196596107E+04  0.23196596107E+04  0.50400001928E-02 0. -1.
       -1   -1    0    0    0  501  0.00000000000E+00  0.00000000000E+00 -0.47520032622E+03  0.47520032624E+03  0.50400001928E-02 0.  1.
    10030    2    1    2    0    0  0.00000000000E+00  0.00000000000E+00  0.18444592845E+04  0.27948599370E+04  0.20998123762E+04 0.  0.
        5    1    3    3  502    0 -0.96666064781E+03 -0.29097929286E+03  0.13061019770E+04  0.16507653441E+04  0.46999998093E+01 0. -1.
       -5    1    3    3    0  502  0.96666064781E+03  0.29097929286E+03  0.53835730746E+03  0.11440945929E+04  0.46999998093E+01 0.  1.
</event>
<event>
 5   0  0.6238363E-06  0.2099448E+04  0.7818609E-02  0.8561487E-01
       -1   -1    0    0    0  501  0.00000000000E+00  0.00000000000E+00  0.17567506530E+04  0.17567506530E+04  0.50400001928E-02 0. -1.
        1   -1    0    0  501    0  0.00000000000E+00  0.00000000000E+00 -0.62724905452E+03  0.62724905454E+03  0.50400001928E-02 0.  1.
    10030    2    1    2    0    0  0.00000000000E+00  0.00000000000E+00  0.11295015985E+04  0.23839997076E+04  0.20994477237E+04 0.  0.
        4    1    3    3  502    0  0.18017941529E+03 -0.50271432178E+03  0.15909720136E+04  0.16782073387E+04  0.12699999809E+01 0. -1.
       -4    1    3    3    0  502 -0.18017941529E+03  0.50271432178E+03 -0.46147041506E+03  0.70579236882E+03  0.12699999809E+01 0.  1.
</event>
<event>
 5   0  0.6599245E-06  0.2098912E+04  0.7818609E-02  0.8561723E-01
        1   -1    0    0  501    0  0.00000000000E+00  0.00000000000E+00  0.10419618784E+04  0.10419618784E+04  0.50400001928E-02 0. -1.
       -1   -1    0    0    0  501  0.00000000000E+00  0.00000000000E+00 -0.10570041087E+04  0.10570041087E+04  0.50400001928E-02 0.  1.
    10030    2    1    2    0    0  0.00000000000E+00  0.00000000000E+00 -0.15042230302E+02  0.20989659872E+04  0.20989120864E+04 0.  0.
        2    1    3    3  502    0 -0.73871103622E+03  0.41821398524E+03 -0.62459534937E+03  0.10539052533E+04  0.25500000920E-02 0.  1.
       -2    1    3    3    0  502  0.73871103622E+03 -0.41821398524E+03  0.60955311907E+03  0.10450607339E+04  0.25500000920E-02 0. -1.
</event>
<event>
 5   0  0.1344501E-05  0.2097507E+04  0.7818609E-02  0.8562342E-01
        2   -1    0    0  501    0  0.00000000000E+00  0.00000000000E+00  0.94233273852E+03  0.94233273853E+03  0.25500000920E-02 0. -1.
       -2   -1    0    0    0  501  0.00000000000E+00  0.00000000000E+00 -0.11671932005E+04  0.11671932005E+04  0.25500000920E-02 0.  1.
    10030    2    1    2    0    0  0.00000000000E+00  0.00000000000E+00 -0.22486046196E+03  0.21095259390E+04  0.20975074398E+04 0.  0.
        3    1    3    3  502    0 -0.31063450554E+03  0.89396899993E+03 -0.56691553811E+03  0.11032078709E+04  0.10100000352E+00 0.  1.
       -3    1    3    3    0  502  0.31063450554E+03 -0.89396899993E+03  0.34205507616E+03  0.10063180681E+04  0.10100000352E+00 0. -1.
</event>
<event>
 5   0  0.1441136E-05  0.2099968E+04  0.7818609E-02  0.8561257E-01
        2   -1    0    0  501    0  0.00000000000E+00  0.00000000000E+00  0.11015081027E+04  0.11015081027E+04  0.25500000920E-02 0.  1.
       -2   -1    0    0    0  501  0.00000000000E+00  0.00000000000E+00 -0.10008704200E+04  0.10008704200E+04  0.25500000920E-02 0. -1.
    10030    2    1    2    0    0  0.00000000000E+00  0.00000000000E+00  0.10063768272E+03  0.21023785227E+04  0.20999684544E+04 0.  0.
        4    1    3    3  502    0  0.68033122375E+03 -0.56445540609E+03 -0.51690423837E+03  0.10240371497E+04  0.12699999809E+01 0. -1.
       -4    1    3    3    0  502 -0.68033122375E+03  0.56445540609E+03  0.61754192109E+03  0.10783413730E+04  0.12699999809E+01 0.  1.
</event>
<event>
 5   0  0.1395356E-05  0.2100615E+04  0.7818609E-02  0.8560972E-01
       -2   -1    0    0    0  501  0.00000000000E+00  0.00000000000E+00  0.60106905723E+03  0.60106905724E+03  0.25500000920E-02 0. -1.
        2   -1    0    0  501    0  0.00000000000E+00  0.00000000000E+00 -0.18353066990E+04  0.18353066990E+04  0.25500000920E-02 0.  1.
    10030    2    1    2    0    0  0.00000000000E+00  0.00000000000E+00 -0.12342376417E+04  0.24363757562E+04  0.21006152121E+04 0.  0.
        1    1    3    3  502    0 -0.30592545543E+03  0.95242813175E+02 -0.17772388990E+04  0.18058902741E+04  0.50400001928E-02 0.  1.
       -1    1    3    3    0  502  0.30592545543E+03 -0.95242813175E+02  0.54300125729E+03  0.63048548214E+03  0.50400001928E-02 0. -1.
</event>
<event>
 5   0  0.1344501E-05  0.2099385E+04  0.7818609E-02  0.8561514E-01
        2   -1    0    0  501    0  0.00000000000E+00  0.00000000000E+00  0.10970455350E+04  0.10970455350E+04  0.25500000920E-02 0.  1.
       -2   -1    0    0    0  501  0.00000000000E+00  0.00000000000E+00 -0.10043835179E+04  0.10043835179E+04  0.25500000920E-02 0. -1.
    10030    2    1    2    0    0  0.00000000000E+00  0.00000000000E+00  0.92662017100E+02  0.21014290529E+04  0.20993851041E+04 0.  0.
        3    1    3    3  502    0  0.17131097570E+03 -0.42346796879E+03 -0.89967211638E+03  0.10090007424E+04  0.10100000352E+00 0. -1.
       -3    1    3    3    0  502 -0.17131097570E+03  0.42346796879E+03  0.99233413348E+03  0.10924283105E+04  0.10100000352E+00 0.  1.
</event>
<event>
 5   0  0.6917078E-06  0.2094958E+04  0.7818609E-02  0.8563468E-01
        1   -1    0    0  501    0  0.00000000000E+00  0.00000000000E+00  0.15196575306E+04  0.15196575306E+04  0.50400001928E-02 0. -1.
       -1   -1    0    0    0  501  0.00000000000E+00  0.00000000000E+00 -0.72201298746E+03  0.72201298748E+03  0.50400001928E-02 0.  1.
    10030    2    1    2    0    0  0.00000000000E+00  0.00000000000E+00  0.79764454312E+03  0.22416705181E+04  0.20949582083E+04 0.  0.
        5    1    3    3  502    0 -0.97520967788E+03 -0.10194400492E+03  0.79308756559E+03  0.12611250821E+04  0.46999998093E+01 0. -1.
       -5    1    3    3    0  502  0.97520967788E+03  0.10194400492E+03  0.45569775236E+01  0.98054543597E+03  0.46999998093E+01 0.  1.
</event>
<event>
 5   0  0.6238363E-06  0.2084608E+04  0.7818609E-02  0.8568054E-01
        1   -1    0    0  501    0  0.00000000000E+00  0.00000000000E+00  0.12529936801E+04  0.12529936801E+04  0.50400001928E-02 0.  1.
       -1   -1    0    0    0  501  0.00000000000E+00  0.00000000000E+00 -0.86704192739E+03  0.86704192740E+03  0.50400001928E-02 0. -1.
    10030    2    1    2    0    0  0.00000000000E+00  0.00000000000E+00  0.38595175270E+03  0.21200356075E+04  0.20846084097E+04 0.  0.
        4    1    3    3  502    0  0.88961637091E+03  0.12450526784E+02  0.74518069193E+03  0.11605465004E+04  0.12699999809E+01 0.  1.
       -4    1    3    3    0  502 -0.88961637091E+03 -0.12450526784E+02 -0.35922893924E+03  0.95948910712E+03  0.12699999809E+01 0. -1.
</event>
<event>
 5   0  0.6917078E-06  0.2099831E+04  0.7818609E-02  0.8561318E-01
       -1   -1    0    0    0  501  0.00000000000E+00  0.00000000000E+00  0.11719131100E+04  0.11719131100E+04  0.50400001928E-02 0. -1.
        1   -1    0    0  501    0  0.00000000000E+00  0.00000000000E+00 -0.94061809718E+03  0.94061809720E+03  0.50400001928E-02 0.  1.
    10030    2    1    2    0    0  0.00000000000E+00  0.00000000000E+00  0.23129501277E+03  0.21125312072E+04  0.20998311166E+04 0.  0.
        5    1    3    3  502    0  0.24341056688E+03 -0.57843695626E+03  0.96244043418E+03  0.11489785445E+04  0.46999998093E+01 0. -1.
       -5    1    3    3    0  502 -0.24341056688E+03  0.57843695626E+03 -0.73114542141E+03  0.96355266264E+03  0.46999998093E+01 0.  1.
</event>
<event>
 5   0  0.6283269E-06  0.2101733E+04  0.7818609E-02  0.8560480E-01
        1   -1    0    0  501    0  0.00000000000E+00  0.00000000000E+00  0.12018442823E+04  0.12018442823E+04  0.50400001928E-02 0. -1.
       -1   -1    0    0    0  501  0.00000000000E+00  0.00000000000E+00 -0.91885522960E+03  0.91885522961E+03  0.50400001928E-02 0.  1.
    10030    2    1    2    0    0  0.00000000000E+00  0.00000000000E+00  0.28298905272E+03  0.21206995119E+04  0.21017334788E+04 0.  0.
        1    1    3    3  502    0  0.44918146516E+03 -0.88918147831E+03  0.47904768660E+03  0.11053933128E+04  0.50400001928E-02 0. -1.
       -1    1    3    3    0  502 -0.44918146516E+03  0.88918147831E+03 -0.19605863388E+03  0.10153061991E+04  0.50400001928E-02 0.  1.
</event>
<event>
 5   0  0.1441136E-05  0.2090144E+04  0.7818609E-02  0.8565597E-01
        2   -1    0    0  501    0  0.00000000000E+00  0.00000000000E+00  0.20596507980E+04  0.20596507980E+04  0.25500000920E-02 0. -1.
       -2   -1    0    0    0  501  0.00000000000E+00  0.00000000000E+00 -0.53027229544E+03  0.53027229544E+03  0.25500000920E-02 0.  1.
    10030    2    1    2    0    0  0.00000000000E+00  0.00000000000E+00  0.15293785025E+04  0.25899230934E+04  0.20901442596E+04 0.  0.
        4    1    3    3  502    0  0.34737857246E+03 -0.17606553934E+03 -0.43699603733E+03  0.58535296726E+03  0.12699999809E+01 0.  1.
       -4    1    3    3    0  502 -0.34737857246E+03  0.17606553934E+03  0.19663745399E+04  0.20045701262E+04  0.12699999809E+01 0. -1.
</event>
<event>
 5   0  0.1395356E-05  0.2101234E+04  0.7818609E-02  0.8560700E-01
       -2   -1    0    0    0  501  0.00000000000E+00  0.00000000000E+00  0.70145363640E+03  0.70145363640E+03  0.25500000920E-02 0.  1.
        2   -1    0    0  501    0  0.00000000000E+00  0.00000000000E+00 -0.15735842787E+04  0.15735842787E+04  0.25500000920E-02 0. -1.
    10030    2    1    2    0    0  0.00000000000E+00  0.00000000000E+00 -0.87213064225E+03  0.22750379151E+04  0.21012343177E+04 0.  0.
        1    1    3    3  502    0  0.59103364818E+03  0.45614409586E+03  0.36427142966E+03  0.83071167319E+03  0.50400001928E-02 0.  1.
       -1    1    3    3    0  502 -0.59103364818E+03 -0.45614409586E+03 -0.12364020719E+04  0.14443262419E+04  0.50400001928E-02 0. -1.
</event>
<event>
 5   0  0.1398469E-05  0.2099625E+04  0.7818609E-02  0.8561409E-01
        2   -1    0    0  501    0  0.00000000000E+00  0.00000000000E+00  0.13892341629E+04  0.13892341629E+04  0.25500000920E-02 0.  1.
       -2   -1    0    0    0  501  0.00000000000E+00  0.00000000000E+00 -0.79331941224E+03  0.79331941224E+03  0.25500000920E-02 0. -1.
    10030    2    1    2    0    0  0.00000000000E+00  0.00000000000E+00  0.59591475067E+03  0.21825535752E+04  0.20996251376E+04 0.  0.
        2    1    3    3  502    0 -0.68279637493E+03 -0.39164590455E+03 -0.42410691933E+03  0.89412755421E+03  0.25500000920E-02 0. -1.
       -2    1    3    3    0  502  0.68279637493E+03  0.39164590455E+03  0.10200216700E+04  0.12884260209E+04  0.25500000920E-02 0.  1.
</event>
<event>
 5   0  0.6589193E-06  0.2096698E+04  0.7818609E-02  0.8562699E-01
        1   -1    0    0  501    0  0.00000000000E+00  0.00000000000E+00  0.10269145684E+04  0.10269145684E+04  0.50400001928E-02 0. -1.
       -1   -1    0    0    0  501  0.00000000000E+00  0.00000000000E+00 -0.10702308594E+04  0.10702308594E+04  0.50400001928E-02 0.  1.
    10030    2    1    2    0    0  0.00000000000E+00  0.00000000000E+00 -0.43316291044E+02  0.20971454278E+04  0.20966980337E+04 0.  0.
        3    1    3    3  502    0 -0.48245552281E+03  0.63945492520E+03 -0.69809360163E+03  0.10625444083E+04  0.10100000352E+00 0.  1.
       -3    1    3    3    0  502  0.48245552281E+03 -0.63945492520E+03  0.65477731059E+03  0.10346010195E+04  0.10100000352E+00 0. -1.
</event>
<event>
 5   0  0.1344501E-05  0.2106708E+04  0.7818609E-02  0.8558294E-01
       -2   -1    0    0    0  501  0.00000000000E+00  0.00000000000E+00  0.83566490493E+03  0.83566490494E+03  0.25500000920E-02 0. -1.
        2   -1    0    0  501    0  0.00000000000E+00  0.00000000000E+00 -0.13277510116E+04  0.13277510116E+04  0.25500000920E-02 0.  1.
    10030    2    1    2    0    0  0.00000000000E+00  0.00000000000E+00 -0.49208610665E+03  0.21634159165E+04  0.21067082597E+04 0.  0.
        3    1    3    3  502    0 -0.90842876257E+03 -0.31630936918E+03 -0.68685333986E+03  0.11819737537E+04  0.10100000352E+00 0.  1.
       -3    1    3    3    0  502  0.90842876257E+03  0.31630936918E+03  0.19476723322E+03  0.98144216285E+03  0.10100000352E+00 0. -1.
</event>
<event>
 5   0  0.1390735E-05  0.2148069E+04  0.7818609E-02  0.8540359E-01
        2   -1    0    0  501    0  0.00000000000E+00  0.00000000000E+00  0.22058961754E+04  0.22058961754E+04  0.25500000920E-02 0.  1.
       -2   -1    0    0    0  501  0.00000000000E+00  0.00000000000E+00 -0.52293951666E+03  0.52293951667E+03  0.25500000920E-02 0. -1.
    10030    2    1    2    0    0  0.00000000000E+00  0.00000000000E+00  0.16829566587E+04  0.27288356920E+04  0.21480691607E+04 0.  0.
        5    1    3    3  502    0 -0.39941713177E+03 -0.92362150704E+02 -0.41962122281E+03  0.58665907703E+03  0.46999998093E+01 0. -1.
       -5    1    3    3    0  502  0.39941713177E+03  0.92362150704E+02  0.21025778815E+04  0.21421766150E+04  0.46999998093E+01 0.  1.
</event>
<event>
 5   0  0.1395356E-05  0.2099664E+04  0.7818609E-02  0.8561391E-01
       -2   -1    0    0    0  501  0.00000000000E+00  0.00000000000E+00  0.12862629858E+04  0.12862629858E+04  0.25500000920E-02 0. -1.
        2   -1    0    0  501    0  0.00000000000E+00  0.00000000000E+00 -0.85686005768E+03  0.85686005768E+03  0.25500000920E-02 0.  1.
    10030    2    1    2    0    0  0.00000000000E+00  0.00000000000E+00  0.42940292815E+03  0.21431230435E+04  0.20996641410E+04 0.  0.
        1    1    3    3  502    0 -0.50295971570E+03  0.72960755793E+03  0.78924812337E+03  0.11866795121E+04  0.50400001928E-02 0. -1.
       -1    1    3    3    0  502  0.50295971570E+03 -0.72960755793E+03 -0.35984519522E+03  0.95644353140E+03  0.50400001928E-02 0.  1.
</event>
<event>
 5   0  0.6589193E-06  0.2106949E+04  0.7818609E-02  0.8558188E-01
        1   -1    0    0  501    0  0.00000000000E+00  0.00000000000E+00  0.93042869827E+03  0.93042869829E+03  0.50400001928E-02 0.  1.
       -1   -1    0    0    0  501  0.00000000000E+00  0.00000000000E+00 -0.11927930275E+04  0.11927930275E+04  0.50400001928E-02 0. -1.
    10030    2    1    2    0    0  0.00000000000E+00  0.00000000000E+00 -0.26236432925E+03  0.21232217258E+04  0.21069493244E+04 0.  0.
        3    1    3    3  502    0  0.53058775544E+03 -0.52780991276E+03 -0.87832732943E+03  0.11539348240E+04  0.10100000352E+00 0. -1.
       -3    1    3    3    0  502 -0.53058775544E+03  0.52780991276E+03  0.61596300018E+03  0.96928690181E+03  0.10100000352E+00 0.  1.
</event>
<event>
 5   0  0.6238363E-06  0.2099914E+04  0.7818609E-02  0.8561281E-01
        1   -1    0    0  501    0  0.00000000000E+00  0.00000000000E+00  0.33745910098E+04  0.33745910098E+04  0.50400001928E-02 0. -1.
       -1   -1    0    0    0  501  0.00000000000E+00  0.00000000000E+00 -0.32667955902E+03  0.32667955906E+03  0.50400001928E-02 0.  1.
    10030    2    1    2    0    0  0.00000000000E+00  0.00000000000E+00  0.30479114507E+04  0.37012705688E+04  0.20999141916E+04 0.  0.
        4    1    3    3  502    0  0.67701534898E+03  0.15023739917E+02  0.29382371341E+04  0.30152635979E+04  0.12699999809E+01 0. -1.
       -4    1    3    3    0  502 -0.67701534898E+03 -0.15023739917E+02  0.10967431660E+03  0.68600697091E+03  0.12699999809E+01 0.  1.
</event>
<event>
 5   0  0.6589193E-06  0.2095693E+04  0.7818609E-02  0.8563143E-01
       -1   -1    0    0    0  501  0.00000000000E+00  0.00000000000E+00  0.12634887493E+04  0.12634887493E+04  0.50400001928E-02 0.  1.
        1   -1    0    0  501    0  0.00000000000E+00  0.00000000000E+00 -0.86900857428E+03  0.86900857430E+03  0.50400001928E-02 0. -1.
    10030    2    1    2    0    0  0.00000000000E+00  0.00000000000E+00  0.39448017497E+03  0.21324973236E+04  0.20956932568E+04 0.  0.
        3    1    3    3  502    0 -0.57179230887E+03  0.71482781192E+03 -0.32167381285E+03  0.97025733558E+03  0.10100000352E+00 0. -1.
       -3    1    3    3    0  502  0.57179230887E+03 -0.71482781192E+03  0.71615398782E+03  0.11622399880E+04  0.10100000352E+00 0.  1.
</event>
<event>
 5   0  0.1441136E-05  0.2096699E+04  0.7818609E-02  0.8562699E-01
       -2   -1    0    0    0  501  0.00000000000E+00  0.00000000000E+00  0.64455283192E+03  0.64455283192E+03  0.25500000920E-02 0.  1.
        2   -1    0    0  501    0  0.00000000000E+00  0.00000000000E+00 -0.17051147984E+04  0.17051147984E+04  0.25500000920E-02 0. -1.
    10030    2    1    2    0    0  0.00000000000E+00  0.00000000000E+00 -0.10605619665E+04  0.23496676303E+04  0.20966989026E+04 0.  0.
        4    1    3    3  502    0  0.38852907833E+03 -0.21488459768E+03  0.53398626394E+03  0.69445891023E+03  0.12699999809E+01 0.  1.
       -4    1    3    3    0  502 -0.38852907833E+03  0.21488459768E+03 -0.15945482304E+04  0.16552087201E+04  0.12699999809E+01 0. -1.
</event>
<event>
 5   0  0.1390735E-05  0.2100108E+04  0.7818609E-02  0.8561196E-01
       -2   -1    0    0    0  501  0.00000000000E+00  0.00000000000E+00  0.78484840707E+03  0.78484840707E+03  0.25500000920E-02 0. -1.
        2   -1    0    0  501    0  0.00000000000E+00  0.00000000000E+00 -0.14048747524E+04  0.14048747524E+04  0.25500000920E-02 0.  1.
    10030    2    1    2    0    0  0.00000000000E+00  0.00000000000E+00 -0.62002634530E+03  0.21897231594E+04  0.21001082939E+04 0.  0.
        5    1    3    3  502    0  0.85842139941E+03 -0.59984266017E+03 -0.22997085902E+03  0.10721973708E+04  0.46999998093E+01 0. -1.
       -5    1    3    3    0  502 -0.85842139941E+03  0.59984266017E+03 -0.39005548628E+03  0.11175257887E+04  0.46999998093E+01 0.  1.
</event>
<event>
 5   0  0.1398469E-05  0.2099751E+04  0.7818609E-02  0.8561353E-01
        2   -1    0    0  501    0  0.00000000000E+00  0.00000000000E+00  0.20623792921E+04  0.20623792921E+04  0.25500000920E-02 0.  1.
       -2   -1    0    0    0  501  0.00000000000E+00  0.00000000000E+00 -0.53445000892E+03  0.53445000893E+03  0.25500000920E-02 0. -1.
    10030    2    1    2    0    0  0.00000000000E+00  0.00000000000E+00  0.15279292832E+04  0.25968293010E+04  0.20997510624E+04 0.  0.
        2    1    3    3  502    0 -0.66175868800E+03  0.72919035222E+03  0.12143040843E+04  0.15633865613E+04  0.25500000920E-02 0.  1.
       -2    1    3    3    0  502  0.66175868800E+03 -0.72919035222E+03  0.31362519891E+03  0.10334427397E+04  0.25500000920E-02 0. -1.
</event>
<event>
 5   0  0.1344501E-05  0.2100116E+04  0.7818609E-02  0.8561192E-01
        2   -1    0    0  501    0  0.00000000000E+00  0.00000000000E+00  0.78216083860E+03  0.78216083861E+03  0.25500000920E-02 0. -1.
       -2   -1    0    0    0  501  0.00000000000E+00  0.00000000000E+00 -0.14097122393E+04  0.14097122393E+04  0.25500000920E-02 0.  1.
    10030    2    1    2    0    0  0.00000000000E+00  0.00000000000E+00 -0.62755140071E+03  0.21918730779E+04  0.21001159085E+04 0.  0.
        3    1    3    3  502    0 -0.87715106289E+03  0.61811383028E+02 -0.91279193243E+03  0.12674398433E+04  0.10100000352E+00 0.  1.
       -3    1    3    3    0  502  0.87715106289E+03 -0.61811383028E+02  0.28524053172E+03  0.92443323465E+03  0.10100000352E+00 0. -1.
</event>
<event>
 5   0  0.1398469E-05  0.2103408E+04  0.7818609E-02  0.8559744E-01
        2   -1    0    0  501    0  0.00000000000E+00  0.00000000000E+00  0.22072533003E+04  0.22072533003E+04  0.25500000920E-02 0. -1.
       -2   -1    0    0    0  501  0.00000000000E+00  0.00000000000E+00 -0.50111210903E+03  0.50111210904E+03  0.25500000920E-02 0.  1.
    10030    2    1    2    0    0  0.00000000000E+00  0.00000000000E+00  0.17061411913E+04  0.27083654094E+04  0.21034080503E+04 0.  0.
        2    1    3    3  502    0  0.40380900775E+03  0.66280252667E+03  0.17669209201E+04  0.19298648766E+04  0.25500000920E-02 0. -1.
       -2    1    3    3    0  502 -0.40380900775E+03 -0.66280252667E+03 -0.60779728770E+02  0.77850053278E+03  0.25500000920E-02 0.  1.
</event>
<event>
 5   0  0.1344501E-05  0.2100652E+04  0.7818609E-02  0.8560956E-01
       -2   -1    0    0    0  501  0.00000000000E+00  0.00000000000E+00  0.59827370842E+03  0.59827370842E+03  0.25500000920E-02 0. -1.
        2   -1    0    0  501    0  0.00000000000E+00  0.00000000000E+00 -0.18439459960E+04  0.18439459960E+04  0.25500000920E-02 0.  1.
    10030    2    1    2    0    0  0.00000000000E+00  0.00000000000E+00 -0.12456722876E+04  0.24422197044E+04  0.21006517171E+04 0.  0.
        3    1    3    3  502    0 -0.93326070440E+03 -0.33997796231E+03 -0.10198670813E+04  0.14236184289E+04  0.10100000352E+00 0. -1.
       -3    1    3    3    0  502  0.93326070440E+03  0.33997796231E+03 -0.22580520628E+03  0.10186012756E+04  0.10100000352E+00 0.  1.
</event>
<event>
 5   0  0.1344501E-05  0.2105625E+04  0.7818609E-02  0.8558770E-01
       -2   -1    0    0    0  501  0.00000000000E+00  0.00000000000E+00  0.62815230108E+03  0.62815230109E+03  0.25500000920E-02 0. -1.
        2   -1    0    0  501    0  0.00000000000E+00  0.00000000000E+00 -0.17645629111E+04  0.17645629111E+04  0.25500000920E-02 0.  1.
    10030    2    1    2    0    0  0.00000000000E+00  0.00000000000E+00 -0.11364106100E+04  0.23927152122E+04  0.21056250882E+04 0.  0.
        3    1    3    3  502    0  0.13604691239E+03 -0.56606557622E+03 -0.15650036085E+04  0.16697830110E+04  0.10100000352E+00 0.  1.
       -3    1    3    3    0  502 -0.13604691239E+03  0.56606557622E+03  0.42859299849E+03  0.72293220119E+03  0.10100000352E+00 0. -1.
</event>
<event>
 5   0  0.1441136E-05  0.2069680E+04  0.7818609E-02  0.8574718E-01
        2   -1    0    0  501    0  0.00000000000E+00  0.00000000000E+00  0.20039869060E+04  0.20039869060E+04  0.25500000920E-02 0. -1.
       -2   -1    0    0    0  501  0.00000000000E+00  0.00000000000E+00 -0.53438186442E+03  0.53438186443E+03  0.25500000920E-02 0.  1.
    10030    2    1    2    0    0  0.00000000000E+00  0.00000000000E+00  0.14696050416E+04  0.25383687705E+04  0.20696804189E+04 0.  0.
        4    1    3    3  502    0  0.78008842861E+03  0.40982030526E+02 -0.97629589179E+02  0.78724242318E+03  0.12699999809E+01 0.  1.
       -4    1    3    3    0  502 -0.78008842861E+03 -0.40982030526E+02  0.15672346308E+04  0.17511263473E+04  0.12699999809E+01 0. -1.
</event>
<event>
 5   0  0.6589193E-06  0.2103339E+04  0.7818609E-02  0.8559774E-01
        1   -1    0    0  501    0  0.00000000000E+00  0.00000000000E+00  0.88832704625E+03  0.88832704626E+03  0.50400001928E-02 0. -1.
       -1   -1    0    0    0  501  0.00000000000E+00  0.00000000000E+00 -0.12450465246E+04  0.12450465246E+04  0.50400001928E-02 0.  1.
    10030    2    1    2    0    0  0.00000000000E+00  0.00000000000E+00 -0.35671947832E+03  0.21333735708E+04  0.21033387760E+04 0.  0.
        3    1    3    3  502    0 -0.48866337594E+02  0.82419180668E+03  0.48234702299E+03  0.95621060125E+03  0.10100000352E+00 0. -1.
       -3    1    3    3    0  502  0.48866337594E+02 -0.82419180668E+03 -0.83906650131E+03  0.11771629696E+04  0.10100000352E+00 0.  1.
</event>
<event>
 5   0  0.6599245E-06  0.2098508E+04  0.7818609E-02  0.8561901E-01
       -1   -1    0    0    0  501  0.00000000000E+00  0.00000000000E+00  0.13140215138E+04  0.13140215138E+04  0.50400001928E-02 0.  1.
        1   -1    0    0  501    0  0.00000000000E+00  0.00000000000E+00 -0.83783538387E+03  0.83783538389E+03  0.50400001928E-02 0. -1.
    10030    2    1    2    0    0  0.00000000000E+00  0.00000000000E+00  0.47618612989E+03  0.21518568977E+04  0.20985077740E+04 0.  0.
        2    1    3    3  502    0  0.88808839179E+03  0.34209754543E+03 -0.21495568099E+03  0.97567293035E+03  0.25500000920E-02 0.  1.
       -2    1    3    3    0  502 -0.88808839179E+03 -0.34209754543E+03  0.69114181088E+03  0.11761839673E+04  0.25500000920E-02 0. -1.
</event>
<event>
 5   0  0.6599245E-06  0.2094343E+04  0.7818609E-02  0.8563740E-01
        1   -1    0    0  501    0  0.00000000000E+00  0.00000000000E+00  0.14986281795E+04  0.14986281795E+04  0.50400001928E-02 0. -1.
       -1   -1    0    0    0  501  0.00000000000E+00  0.00000000000E+00 -0.73171439403E+03  0.73171439405E+03  0.50400001928E-02 0.  1.
    10030    2    1    2    0    0  0.00000000000E+00  0.00000000000E+00  0.76691378543E+03  0.22303425735E+04  0.20943426752E+04 0.  0.
        2    1    3    3  502    0  0.63651274781E+03 -0.34790406673E+03  0.11877359742E+04  0.13917264323E+04  0.25500000920E-02 0. -1.
       -2    1    3    3    0  502 -0.63651274781E+03  0.34790406673E+03 -0.42082218880E+03  0.83861614125E+03  0.25500000920E-02 0.  1.
</event>
<event>
 5   0  0.6589193E-06  0.2100644E+04  0.7818609E-02  0.8560960E-01
        1   -1    0    0  501    0  0.00000000000E+00  0.00000000000E+00  0.55393905223E+03  0.55393905225E+03  0.50400001928E-02 0. -1.
       -1   -1    0    0    0  501  0.00000000000E+00  0.00000000000E+00 -0.19915113963E+04  0.19915113963E+04  0.50400001928E-02 0.  1.
    10030    2    1    2    0    0  0.00000000000E+00  0.00000000000E+00 -0.14375723440E+04  0.25454504485E+04  0.21006436493E+04 0.  0.
        3    1    3    3  502    0  0.45727739059E+03  0.80890803872E+03 -0.13120986838E+04  0.16078052722E+04  0.10100000352E+00 0.  1.
       -3    1    3    3    0  502 -0.45727739059E+03 -0.80890803872E+03 -0.12547366021E+03  0.93764517631E+03  0.10100000352E+00 0. -1.
</event>
<event>
 5   0  0.1395356E-05  0.2091962E+04  0.7818609E-02  0.8564792E-01
        2   -1    0    0  501    0  0.00000000000E+00  0.00000000000E+00  0.22833693165E+04  0.22833693165E+04  0.25500000920E-02 0.  1.
       -2   -1    0    0    0  501  0.00000000000E+00  0.00000000000E+00 -0.47915004059E+03  0.47915004060E+03  0.25500000920E-02 0. -1.
    10030    2    1    2    0    0  0.00000000000E+00  0.00000000000E+00  0.18042192759E+04  0.27625193571E+04  0.20919622374E+04 0.  0.
        1    1    3    3  502    0 -0.38414279257E+03 -0.84821400537E+03  0.15313351583E+04  0.17922109393E+04  0.50400001928E-02 0.  1.
       -1    1    3    3    0  502  0.38414279257E+03  0.84821400537E+03  0.27288411767E+03  0.97030841782E+03  0.50400001928E-02 0. -1.
</event>
<event>
 5   0  0.6589193E-06  0.2099228E+04  0.7818609E-02  0.8561583E-01
        1   -1    0    0  501    0  0.00000000000E+00  0.00000000000E+00  0.11294697595E+04  0.11294697595E+04  0.50400001928E-02 0.  1.
       -1   -1    0    0    0  501  0.00000000000E+00  0.00000000000E+00 -0.97540456222E+03  0.97540456223E+03  0.50400001928E-02 0. -1.
    10030    2    1    2    0    0  0.00000000000E+00  0.00000000000E+00  0.15406519725E+03  0.21048743217E+04  0.20992283880E+04 0.  0.
        3    1    3    3  502    0  0.11793484893E+03  0.32993990346E+03 -0.91503278711E+03  0.97982344337E+03  0.10100000352E+00 0. -1.
       -3    1    3    3    0  502 -0.11793484893E+03 -0.32993990346E+03  0.10690979844E+04  0.11250508783E+04  0.10100000352E+00 0.  1.
</event>
<event>
 5   0  0.1344501E-05  0.2088424E+04  0.7818609E-02  0.8566360E-01
        2   -1    0    0  501    0  0.00000000000E+00  0.00000000000E+00  0.13794892864E+04  0.13794892864E+04  0.25500000920E-02 0.  1.
       -2   -1    0    0    0  501  0.00000000000E+00  0.00000000000E+00 -0.79042207012E+03  0.79042207013E+03  0.25500000920E-02 0. -1.
    10030    2    1    2    0    0  0.00000000000E+00  0.00000000000E+00  0.58906721627E+03  0.21699113565E+04  0.20884240733E+04 0.  0.
        3    1    3    3  502    0 -0.25345694757E+03  0.19023963221E+03  0.13283164588E+04  0.13655973663E+04  0.10100000352E+00 0.  1.
       -3    1    3    3    0  502  0.25345694757E+03 -0.19023963221E+03 -0.73924924258E+03  0.80431399017E+03  0.10100000352E+00 0. -1.
</event>
<event>
 5   0  0.6283269E-06  0.2092565E+04  0.7818609E-02  0.8564526E-01
       -1   -1    0    0    0  501  0.00000000000E+00  0.00000000000E+00  0.14139541104E+04  0.14139541105E+04  0.50400001928E-02 0. -1.
        1   -1    0    0  501    0  0.00000000000E+00  0.00000000000E+00 -0.77421650729E+03  0.77421650731E+03  0.50400001928E-02 0.  1.
    10030    2    1    2    0    0  0.00000000000E+00  0.00000000000E+00  0.63973760315E+03  0.21881706178E+04  0.20925645633E+04 0.  0.
        1    1    3    3  502    0 -0.49326007076E+03  0.69529462249E+03 -0.31444835586E+03  0.90863517321E+03  0.50400001928E-02 0.  1.
       -1    1    3    3    0  502  0.49326007076E+03 -0.69529462249E+03  0.95418595901E+03  0.12795354446E+04  0.50400001928E-02 0. -1.
</event>
<event>
 5   0  0.1441136E-05  0.2101509E+04  0.7818609E-02  0.8560579E-01
        2   -1    0    0  501    0  0.00000000000E+00  0.00000000000E+00  0.14432752242E+04  0.14432752242E+04  0.25500000920E-02 0. -1.
       -2   -1    0    0    0  501  0.00000000000E+00  0.00000000000E+00 -0.76498587603E+03  0.76498587604E+03  0.25500000920E-02 0.  1.
    10030    2    1    2    0    0  0.00000000000E+00  0.00000000000E+00  0.67828934814E+03  0.22082611002E+04  0.21015091356E+04 0.  0.
        4    1    3    3  502    0 -0.10039167597E+04 -0.19349134945E+03  0.84348888137E+02  0.10258674917E+04  0.12699999809E+01 0.  1.
       -4    1    3    3    0  502  0.10039167597E+04  0.19349134945E+03  0.59394046000E+03  0.11823936086E+04  0.12699999809E+01 0. -1.
</event>
<event>
 5   0  0.1441136E-05  0.2101134E+04  0.7818609E-02  0.8560744E-01
        2   -1    0    0  501    0  0.00000000000E+00  0.00000000000E+00  0.12704918594E+04  0.12704918594E+04  0.25500000920E-02 0. -1.
       -2   -1    0    0    0  501  0.00000000000E+00  0.00000000000E+00 -0.86871141707E+03  0.86871141707E+03  0.25500000920E-02 0.  1.
    10030    2    1    2    0    0  0.00000000000E+00  0.00000000000E+00  0.40178044229E+03  0.21392032764E+04  0.21011337735E+04 0.  0.
        4    1    3    3  502    0  0.86528846081E+03 -0.32249880916E+03  0.71092551612E+03  0.11653953427E+04  0.12699999809E+01 0.  1.
       -4    1    3    3    0  502 -0.86528846081E+03  0.32249880916E+03 -0.30914507383E+03  0.97380793378E+03  0.12699999809E+01 0. -1.
</event>
<event>
 5   0  0.6917078E-06  0.2144547E+04  0.7818609E-02  0.8541870E-01
        1   -1    0    0  501    0  0.00000000000E+00  0.00000000000E+00  0.18646489329E+04  0.18646489330E+04  0.50400001928E-02 0.  1.
       -1   -1    0    0    0  501  0.00000000000E+00  0.00000000000E+00 -0.61661474149E+03  0.61661474151E+03  0.50400001928E-02 0. -1.
    10030    2    1    2    0    0  0.00000000000E+00  0.00000000000E+00  0.12480341915E+04  0.24812636745E+04  0.21445465906E+04 0.  0.
        5    1    3    3  502    0  0.82214047081E+03 -0.57492485892E+03  0.18603937955E+03  0.10203363602E+04  0.46999998093E+01 0. -1.
       -5    1    3    3    0  502 -0.82214047081E+03  0.57492485892E+03  0.10619948119E+04  0.14609273143E+04  0.46999998093E+01 0.  1.
</event>
<event>
 5   0  0.6589193E-06  0.2107015E+04  0.7818609E-02  0.8558159E-01
        1   -1    0    0  501    0  0.00000000000E+00  0.00000000000E+00  0.78713757279E+03  0.78713757281E+03  0.50400001928E-02 0. -1.
       -1   -1    0    0    0  501  0.00000000000E+00  0.00000000000E+00 -0.14100184482E+04  0.14100184482E+04  0.50400001928E-02 0.  1.
    10030    2    1    2    0    0  0.00000000000E+00  0.00000000000E+00 -0.62288087537E+03  0.21971560210E+04  0.21070154237E+04 0.  0.
        3    1    3    3  502    0 -0.93132961141E+03  0.11959423215E+03 -0.80958090543E+03  0.12397979182E+04  0.10100000352E+00 0.  1.
       -3    1    3    3    0  502  0.93132961141E+03 -0.11959423215E+03  0.18670003006E+03  0.95735810274E+03  0.10100000352E+00 0. -1.
</event>
<event>
 5   0  0.6599245E-06  0.2114355E+04  0.7818609E-02  0.8554946E-01
        1   -1    0    0  501    0  0.00000000000E+00  0.00000000000E+00  0.11160253977E+04  0.11160253977E+04  0.50400001928E-02 0. -1.
       -1   -1    0    0    0  501  0.00000000000E+00  0.00000000000E+00 -0.10014326357E+04  0.10014326357E+04  0.50400001928E-02 0.  1.
    10030    2    1    2    0    0  0.00000000000E+00  0.00000000000E+00  0.11459276201E+03  0.21174580335E+04  0.21143549897E+04 0.  0.
        2    1    3    3  502    0  0.32806323228E+03  0.99074418480E+03 -0.11154740913E+03  0.10495915151E+04  0.25500000920E-02 0. -1.
       -2    1    3    3    0  502 -0.32806323228E+03 -0.99074418480E+03  0.22614017114E+03  0.10678665184E+04  0.25500000920E-02 0.  1.
</event>
<event>
 5   0  0.1441136E-05  0.2104690E+04  0.7818609E-02  0.8559180E-01
        2   -1    0    0  501    0  0.00000000000E+00  0.00000000000E+00  0.19923677598E+04  0.19923677598E+04  0.25500000920E-02 0. -1.
       -2   -1    0    0    0  501  0.00000000000E+00  0.00000000000E+00 -0.55583592594E+03  0.55583592594E+03  0.25500000920E-02 0.  1.
    10030    2    1    2    0    0  0.00000000000E+00  0.00000000000E+00  0.14365318339E+04  0.25482036858E+04  0.21046896005E+04 0.  0.
        4    1    3    3  502    0  0.13311412402E+03  0.89576767161E+03  0.13672299151E+04  0.16399507142E+04  0.12699999809E+01 0. -1.
       -4    1    3    3    0  502 -0.13311412402E+03 -0.89576767161E+03  0.69301918834E+02  0.90825297157E+03  0.12699999809E+01 0.  1.
</event>
<event>
 5   0  0.6589193E-06  0.2102694E+04  0.7818609E-02  0.8560058E-01
       -1   -1    0    0    0  501  0.00000000000E+00  0.00000000000E+00  0.54336731750E+03  0.54336731753E+03  0.50400001928E-02 0. -1.
        1   -1    0    0  501    0  0.00000000000E+00  0.00000000000E+00 -0.20342235225E+04  0.20342235225E+04  0.50400001928E-02 0.  1.
    10030    2    1    2    0    0  0.00000000000E+00  0.00000000000E+00 -0.14908562050E+04  0.25775908400E+04  0.21026940611E+04 0.  0.
        3    1    3    3  502    0 -0.26567675567E+03  0.17795515680E+03  0.48230885497E+03  0.57868300314E+03  0.10100000352E+00 0. -1.
       -3    1    3    3    0  502  0.26567675567E+03 -0.17795515680E+03 -0.19731650600E+04  0.19989078369E+04  0.10100000352E+00 0.  1.
</event>
<event>
 5   0  0.1398469E-05  0.2097381E+04  0.7818609E-02  0.8562398E-01
        2   -1    0    0  501    0  0.00000000000E+00  0.00000000000E+00  0.18769003699E+04  0.18769003699E+04  0.25500000920E-02 0. -1.
       -2   -1    0    0    0  501  0.00000000000E+00  0.00000000000E+00 -0.58594056152E+03  0.58594056153E+03  0.25500000920E-02 0.  1.
    10030    2    1    2    0    0  0.00000000000E+00  0.00000000000E+00  0.12909598083E+04  0.24628409314E+04  0.20973812783E+04 0.  0.
        2    1    3    3  502    0 -0.79673163568E+03  0.38270868180E+03 -0.17220112797E+02  0.88404964041E+03  0.25500000920E-02 0.  1.
       -2    1    3    3    0  502  0.79673163568E+03 -0.38270868180E+03  0.13081799211E+04  0.15787912910E+04  0.25500000920E-02 0. -1.
</event>
<event>
 5   0  0.1441136E-05  0.2105528E+04  0.7818609E-02  0.8558812E-01
       -2   -1    0    0    0  501  0.00000000000E+00  0.00000000000E+00  0.10886347086E+04  0.10886347086E+04  0.25500000920E-02 0.  1.
        2   -1    0    0  501    0  0.00000000000E+00  0.00000000000E+00 -0.10180751027E+04  0.10180751027E+04  0.25500000920E-02 0. -1.
    10030    2    1    2    0    0  0.00000000000E+00  0.00000000000E+00  0.70559605938E+02  0.21067098113E+04  0.21055278604E+04 0.  0.
        4    1    3    3  502    0 -0.38503889552E+03  0.53701496303E+02 -0.94362080882E+03  0.10205687853E+04  0.12699999809E+01 0. -1.
       -4    1    3    3    0  502  0.38503889552E+03 -0.53701496303E+02  0.10141804148E+04  0.10861410260E+04  0.12699999809E+01 0.  1.
</event>
<event>
 5   0  0.6917078E-06  0.2099709E+04  0.7818609E-02  0.8561372E-01
       -1   -1    0    0    0  501  0.00000000000E+00  0.00000000000E+00  0.49080584633E+03  0.49080584635E+03  0.50400001928E-02 0.  1.
        1   -1    0    0  501    0  0.00000000000E+00  0.00000000000E+00 -0.22456828148E+04  0.22456828148E+04  0.50400001928E-02 0. -1.
    10030    2    1    2    0    0  0.00000000000E+00  0.00000000000E+00 -0.17548769685E+04  0.27364886612E+04  0.20997087937E+04 0.  0.
        5    1    3    3  502    0 -0.36780523471E+03 -0.97191225128E+03 -0.68291449385E+03  0.12434984563E+04  0.46999998093E+01 0. -1.
       -5    1    3    3    0  502  0.36780523471E+03  0.97191225128E+03 -0.10719624746E+04  0.14929902049E+04  0.46999998093E+01 0.  1.
</event>
<event>
 5   0  0.5009125E-06  0.2101152E+04  0.7818609E-02  0.8560736E-01
        4   -1    0    0  501    0  0.00000000000E+00  0.00000000000E+00  0.12535079658E+04  0.12535086091E+04  0.12699999809E+01 0.  1.
       -4   -1    0    0    0  501  0.00000000000E+00  0.00000000000E+00 -0.88049559528E+03  0.88049651119E+03  0.12699999809E+01 0. -1.
    10030    2    1    2    0    0  0.00000000000E+00  0.00000000000E+00  0.37301237049E+03  0.21340051203E+04  0.21011519757E+04 0.  0.
        3    1    3    3  502    0 -0.93167087669E+03  0.16227735980E+03 -0.27821275847E+03  0.98577224203E+03  0.10100000352E+00 0. -1.
       -3    1    3    3    0  502  0.93167087669E+03 -0.16227735980E+03  0.65122512896E+03  0.11482328783E+04  0.10100000352E+00 0.  1.
</event>
<event>
 5   0  0.1398469E-05  0.2102187E+04  0.7818609E-02  0.8560281E-01
        2   -1    0    0  501    0  0.00000000000E+00  0.00000000000E+00  0.11607750446E+04  0.11607750446E+04  0.25500000920E-02 0.  1.
       -2   -1    0    0    0  501  0.00000000000E+00  0.00000000000E+00 -0.95177592684E+03  0.95177592685E+03  0.25500000920E-02 0. -1.
    10030    2    1    2    0    0  0.00000000000E+00  0.00000000000E+00  0.20899911773E+03  0.21125509714E+04  0.21021871885E+04 0.  0.
        2    1    3    3  502    0  0.14576268608E+03  0.71287281803E+03  0.86676617571E+03  0.11316881278E+04  0.25500000920E-02 0.  1.
       -2    1    3    3    0  502 -0.14576268608E+03 -0.71287281803E+03 -0.65776705798E+03  0.98086284358E+03  0.25500000920E-02 0. -1.
</event>
<event>
 5   0  0.1344501E-05  0.2102559E+04  0.7818609E-02  0.8560117E-01
       -2   -1    0    0    0  501  0.00000000000E+00  0.00000000000E+00  0.62888432455E+03  0.62888432456E+03  0.25500000920E-02 0.  1.
        2   -1    0    0  501    0  0.00000000000E+00  0.00000000000E+00 -0.17573790917E+04  0.17573790917E+04  0.25500000920E-02 0. -1.
    10030    2    1    2    0    0  0.00000000000E+00  0.00000000000E+00 -0.11284947672E+04  0.23862634163E+04  0.21025585967E+04 0.  0.
        3    1    3    3  502    0 -0.37241608264E+03 -0.94169060898E+03 -0.24381571777E+03  0.10415954378E+04  0.10100000352E+00 0. -1.
       -3    1    3    3    0  502  0.37241608264E+03  0.94169060898E+03 -0.88467904942E+03  0.13446679785E+04  0.10100000352E+00 0.  1.
</event>
<event>
 5   0  0.1390735E-05  0.2096816E+04  0.7818609E-02  0.8562647E-01
        2   -1    0    0  501    0  0.00000000000E+00  0.00000000000E+00  0.13731107832E+04  0.13731107832E+04  0.25500000920E-02 0. -1.
       -2   -1    0    0    0  501  0.00000000000E+00  0.00000000000E+00 -0.80048827200E+03  0.80048827200E+03  0.25500000920E-02 0.  1.
    10030    2    1    2    0    0  0.00000000000E+00  0.00000000000E+00  0.57262251122E+03  0.21735990552E+04  0.20968157555E+04 0.  0.
        5    1    3    3  502    0 -0.47347323893E+03 -0.23740755126E+03  0.12242067179E+04  0.13338828402E+04  0.46999998093E+01 0. -1.
       -5    1    3    3    0  502  0.47347323893E+03  0.23740755126E+03 -0.65158420664E+03  0.83971621500E+03  0.46999998093E+01 0.  1.
</event>
<event>
 5   0  0.6599245E-06  0.2097216E+04  0.7818609E-02  0.8562471E-01
        1   -1    0    0  501    0  0.00000000000E+00  0.00000000000E+00  0.90852352940E+03  0.90852352941E+03  0.50400001928E-02 0. -1.
       -1   -1    0    0    0  501  0.00000000000E+00  0.00000000000E+00 -0.12102921427E+04  0.12102921427E+04  0.50400001928E-02 0.  1.
    10030    2    1    2    0    0  0.00000000000E+00  0.00000000000E+00 -0.30176861326E+03  0.21188156721E+04  0.20972161444E+04 0.  0.
        2    1    3    3  502    0 -0.30777117519E+03 -0.25614464581E+02  0.86153408565E+03  0.91521591868E+03  0.25500000920E-02 0. -1.
       -2    1    3    3    0  502  0.30777117519E+03  0.25614464581E+02 -0.11633026989E+04  0.12035997534E+04  0.25500000920E-02 0.  1.
</event>
<event>
 5   0  0.1398469E-05  0.2099699E+04  0.7818609E-02  0.8561376E-01
       -2   -1    0    0    0  501  0.00000000000E+00  0.00000000000E+00  0.80910976333E+03  0.80910976334E+03  0.25500000920E-02 0. -1.
        2   -1    0    0  501    0  0.00000000000E+00  0.00000000000E+00 -0.13622177859E+04  0.13622177859E+04  0.25500000920E-02 0.  1.
    10030    2    1    2    0    0  0.00000000000E+00  0.00000000000E+00 -0.55310802252E+03  0.21713275492E+04  0.20996987501E+04 0.  0.
        2    1    3    3  502    0  0.40087546742E+03  0.30831636341E+02  0.72634022744E+03  0.83019386662E+03  0.25500000920E-02 0. -1.
       -2    1    3    3    0  502 -0.40087546742E+03 -0.30831636341E+02 -0.12794482500E+04  0.13411336826E+04  0.25500000920E-02 0.  1.
</event>
<event>
 5   0  0.6599245E-06  0.2105406E+04  0.7818609E-02  0.8558866E-01
       -1   -1    0    0    0  501  0.00000000000E+00  0.00000000000E+00  0.96410249840E+03  0.96410249841E+03  0.50400001928E-02 0.  1.
        1   -1    0    0  501    0  0.00000000000E+00  0.00000000000E+00 -0.11494454442E+04  0.11494454442E+04  0.50400001928E-02 0. -1.
    10030    2    1    2    0    0  0.00000000000E+00  0.00000000000E+00 -0.18534294582E+03  0.21135479426E+04  0.21054056375E+04 0.  0.
        2    1    3    3  502    0 -0.10329004537E+04 -0.12454011015E+03 -0.25388406014E+03  0.10709111552E+04  0.25500000920E-02 0.  1.
       -2    1    3    3    0  502  0.10329004537E+04  0.12454011015E+03  0.68541114322E+02  0.10426367875E+04  0.25500000920E-02 0. -1.
</event>
<event>
 5   0  0.1390735E-05  0.2090456E+04  0.7818609E-02  0.8565459E-01
        2   -1    0    0  501    0  0.00000000000E+00  0.00000000000E+00  0.15478005333E+04  0.15478005333E+04  0.25500000920E-02 0.  1.
       -2   -1    0    0    0  501  0.00000000000E+00  0.00000000000E+00 -0.70584133852E+03  0.70584133852E+03  0.25500000920E-02 0. -1.
    10030    2    1    2    0    0  0.00000000000E+00  0.00000000000E+00  0.84195919476E+03  0.22536418718E+04  0.20904560270E+04 0.  0.
        5    1    3    3  502    0 -0.92622341864E+02 -0.67907670914E+03  0.12717309138E+04  0.14446610960E+04  0.46999998093E+01 0.  1.
       -5    1    3    3    0  502  0.92622341864E+02  0.67907670914E+03 -0.42977171907E+03  0.80898077580E+03  0.46999998093E+01 0. -1.
</event>
<event>
 5   0  0.6238363E-06  0.2103441E+04  0.7818609E-02  0.8559729E-01
       -1   -1    0    0    0  501  0.00000000000E+00  0.00000000000E+00  0.12167674821E+04  0.12167674821E+04  0.50400001928E-02 0. -1.
        1   -1    0    0  501    0  0.00000000000E+00  0.00000000000E+00 -0.90906143743E+03  0.90906143744E+03  0.50400001928E-02 0.  1.
    10030    2    1    2    0    0  0.00000000000E+00  0.00000000000E+00  0.30770604464E+03  0.21258289195E+04  0.21034413672E+04 0.  0.
        4    1    3    3  502    0 -0.30763218054E+03 -0.22020164840E+03 -0.83791120947E+03  0.91936017551E+03  0.12699999809E+01 0.  1.
       -4    1    3    3    0  502  0.30763218054E+03  0.22020164840E+03  0.11456172541E+04  0.12064687440E+04  0.12699999809E+01 0. -1.
</event>
<event>
 5   0  0.6599245E-06  0.2100491E+04  0.7818609E-02  0.8561027E-01
       -1   -1    0    0    0  501  0.00000000000E+00  0.00000000000E+00  0.90634294900E+03  0.90634294901E+03  0.50400001928E-02 0. -1.
        1   -1    0    0  501    0  0.00000000000E+00  0.00000000000E+00 -0.12169961570E+04  0.12169961570E+04  0.50400001928E-02 0.  1.
    10030    2    1    2    0    0  0.00000000000E+00  0.00000000000E+00 -0.31065320799E+03  0.21233391060E+04  0.21004912624E+04 0.  0.
        2    1    3    3  502    0  0.51961463834E+01  0.63240293802E+03  0.69227790084E+03  0.93766154232E+03  0.25500000920E-02 0. -1.
       -2    1    3    3    0  502 -0.51961463834E+01 -0.63240293802E+03 -0.10029311088E+04  0.11856775637E+04  0.25500000920E-02 0.  1.
</event>
<event>
 5   0  0.6283269E-06  0.2099034E+04  0.7818609E-02  0.8561669E-01
        1   -1    0    0  501    0  0.00000000000E+00  0.00000000000E+00  0.11570682774E+04  0.11570682774E+04  0.50400001928E-02 0.  1.
       -1   -1    0    0    0  501  0.00000000000E+00  0.00000000000E+00 -0.95196294379E+03  0.95196294380E+03  0.50400001928E-02 0. -1.
    10030    2    1    2    0    0  0.00000000000E+00  0.00000000000E+00  0.20510533363E+03  0.21090312212E+04  0.20990341813E+04 0.  0.
        1    1    3    3  502    0  0.48189654384E+03  0.81156632631E+03  0.56367409589E+03  0.10993601172E+04  0.50400001928E-02 0.  1.
       -1    1    3    3    0  502 -0.48189654384E+03 -0.81156632631E+03 -0.35856876226E+03  0.10096711040E+04  0.50400001928E-02 0. -1.
</event>
<event>
 5   0  0.1390735E-05  0.2099387E+04  0.7818609E-02  0.8561514E-01
        2   -1    0    0  501    0  0.00000000000E+00  0.00000000000E+00  0.16123123441E+04  0.16123123441E+04  0.25500000920E-02 0.  1.
       -2   -1    0    0    0  501  0.00000000000E+00  0.00000000000E+00 -0.68340117751E+03  0.68340117752E+03  0.25500000920E-02 0. -1.
    10030    2    1    2    0    0  0.00000000000E+00  0.00000000000E+00  0.92891116657E+03  0.22957135216E+04  0.20993867242E+04 0.  0.
        5    1    3    3  502    0  0.60554296579E+01  0.72498708792E+03 -0.36560258095E+03  0.81199155358E+03  0.46999998093E+01 0. -1.
       -5    1    3    3    0  502 -0.60554296579E+01 -0.72498708792E+03  0.12945137475E+04  0.14837219680E+04  0.46999998093E+01 0.  1.
</event>
<event>
 5   0  0.6917078E-06  0.2101504E+04  0.7818609E-02  0.8560581E-01
       -1   -1    0    0    0  501  0.00000000000E+00  0.00000000000E+00  0.12652804605E+04  0.12652804605E+04  0.50400001928E-02 0. -1.
        1   -1    0    0  501    0  0.00000000000E+00  0.00000000000E+00 -0.87259675240E+03  0.87259675242E+03  0.50400001928E-02 0.  1.
    10030    2    1    2    0    0  0.00000000000E+00  0.00000000000E+00  0.39268370812E+03  0.21378772129E+04  0.21015038622E+04 0.  0.
        5    1    3    3  502    0  0.54114799743E+03 -0.90062501018E+03  0.18663912910E+03  0.10671564171E+04  0.46999998093E+01 0. -1.
       -5    1    3    3    0  502 -0.54114799743E+03  0.90062501018E+03  0.20604457903E+03  0.10707207958E+04  0.46999998093E+01 0.  1.
</event>
<event>
 5   0  0.6589193E-06  0.2106661E+04  0.7818609E-02  0.8558315E-01
        1   -1    0    0  501    0  0.00000000000E+00  0.00000000000E+00  0.96410640198E+03  0.96410640199E+03  0.50400001928E-02 0.  1.
       -1   -1    0    0    0  501  0.00000000000E+00  0.00000000000E+00 -0.11508123252E+04  0.11508123252E+04  0.50400001928E-02 0. -1.
    10030    2    1    2    0    0  0.00000000000E+00  0.00000000000E+00 -0.18670592323E+03  0.21149187272E+04  0.21066613684E+04 0.  0.
        3    1    3    3  502    0  0.76667187277E+03 -0.66797331290E+03 -0.36925998481E+03  0.10818165528E+04  0.10100000352E+00 0. -1.
       -3    1    3    3    0  502 -0.76667187277E+03  0.66797331290E+03  0.18255406157E+03  0.10331021744E+04  0.10100000352E+00 0.  1.
</event>
<event>
 5   0  0.1395356E-05  0.2109395E+04  0.7818609E-02  0.8557116E-01
        2   -1    0    0  501    0  0.00000000000E+00  0.00000000000E+00  0.94849202639E+03  0.94849202639E+03  0.25500000920E-02 0.  1.
       -2   -1    0    0    0  501  0.00000000000E+00  0.00000000000E+00 -0.11727949172E+04  0.11727949172E+04  0.25500000920E-02 0. -1.
    10030    2    1    2    0    0  0.00000000000E+00  0.00000000000E+00 -0.22430289080E+03  0.21212869436E+04  0.21093948208E+04 0.  0.
        1    1    3    3  502    0 -0.51775613114E+03 -0.91352295824E+03 -0.12644010017E+02  0.10501216489E+04  0.50400001928E-02 0. -1.
       -1    1    3    3    0  502  0.51775613114E+03  0.91352295824E+03 -0.21165888078E+03  0.10711652946E+04  0.50400001928E-02 0.  1.
</event>
<event>
 5   0  0.6283269E-06  0.2099898E+04  0.7818609E-02  0.8561288E-01
       -1   -1    0    0    0  501  0.00000000000E+00  0.00000000000E+00  0.66140127066E+03  0.66140127068E+03  0.50400001928E-02 0.  1.
        1   -1    0    0  501    0  0.00000000000E+00  0.00000000000E+00 -0.16667533825E+04  0.16667533825E+04  0.50400001928E-02 0. -1.
    10030    2    1    2    0    0  0.00000000000E+00  0.00000000000E+00 -0.10053521118E+04  0.23281546532E+04  0.20998979071E+04 0.  0.
        1    1    3    3  502    0 -0.41441849579E+03 -0.88186632306E+03 -0.93629204229E+03  0.13513229406E+04  0.50400001928E-02 0.  1.
       -1    1    3    3    0  502  0.41441849579E+03  0.88186632306E+03 -0.69060069543E+02  0.97683171254E+03  0.50400001928E-02 0. -1.
</event>
<event>
 5   0  0.1344501E-05  0.2089787E+04  0.7818609E-02  0.8565756E-01
       -2   -1    0    0    0  501  0.00000000000E+00  0.00000000000E+00  0.11752060767E+04  0.11752060767E+04  0.25500000920E-02 0. -1.
        2   -1    0    0  501    0  0.00000000000E+00  0.00000000000E+00 -0.92903019618E+03  0.92903019619E+03  0.25500000920E-02 0.  1.
    10030    2    1    2    0    0  0.00000000000E+00  0.00000000000E+00  0.24617588056E+03  0.21042362729E+04  0.20897865269E+04 0.  0.
        3    1    3    3  502    0 -0.18823777283E+03  0.10040613543E+04 -0.98042165984E+02  0.10262479909E+04  0.10100000352E+00 0.  1.
       -3    1    3    3    0  502  0.18823777283E+03 -0.10040613543E+04  0.34421804654E+03  0.10779882820E+04  0.10100000352E+00 0. -1.
</event>
<event>
 5   0  0.6283269E-06  0.2103158E+04  0.7818609E-02  0.8559854E-01
       -1   -1    0    0    0  501  0.00000000000E+00  0.00000000000E+00  0.44383241721E+03  0.44383241724E+03  0.50400001928E-02 0.  1.
        1   -1    0    0  501    0  0.00000000000E+00  0.00000000000E+00 -0.24915213043E+04  0.24915213043E+04  0.50400001928E-02 0. -1.
    10030    2    1    2    0    0  0.00000000000E+00  0.00000000000E+00 -0.20476888871E+04  0.29353537215E+04  0.21031575529E+04 0.  0.
        1    1    3    3  502    0 -0.13883303735E+03 -0.16615848166E+03  0.41238299212E+03  0.46577138759E+03  0.50400001928E-02 0.  1.
       -1    1    3    3    0  502  0.13883303735E+03  0.16615848166E+03 -0.24600718792E+04  0.24695823339E+04  0.50400001928E-02 0. -1.
</event>
<event>
 5   0  0.6238363E-06  0.2101255E+04  0.7818609E-02  0.8560691E-01
       -1   -1    0    0    0  501  0.00000000000E+00  0.00000000000E+00  0.93253597956E+03  0.93253597958E+03  0.50400001928E-02 0. -1.
        1   -1    0    0  501    0  0.00000000000E+00  0.00000000000E+00 -0.11836732511E+04  0.11836732511E+04  0.50400001928E-02 0.  1.
    10030    2    1    2    0    0  0.00000000000E+00  0.00000000000E+00 -0.25113727154E+03  0.21162092307E+04  0.21012547630E+04 0.  0.
        4    1    3    3  502    0 -0.31617277738E+03  0.80580316785E+02 -0.11313542112E+04  0.11774643845E+04  0.12699999809E+01 0.  1.
       -4    1    3    3    0  502  0.31617277738E+03 -0.80580316785E+02  0.88021693964E+03  0.93874484624E+03  0.12699999809E+01 0. -1.
</event>
<event>
 5   0  0.1395356E-05  0.2107807E+04  0.7818609E-02  0.8557812E-01
        2   -1    0    0  501    0  0.00000000000E+00  0.00000000000E+00  0.76378258125E+03  0.76378258125E+03  0.25500000920E-02 0. -1.
       -2   -1    0    0    0  501  0.00000000000E+00  0.00000000000E+00 -0.14542258131E+04  0.14542258131E+04  0.25500000920E-02 0.  1.
    10030    2    1    2    0    0  0.00000000000E+00  0.00000000000E+00 -0.69044323189E+03  0.22180083944E+04  0.21078067703E+04 0.  0.
        1    1    3    3  502    0  0.87502514033E+03 -0.46060327151E+03 -0.72881864295E+03  0.12284140118E+04  0.50400001928E-02 0.  1.
       -1    1    3    3    0  502 -0.87502514033E+03  0.46060327151E+03  0.38375411060E+02  0.98959438263E+03  0.50400001928E-02 0. -1.
</event>
<event>
 5   0  0.6283269E-06  0.2097443E+04  0.7818609E-02  0.8562371E-01
       -1   -1    0    0    0  501  0.00000000000E+00  0.00000000000E+00  0.46762669626E+03  0.46762669629E+03  0.50400001928E-02 0.  1.
        1   -1    0    0  501    0  0.00000000000E+00  0.00000000000E+00 -0.23519110704E+04  0.23519110704E+04  0.50400001928E-02 0. -1.
    10030    2    1    2    0    0  0.00000000000E+00  0.00000000000E+00 -0.18842843741E+04  0.28195377667E+04  0.20974426369E+04 0.  0.
        1    1    3    3  502    0 -0.46194959885E+03  0.64805846814E+03 -0.24052007257E+02  0.79621335651E+03  0.50400001928E-02 0.  1.
       -1    1    3    3    0  502  0.46194959885E+03 -0.64805846814E+03 -0.18602323669E+04  0.20233244102E+04  0.50400001928E-02 0. -1.
</event>
<event>
 5   0  0.6283269E-06  0.2111092E+04  0.7818609E-02  0.8556373E-01
        1   -1    0    0  501    0  0.00000000000E+00  0.00000000000E+00  0.10644367036E+04  0.10644367037E+04  0.50400001928E-02 0.  1.
       -1   -1    0    0    0  501  0.00000000000E+00  0.00000000000E+00 -0.10467292277E+04  0.10467292277E+04  0.50400001928E-02 0. -1.
    10030    2    1    2    0    0  0.00000000000E+00  0.00000000000E+00  0.17707475961E+02  0.21111659313E+04  0.21110916690E+04 0.  0.
        1    1    3    3  502    0 -0.29617704774E+03  0.29629829181E+03  0.97773429186E+03  0.10637094842E+04  0.50400001928E-02 0.  1.
       -1    1    3    3    0  502  0.29617704774E+03 -0.29629829181E+03 -0.96002681590E+03  0.10474564471E+04  0.50400001928E-02 0. -1.
</event>
<event>
 5   0  0.1344501E-05  0.2097484E+04  0.7818609E-02  0.8562353E-01
        2   -1    0    0  501    0  0.00000000000E+00  0.00000000000E+00  0.13639141523E+04  0.13639141523E+04  0.25500000920E-02 0.  1.
       -2   -1    0    0    0  501  0.00000000000E+00  0.00000000000E+00 -0.80639919616E+03  0.80639919616E+03  0.25500000920E-02 0. -1.
    10030    2    1    2    0    0  0.00000000000E+00  0.00000000000E+00  0.55751495612E+03  0.21703133484E+04  0.20974835170E+04 0.  0.
        3    1    3    3  502    0 -0.74319009929E+03  0.20255544304E+02  0.10441146747E+04  0.12817633459E+04  0.10100000352E+00 0.  1.
       -3    1    3    3    0  502  0.74319009929E+03 -0.20255544304E+02 -0.48659971856E+03  0.88855000257E+03  0.10100000352E+00 0. -1.
</event>
<event>
 5   0  0.1390735E-05  0.2093493E+04  0.7818609E-02  0.8564115E-01
       -2   -1    0    0    0  501  0.00000000000E+00  0.00000000000E+00  0.72591260955E+03  0.72591260955E+03  0.25500000920E-02 0.  1.
        2   -1    0    0  501    0  0.00000000000E+00  0.00000000000E+00 -0.15093800843E+04  0.15093800843E+04  0.25500000920E-02 0. -1.
    10030    2    1    2    0    0  0.00000000000E+00  0.00000000000E+00 -0.78346747478E+03  0.22352926939E+04  0.20934928095E+04 0.  0.
        5    1    3    3  502    0  0.33646026460E+03  0.79900384526E+03  0.23454760241E+03  0.89813546985E+03  0.46999998093E+01 0.  1.
       -5    1    3    3    0  502 -0.33646026460E+03 -0.79900384526E+03 -0.10180150772E+04  0.13371572240E+04  0.46999998093E+01 0. -1.
</event>
<event>
 5   0  0.1398469E-05  0.2101129E+04  0.7818609E-02  0.8560746E-01
       -2   -1    0    0    0  501  0.00000000000E+00  0.00000000000E+00  0.68604697364E+03  0.68604697365E+03  0.25500000920E-02 0. -1.
        2   -1    0    0  501    0  0.00000000000E+00  0.00000000000E+00 -0.16087613551E+04  0.16087613551E+04  0.25500000920E-02 0.  1.
    10030    2    1    2    0    0  0.00000000000E+00  0.00000000000E+00 -0.92271438145E+03  0.22948083287E+04  0.21011290860E+04 0.  0.
        2    1    3    3  502    0 -0.31576610972E+03 -0.86376278059E+03 -0.10159984605E+04  0.13704186400E+04  0.25500000920E-02 0.  1.
       -2    1    3    3    0  502  0.31576610972E+03  0.86376278059E+03  0.93284079061E+02  0.92438968871E+03  0.25500000920E-02 0. -1.
</event>
<event>
 5   0  0.1398469E-05  0.2099747E+04  0.7818609E-02  0.8561355E-01
       -2   -1    0    0    0  501  0.00000000000E+00  0.00000000000E+00  0.78403333839E+03  0.78403333839E+03  0.25500000920E-02 0. -1.
        2   -1    0    0  501    0  0.00000000000E+00  0.00000000000E+00 -0.14058517127E+04  0.14058517127E+04  0.25500000920E-02 0.  1.
    10030    2    1    2    0    0  0.00000000000E+00  0.00000000000E+00 -0.62181837427E+03  0.21898850510E+04  0.20997472339E+04 0.  0.
        2    1    3    3  502    0 -0.13490899089E+03 -0.44702107476E+03  0.66977937941E+03  0.81647577686E+03  0.25500000920E-02 0. -1.
       -2    1    3    3    0  502  0.13490899089E+03  0.44702107476E+03 -0.12915977537E+04  0.13734092742E+04  0.25500000920E-02 0.  1.
</event>
<event>
 5   0  0.1344501E-05  0.2094058E+04  0.7818609E-02  0.8563866E-01
        2   -1    0    0  501    0  0.00000000000E+00  0.00000000000E+00  0.27807355095E+04  0.27807355095E+04  0.25500000920E-02 0.  1.
       -2   -1    0    0    0  501  0.00000000000E+00  0.00000000000E+00 -0.39423718929E+03  0.39423718930E+03  0.25500000920E-02 0. -1.
    10030    2    1    2    0    0  0.00000000000E+00  0.00000000000E+00  0.23864983202E+04  0.31749726988E+04  0.20940576414E+04 0.  0.
        3    1    3    3  502    0  0.90913060865E+03  0.51897520824E+03  0.11623394586E+04  0.15642527793E+04  0.10100000352E+00 0. -1.
       -3    1    3    3    0  502 -0.90913060865E+03 -0.51897520824E+03  0.12241588616E+04  0.16107199194E+04  0.10100000352E+00 0.  1.
</event>
<event>
 5   0  0.6599245E-06  0.2103181E+04  0.7818609E-02  0.8559843E-01
       -1   -1    0    0    0  501  0.00000000000E+00  0.00000000000E+00  0.49208430427E+03  0.49208430430E+03  0.50400001928E-02 0.  1.
        1   -1    0    0  501    0  0.00000000000E+00  0.00000000000E+00 -0.22472632232E+04  0.22472632232E+04  0.50400001928E-02 0. -1.
    10030    2    1    2    0    0  0.00000000000E+00  0.00000000000E+00 -0.17551789189E+04  0.27393475275E+04  0.21031813614E+04 0.  0.
        2    1    3    3  502    0  0.92374719900E+03 -0.49285287552E+03 -0.74977318684E+03  0.12877781937E+04  0.25500000920E-02 0.  1.
       -2    1    3    3    0  502 -0.92374719900E+03  0.49285287552E+03 -0.10054057321E+04  0.14515693337E+04  0.25500000920E-02 0. -1.
</event>
<event>
 5   0  0.1395356E-05  0.2098645E+04  0.7818609E-02  0.8561840E-01
       -2   -1    0    0    0  501  0.00000000000E+00  0.00000000000E+00  0.62919599137E+03  0.62919599137E+03  0.25500000920E-02 0. -1.
        2   -1    0    0  501    0  0.00000000000E+00  0.00000000000E+00 -0.17499759127E+04  0.17499759127E+04  0.25500000920E-02 0.  1.
    10030    2    1    2    0    0  0.00000000000E+00  0.00000000000E+00 -0.11207799213E+04  0.23791719041E+04  0.20986451146E+04 0.  0.
        1    1    3    3  502    0 -0.89005032256E+03 -0.41227376954E+03 -0.13785076273E+03  0.99053625403E+03  0.50400001928E-02 0. -1.
       -1    1    3    3    0  502  0.89005032256E+03  0.41227376954E+03 -0.98292915861E+03  0.13886356501E+04  0.50400001928E-02 0.  1.
</event>
<event>
 5   0  0.6283269E-06  0.2094620E+04  0.7818609E-02  0.8563617E-01
       -1   -1    0    0    0  501  0.00000000000E+00  0.00000000000E+00  0.81972210515E+03  0.81972210517E+03  0.50400001928E-02 0. -1.
        1   -1    0    0  501    0  0.00000000000E+00  0.00000000000E+00 -0.13380848581E+04  0.13380848581E+04  0.50400001928E-02 0.  1.
    10030    2    1    2    0    0  0.00000000000E+00  0.00000000000E+00 -0.51836275290E+03  0.21578069632E+04  0.20946195232E+04 0.  0.
        1    1    3    3  502    0 -0.41163505382E+03  0.95821923910E+03 -0.35815357338E+03  0.11026792416E+04  0.50400001928E-02 0.  1.
       -1    1    3    3    0  502  0.41163505382E+03 -0.95821923910E+03 -0.16020917952E+03  0.10551277216E+04  0.50400001928E-02 0. -1.
</event>
<event>
 5   0  0.6589193E-06  0.2100635E+04  0.7818609E-02  0.8560964E-01
       -1   -1    0    0    0  501  0.00000000000E+00  0.00000000000E+00  0.12044247533E+04  0.12044247533E+04  0.50400001928E-02 0. -1.
        1   -1    0    0  501    0  0.00000000000E+00  0.00000000000E+00 -0.91592877631E+03  0.91592877633E+03  0.50400001928E-02 0.  1.
    10030    2    1    2    0    0  0.00000000000E+00  0.00000000000E+00  0.28849597701E+03  0.21203535297E+04  0.21006354186E+04 0.  0.
        3    1    3    3  502    0 -0.17447224515E+03 -0.76284358068E+03  0.85139265865E+03  0.11563910940E+04  0.10100000352E+00 0. -1.
       -3    1    3    3    0  502  0.17447224515E+03  0.76284358068E+03 -0.56289668164E+03  0.96396243564E+03  0.10100000352E+00 0.  1.
</event>
<event>
 5   0  0.6238363E-06  0.2101265E+04  0.7818609E-02  0.8560686E-01
        1   -1    0    0  501    0  0.00000000000E+00  0.00000000000E+00  0.85063383648E+03  0.85063383650E+03  0.50400001928E-02 0.  1.
       -1   -1    0    0    0  501  0.00000000000E+00  0.00000000000E+00 -0.12976544603E+04  0.12976544603E+04  0.50400001928E-02 0. -1.
    10030    2    1    2    0    0  0.00000000000E+00  0.00000000000E+00 -0.44702062382E+03  0.21482882968E+04  0.21012651351E+04 0.  0.
        4    1    3    3  502    0  0.32931789536E+03 -0.93351589586E+03 -0.58341800350E+03  0.11490345442E+04  0.12699999809E+01 0.  1.
       -4    1    3    3    0  502 -0.32931789536E+03  0.93351589586E+03  0.13639737968E+03  0.99925375262E+03  0.12699999809E+01 0. -1.
</event>
<event>
 5   0  0.1441136E-05  0.2100656E+04  0.7818609E-02  0.8560954E-01
       -2   -1    0    0    0  501  0.00000000000E+00  0.00000000000E+00  0.82188801097E+03  0.82188801098E+03  0.25500000920E-02 0. -1.
        2   -1    0    0  501    0  0.00000000000E+00  0.00000000000E+00 -0.13422623843E+04  0.13422623843E+04  0.25500000920E-02 0.  1.
    10030    2    1    2    0    0  0.00000000000E+00  0.00000000000E+00 -0.52037437329E+03  0.21641503952E+04  0.21006564319E+04 0.  0.
        4    1    3    3  502    0  0.55460117834E+03 -0.58918954834E+03  0.42972645134E+03  0.91618405726E+03  0.12699999809E+01 0. -1.
       -4    1    3    3    0  502 -0.55460117834E+03  0.58918954834E+03 -0.95010082463E+03  0.12479663380E+04  0.12699999809E+01 0.  1.
</event>
<event>
 5   0  0.6589193E-06  0.2097786E+04  0.7818609E-02  0.8562219E-01
       -1   -1    0    0    0  501  0.00000000000E+00  0.00000000000E+00  0.50475638530E+03  0.50475638533E+03  0.50400001928E-02 0. -1.
        1   -1    0    0  501    0  0.00000000000E+00  0.00000000000E+00 -0.21796184800E+04  0.21796184800E+04  0.50400001928E-02 0.  1.
    10030    2    1    2    0    0  0.00000000000E+00  0.00000000000E+00 -0.16748620946E+04  0.26843748653E+04  0.20977858283E+04 0.  0.
        3    1    3    3  502    0 -0.91327619841E+03 -0.41394364300E+03 -0.44353662374E+03  0.10964248725E+04  0.10100000352E+00 0. -1.
       -3    1    3    3    0  502  0.91327619841E+03  0.41394364300E+03 -0.12313254709E+04  0.15879499928E+04  0.10100000352E+00 0.  1.
</event>
<event>
 5   0  0.1390735E-05  0.2098650E+04  0.7818609E-02  0.8561839E-01
        2   -1    0    0  501    0  0.00000000000E+00  0.00000000000E+00  0.10241708080E+04  0.10241708080E+04  0.25500000920E-02 0.  1.
       -2   -1    0    0    0  501  0.00000000000E+00  0.00000000000E+00 -0.10750965002E+04  0.10750965002E+04  0.25500000920E-02 0. -1.
    10030    2    1    2    0    0  0.00000000000E+00  0.00000000000E+00 -0.50925692257E+02  0.20992673082E+04  0.20986495193E+04 0.  0.
        5    1    3    3  502    0 -0.71798809687E+03 -0.17861484051E+03 -0.76975862182E+03  0.10676893717E+04  0.46999998093E+01 0. -1.
       -5    1    3    3    0  502  0.71798809687E+03  0.17861484051E+03  0.71883292956E+03  0.10315779365E+04  0.46999998093E+01 0.  1.
</event>
<event>
 5   0  0.6589193E-06  0.2105350E+04  0.7818609E-02  0.8558890E-01
        1   -1    0    0  501    0  0.00000000000E+00  0.00000000000E+00  0.17455354936E+04  0.17455354936E+04  0.50400001928E-02 0.  1.
       -1   -1    0    0    0  501  0.00000000000E+00  0.00000000000E+00 -0.63483386619E+03  0.63483386621E+03  0.50400001928E-02 0. -1.
    10030    2    1    2    0    0  0.00000000000E+00  0.00000000000E+00  0.11107016275E+04  0.23803693598E+04  0.21053503709E+04 0.  0.
        3    1    3    3  502    0 -0.19313470453E+03  0.81170570145E+03  0.12810328547E+04  0.15287944089E+04  0.10100000352E+00 0.  1.
       -3    1    3    3    0  502  0.19313470453E+03 -0.81170570145E+03 -0.17033122721E+03  0.85157495092E+03  0.10100000352E+00 0. -1.
</event>
<event>
 5   0  0.1395356E-05  0.2099992E+04  0.7818609E-02  0.8561247E-01
        2   -1    0    0  501    0  0.00000000000E+00  0.00000000000E+00  0.13512668710E+04  0.13512668710E+04  0.25500000920E-02 0.  1.
       -2   -1    0    0    0  501  0.00000000000E+00  0.00000000000E+00 -0.81589482457E+03  0.81589482458E+03  0.25500000920E-02 0. -1.
    10030    2    1    2    0    0  0.00000000000E+00  0.00000000000E+00  0.53537204644E+03  0.21671616956E+04  0.20999920444E+04 0.  0.
        1    1    3    3  502    0  0.27933601255E+03 -0.75151586651E+02  0.13093349984E+04  0.13409080905E+04  0.50400001928E-02 0.  1.
       -1    1    3    3    0  502 -0.27933601255E+03  0.75151586651E+02 -0.77396295201E+03  0.82625360513E+03  0.50400001928E-02 0. -1.
</event>
<event>
 5   0  0.6589193E-06  0.2095454E+04  0.7818609E-02  0.8563248E-01
        1   -1    0    0  501    0  0.00000000000E+00  0.00000000000E+00  0.11699374620E+04  0.11699374620E+04  0.50400001928E-02 0. -1.
       -1   -1    0    0    0  501  0.00000000000E+00  0.00000000000E+00 -0.93828274152E+03  0.93828274153E+03  0.50400001928E-02 0.  1.
    10030    2    1    2    0    0  0.00000000000E+00  0.00000000000E+00  0.23165472046E+03  0.21082202035E+04  0.20954542508E+04 0.  0.
        3    1    3    3  502    0  0.65167002808E+03 -0.29212381409E+03 -0.65547338429E+03  0.96935830113E+03  0.10100000352E+00 0.  1.
       -3    1    3    3    0  502 -0.65167002808E+03  0.29212381409E+03  0.88712810475E+03  0.11388619024E+04  0.10100000352E+00 0. -1.
</event>
<event>
 5   0  0.1390735E-05  0.2042564E+04  0.7818609E-02  0.8586975E-01
       -2   -1    0    0    0  501  0.00000000000E+00  0.00000000000E+00  0.70651108307E+03  0.70651108307E+03  0.25500000920E-02 0.  1.
        2   -1    0    0  501    0  0.00000000000E+00  0.00000000000E+00 -0.14762926876E+04  0.14762926876E+04  0.25500000920E-02 0. -1.
    10030    2    1    2    0    0  0.00000000000E+00  0.00000000000E+00 -0.76978160448E+03  0.21828037706E+04  0.20425642175E+04 0.  0.
        5    1    3    3  502    0 -0.31539733345E+02 -0.98367006079E+03 -0.93412314533E+02  0.98860987947E+03  0.46999998093E+01 0. -1.
       -5    1    3    3    0  502  0.31539733345E+02  0.98367006079E+03 -0.67636928995E+03  0.11941938912E+04  0.46999998093E+01 0.  1.
</event>
<event>
 5   0  0.1344501E-05  0.2095974E+04  0.7818609E-02  0.8563019E-01
        2   -1    0    0  501    0  0.00000000000E+00  0.00000000000E+00  0.11739637838E+04  0.11739637838E+04  0.25500000920E-02 0. -1.
       -2   -1    0    0    0  501  0.00000000000E+00  0.00000000000E+00 -0.93552898501E+03  0.93552898501E+03  0.25500000920E-02 0.  1.
    10030    2    1    2    0    0  0.00000000000E+00  0.00000000000E+00  0.23843479878E+03  0.21094927688E+04  0.20959743768E+04 0.  0.
        3    1    3    3  502    0  0.56889240716E+02 -0.47935500343E+03  0.10554101374E+04  0.11605637308E+04  0.10100000352E+00 0. -1.
       -3    1    3    3    0  502 -0.56889240716E+02  0.47935500343E+03 -0.81697533860E+03  0.94892903797E+03  0.10100000352E+00 0.  1.
</event>
<event>
 5   0  0.1344501E-05  0.2101515E+04  0.7818609E-02  0.8560576E-01
       -2   -1    0    0    0  501  0.00000000000E+00  0.00000000000E+00  0.86383839405E+03  0.86383839406E+03  0.25500000920E-02 0.  1.
        2   -1    0    0  501    0  0.00000000000E+00  0.00000000000E+00 -0.12781227331E+04  0.12781227331E+04  0.25500000920E-02 0. -1.
    10030    2    1    2    0    0  0.00000000000E+00  0.00000000000E+00 -0.41428433907E+03  0.21419611272E+04  0.21015151574E+04 0.  0.
        3    1    3    3  502    0 -0.53092399654E+03 -0.43214290527E+03  0.60535981632E+03  0.91383165742E+03  0.10100000352E+00 0.  1.
       -3    1    3    3    0  502  0.53092399654E+03  0.43214290527E+03 -0.10196441554E+04  0.12281294698E+04  0.10100000352E+00 0. -1.
</event>
<event>
 5   0  0.6238363E-06  0.2096636E+04  0.7818609E-02  0.8562727E-01
        1   -1    0    0  501    0  0.00000000000E+00  0.00000000000E+00  0.13638704361E+04  0.13638704361E+04  0.50400001928E-02 0.  1.
       -1   -1    0    0    0  501  0.00000000000E+00  0.00000000000E+00 -0.80577375092E+03  0.80577375093E+03  0.50400001928E-02 0. -1.
    10030    2    1    2    0    0  0.00000000000E+00  0.00000000000E+00  0.55809668517E+03  0.21696441870E+04  0.20966363510E+04 0.  0.
        4    1    3    3  502    0  0.61432840857E+03  0.59410741464E+03 -0.34922238316E+03  0.92321227218E+03  0.12699999809E+01 0. -1.
       -4    1    3    3    0  502 -0.61432840857E+03 -0.59410741464E+03  0.90731906832E+03  0.12464319148E+04  0.12699999809E+01 0.  1.
</event>
<event>
 5   0  0.6238363E-06  0.2075930E+04  0.7818609E-02  0.8571921E-01
        1   -1    0    0  501    0  0.00000000000E+00  0.00000000000E+00  0.14669173685E+04  0.14669173685E+04  0.50400001928E-02 0.  1.
       -1   -1    0    0    0  501  0.00000000000E+00  0.00000000000E+00 -0.73444606162E+03  0.73444606164E+03  0.50400001928E-02 0. -1.
    10030    2    1    2    0    0  0.00000000000E+00  0.00000000000E+00  0.73247130685E+03  0.22013634301E+04  0.20759303303E+04 0.  0.
        4    1    3    3  502    0  0.14158550269E+02  0.10236914715E+04  0.54751947170E+03  0.11610012395E+04  0.12699999809E+01 0.  1.
       -4    1    3    3    0  502 -0.14158550269E+02 -0.10236914715E+04  0.18495183515E+03  0.10403621906E+04  0.12699999809E+01 0. -1.
</event>
<event>
 5   0  0.6283269E-06  0.2101648E+04  0.7818609E-02  0.8560518E-01
        1   -1    0    0  501    0  0.00000000000E+00  0.00000000000E+00  0.16071398293E+04  0.16071398293E+04  0.50400001928E-02 0.  1.
       -1   -1    0    0    0  501  0.00000000000E+00  0.00000000000E+00 -0.68707810046E+03  0.68707810048E+03  0.50400001928E-02 0. -1.
    10030    2    1    2    0    0  0.00000000000E+00  0.00000000000E+00  0.92006172888E+03  0.22942179298E+04  0.21016475263E+04 0.  0.
        1    1    3    3  502    0 -0.84081316637E+03  0.22493314695E+03 -0.18270453100E+03  0.88934956401E+03  0.50400001928E-02 0. -1.
       -1    1    3    3    0  502  0.84081316637E+03 -0.22493314695E+03  0.11027662599E+04  0.14048683658E+04  0.50400001928E-02 0.  1.
</event>
<event>
 5   0  0.6917078E-06  0.2100759E+04  0.7818609E-02  0.8560909E-01
       -1   -1    0    0    0  501  0.00000000000E+00  0.00000000000E+00  0.10432108770E+04  0.10432108770E+04  0.50400001928E-02 0.  1.
        1   -1    0    0  501    0  0.00000000000E+00  0.00000000000E+00 -0.10575969048E+04  0.10575969048E+04  0.50400001928E-02 0. -1.
    10030    2    1    2    0    0  0.00000000000E+00  0.00000000000E+00 -0.14386027796E+02  0.21008077818E+04  0.21007585245E+04 0.  0.
        5    1    3    3  502    0 -0.33938851687E+03  0.98591200578E+03  0.11956742746E+03  0.10495358537E+04  0.46999998093E+01 0. -1.
       -5    1    3    3    0  502  0.33938851687E+03 -0.98591200578E+03 -0.13395345526E+03  0.10512719281E+04  0.46999998093E+01 0.  1.
</event>
<event>
 5   0  0.6589193E-06  0.2101509E+04  0.7818609E-02  0.8560579E-01
       -1   -1    0    0    0  501  0.00000000000E+00  0.00000000000E+00  0.43176221501E+03  0.43176221504E+03  0.50400001928E-02 0.  1.
        1   -1    0    0  501    0  0.00000000000E+00  0.00000000000E+00 -0.25571597279E+04  0.25571597279E+04  0.50400001928E-02 0. -1.
    10030    2    1    2    0    0  0.00000000000E+00  0.00000000000E+00 -0.21253975129E+04  0.29889219429E+04  0.21015089325E+04 0.  0.
        3    1    3    3  502    0  0.68429920932E+03  0.62562954913E+03 -0.35956114609E+03  0.99446566989E+03  0.10100000352E+00 0.  1.
       -3    1    3    3    0  502 -0.68429920932E+03 -0.62562954913E+03 -0.17658363668E+04  0.19944562730E+04  0.10100000352E+00 0. -1.
</event>
<event>
 5   0  0.6238363E-06  0.2136159E+04  0.7818609E-02  0.8545480E-01
       -1   -1    0    0    0  501  0.00000000000E+00  0.00000000000E+00  0.10086723119E+04  0.10086723119E+04  0.50400001928E-02 0.  1.
        1   -1    0    0  501    0  0.00000000000E+00  0.00000000000E+00 -0.11309852368E+04  0.11309852368E+04  0.50400001928E-02 0. -1.
    10030    2    1    2    0    0  0.00000000000E+00  0.00000000000E+00 -0.12231292487E+03  0.21396575487E+04  0.21361586959E+04 0.  0.
        4    1    3    3  502    0 -0.87628256254E+02  0.10621451799E+04  0.93917489135E+01  0.10657959056E+04  0.12699999809E+01 0.  1.
       -4    1    3    3    0  502  0.87628256254E+02 -0.10621451799E+04 -0.13170467378E+03  0.10738616431E+04  0.12699999809E+01 0. -1.
</event>
<event>
 5   0  0.6599245E-06  0.2099211E+04  0.7818609E-02  0.8561591E-01
        1   -1    0    0  501    0  0.00000000000E+00  0.00000000000E+00  0.13817843010E+04  0.13817843010E+04  0.50400001928E-02 0.  1.
       -1   -1    0    0    0  501  0.00000000000E+00  0.00000000000E+00 -0.79728171676E+03  0.79728171677E+03  0.50400001928E-02 0. -1.
    10030    2    1    2    0    0  0.00000000000E+00  0.00000000000E+00  0.58450258421E+03  0.21790660177E+04  0.20992106704E+04 0.  0.
        2    1    3    3  502    0  0.29240731635E+03 -0.91304989368E+03 -0.15121106245E+03  0.97058071916E+03  0.25500000920E-02 0. -1.
       -2    1    3    3    0  502 -0.29240731635E+03  0.91304989368E+03  0.73571364666E+03  0.12084852986E+04  0.25500000920E-02 0.  1.
</event>
<event>
 5   0  0.1398469E-05  0.2101757E+04  0.7818609E-02  0.8560470E-01
        2   -1    0    0  501    0  0.00000000000E+00  0.00000000000E+00  0.60285733323E+03  0.60285733324E+03  0.25500000920E-02 0.  1.
       -2   -1    0    0    0  501  0.00000000000E+00  0.00000000000E+00 -0.18318530975E+04  0.18318530975E+04  0.25500000920E-02 0. -1.
    10030    2    1    2    0    0  0.00000000000E+00  0.00000000000E+00 -0.12289957643E+04  0.24347104307E+04  0.21017574296E+04 0.  0.
        2    1    3    3  502    0 -0.50815629194E+03  0.46008338458E+03 -0.15372015354E+04  0.16831185633E+04  0.25500000920E-02 0. -1.
       -2    1    3    3    0  502  0.50815629194E+03 -0.46008338458E+03  0.30820577112E+03  0.75159186741E+03  0.25500000920E-02 0.  1.
</event>
<event>
 5   0  0.6589193E-06  0.2099558E+04  0.7818609E-02  0.8561438E-01
        1   -1    0    0  501    0  0.00000000000E+00  0.00000000000E+00  0.12149345323E+04  0.12149345323E+04  0.50400001928E-02 0.  1.
       -1   -1    0    0    0  501  0.00000000000E+00  0.00000000000E+00 -0.90707397255E+03  0.90707397257E+03  0.50400001928E-02 0. -1.
    10030    2    1    2    0    0  0.00000000000E+00  0.00000000000E+00  0.30786055976E+03  0.21220085049E+04  0.20995575654E+04 0.  0.
        3    1    3    3  502    0 -0.89212467440E+03 -0.55151119877E+03  0.19895374430E+03  0.10675362475E+04  0.10100000352E+00 0. -1.
       -3    1    3    3    0  502  0.89212467440E+03  0.55151119877E+03  0.10890681546E+03  0.10544722574E+04  0.10100000352E+00 0.  1.
</event>
<event>
 5   0  0.6283269E-06  0.2099359E+04  0.7818609E-02  0.8561526E-01
       -1   -1    0    0    0  501  0.00000000000E+00  0.00000000000E+00  0.14535093045E+04  0.14535093045E+04  0.50400001928E-02 0.  1.
        1   -1    0    0  501    0  0.00000000000E+00  0.00000000000E+00 -0.75804617633E+03  0.75804617635E+03  0.50400001928E-02 0. -1.
    10030    2    1    2    0    0  0.00000000000E+00  0.00000000000E+00  0.69546312820E+03  0.22115554809E+04  0.20993591123E+04 0.  0.
        1    1    3    3  502    0  0.39485764754E+03  0.74069037006E+03 -0.31626560005E+03  0.89697197053E+03  0.50400001928E-02 0. -1.
       -1    1    3    3    0  502 -0.39485764754E+03 -0.74069037006E+03  0.10117287283E+04  0.13145835104E+04  0.50400001928E-02 0.  1.
</event>
<event>
 5   0  0.1398469E-05  0.2035495E+04  0.7818609E-02  0.8590203E-01
       -2   -1    0    0    0  501  0.00000000000E+00  0.00000000000E+00  0.98032650487E+03  0.98032650487E+03  0.25500000920E-02 0. -1.
        2   -1    0    0  501    0  0.00000000000E+00  0.00000000000E+00 -0.10565966764E+04  0.10565966764E+04  0.25500000920E-02 0.  1.
    10030    2    1    2    0    0  0.00000000000E+00  0.00000000000E+00 -0.76270171539E+02  0.20369231813E+04  0.20354947574E+04 0.  0.
        2    1    3    3  502    0 -0.26200037424E+02  0.59882572266E+03 -0.86122736098E+03  0.10492813042E+04  0.25500000920E-02 0.  1.
       -2    1    3    3    0  502  0.26200037424E+02 -0.59882572266E+03  0.78495718944E+03  0.98764187707E+03  0.25500000920E-02 0. -1.
</event>
<event>
 5   0  0.6599245E-06  0.2108640E+04  0.7818609E-02  0.8557447E-01
        1   -1    0    0  501    0  0.00000000000E+00  0.00000000000E+00  0.62998874813E+03  0.62998874815E+03  0.50400001928E-02 0. -1.
       -1   -1    0    0    0  501  0.00000000000E+00  0.00000000000E+00 -0.17644610705E+04  0.17644610705E+04  0.50400001928E-02 0.  1.
    10030    2    1    2    0    0  0.00000000000E+00  0.00000000000E+00 -0.11344723224E+04  0.23944498186E+04  0.21086399607E+04 0.  0.
        2    1    3    3  502    0  0.10297354813E+04  0.22627263580E+03 -0.57406394536E+03  0.12004598621E+04  0.25500000920E-02 0.  1.
       -2    1    3    3    0  502 -0.10297354813E+04 -0.22627263580E+03 -0.56040837700E+03  0.11939899565E+04  0.25500000920E-02 0. -1.
</event>
<event>
 5   0  0.6589193E-06  0.2105415E+04  0.7818609E-02  0.8558862E-01
       -1   -1    0    0    0  501  0.00000000000E+00  0.00000000000E+00  0.90926224708E+03  0.90926224709E+03  0.50400001928E-02 0.  1.
        1   -1    0    0  501    0  0.00000000000E+00  0.00000000000E+00 -0.12187830999E+04  0.12187831000E+04  0.50400001928E-02 0. -1.
    10030    2    1    2    0    0  0.00000000000E+00  0.00000000000E+00 -0.30952085286E+03  0.21280453470E+04  0.21054153606E+04 0.  0.
        3    1    3    3  502    0 -0.73687227689E+03 -0.64457785703E+03 -0.54587187194E+03  0.11209092189E+04  0.10100000352E+00 0. -1.
       -3    1    3    3    0  502  0.73687227689E+03  0.64457785703E+03  0.23635101907E+03  0.10071361282E+04  0.10100000352E+00 0.  1.
</event>
<event>
 5   0  0.1395356E-05  0.2098805E+04  0.7818609E-02  0.8561770E-01
       -2   -1    0    0    0  501  0.00000000000E+00  0.00000000000E+00  0.10899516103E+04  0.10899516103E+04  0.25500000920E-02 0.  1.
        2   -1    0    0  501    0  0.00000000000E+00  0.00000000000E+00 -0.10103615940E+04  0.10103615940E+04  0.25500000920E-02 0. -1.
    10030    2    1    2    0    0  0.00000000000E+00  0.00000000000E+00  0.79590016343E+02  0.21003132043E+04  0.20988046563E+04 0.  0.
        1    1    3    3  502    0 -0.54916270078E+03  0.71398544068E+03  0.57859667940E+03  0.10705741445E+04  0.50400001928E-02 0.  1.
       -1    1    3    3    0  502  0.54916270078E+03 -0.71398544068E+03 -0.49900666305E+03  0.10297390598E+04  0.50400001928E-02 0. -1.
</event>
<event>
 5   0  0.1398469E-05  0.2101601E+04  0.7818609E-02  0.8560538E-01
        2   -1    0    0  501    0  0.00000000000E+00  0.00000000000E+00  0.21787036148E+04  0.21787036148E+04  0.25500000920E-02 0. -1.
       -2   -1    0    0    0  501  0.00000000000E+00  0.00000000000E+00 -0.50680694018E+03  0.50680694019E+03  0.25500000920E-02 0.  1.
    10030    2    1    2    0    0  0.00000000000E+00  0.00000000000E+00  0.16718966746E+04  0.26855105550E+04  0.21016014014E+04 0.  0.
        2    1    3    3  502    0 -0.10855664368E+03 -0.50503712308E+03 -0.33335221638E+03  0.61479325041E+03  0.25500000920E-02 0.  1.
       -2    1    3    3    0  502  0.10855664368E+03  0.50503712308E+03  0.20052488910E+04  0.20707173046E+04  0.25500000920E-02 0. -1.
</event>
<event>
 5   0  0.1441136E-05  0.2094666E+04  0.7818609E-02  0.8563597E-01
        2   -1    0    0  501    0  0.00000000000E+00  0.00000000000E+00  0.99977429695E+03  0.99977429695E+03  0.25500000920E-02 0. -1.
       -2   -1    0    0    0  501  0.00000000000E+00  0.00000000000E+00 -0.10971543575E+04  0.10971543575E+04  0.25500000920E-02 0.  1.
    10030    2    1    2    0    0  0.00000000000E+00  0.00000000000E+00 -0.97380060549E+02  0.20969286545E+04  0.20946662994E+04 0.  0.
        4    1    3    3  502    0  0.99107179598E+03  0.38879305999E+02  0.28808110930E+03  0.10328248853E+04  0.12699999809E+01 0. -1.
       -4    1    3    3    0  502 -0.99107179598E+03 -0.38879305999E+02 -0.38546116985E+03  0.10641037692E+04  0.12699999809E+01 0.  1.
</event>
<event>
 5   0  0.1390735E-05  0.2101507E+04  0.7818609E-02  0.8560580E-01
        2   -1    0    0  501    0  0.00000000000E+00  0.00000000000E+00  0.24849337423E+04  0.24849337423E+04  0.25500000920E-02 0.  1.
       -2   -1    0    0    0  501  0.00000000000E+00  0.00000000000E+00 -0.44431079005E+03  0.44431079006E+03  0.25500000920E-02 0. -1.
    10030    2    1    2    0    0  0.00000000000E+00  0.00000000000E+00  0.20406229522E+04  0.29292445323E+04  0.21015069586E+04 0.  0.
        5    1    3    3  502    0 -0.25257642872E+03  0.10031004426E+04  0.12775393361E+04  0.16438169593E+04  0.46999998093E+01 0.  1.
       -5    1    3    3    0  502  0.25257642872E+03 -0.10031004426E+04  0.76308361618E+03  0.12854275731E+04  0.46999998093E+01 0. -1.
</event>
<event>
 5   0  0.1441136E-05  0.2098162E+04  0.7818609E-02  0.8562054E-01
       -2   -1    0    0    0  501  0.00000000000E+00  0.00000000000E+00  0.91202183812E+03  0.91202183812E+03  0.25500000920E-02 0. -1.
        2   -1    0    0  501    0  0.00000000000E+00  0.00000000000E+00 -0.12067370994E+04  0.12067370994E+04  0.25500000920E-02 0.  1.
    10030    2    1    2    0    0  0.00000000000E+00  0.00000000000E+00 -0.29471526126E+03  0.21187589375E+04  0.20981616596E+04 0.  0.
        4    1    3    3  502    0 -0.12924327749E+03 -0.22783057402E+03  0.87846834436E+03  0.91668906406E+03  0.12699999809E+01 0. -1.
       -4    1    3    3    0  502  0.12924327749E+03  0.22783057402E+03 -0.11731836056E+04  0.12020698734E+04  0.12699999809E+01 0.  1.
</event>
<event>
 5   0  0.1395356E-05  0.2099953E+04  0.7818609E-02  0.8561264E-01
       -2   -1    0    0    0  501  0.00000000000E+00  0.00000000000E+00  0.55748659499E+03  0.55748659500E+03  0.25500000920E-02 0. -1.
        2   -1    0    0  501    0  0.00000000000E+00  0.00000000000E+00 -0.19775371377E+04  0.19775371377E+04  0.25500000920E-02 0.  1.
    10030    2    1    2    0    0  0.00000000000E+00  0.00000000000E+00 -0.14200505427E+04  0.25350237327E+04  0.20999528046E+04 0.  0.
        1    1    3    3  502    0 -0.88984077021E+03 -0.30414653344E+03 -0.14622025473E+03  0.95168380939E+03  0.50400001928E-02 0. -1.
       -1    1    3    3    0  502  0.88984077021E+03  0.30414653344E+03 -0.12738302879E+04  0.15833399233E+04  0.50400001928E-02 0.  1.
</event>
<event>
 5   0  0.6599245E-06  0.2104190E+04  0.7818609E-02  0.8559400E-01
        1   -1    0    0  501    0  0.00000000000E+00  0.00000000000E+00  0.10255686641E+04  0.10255686642E+04  0.50400001928E-02 0.  1.
       -1   -1    0    0    0  501  0.00000000000E+00  0.00000000000E+00 -0.10793072723E+04  0.10793072723E+04  0.50400001928E-02 0. -1.
    10030    2    1    2    0    0  0.00000000000E+00  0.00000000000E+00 -0.53738608113E+02  0.21048759364E+04  0.21041898369E+04 0.  0.
        2    1    3    3  502    0  0.56305313356E+03  0.88867813135E+03 -0.38100835585E+02  0.10527247152E+04  0.25500000920E-02 0. -1.
       -2    1    3    3    0  502 -0.56305313356E+03 -0.88867813135E+03 -0.15637772528E+02  0.10521512212E+04  0.25500000920E-02 0.  1.
</event>
<event>
 5   0  0.1398469E-05  0.2099570E+04  0.7818609E-02  0.8561433E-01
        2   -1    0    0  501    0  0.00000000000E+00  0.00000000000E+00  0.13994135209E+04  0.13994135209E+04  0.25500000920E-02 0. -1.
       -2   -1    0    0    0  501  0.00000000000E+00  0.00000000000E+00 -0.78750712053E+03  0.78750712053E+03  0.25500000920E-02 0.  1.
    10030    2    1    2    0    0  0.00000000000E+00  0.00000000000E+00  0.61190640035E+03  0.21869206414E+04  0.20995695866E+04 0.  0.
        2    1    3    3  502    0  0.30341434246E+02  0.65044826618E+03  0.11636462076E+04  0.13334451793E+04  0.25500000920E-02 0. -1.
       -2    1    3    3    0  502 -0.30341434246E+02 -0.65044826618E+03 -0.55173980724E+03  0.85347546216E+03  0.25500000920E-02 0.  1.
</event>
<event>
 5   0  0.1344501E-05  0.2101801E+04  0.7818609E-02  0.8560450E-01
        2   -1    0    0  501    0  0.00000000000E+00  0.00000000000E+00  0.12936593757E+04  0.12936593757E+04  0.25500000920E-02 0.  1.
       -2   -1    0    0    0  501  0.00000000000E+00  0.00000000000E+00 -0.85369639085E+03  0.85369639086E+03  0.25500000920E-02 0. -1.
    10030    2    1    2    0    0  0.00000000000E+00  0.00000000000E+00  0.43996298480E+03  0.21473557665E+04  0.21018014559E+04 0.  0.
        3    1    3    3  502    0  0.78426465248E+03 -0.69921186268E+03  0.24102042928E+03  0.10779884654E+04  0.10100000352E+00 0. -1.
       -3    1    3    3    0  502 -0.78426465248E+03  0.69921186268E+03  0.19894255551E+03  0.10693673011E+04  0.10100000352E+00 0.  1.
</event>
<event>
 5   0  0.1390735E-05  0.2103343E+04  0.7818609E-02  0.8559772E-01
        2   -1    0    0  501    0  0.00000000000E+00  0.00000000000E+00  0.85716869089E+03  0.85716869089E+03  0.25500000920E-02 0. -1.
       -2   -1    0    0    0  501  0.00000000000E+00  0.00000000000E+00 -0.12903098624E+04  0.12903098624E+04  0.25500000920E-02 0.  1.
    10030    2    1    2    0    0  0.00000000000E+00  0.00000000000E+00 -0.43314117149E+03  0.21474785533E+04  0.21033432583E+04 0.  0.
        5    1    3    3  502    0 -0.10114183258E+03 -0.87987421185E+03  0.36241147211E+03  0.95696001175E+03  0.46999998093E+01 0. -1.
       -5    1    3    3    0  502  0.10114183258E+03  0.87987421185E+03 -0.79555264361E+03  0.11905185415E+04  0.46999998093E+01 0.  1.
</event>
<event>
 5   0  0.1395356E-05  0.2097074E+04  0.7818609E-02  0.8562533E-01
        2   -1    0    0  501    0  0.00000000000E+00  0.00000000000E+00  0.18813746631E+04  0.18813746631E+04  0.25500000920E-02 0. -1.
       -2   -1    0    0    0  501  0.00000000000E+00  0.00000000000E+00 -0.58437597969E+03  0.58437597970E+03  0.25500000920E-02 0.  1.
    10030    2    1    2    0    0  0.00000000000E+00  0.00000000000E+00  0.12969986834E+04  0.24657506428E+04  0.20970743067E+04 0.  0.
        1    1    3    3  502    0  0.67811562028E+03 -0.62369639135E+03  0.59900921892E+02  0.92326924758E+03  0.50400001928E-02 0. -1.
       -1    1    3    3    0  502 -0.67811562028E+03  0.62369639135E+03  0.12370977616E+04  0.15424813953E+04  0.50400001928E-02 0.  1.
</event>
<event>
 5   0  0.6283269E-06  0.2097657E+04  0.7818609E-02  0.8562276E-01
       -1   -1    0    0    0  501  0.00000000000E+00  0.00000000000E+00  0.11036290931E+04  0.11036290931E+04  0.50400001928E-02 0.  1.
        1   -1    0    0  501    0  0.00000000000E+00  0.00000000000E+00 -0.99674922310E+03  0.99674922311E+03  0.50400001928E-02 0. -1.
    10030    2    1    2    0    0  0.00000000000E+00  0.00000000000E+00  0.10687987001E+03  0.21003783162E+04  0.20976572086E+04 0.  0.
        1    1    3    3  502    0 -0.64970457889E+03  0.34377134910E+02 -0.77027149116E+03  0.10082737710E+04  0.50400001928E-02 0. -1.
       -1    1    3    3    0  502  0.64970457889E+03 -0.34377134910E+02  0.87715136117E+03  0.10921045452E+04  0.50400001928E-02 0.  1.
</event>
<event>
 5   0  0.1398469E-05  0.2099765E+04  0.7818609E-02  0.8561347E-01
       -2   -1    0    0    0  501  0.00000000000E+00  0.00000000000E+00  0.14658602919E+04  0.14658602919E+04  0.25500000920E-02 0. -1.
        2   -1    0    0  501    0  0.00000000000E+00  0.00000000000E+00 -0.75195009410E+03  0.75195009410E+03  0.25500000920E-02 0.  1.
    10030    2    1    2    0    0  0.00000000000E+00  0.00000000000E+00  0.71391019784E+03  0.22178103860E+04  0.20997654959E+04 0.  0.
        2    1    3    3  502    0  0.71527848095E+03 -0.76850194788E+03  0.35068546221E+03  0.11068870053E+04  0.25500000920E-02 0.  1.
       -2    1    3    3    0  502 -0.71527848095E+03  0.76850194788E+03  0.36322473563E+03  0.11109233807E+04  0.25500000920E-02 0. -1.
</event>
<event>
 5   0  0.6589193E-06  0.2100566E+04  0.7818609E-02  0.8560994E-01
       -1   -1    0    0    0  501  0.00000000000E+00  0.00000000000E+00  0.61251851216E+03  0.61251851218E+03  0.50400001928E-02 0.  1.
        1   -1    0    0  501    0  0.00000000000E+00  0.00000000000E+00 -0.18009166389E+04  0.18009166390E+04  0.50400001928E-02 0. -1.
    10030    2    1    2    0    0  0.00000000000E+00  0.00000000000E+00 -0.11883981268E+04  0.24134351511E+04  0.21005663810E+04 0.  0.
        3    1    3    3  502    0 -0.54261100152E+03 -0.67025705863E+03  0.94615762072E+02  0.86753868862E+03  0.10100000352E+00 0. -1.
       -3    1    3    3    0  502  0.54261100152E+03  0.67025705863E+03 -0.12830138889E+04  0.15458964625E+04  0.10100000352E+00 0.  1.
</event>
<event>
 5   0  0.1390735E-05  0.2097660E+04  0.7818609E-02  0.8562275E-01
        2   -1    0    0  501    0  0.00000000000E+00  0.00000000000E+00  0.21896606423E+04  0.21896606423E+04  0.25500000920E-02 0. -1.
       -2   -1    0    0    0  501  0.00000000000E+00  0.00000000000E+00 -0.50238120830E+03  0.50238120830E+03  0.25500000920E-02 0.  1.
    10030    2    1    2    0    0  0.00000000000E+00  0.00000000000E+00  0.16872794340E+04  0.26920418507E+04  0.20976599908E+04 0.  0.
        5    1    3    3  502    0  0.56048944909E+03 -0.34762135535E+03  0.18902099756E+04  0.20019752423E+04  0.46999998093E+01 0. -1.
       -5    1    3    3    0  502 -0.56048944909E+03  0.34762135535E+03 -0.20293054151E+03  0.69006660831E+03  0.46999998093E+01 0.  1.
</event>
<event>
 5   0  0.6599245E-06  0.2101953E+04  0.7818609E-02  0.8560384E-01
       -1   -1    0    0    0  501  0.00000000000E+00  0.00000000000E+00  0.20631325934E+04  0.20631325934E+04  0.50400001928E-02 0. -1.
        1   -1    0    0  501    0  0.00000000000E+00  0.00000000000E+00 -0.53537574705E+03  0.53537574708E+03  0.50400001928E-02 0.  1.
    10030    2    1    2    0    0  0.00000000000E+00  0.00000000000E+00  0.15277568463E+04  0.25985083405E+04  0.21019525718E+04 0.  0.
        2    1    3    3  502    0 -0.69825240696E+03 -0.27701345073E+02 -0.20656828872E+03  0.72869352011E+03  0.25500000920E-02 0.  1.
       -2    1    3    3    0  502  0.69825240696E+03  0.27701345073E+02  0.17343251350E+04  0.18698148203E+04  0.25500000920E-02 0. -1.
</event>
<event>
 5   0  0.1441136E-05  0.2099584E+04  0.7818609E-02  0.8561426E-01
        2   -1    0    0  501    0  0.00000000000E+00  0.00000000000E+00  0.15141795672E+04  0.15141795672E+04  0.25500000920E-02 0.  1.
       -2   -1    0    0    0  501  0.00000000000E+00  0.00000000000E+00 -0.72782897845E+03  0.72782897846E+03  0.25500000920E-02 0. -1.
    10030    2    1    2    0    0  0.00000000000E+00  0.00000000000E+00  0.78635058871E+03  0.22420085456E+04  0.20995844994E+04 0.  0.
        4    1    3    3  502    0 -0.79048940868E+03  0.62105242542E+03  0.71615333785E+03  0.12342839368E+04  0.12699999809E+01 0.  1.
       -4    1    3    3    0  502  0.79048940868E+03 -0.62105242542E+03  0.70197250863E+02  0.10077246089E+04  0.12699999809E+01 0. -1.
</event>
<event>
 5   0  0.6283269E-06  0.2100888E+04  0.7818609E-02  0.8560852E-01
       -1   -1    0    0    0  501  0.00000000000E+00  0.00000000000E+00  0.44484295266E+03  0.44484295269E+03  0.50400001928E-02 0. -1.
        1   -1    0    0  501    0  0.00000000000E+00  0.00000000000E+00 -0.24804999315E+04  0.24804999315E+04  0.50400001928E-02 0.  1.
    10030    2    1    2    0    0  0.00000000000E+00  0.00000000000E+00 -0.20356569788E+04  0.29253428842E+04  0.21008883013E+04 0.  0.
        1    1    3    3  502    0 -0.98894974206E+03  0.69639840138E+02 -0.53434868063E+03  0.11262325746E+04  0.50400001928E-02 0. -1.
       -1    1    3    3    0  502  0.98894974206E+03 -0.69639840138E+02 -0.15013082982E+04  0.17991103095E+04  0.50400001928E-02 0.  1.
</event>
<event>
 5   0  0.1395356E-05  0.2090713E+04  0.7818609E-02  0.8565345E-01
       -2   -1    0    0    0  501  0.00000000000E+00  0.00000000000E+00  0.12569565222E+04  0.12569565222E+04  0.25500000920E-02 0.  1.
        2   -1    0    0  501    0  0.00000000000E+00  0.00000000000E+00 -0.86937783635E+03  0.86937783635E+03  0.25500000920E-02 0. -1.
    10030    2    1    2    0    0  0.00000000000E+00  0.00000000000E+00  0.38757868586E+03  0.21263343586E+04  0.20907129326E+04 0.  0.
        1    1    3    3  502    0  0.51306482444E+03 -0.78787360701E+03  0.65850980738E+03  0.11478743403E+04  0.50400001928E-02 0.  1.
       -1    1    3    3    0  502 -0.51306482444E+03  0.78787360701E+03 -0.27093112151E+03  0.97846001826E+03  0.50400001928E-02 0. -1.
</event>
<event>
 5   0  0.6238363E-06  0.2090998E+04  0.7818609E-02  0.8565219E-01
        1   -1    0    0  501    0  0.00000000000E+00  0.00000000000E+00  0.14439727734E+04  0.14439727734E+04  0.50400001928E-02 0.  1.
       -1   -1    0    0    0  501  0.00000000000E+00  0.00000000000E+00 -0.75698672085E+03  0.75698672087E+03  0.50400001928E-02 0. -1.
    10030    2    1    2    0    0  0.00000000000E+00  0.00000000000E+00  0.68698605256E+03  0.22009594943E+04  0.20909980533E+04 0.  0.
        4    1    3    3  502    0  0.71910099847E+02 -0.32056296224E+03 -0.70124229960E+03  0.77438624140E+03  0.12699999809E+01 0. -1.
       -4    1    3    3    0  502 -0.71910099847E+02  0.32056296224E+03  0.13882283522E+04  0.14265732529E+04  0.12699999809E+01 0.  1.
</event>
<event>
 5   0  0.5009125E-06  0.2080197E+04  0.7818609E-02  0.8570017E-01
       -3   -1    0    0    0  501  0.00000000000E+00  0.00000000000E+00  0.21676774861E+04  0.21676774884E+04  0.10100000352E+00 0.  1.
        3   -1    0    0  501    0  0.00000000000E+00  0.00000000000E+00 -0.49906184646E+03  0.49906185668E+03  0.10100000352E+00 0. -1.
    10030    2    1    2    0    0  0.00000000000E+00  0.00000000000E+00  0.16686156396E+04  0.26667393451E+04  0.20801972459E+04 0.  0.
        5    1    3    3  502    0 -0.21736761167E+03  0.89801758090E+03  0.22204547136E+03  0.95026866494E+03  0.46999998093E+01 0. -1.
       -5    1    3    3    0  502  0.21736761167E+03 -0.89801758090E+03  0.14465701683E+04  0.17164706802E+04  0.46999998093E+01 0.  1.
</event>
<event>
 5   0  0.1344501E-05  0.2103229E+04  0.7818609E-02  0.8559822E-01
        2   -1    0    0  501    0  0.00000000000E+00  0.00000000000E+00  0.12886310738E+04  0.12886310738E+04  0.25500000920E-02 0.  1.
       -2   -1    0    0    0  501  0.00000000000E+00  0.00000000000E+00 -0.85819208291E+03  0.85819208291E+03  0.25500000920E-02 0. -1.
    10030    2    1    2    0    0  0.00000000000E+00  0.00000000000E+00  0.43043899086E+03  0.21468231567E+04  0.21032289322E+04 0.  0.
        3    1    3    3  502    0 -0.14247637376E+03 -0.27793523666E+03  0.12401971511E+04  0.12789200509E+04  0.10100000352E+00 0.  1.
       -3    1    3    3    0  502  0.14247637376E+03  0.27793523666E+03 -0.80975816020E+03  0.86790310580E+03  0.10100000352E+00 0. -1.
</event>
<event>
 5   0  0.6589193E-06  0.2102319E+04  0.7818609E-02  0.8560222E-01
        1   -1    0    0  501    0  0.00000000000E+00  0.00000000000E+00  0.12328348886E+04  0.12328348886E+04  0.50400001928E-02 0.  1.
       -1   -1    0    0    0  501  0.00000000000E+00  0.00000000000E+00 -0.89625675839E+03  0.89625675841E+03  0.50400001928E-02 0. -1.
    10030    2    1    2    0    0  0.00000000000E+00  0.00000000000E+00  0.33657813017E+03  0.21290916470E+04  0.21023192915E+04 0.  0.
        3    1    3    3  502    0  0.55835787174E+03  0.82515263965E+03 -0.17108465487E+03  0.10108958210E+04  0.10100000352E+00 0.  1.
       -3    1    3    3    0  502 -0.55835787174E+03 -0.82515263965E+03  0.50766278504E+03  0.11181958259E+04  0.10100000352E+00 0. -1.
</event>
<event>
 5   0  0.1395356E-05  0.2100951E+04  0.7818609E-02  0.8560824E-01
        2   -1    0    0  501    0  0.00000000000E+00  0.00000000000E+00  0.28284450130E+04  0.28284450130E+04  0.25500000920E-02 0.  1.
       -2   -1    0    0    0  501  0.00000000000E+00  0.00000000000E+00 -0.39014338319E+03  0.39014338320E+03  0.25500000920E-02 0. -1.
    10030    2    1    2    0    0  0.00000000000E+00  0.00000000000E+00  0.24383016298E+04  0.32185883962E+04  0.21009513146E+04 0.  0.
        1    1    3    3  502    0  0.38419402869E+03 -0.22259986442E+02  0.27165643040E+04  0.27436876966E+04  0.50400001928E-02 0.  1.
       -1    1    3    3    0  502 -0.38419402869E+03  0.22259986442E+02 -0.27826267415E+03  0.47490069965E+03  0.50400001928E-02 0. -1.
</event>
<event>
 5   0  0.6238363E-06  0.2107396E+04  0.7818609E-02  0.8557992E-01
       -1   -1    0    0    0  501  0.00000000000E+00  0.00000000000E+00  0.48652754578E+03  0.48652754581E+03  0.50400001928E-02 0.  1.
        1   -1    0    0  501    0  0.00000000000E+00  0.00000000000E+00 -0.22820488585E+04  0.22820488586E+04  0.50400001928E-02 0. -1.
    10030    2    1    2    0    0  0.00000000000E+00  0.00000000000E+00 -0.17955213128E+04  0.27685764044E+04  0.21073961474E+04 0.  0.
        4    1    3    3  502    0  0.77422664535E+03  0.19931170334E+03 -0.17994954993E+04  0.19690956601E+04  0.12699999809E+01 0. -1.
       -4    1    3    3    0  502 -0.77422664535E+03 -0.19931170334E+03  0.39741865648E+01  0.79948074431E+03  0.12699999809E+01 0.  1.
</event>
<event>
 5   0  0.1344501E-05  0.2090540E+04  0.7818609E-02  0.8565422E-01
       -2   -1    0    0    0  501  0.00000000000E+00  0.00000000000E+00  0.97814908374E+03  0.97814908374E+03  0.25500000920E-02 0.  1.
        2   -1    0    0  501    0  0.00000000000E+00  0.00000000000E+00 -0.11169967447E+04  0.11169967447E+04  0.25500000920E-02 0. -1.
    10030    2    1    2    0    0  0.00000000000E+00  0.00000000000E+00 -0.13884766098E+03  0.20951458285E+04  0.20905399708E+04 0.  0.
        3    1    3    3  502    0  0.45295174428E+03 -0.90297209516E+03 -0.33846535611E+03  0.10654025975E+04  0.10100000352E+00 0.  1.
       -3    1    3    3    0  502 -0.45295174428E+03  0.90297209516E+03  0.19961769514E+03  0.10297432310E+04  0.10100000352E+00 0. -1.
</event>
<event>
 5   0  0.6238363E-06  0.2105612E+04  0.7818609E-02  0.8558775E-01
       -1   -1    0    0    0  501  0.00000000000E+00  0.00000000000E+00  0.13462777800E+04  0.13462777800E+04  0.50400001928E-02 0.  1.
        1   -1    0    0  501    0  0.00000000000E+00  0.00000000000E+00 -0.82330705641E+03  0.82330705643E+03  0.50400001928E-02 0. -1.
    10030    2    1    2    0    0  0.00000000000E+00  0.00000000000E+00  0.52297072356E+03  0.21695848364E+04  0.21056115465E+04 0.  0.
        4    1    3    3  502    0 -0.82419277207E+03  0.63294056522E+03  0.43540613489E+03  0.11267154032E+04  0.12699999809E+01 0.  1.
       -4    1    3    3    0  502  0.82419277207E+03 -0.63294056522E+03  0.87564588676E+02  0.10428694332E+04  0.12699999809E+01 0. -1.
</event>
<event>
 5   0  0.6917078E-06  0.2097536E+04  0.7818609E-02  0.8562329E-01
       -1   -1    0    0    0  501  0.00000000000E+00  0.00000000000E+00  0.56615920795E+03  0.56615920798E+03  0.50400001928E-02 0. -1.
        1   -1    0    0  501    0  0.00000000000E+00  0.00000000000E+00 -0.19427658373E+04  0.19427658373E+04  0.50400001928E-02 0.  1.
    10030    2    1    2    0    0  0.00000000000E+00  0.00000000000E+00 -0.13766066294E+04  0.25089250453E+04  0.20975364290E+04 0.  0.
        5    1    3    3  502    0  0.89016353933E+03 -0.29577152936E+03 -0.12493642074E+04  0.15623075680E+04  0.46999998093E+01 0.  1.
       -5    1    3    3    0  502 -0.89016353933E+03  0.29577152936E+03 -0.12724242194E+03  0.94661747727E+03  0.46999998093E+01 0. -1.
</event>
<event>
 5   0  0.6238363E-06  0.2103830E+04  0.7818609E-02  0.8559558E-01
        1   -1    0    0  501    0  0.00000000000E+00  0.00000000000E+00  0.24203399936E+04  0.24203399936E+04  0.50400001928E-02 0. -1.
       -1   -1    0    0    0  501  0.00000000000E+00  0.00000000000E+00 -0.45717749368E+03  0.45717749371E+03  0.50400001928E-02 0.  1.
    10030    2    1    2    0    0  0.00000000000E+00  0.00000000000E+00  0.19631624999E+04  0.28775174873E+04  0.21038298146E+04 0.  0.
        4    1    3    3  502    0  0.10192945845E+04  0.27681109985E+02  0.13350748103E+04  0.16799268007E+04  0.12699999809E+01 0. -1.
       -4    1    3    3    0  502 -0.10192945845E+04 -0.27681109985E+02  0.62808768958E+03  0.11975906865E+04  0.12699999809E+01 0.  1.
</event>
<event>
 5   0  0.6589193E-06  0.2101282E+04  0.7818609E-02  0.8560679E-01
        1   -1    0    0  501    0  0.00000000000E+00  0.00000000000E+00  0.20083661930E+04  0.20083661930E+04  0.50400001928E-02 0. -1.
       -1   -1    0    0    0  501  0.00000000000E+00  0.00000000000E+00 -0.54962425026E+03  0.54962425028E+03  0.50400001928E-02 0.  1.
    10030    2    1    2    0    0  0.00000000000E+00  0.00000000000E+00  0.14587419428E+04  0.25579904433E+04  0.21012822401E+04 0.  0.
        3    1    3    3  502    0  0.17077408230E+03 -0.76624020871E+03  0.15793888798E+04  0.17637338486E+04  0.10100000352E+00 0. -1.
       -3    1    3    3    0  502 -0.17077408230E+03  0.76624020871E+03 -0.12064693709E+03  0.79425659472E+03  0.10100000352E+00 0.  1.
</event>
<event>
 5   0  0.1398469E-05  0.2098633E+04  0.7818609E-02  0.8561846E-01
        2   -1    0    0  501    0  0.00000000000E+00  0.00000000000E+00  0.50985616102E+03  0.50985616103E+03  0.25500000920E-02 0. -1.
       -2   -1    0    0    0  501  0.00000000000E+00  0.00000000000E+00 -0.21595594560E+04  0.21595594560E+04  0.25500000920E-02 0.  1.
    10030    2    1    2    0    0  0.00000000000E+00  0.00000000000E+00 -0.16497032949E+04  0.26694156170E+04  0.20986325964E+04 0.  0.
        2    1    3    3  502    0  0.45682630554E+03 -0.40117195722E+03 -0.19126985878E+04  0.20069990285E+04  0.25500000920E-02 0.  1.
       -2    1    3    3    0  502 -0.45682630554E+03  0.40117195722E+03  0.26299529281E+03  0.66241658851E+03  0.25500000920E-02 0. -1.
</event>
<event>
 5   0  0.1441136E-05  0.2096252E+04  0.7818609E-02  0.8562896E-01
        2   -1    0    0  501    0  0.00000000000E+00  0.00000000000E+00  0.17480205056E+04  0.17480205056E+04  0.25500000920E-02 0.  1.
       -2   -1    0    0    0  501  0.00000000000E+00  0.00000000000E+00 -0.62846435190E+03  0.62846435190E+03  0.25500000920E-02 0. -1.
    10030    2    1    2    0    0  0.00000000000E+00  0.00000000000E+00  0.11195561537E+04  0.23764848575E+04  0.20962524410E+04 0.  0.
        4    1    3    3  502    0  0.41764107865E+02  0.88240347875E+03 -0.79710165621E+02  0.88698109530E+03  0.12699999809E+01 0. -1.
       -4    1    3    3    0  502 -0.41764107865E+02 -0.88240347875E+03  0.11992663193E+04  0.14895037622E+04  0.12699999809E+01 0.  1.
</event>
<event>
 5   0  0.1344501E-05  0.2147854E+04  0.7818609E-02  0.8540452E-01
        2   -1    0    0  501    0  0.00000000000E+00  0.00000000000E+00  0.25404331817E+04  0.25404331817E+04  0.25500000920E-02 0. -1.
       -2   -1    0    0    0  501  0.00000000000E+00  0.00000000000E+00 -0.45398509831E+03  0.45398509832E+03  0.25500000920E-02 0.  1.
    10030    2    1    2    0    0  0.00000000000E+00  0.00000000000E+00  0.20864480834E+04  0.29944182800E+04  0.21478536335E+04 0.  0.
        3    1    3    3  502    0  0.21402494175E+03  0.74473046637E+03  0.65872428033E+01  0.77490228106E+03  0.10100000352E+00 0.  1.
       -3    1    3    3    0  502 -0.21402494175E+03 -0.74473046637E+03  0.20798608405E+04  0.22195159989E+04  0.10100000352E+00 0. -1.
</event>
<event>
 5   0  0.1390735E-05  0.2087116E+04  0.7818609E-02  0.8566940E-01
       -2   -1    0    0    0  501  0.00000000000E+00  0.00000000000E+00  0.63898227683E+03  0.63898227683E+03  0.25500000920E-02 0.  1.
        2   -1    0    0  501    0  0.00000000000E+00  0.00000000000E+00 -0.17042933429E+04  0.17042933429E+04  0.25500000920E-02 0. -1.
    10030    2    1    2    0    0  0.00000000000E+00  0.00000000000E+00 -0.10653110660E+04  0.23432756197E+04  0.20871159437E+04 0.  0.
        5    1    3    3  502    0 -0.48711269917E+03  0.81432015892E+03 -0.10202311068E+04  0.13933017276E+04  0.46999998093E+01 0. -1.
       -5    1    3    3    0  502  0.48711269917E+03 -0.81432015892E+03 -0.45079959248E+02  0.94997389209E+03  0.46999998093E+01 0.  1.
</event>
<event>
 5   0  0.6238363E-06  0.2096784E+04  0.7818609E-02  0.8562661E-01
       -1   -1    0    0    0  501  0.00000000000E+00  0.00000000000E+00  0.14801838256E+04  0.14801838256E+04  0.50400001928E-02 0.  1.
        1   -1    0    0  501    0  0.00000000000E+00  0.00000000000E+00 -0.74256025333E+03  0.74256025334E+03  0.50400001928E-02 0. -1.
    10030    2    1    2    0    0  0.00000000000E+00  0.00000000000E+00  0.73762357227E+03  0.22227440789E+04  0.20967838959E+04 0.  0.
        4    1    3    3  502    0  0.73798101390E+03  0.44139828461E+03  0.10045690088E+04  0.13223497756E+04  0.12699999809E+01 0.  1.
       -4    1    3    3    0  502 -0.73798101390E+03 -0.44139828461E+03 -0.26694543657E+03  0.90039430337E+03  0.12699999809E+01 0. -1.
</event>
<event>
 5   0  0.6283269E-06  0.2102669E+04  0.7818609E-02  0.8560068E-01
       -1   -1    0    0    0  501  0.00000000000E+00  0.00000000000E+00  0.90446262304E+03  0.90446262305E+03  0.50400001928E-02 0.  1.
        1   -1    0    0  501    0  0.00000000000E+00  0.00000000000E+00 -0.12220566625E+04  0.12220566625E+04  0.50400001928E-02 0. -1.
    10030    2    1    2    0    0  0.00000000000E+00  0.00000000000E+00 -0.31759403947E+03  0.21265192856E+04  0.21026693268E+04 0.  0.
        1    1    3    3  502    0  0.20248035914E+03  0.37628582872E+03 -0.11302732892E+04  0.12083488855E+04  0.50400001928E-02 0. -1.
       -1    1    3    3    0  502 -0.20248035914E+03 -0.37628582872E+03  0.81267924970E+03  0.91817040012E+03  0.50400001928E-02 0.  1.
</event>
<event>
 5   0  0.1344501E-05  0.2099679E+04  0.7818609E-02  0.8561385E-01
       -2   -1    0    0    0  501  0.00000000000E+00  0.00000000000E+00  0.65535845385E+03  0.65535845385E+03  0.25500000920E-02 0. -1.
        2   -1    0    0  501    0  0.00000000000E+00  0.00000000000E+00 -0.16817707705E+04  0.16817707705E+04  0.25500000920E-02 0.  1.
    10030    2    1    2    0    0  0.00000000000E+00  0.00000000000E+00 -0.10264123167E+04  0.23371292244E+04  0.20996787296E+04 0.  0.
        3    1    3    3  502    0 -0.58557533994E+03  0.70890192429E+03  0.50771168799E+02  0.92087900334E+03  0.10100000352E+00 0. -1.
       -3    1    3    3    0  502  0.58557533994E+03 -0.70890192429E+03 -0.10771834855E+04  0.14162502211E+04  0.10100000352E+00 0.  1.
</event>
<event>
 5   0  0.1395356E-05  0.2104602E+04  0.7818609E-02  0.8559219E-01
        2   -1    0    0  501    0  0.00000000000E+00  0.00000000000E+00  0.13381006376E+04  0.13381006376E+04  0.25500000920E-02 0.  1.
       -2   -1    0    0    0  501  0.00000000000E+00  0.00000000000E+00 -0.82754386902E+03  0.82754386903E+03  0.25500000920E-02 0. -1.
    10030    2    1    2    0    0  0.00000000000E+00  0.00000000000E+00  0.51055676856E+03  0.21656445066E+04  0.21046016048E+04 0.  0.
        1    1    3    3  502    0  0.19154331813E+03 -0.71402940145E+03 -0.51531487102E+03  0.90115273133E+03  0.50400001928E-02 0. -1.
       -1    1    3    3    0  502 -0.19154331813E+03  0.71402940145E+03  0.10258716396E+04  0.12644917753E+04  0.50400001928E-02 0.  1.
</event>
<event>
 5   0  0.5009125E-06  0.2097092E+04  0.7818609E-02  0.8562526E-01
       -3   -1    0    0    0  501  0.00000000000E+00  0.00000000000E+00  0.68402687283E+03  0.68402688029E+03  0.10100000352E+00 0. -1.
        3   -1    0    0  501    0  0.00000000000E+00  0.00000000000E+00 -0.16073175760E+04  0.16073175791E+04  0.10100000352E+00 0.  1.
    10030    2    1    2    0    0  0.00000000000E+00  0.00000000000E+00 -0.92329070314E+03  0.22913444594E+04  0.20970917265E+04 0.  0.
        3    1    3    3  502    0 -0.36052885017E+02  0.10249858068E+04 -0.22338018376E+03  0.10496639611E+04  0.10100000352E+00 0. -1.
       -3    1    3    3    0  502  0.36052885017E+02 -0.10249858068E+04 -0.69991051938E+03  0.12416804983E+04  0.10100000352E+00 0.  1.
</event>
<event>
 5   0  0.1344501E-05  0.2097865E+04  0.7818609E-02  0.8562184E-01
       -2   -1    0    0    0  501  0.00000000000E+00  0.00000000000E+00  0.45659296249E+03  0.45659296249E+03  0.25500000920E-02 0.  1.
        2   -1    0    0  501    0  0.00000000000E+00  0.00000000000E+00 -0.24097162532E+04  0.24097162532E+04  0.25500000920E-02 0. -1.
    10030    2    1    2    0    0  0.00000000000E+00  0.00000000000E+00 -0.19531232907E+04  0.28663092157E+04  0.20978650889E+04 0.  0.
        3    1    3    3  502    0 -0.74160691671E+02  0.13864494033E+03 -0.23935236707E+04  0.23986825134E+04  0.10100000352E+00 0. -1.
       -3    1    3    3    0  502  0.74160691671E+02 -0.13864494033E+03  0.44040038006E+03  0.46762670222E+03  0.10100000352E+00 0.  1.
</event>
<event>
 5   0  0.6589193E-06  0.2102219E+04  0.7818609E-02  0.8560267E-01
        1   -1    0    0  501    0  0.00000000000E+00  0.00000000000E+00  0.73575702671E+03  0.73575702673E+03  0.50400001928E-02 0.  1.
       -1   -1    0    0    0  501  0.00000000000E+00  0.00000000000E+00 -0.15016250491E+04  0.15016250491E+04  0.50400001928E-02 0. -1.
    10030    2    1    2    0    0  0.00000000000E+00  0.00000000000E+00 -0.76586802236E+03  0.22373820758E+04  0.21022190004E+04 0.  0.
        3    1    3    3  502    0 -0.26626083067E+03 -0.18394623197E+03  0.68141469917E+03  0.75435870025E+03  0.10100000352E+00 0.  1.
       -3    1    3    3    0  502  0.26626083067E+03  0.18394623197E+03 -0.14472827215E+04  0.14830233756E+04  0.10100000352E+00 0. -1.
</event>
<event>
 5   0  0.1398469E-05  0.2100273E+04  0.7818609E-02  0.8561123E-01
        2   -1    0    0  501    0  0.00000000000E+00  0.00000000000E+00  0.67582718826E+03  0.67582718826E+03  0.25500000920E-02 0.  1.
       -2   -1    0    0    0  501  0.00000000000E+00  0.00000000000E+00 -0.16317580875E+04  0.16317580875E+04  0.25500000920E-02 0. -1.
    10030    2    1    2    0    0  0.00000000000E+00  0.00000000000E+00 -0.95593089928E+03  0.23075852758E+04  0.21002728206E+04 0.  0.
        2    1    3    3  502    0  0.38081488313E+02  0.18270368828E+03  0.65746007826E+03  0.68343587261E+03  0.25500000920E-02 0.  1.
       -2    1    3    3    0  502 -0.38081488313E+02 -0.18270368828E+03 -0.16133909775E+04  0.16241494032E+04  0.25500000920E-02 0. -1.
</event>
<event>
 5   0  0.6283269E-06  0.2100045E+04  0.7818609E-02  0.8561224E-01
       -1   -1    0    0    0  501  0.00000000000E+00  0.00000000000E+00  0.44443203903E+03  0.44443203906E+03  0.50400001928E-02 0.  1.
        1   -1    0    0  501    0  0.00000000000E+00  0.00000000000E+00 -0.24807998477E+04  0.24807998477E+04  0.50400001928E-02 0. -1.
    10030    2    1    2    0    0  0.00000000000E+00  0.00000000000E+00 -0.20363678086E+04  0.29252318867E+04  0.21000446993E+04 0.  0.
        1    1    3    3  502    0 -0.18143354549E+03  0.10307856618E+04 -0.90073253366E+03  0.13808534713E+04  0.50400001928E-02 0.  1.
       -1    1    3    3    0  502  0.18143354549E+03 -0.10307856618E+04 -0.11356352750E+04  0.15443784154E+04  0.50400001928E-02 0. -1.
</event>
<event>
 5   0  0.1344501E-05  0.2101332E+04  0.7818609E-02  0.8560657E-01
       -2   -1    0    0    0  501  0.00000000000E+00  0.00000000000E+00  0.98002718380E+03  0.98002718381E+03  0.25500000920E-02 0.  1.
        2   -1    0    0  501    0  0.00000000000E+00  0.00000000000E+00 -0.11263965246E+04  0.11263965246E+04  0.25500000920E-02 0. -1.
    10030    2    1    2    0    0  0.00000000000E+00  0.00000000000E+00 -0.14636934075E+03  0.21064237084E+04  0.21013321620E+04 0.  0.
        3    1    3    3  502    0  0.37082545920E+02  0.70997141775E+03  0.70229476732E+03  0.99932601269E+03  0.10100000352E+00 0.  1.
       -3    1    3    3    0  502 -0.37082545920E+02 -0.70997141775E+03 -0.84866410808E+03  0.11070976957E+04  0.10100000352E+00 0. -1.
</event>
<event>
 5   0  0.1398469E-05  0.2092030E+04  0.7818609E-02  0.8564762E-01
        2   -1    0    0  501    0  0.00000000000E+00  0.00000000000E+00  0.15623582858E+04  0.15623582858E+04  0.25500000920E-02 0.  1.
       -2   -1    0    0    0  501  0.00000000000E+00  0.00000000000E+00 -0.70031770255E+03  0.70031770256E+03  0.25500000920E-02 0. -1.
    10030    2    1    2    0    0  0.00000000000E+00  0.00000000000E+00  0.86204058320E+03  0.22626759883E+04  0.20920297945E+04 0.  0.
        2    1    3    3  502    0  0.46095277950E+03 -0.25342993932E+03 -0.54685446083E+03  0.75878455467E+03  0.25500000920E-02 0. -1.
       -2    1    3    3    0  502 -0.46095277950E+03  0.25342993932E+03  0.14088950440E+04  0.15038914336E+04  0.25500000920E-02 0.  1.
</event>
<event>
 5   0  0.6283269E-06  0.2096245E+04  0.7818609E-02  0.8562899E-01
       -1   -1    0    0    0  501  0.00000000000E+00  0.00000000000E+00  0.90556699482E+03  0.90556699483E+03  0.50400001928E-02 0. -1.
        1   -1    0    0  501    0  0.00000000000E+00  0.00000000000E+00 -0.12131187820E+04  0.12131187820E+04  0.50400001928E-02 0.  1.
    10030    2    1    2    0    0  0.00000000000E+00  0.00000000000E+00 -0.30755178720E+03  0.21186857769E+04  0.20962445753E+04 0.  0.
        1    1    3    3  502    0  0.65595716556E+03  0.21237761792E+03 -0.95164206986E+03  0.11751624078E+04  0.50400001928E-02 0.  1.
       -1    1    3    3    0  502 -0.65595716556E+03 -0.21237761792E+03  0.64409028266E+03  0.94352336902E+03  0.50400001928E-02 0. -1.
</event>
<event>
 5   0  0.1390735E-05  0.2097183E+04  0.7818609E-02  0.8562485E-01
       -2   -1    0    0    0  501  0.00000000000E+00  0.00000000000E+00  0.12642801954E+04  0.12642801954E+04  0.25500000920E-02 0.  1.
        2   -1    0    0  501    0  0.00000000000E+00  0.00000000000E+00 -0.86969998987E+03  0.86969998988E+03  0.25500000920E-02 0. -1.
    10030    2    1    2    0    0  0.00000000000E+00  0.00000000000E+00  0.39458020549E+03  0.21339801852E+04  0.20971833235E+04 0.  0.
        5    1    3    3  502    0  0.25344268731E+03  0.66210053057E+03  0.98344689142E+03  0.12123531608E+04  0.46999998093E+01 0.  1.
       -5    1    3    3    0  502 -0.25344268731E+03 -0.66210053057E+03 -0.58886668593E+03  0.92162702441E+03  0.46999998093E+01 0. -1.
</event>
<event>
 5   0  0.1398469E-05  0.2101139E+04  0.7818609E-02  0.8560742E-01
       -2   -1    0    0    0  501  0.00000000000E+00  0.00000000000E+00  0.14396747821E+04  0.14396747821E+04  0.25500000920E-02 0. -1.
        2   -1    0    0  501    0  0.00000000000E+00  0.00000000000E+00 -0.76662872592E+03  0.76662872592E+03  0.25500000920E-02 0.  1.
    10030    2    1    2    0    0  0.00000000000E+00  0.00000000000E+00  0.67304605622E+03  0.22063035081E+04  0.21011387807E+04 0.  0.
        2    1    3    3  502    0  0.59277897348E+03  0.51945016422E+03  0.10658973531E+04  0.13256517460E+04  0.25500000920E-02 0. -1.
       -2    1    3    3    0  502 -0.59277897348E+03 -0.51945016422E+03 -0.39285129684E+03  0.88065176202E+03  0.25500000920E-02 0.  1.
</event>
<event>
 5   0  0.1390735E-05  0.2096882E+04  0.7818609E-02  0.8562618E-01
       -2   -1    0    0    0  501  0.00000000000E+00  0.00000000000E+00  0.12505640230E+04  0.12505640230E+04  0.25500000920E-02 0.  1.
        2   -1    0    0  501    0  0.00000000000E+00  0.00000000000E+00 -0.87898615671E+03  0.87898615672E+03  0.25500000920E-02 0. -1.
    10030    2    1    2    0    0  0.00000000000E+00  0.00000000000E+00  0.37157786625E+03  0.21295501797E+04  0.20968819369E+04 0.  0.
        5    1    3    3  502    0 -0.24145940601E+03  0.68428683862E+03 -0.58274053322E+03  0.93067703384E+03  0.46999998093E+01 0. -1.
       -5    1    3    3    0  502  0.24145940601E+03 -0.68428683862E+03  0.95431839947E+03  0.11988731458E+04  0.46999998093E+01 0.  1.
</event>
<event>
 5   0  0.6283269E-06  0.2099382E+04  0.7818609E-02  0.8561515E-01
       -1   -1    0    0    0  501  0.00000000000E+00  0.00000000000E+00  0.87573408219E+03  0.87573408221E+03  0.50400001928E-02 0. -1.
        1   -1    0    0  501    0  0.00000000000E+00  0.00000000000E+00 -0.12582035192E+04  0.12582035192E+04  0.50400001928E-02 0.  1.
    10030    2    1    2    0    0  0.00000000000E+00  0.00000000000E+00 -0.38246943704E+03  0.21339376014E+04  0.20993824846E+04 0.  0.
        1    1    3    3  502    0 -0.50847883550E+03 -0.77479335664E+03 -0.69229492914E+03  0.11567747147E+04  0.50400001928E-02 0.  1.
       -1    1    3    3    0  502  0.50847883550E+03  0.77479335664E+03  0.30982549210E+03  0.97716288674E+03  0.50400001928E-02 0. -1.
</event>
<event>
 5   0  0.1441136E-05  0.2100005E+04  0.7818609E-02  0.8561241E-01
       -2   -1    0    0    0  501  0.00000000000E+00  0.00000000000E+00  0.59525190494E+03  0.59525190494E+03  0.25500000920E-02 0. -1.
        2   -1    0    0  501    0  0.00000000000E+00  0.00000000000E+00 -0.18521657776E+04  0.18521657776E+04  0.25500000920E-02 0.  1.
    10030    2    1    2    0    0  0.00000000000E+00  0.00000000000E+00 -0.12569138727E+04  0.24474176826E+04  0.21000049594E+04 0.  0.
        4    1    3    3  502    0  0.89208926833E+02  0.93832923851E+03 -0.89220195966E+02  0.94677444449E+03  0.12699999809E+01 0. -1.
       -4    1    3    3    0  502 -0.89208926833E+02 -0.93832923851E+03 -0.11676936767E+04  0.15006432381E+04  0.12699999809E+01 0.  1.
</event>
<event>
 5   0  0.1344501E-05  0.2104154E+04  0.7818609E-02  0.8559416E-01
       -2   -1    0    0    0  501  0.00000000000E+00  0.00000000000E+00  0.65576680880E+03  0.65576680880E+03  0.25500000920E-02 0.  1.
        2   -1    0    0  501    0  0.00000000000E+00  0.00000000000E+00 -0.16878953892E+04  0.16878953892E+04  0.25500000920E-02 0. -1.
    10030    2    1    2    0    0  0.00000000000E+00  0.00000000000E+00 -0.10321285804E+04  0.23436621980E+04  0.21041537710E+04 0.  0.
        3    1    3    3  502    0 -0.59868453239E+03 -0.46136368336E+03  0.29907571405E+03  0.81285048477E+03  0.10100000352E+00 0.  1.
       -3    1    3    3    0  502  0.59868453239E+03  0.46136368336E+03 -0.13312042945E+04  0.15308117133E+04  0.10100000352E+00 0. -1.
</event>
<event>
 5   0  0.1390735E-05  0.2096798E+04  0.7818609E-02  0.8562655E-01
        2   -1    0    0  501    0  0.00000000000E+00  0.00000000000E+00  0.15156075384E+04  0.15156075384E+04  0.25500000920E-02 0.  1.
       -2   -1    0    0    0  501  0.00000000000E+00  0.00000000000E+00 -0.72521413644E+03  0.72521413644E+03  0.25500000920E-02 0. -1.
    10030    2    1    2    0    0  0.00000000000E+00  0.00000000000E+00  0.79039340201E+03  0.22408216749E+04  0.20967975698E+04 0.  0.
        5    1    3    3  502    0  0.86905097963E+02 -0.19500018587E+03 -0.70172689712E+03  0.73349866849E+03  0.46999998093E+01 0. -1.
       -5    1    3    3    0  502 -0.86905097963E+02  0.19500018587E+03  0.14921202991E+04  0.15073230064E+04  0.46999998093E+01 0.  1.
</event>
<event>
 5   0  0.1344501E-05  0.2101575E+04  0.7818609E-02  0.8560550E-01
       -2   -1    0    0    0  501  0.00000000000E+00  0.00000000000E+00  0.76640288746E+03  0.76640288746E+03  0.25500000920E-02 0.  1.
        2   -1    0    0  501    0  0.00000000000E+00  0.00000000000E+00 -0.14406972106E+04  0.14406972106E+04  0.25500000920E-02 0. -1.
    10030    2    1    2    0    0  0.00000000000E+00  0.00000000000E+00 -0.67429432317E+03  0.22071000981E+04  0.21015751256E+04 0.  0.
        3    1    3    3  502    0  0.48123896948E+03  0.10961501431E+03 -0.13113843073E+04  0.14011906397E+04  0.10100000352E+00 0. -1.
       -3    1    3    3    0  502 -0.48123896948E+03 -0.10961501431E+03  0.63708998411E+03  0.80590945842E+03  0.10100000352E+00 0.  1.
</event>
<event>
 5   0  0.6589193E-06  0.2099820E+04  0.7818609E-02  0.8561323E-01
        1   -1    0    0  501    0  0.00000000000E+00  0.00000000000E+00  0.12024723831E+04  0.12024723831E+04  0.50400001928E-02 0.  1.
       -1   -1    0    0    0  501  0.00000000000E+00  0.00000000000E+00 -0.91670358146E+03  0.91670358148E+03  0.50400001928E-02 0. -1.
    10030    2    1    2    0    0  0.00000000000E+00  0.00000000000E+00  0.28576880164E+03  0.21191759646E+04  0.20998197449E+04 0.  0.
        3    1    3    3  502    0 -0.59514224638E+03 -0.72678232973E+03  0.61614620207E+03  0.11234068723E+04  0.10100000352E+00 0.  1.
       -3    1    3    3    0  502  0.59514224638E+03  0.72678232973E+03 -0.33037740043E+03  0.99576909228E+03  0.10100000352E+00 0. -1.
</event>
<event>
 5   0  0.6589193E-06  0.2101187E+04  0.7818609E-02  0.8560721E-01
       -1   -1    0    0    0  501  0.00000000000E+00  0.00000000000E+00  0.92923237525E+03  0.92923237526E+03  0.50400001928E-02 0.  1.
        1   -1    0    0  501    0  0.00000000000E+00  0.00000000000E+00 -0.11878046375E+04  0.11878046375E+04  0.50400001928E-02 0. -1.
    10030    2    1    2    0    0  0.00000000000E+00  0.00000000000E+00 -0.25857226222E+03  0.21170370127E+04  0.21011868309E+04 0.  0.
        3    1    3    3  502    0  0.48476062557E+03 -0.82099986934E+03  0.31530531647E+03  0.10042166611E+04  0.10100000352E+00 0. -1.
       -3    1    3    3    0  502 -0.48476062557E+03  0.82099986934E+03 -0.57387757869E+03  0.11128203517E+04  0.10100000352E+00 0.  1.
</event>
<event>
 5   0  0.1441136E-05  0.2105262E+04  0.7818609E-02  0.8558929E-01
        2   -1    0    0  501    0  0.00000000000E+00  0.00000000000E+00  0.11520875699E+04  0.11520875699E+04  0.25500000920E-02 0.  1.
       -2   -1    0    0    0  501  0.00000000000E+00  0.00000000000E+00 -0.96176000962E+03  0.96176000962E+03  0.25500000920E-02 0. -1.
    10030    2    1    2    0    0  0.00000000000E+00  0.00000000000E+00  0.19032756028E+03  0.21138475795E+04  0.21052617436E+04 0.  0.
        4    1    3    3  502    0  0.81192981932E+02  0.86350776613E+03  0.69407957648E+03  0.11108492399E+04  0.12699999809E+01 0.  1.
       -4    1    3    3    0  502 -0.81192981932E+02 -0.86350776613E+03 -0.50375201620E+03  0.10029983396E+04  0.12699999809E+01 0. -1.
</event>
<event>
 5   0  0.6917078E-06  0.2099894E+04  0.7818609E-02  0.8561290E-01
       -1   -1    0    0    0  501  0.00000000000E+00  0.00000000000E+00  0.49063176626E+03  0.49063176629E+03  0.50400001928E-02 0.  1.
        1   -1    0    0  501    0  0.00000000000E+00  0.00000000000E+00 -0.22468769377E+04  0.22468769377E+04  0.50400001928E-02 0. -1.
    10030    2    1    2    0    0  0.00000000000E+00  0.00000000000E+00 -0.17562451714E+04  0.27375087040E+04  0.20998944741E+04 0.  0.
        5    1    3    3  502    0 -0.23511471877E+03 -0.21400044729E+03  0.42636036872E+03  0.53186499832E+03  0.46999998093E+01 0.  1.
       -5    1    3    3    0  502  0.23511471877E+03  0.21400044729E+03 -0.21826055401E+04  0.22056437057E+04  0.46999998093E+01 0. -1.
</event>
<event>
 5   0  0.5009125E-06  0.2100187E+04  0.7818609E-02  0.8561161E-01
        3   -1    0    0  501    0  0.00000000000E+00  0.00000000000E+00  0.56330221680E+03  0.56330222585E+03  0.10100000352E+00 0. -1.
       -3   -1    0    0    0  501  0.00000000000E+00  0.00000000000E+00 -0.19575570232E+04  0.19575570258E+04  0.10100000352E+00 0.  1.
    10030    2    1    2    0    0  0.00000000000E+00  0.00000000000E+00 -0.13942548064E+04  0.25208592517E+04  0.21001868730E+04 0.  0.
        1    1    3    3  502    0  0.59494991647E+03  0.16955188724E+03  0.32135088104E+03  0.69712239553E+03  0.50400001928E-02 0. -1.
       -1    1    3    3    0  502 -0.59494991647E+03 -0.16955188724E+03 -0.17156056874E+04  0.18237368561E+04  0.50400001928E-02 0.  1.
</event>
<event>
 5   0  0.6589193E-06  0.2097703E+04  0.7818609E-02  0.8562256E-01
       -1   -1    0    0    0  501  0.00000000000E+00  0.00000000000E+00  0.11196193656E+04  0.11196193656E+04  0.50400001928E-02 0. -1.
        1   -1    0    0  501    0  0.00000000000E+00  0.00000000000E+00 -0.98255659461E+03  0.98255659462E+03  0.50400001928E-02 0.  1.
    10030    2    1    2    0    0  0.00000000000E+00  0.00000000000E+00  0.13706277100E+03  0.21021759602E+04  0.20977029257E+04 0.  0.
        3    1    3    3  502    0  0.19711613425E+03 -0.72270120784E+03 -0.66715770042E+03  0.10031207373E+04  0.10100000352E+00 0.  1.
       -3    1    3    3    0  502 -0.19711613425E+03  0.72270120784E+03  0.80422047142E+03  0.10990552229E+04  0.10100000352E+00 0. -1.
</event>
<event>
 5   0  0.6917078E-06  0.2091706E+04  0.7818609E-02  0.8564906E-01
       -1   -1    0    0    0  501  0.00000000000E+00  0.00000000000E+00  0.10334472072E+04  0.10334472072E+04  0.50400001928E-02 0. -1.
        1   -1    0    0  501    0  0.00000000000E+00  0.00000000000E+00 -0.10584077011E+04  0.10584077011E+04  0.50400001928E-02 0.  1.
    10030    2    1    2    0    0  0.00000000000E+00  0.00000000000E+00 -0.24960493908E+02  0.20918549083E+04  0.20917059858E+04 0.  0.
        5    1    3    3  502    0  0.42334854597E+02  0.53557056919E+03  0.88488978347E+03  0.10352198285E+04  0.46999998093E+01 0. -1.
       -5    1    3    3    0  502 -0.42334854597E+02 -0.53557056919E+03 -0.90985027737E+03  0.10566350797E+04  0.46999998093E+01 0.  1.
</event>
<event>
 5   0  0.6589193E-06  0.2101012E+04  0.7818609E-02  0.8560798E-01
        1   -1    0    0  501    0  0.00000000000E+00  0.00000000000E+00  0.74334070816E+03  0.74334070818E+03  0.50400001928E-02 0.  1.
       -1   -1    0    0    0  501  0.00000000000E+00  0.00000000000E+00 -0.14845987769E+04  0.14845987769E+04  0.50400001928E-02 0. -1.
    10030    2    1    2    0    0  0.00000000000E+00  0.00000000000E+00 -0.74125806871E+03  0.22279394851E+04  0.21010118573E+04 0.  0.
        3    1    3    3  502    0  0.19622196175E+03 -0.89341795175E+03 -0.91842632966E+03  0.12962274600E+04  0.10100000352E+00 0. -1.
       -3    1    3    3    0  502 -0.19622196175E+03  0.89341795175E+03  0.17716826095E+03  0.93171202508E+03  0.10100000352E+00 0.  1.
</event>
<event>
 5   0  0.1395356E-05  0.2097893E+04  0.7818609E-02  0.8562172E-01
        2   -1    0    0  501    0  0.00000000000E+00  0.00000000000E+00  0.12696195777E+04  0.12696195777E+04  0.25500000920E-02 0. -1.
       -2   -1    0    0    0  501  0.00000000000E+00  0.00000000000E+00 -0.86662839379E+03  0.86662839380E+03  0.25500000920E-02 0.  1.
    10030    2    1    2    0    0  0.00000000000E+00  0.00000000000E+00  0.40299118391E+03  0.21362479715E+04  0.20978926334E+04 0.  0.
        1    1    3    3  502    0 -0.70007546829E+03 -0.51549986811E+03 -0.39612676333E+03  0.95538588433E+03  0.50400001928E-02 0.  1.
       -1    1    3    3    0  502  0.70007546829E+03  0.51549986811E+03  0.79911794724E+03  0.11808620872E+04  0.50400001928E-02 0. -1.
</event>
<event>
 5   0  0.6599245E-06  0.2109589E+04  0.7818609E-02  0.8557031E-01
       -1   -1    0    0    0  501  0.00000000000E+00  0.00000000000E+00  0.58609317265E+03  0.58609317267E+03  0.50400001928E-02 0. -1.
        1   -1    0    0  501    0  0.00000000000E+00  0.00000000000E+00 -0.18983176668E+04  0.18983176668E+04  0.50400001928E-02 0.  1.
    10030    2    1    2    0    0  0.00000000000E+00  0.00000000000E+00 -0.13122244941E+04  0.24844108394E+04  0.21095886083E+04 0.  0.
        2    1    3    3  502    0 -0.72701783821E+03  0.62311595331E+03 -0.11771755658E+04  0.15174224003E+04  0.25500000920E-02 0.  1.
       -2    1    3    3    0  502  0.72701783821E+03 -0.62311595331E+03 -0.13504892836E+03  0.96698843913E+03  0.25500000920E-02 0. -1.
</event>
<event>
 5   0  0.6589193E-06  0.2098051E+04  0.7818609E-02  0.8562102E-01
       -1   -1    0    0    0  501  0.00000000000E+00  0.00000000000E+00  0.25215462175E+04  0.25215462175E+04  0.50400001928E-02 0.  1.
        1   -1    0    0  501    0  0.00000000000E+00  0.00000000000E+00 -0.43642068924E+03  0.43642068927E+03  0.50400001928E-02 0. -1.
    10030    2    1    2    0    0  0.00000000000E+00  0.00000000000E+00  0.20851255283E+04  0.29579669068E+04  0.20980514181E+04 0.  0.
        3    1    3    3  502    0  0.70871629392E+02  0.14386113920E+03  0.25041613173E+04  0.25092912801E+04  0.10100000352E+00 0.  1.
       -3    1    3    3    0  502 -0.70871629392E+02 -0.14386113920E+03 -0.41903578906E+03  0.44867562664E+03  0.10100000352E+00 0. -1.
</event>
<event>
 5   0  0.6599245E-06  0.2098541E+04  0.7818609E-02  0.8561886E-01
        1   -1    0    0  501    0  0.00000000000E+00  0.00000000000E+00  0.11668463794E+04  0.11668463794E+04  0.50400001928E-02 0. -1.
       -1   -1    0    0    0  501  0.00000000000E+00  0.00000000000E+00 -0.94354241941E+03  0.94354241942E+03  0.50400001928E-02 0.  1.
    10030    2    1    2    0    0  0.00000000000E+00  0.00000000000E+00  0.22330395997E+03  0.21103887988E+04  0.20985414515E+04 0.  0.
        2    1    3    3  502    0 -0.80859180671E+03  0.57489941098E+02  0.78162873056E+03  0.11260858207E+04  0.25500000920E-02 0. -1.
       -2    1    3    3    0  502  0.80859180671E+03 -0.57489941098E+02 -0.55832477059E+03  0.98430297808E+03  0.25500000920E-02 0.  1.
</event>
<event>
 5   0  0.6589193E-06  0.2105744E+04  0.7818609E-02  0.8558717E-01
        1   -1    0    0  501    0  0.00000000000E+00  0.00000000000E+00  0.11999546591E+04  0.11999546591E+04  0.50400001928E-02 0.  1.
       -1   -1    0    0    0  501  0.00000000000E+00  0.00000000000E+00 -0.92381772236E+03  0.92381772237E+03  0.50400001928E-02 0. -1.
    10030    2    1    2    0    0  0.00000000000E+00  0.00000000000E+00  0.27613693675E+03  0.21237723815E+04  0.21057439352E+04 0.  0.
        3    1    3    3  502    0 -0.33120127333E+03 -0.80403711180E+03 -0.46062084965E+03  0.98404346344E+03  0.10100000352E+00 0. -1.
       -3    1    3    3    0  502  0.33120127333E+03  0.80403711180E+03  0.73675778640E+03  0.11397289180E+04  0.10100000352E+00 0.  1.
</event>
<event>
 5   0  0.1390735E-05  0.2101177E+04  0.7818609E-02  0.8560725E-01
        2   -1    0    0  501    0  0.00000000000E+00  0.00000000000E+00  0.13231919157E+04  0.13231919157E+04  0.25500000920E-02 0. -1.
       -2   -1    0    0    0  501  0.00000000000E+00  0.00000000000E+00 -0.83414677335E+03  0.83414677335E+03  0.25500000920E-02 0.  1.
    10030    2    1    2    0    0  0.00000000000E+00  0.00000000000E+00  0.48904514235E+03  0.21573386891E+04  0.21011770673E+04 0.  0.
        5    1    3    3  502    0 -0.41265854179E+03 -0.20391404688E+03 -0.72509539679E+03  0.85886753057E+03  0.46999998093E+01 0.  1.
       -5    1    3    3    0  502  0.41265854179E+03  0.20391404688E+03  0.12141405391E+04  0.12984711585E+04  0.46999998093E+01 0. -1.
</event>
<event>
 5   0  0.1395356E-05  0.2100202E+04  0.7818609E-02  0.8561154E-01
       -2   -1    0    0    0  501  0.00000000000E+00  0.00000000000E+00  0.69293201866E+03  0.69293201866E+03  0.25500000920E-02 0.  1.
        2   -1    0    0  501    0  0.00000000000E+00  0.00000000000E+00 -0.15913715103E+04  0.15913715103E+04  0.25500000920E-02 0. -1.
    10030    2    1    2    0    0  0.00000000000E+00  0.00000000000E+00 -0.89843949168E+03  0.22843035290E+04  0.21002021551E+04 0.  0.
        1    1    3    3  502    0  0.19953685722E+03  0.76520662638E+03 -0.12006937559E+04  0.14377140307E+04  0.50400001928E-02 0. -1.
       -1    1    3    3    0  502 -0.19953685722E+03 -0.76520662638E+03  0.30225426422E+03  0.84658949835E+03  0.50400001928E-02 0.  1.
</event>
<event>
 5   0  0.6283269E-06  0.2100550E+04  0.7818609E-02  0.8561001E-01
        1   -1    0    0  501    0  0.00000000000E+00  0.00000000000E+00  0.18770648908E+04  0.18770648908E+04  0.50400001928E-02 0.  1.
       -1   -1    0    0    0  501  0.00000000000E+00  0.00000000000E+00 -0.58766074430E+03  0.58766074432E+03  0.50400001928E-02 0. -1.
    10030    2    1    2    0    0  0.00000000000E+00  0.00000000000E+00  0.12894041465E+04  0.24647256351E+04  0.21005497860E+04 0.  0.
        1    1    3    3  502    0 -0.32343732581E+03  0.22707222590E+03  0.17864981442E+04  0.18296855246E+04  0.50400001928E-02 0.  1.
       -1    1    3    3    0  502  0.32343732581E+03 -0.22707222590E+03 -0.49709399768E+03  0.63504011059E+03  0.50400001928E-02 0. -1.
</event>
<event>
 5   0  0.1398469E-05  0.2137669E+04  0.7818609E-02  0.8544829E-01
        2   -1    0    0  501    0  0.00000000000E+00  0.00000000000E+00  0.12853602757E+04  0.12853602757E+04  0.25500000920E-02 0.  1.
       -2   -1    0    0    0  501  0.00000000000E+00  0.00000000000E+00 -0.88878371414E+03  0.88878371414E+03  0.25500000920E-02 0. -1.
    10030    2    1    2    0    0  0.00000000000E+00  0.00000000000E+00  0.39657656156E+03  0.21741439898E+04  0.21376690856E+04 0.  0.
        2    1    3    3  502    0  0.23460169189E+03 -0.73934571818E+02 -0.85960532029E+03  0.89410602359E+03  0.25500000920E-02 0. -1.
       -2    1    3    3    0  502 -0.23460169189E+03  0.73934571818E+02  0.12561818818E+04  0.12800379662E+04  0.25500000920E-02 0.  1.
</event>
<event>
 5   0  0.1390735E-05  0.2117481E+04  0.7818609E-02  0.8553582E-01
       -2   -1    0    0    0  501  0.00000000000E+00  0.00000000000E+00  0.50993437945E+03  0.50993437945E+03  0.25500000920E-02 0.  1.
        2   -1    0    0  501    0  0.00000000000E+00  0.00000000000E+00 -0.21981872781E+04  0.21981872781E+04  0.25500000920E-02 0. -1.
    10030    2    1    2    0    0  0.00000000000E+00  0.00000000000E+00 -0.16882528986E+04  0.27081216575E+04  0.21174808293E+04 0.  0.
        5    1    3    3  502    0 -0.41921197465E+03 -0.97045645341E+03 -0.76971956308E+03  0.13076753051E+04  0.46999998093E+01 0. -1.
       -5    1    3    3    0  502  0.41921197465E+03  0.97045645341E+03 -0.91853333554E+03  0.14004463525E+04  0.46999998093E+01 0.  1.
</event>
<event>
 5   0  0.6599245E-06  0.2102119E+04  0.7818609E-02  0.8560310E-01
       -1   -1    0    0    0  501  0.00000000000E+00  0.00000000000E+00  0.78817878166E+03  0.78817878168E+03  0.50400001928E-02 0. -1.
        1   -1    0    0  501    0  0.00000000000E+00  0.00000000000E+00 -0.14016187374E+04  0.14016187374E+04  0.50400001928E-02 0.  1.
    10030    2    1    2    0    0  0.00000000000E+00  0.00000000000E+00 -0.61343995570E+03  0.21897975191E+04  0.21021190726E+04 0.  0.
        2    1    3    3  502    0  0.15140820535E+03  0.23940497921E+03 -0.13611065448E+04  0.13902698353E+04  0.25500000920E-02 0.  1.
       -2    1    3    3    0  502 -0.15140820535E+03 -0.23940497921E+03  0.74766658906E+03  0.79952768377E+03  0.25500000920E-02 0. -1.
</event>
<event>
 5   0  0.1398469E-05  0.2095150E+04  0.7818609E-02  0.8563383E-01
       -2   -1    0    0    0  501  0.00000000000E+00  0.00000000000E+00  0.71389621826E+03  0.71389621827E+03  0.25500000920E-02 0.  1.
        2   -1    0    0  501    0  0.00000000000E+00  0.00000000000E+00 -0.15372163066E+04  0.15372163066E+04  0.25500000920E-02 0. -1.
    10030    2    1    2    0    0  0.00000000000E+00  0.00000000000E+00 -0.82332008837E+03  0.22511125249E+04  0.20951495488E+04 0.  0.
        2    1    3    3  502    0  0.14198527566E+03  0.10071030635E+04 -0.14198521137E+03  0.10269256055E+04  0.25500000920E-02 0.  1.
       -2    1    3    3    0  502 -0.14198527566E+03 -0.10071030635E+04 -0.68133487701E+03  0.12241869194E+04  0.25500000920E-02 0. -1.
</event>
<event>
 5   0  0.1344501E-05  0.2117918E+04  0.7818609E-02  0.8553391E-01
       -2   -1    0    0    0  501  0.00000000000E+00  0.00000000000E+00  0.57718379376E+03  0.57718379377E+03  0.25500000920E-02 0.  1.
        2   -1    0    0  501    0  0.00000000000E+00  0.00000000000E+00 -0.19428717607E+04  0.19428717607E+04  0.25500000920E-02 0. -1.
    10030    2    1    2    0    0  0.00000000000E+00  0.00000000000E+00 -0.13656879669E+04  0.25200555545E+04  0.21179179339E+04 0.  0.
        3    1    3    3  502    0  0.71094512075E+03 -0.42768197413E+03 -0.14658491305E+04  0.16843599732E+04  0.10100000352E+00 0. -1.
       -3    1    3    3    0  502 -0.71094512075E+03  0.42768197413E+03  0.10016116353E+03  0.83569558130E+03  0.10100000352E+00 0.  1.
</event>
<event>
 5   0  0.6917078E-06  0.2098668E+04  0.7818609E-02  0.8561830E-01
       -1   -1    0    0    0  501  0.00000000000E+00  0.00000000000E+00  0.76289745126E+03  0.76289745127E+03  0.50400001928E-02 0. -1.
        1   -1    0    0  501    0  0.00000000000E+00  0.00000000000E+00 -0.14433159706E+04  0.14433159706E+04  0.50400001928E-02 0.  1.
    10030    2    1    2    0    0  0.00000000000E+00  0.00000000000E+00 -0.68041851935E+03  0.22062134219E+04  0.20986682209E+04 0.  0.
        5    1    3    3  502    0  0.56617863972E+03 -0.75941219440E+02 -0.12655162347E+04  0.13884807349E+04  0.46999998093E+01 0.  1.
       -5    1    3    3    0  502 -0.56617863972E+03  0.75941219440E+02  0.58509771534E+03  0.81773268700E+03  0.46999998093E+01 0. -1.
</event>
<event>
 5   0  0.6917078E-06  0.2092129E+04  0.7818609E-02  0.8564719E-01
        1   -1    0    0  501    0  0.00000000000E+00  0.00000000000E+00  0.10308828850E+04  0.10308828850E+04  0.50400001928E-02 0. -1.
       -1   -1    0    0    0  501  0.00000000000E+00  0.00000000000E+00 -0.10614694379E+04  0.10614694379E+04  0.50400001928E-02 0.  1.
    10030    2    1    2    0    0  0.00000000000E+00  0.00000000000E+00 -0.30586552853E+02  0.20923523229E+04  0.20921287498E+04 0.  0.
        5    1    3    3  502    0 -0.12327404750E+03  0.10336286087E+04  0.87887487772E+02  0.10446678381E+04  0.46999998093E+01 0.  1.
       -5    1    3    3    0  502  0.12327404750E+03 -0.10336286087E+04 -0.11847404063E+03  0.10476844848E+04  0.46999998093E+01 0. -1.
</event>
<event>
 5   0  0.1395356E-05  0.2093470E+04  0.7818609E-02  0.8564126E-01
       -2   -1    0    0    0  501  0.00000000000E+00  0.00000000000E+00  0.52447942109E+03  0.52447942110E+03  0.25500000920E-02 0.  1.
        2   -1    0    0  501    0  0.00000000000E+00  0.00000000000E+00 -0.20890310762E+04  0.20890310763E+04  0.25500000920E-02 0. -1.
    10030    2    1    2    0    0  0.00000000000E+00  0.00000000000E+00 -0.15645516552E+04  0.26135104973E+04  0.20934696650E+04 0.  0.
        1    1    3    3  502    0  0.41309131865E+03 -0.95713716093E+03 -0.66451535006E+03  0.12362591285E+04  0.50400001928E-02 0.  1.
       -1    1    3    3    0  502 -0.41309131865E+03  0.95713716093E+03 -0.90003630510E+03  0.13772513688E+04  0.50400001928E-02 0. -1.
</event>
<event>
 5   0  0.6238363E-06  0.2100870E+04  0.7818609E-02  0.8560860E-01
       -1   -1    0    0    0  501  0.00000000000E+00  0.00000000000E+00  0.48760824781E+03  0.48760824784E+03  0.50400001928E-02 0.  1.
        1   -1    0    0  501    0  0.00000000000E+00  0.00000000000E+00 -0.22629108804E+04  0.22629108804E+04  0.50400001928E-02 0. -1.
    10030    2    1    2    0    0  0.00000000000E+00  0.00000000000E+00 -0.17753026326E+04  0.27505191282E+04  0.21008703048E+04 0.  0.
        4    1    3    3  502    0  0.33706672251E+03 -0.80448331487E+03 -0.12132756474E+03  0.88064145382E+03  0.12699999809E+01 0.  1.
       -4    1    3    3    0  502 -0.33706672251E+03  0.80448331487E+03 -0.16539750678E+04  0.18698776744E+04  0.12699999809E+01 0. -1.
</event>
<event>
 5   0  0.6599245E-06  0.2099034E+04  0.7818609E-02  0.8561669E-01
        1   -1    0    0  501    0  0.00000000000E+00  0.00000000000E+00  0.10357302945E+04  0.10357302945E+04  0.50400001928E-02 0.  1.
       -1   -1    0    0    0  501  0.00000000000E+00  0.00000000000E+00 -0.10634873364E+04  0.10634873364E+04  0.50400001928E-02 0. -1.
    10030    2    1    2    0    0  0.00000000000E+00  0.00000000000E+00 -0.27757041924E+02  0.20992176309E+04  0.20990341132E+04 0.  0.
        2    1    3    3  502    0  0.17706859915E+03 -0.83852033637E+03 -0.61975027947E+03  0.10576199942E+04  0.25500000920E-02 0. -1.
       -2    1    3    3    0  502 -0.17706859915E+03  0.83852033637E+03  0.59199323755E+03  0.10415976366E+04  0.25500000920E-02 0.  1.
</event>
<event>
 5   0  0.1441136E-05  0.2107536E+04  0.7818609E-02  0.8557931E-01
        2   -1    0    0  501    0  0.00000000000E+00  0.00000000000E+00  0.14730920597E+04  0.14730920597E+04  0.25500000920E-02 0. -1.
       -2   -1    0    0    0  501  0.00000000000E+00  0.00000000000E+00 -0.75380728183E+03  0.75380728183E+03  0.25500000920E-02 0.  1.
    10030    2    1    2    0    0  0.00000000000E+00  0.00000000000E+00  0.71928477786E+03  0.22268993415E+04  0.21075364969E+04 0.  0.
        4    1    3    3  502    0 -0.35076462362E+03 -0.65774699702E+03 -0.42736290060E+03  0.85924827319E+03  0.12699999809E+01 0.  1.
       -4    1    3    3    0  502  0.35076462362E+03  0.65774699702E+03  0.11466476785E+04  0.13676510683E+04  0.12699999809E+01 0. -1.
</event>
<event>
 5   0  0.1398469E-05  0.2102403E+04  0.7818609E-02  0.8560186E-01
        2   -1    0    0  501    0  0.00000000000E+00  0.00000000000E+00  0.16194262456E+04  0.16194262456E+04  0.25500000920E-02 0. -1.
       -2   -1    0    0    0  501  0.00000000000E+00  0.00000000000E+00 -0.68235572060E+03  0.68235572060E+03  0.25500000920E-02 0.  1.
    10030    2    1    2    0    0  0.00000000000E+00  0.00000000000E+00  0.93707052496E+03  0.23017819662E+04  0.21024031609E+04 0.  0.
        2    1    3    3  502    0 -0.31324780249E+03  0.56045846799E+03  0.13798072292E+04  0.15218757735E+04  0.25500000920E-02 0. -1.
       -2    1    3    3    0  502  0.31324780249E+03 -0.56045846799E+03 -0.44273670425E+03  0.77990619269E+03  0.25500000920E-02 0.  1.
</event>
<event>
 5   0  0.1344501E-05  0.2099688E+04  0.7818609E-02  0.8561381E-01
       -2   -1    0    0    0  501  0.00000000000E+00  0.00000000000E+00  0.10247436064E+04  0.10247436064E+04  0.25500000920E-02 0.  1.
        2   -1    0    0  501    0  0.00000000000E+00  0.00000000000E+00 -0.10755594760E+04  0.10755594760E+04  0.25500000920E-02 0. -1.
    10030    2    1    2    0    0  0.00000000000E+00  0.00000000000E+00 -0.50815869558E+02  0.21003030824E+04  0.20996882591E+04 0.  0.
        3    1    3    3  502    0 -0.76411863443E+03  0.58264299234E+03 -0.44840590386E+03  0.10603857830E+04  0.10100000352E+00 0. -1.
       -3    1    3    3    0  502  0.76411863443E+03 -0.58264299234E+03  0.39759003430E+03  0.10399172994E+04  0.10100000352E+00 0.  1.
</event>
<event>
 5   0  0.5009125E-06  0.2088550E+04  0.7818609E-02  0.8566304E-01
       -4   -1    0    0    0  501  0.00000000000E+00  0.00000000000E+00  0.64788858280E+03  0.64788982754E+03  0.12699999809E+01 0. -1.
        4   -1    0    0  501    0  0.00000000000E+00  0.00000000000E+00 -0.16831724000E+04  0.16831728791E+04  0.12699999809E+01 0.  1.
    10030    2    1    2    0    0  0.00000000000E+00  0.00000000000E+00 -0.10352838171E+04  0.23310627066E+04  0.20885499180E+04 0.  0.
        4    1    3    3  502    0  0.60060059443E+03  0.40302809681E+03  0.32305000043E+03  0.79215884551E+03  0.12699999809E+01 0. -1.
       -4    1    3    3    0  502 -0.60060059443E+03 -0.40302809681E+03 -0.13583338176E+04  0.15389038611E+04  0.12699999809E+01 0.  1.
</event>
<event>
 5   0  0.1441136E-05  0.2088181E+04  0.7818609E-02  0.8566468E-01
        2   -1    0    0  501    0  0.00000000000E+00  0.00000000000E+00  0.66980127309E+03  0.66980127310E+03  0.25500000920E-02 0.  1.
       -2   -1    0    0    0  501  0.00000000000E+00  0.00000000000E+00 -0.16275346271E+04  0.16275346271E+04  0.25500000920E-02 0. -1.
    10030    2    1    2    0    0  0.00000000000E+00  0.00000000000E+00 -0.95773335403E+03  0.22973359002E+04  0.20881808018E+04 0.  0.
        4    1    3    3  502    0 -0.26063495341E+03  0.62062857780E+03  0.39920599379E+03  0.78260938462E+03  0.12699999809E+01 0.  1.
       -4    1    3    3    0  502  0.26063495341E+03 -0.62062857780E+03 -0.13569393478E+04  0.15147265156E+04  0.12699999809E+01 0. -1.
</event>
<event>
 5   0  0.1344501E-05  0.2099561E+04  0.7818609E-02  0.8561437E-01
        2   -1    0    0  501    0  0.00000000000E+00  0.00000000000E+00  0.10268807212E+04  0.10268807212E+04  0.25500000920E-02 0. -1.
       -2   -1    0    0    0  501  0.00000000000E+00  0.00000000000E+00 -0.10731905579E+04  0.10731905579E+04  0.25500000920E-02 0.  1.
    10030    2    1    2    0    0  0.00000000000E+00  0.00000000000E+00 -0.46309836761E+02  0.21000712791E+04  0.20995606150E+04 0.  0.
        3    1    3    3  502    0  0.51449495807E+03  0.85612524444E+03 -0.34631737137E+03  0.10571618741E+04  0.10100000352E+00 0.  1.
       -3    1    3    3    0  502 -0.51449495807E+03 -0.85612524444E+03  0.30000753460E+03  0.10429094050E+04  0.10100000352E+00 0. -1.
</event>
<event>
 5   0  0.6589193E-06  0.2102600E+04  0.7818609E-02  0.8560099E-01
        1   -1    0    0  501    0  0.00000000000E+00  0.00000000000E+00  0.14122220926E+04  0.14122220926E+04  0.50400001928E-02 0. -1.
       -1   -1    0    0    0  501  0.00000000000E+00  0.00000000000E+00 -0.78261875870E+03  0.78261875872E+03  0.50400001928E-02 0.  1.
    10030    2    1    2    0    0  0.00000000000E+00  0.00000000000E+00  0.62960333388E+03  0.21948408513E+04  0.21025998204E+04 0.  0.
        3    1    3    3  502    0 -0.74434603283E+03 -0.10250252090E+03 -0.45276134308E+03  0.87724034755E+03  0.10100000352E+00 0. -1.
       -3    1    3    3    0  502  0.74434603283E+03  0.10250252090E+03  0.10823646770E+04  0.13176005038E+04  0.10100000352E+00 0.  1.
</event>
<event>
 5   0  0.1344501E-05  0.2099098E+04  0.7818609E-02  0.8561641E-01
        2   -1    0    0  501    0  0.00000000000E+00  0.00000000000E+00  0.15144217714E+04  0.15144217714E+04  0.25500000920E-02 0.  1.
       -2   -1    0    0    0  501  0.00000000000E+00  0.00000000000E+00 -0.72737550391E+03  0.72737550392E+03  0.25500000920E-02 0. -1.
    10030    2    1    2    0    0  0.00000000000E+00  0.00000000000E+00  0.78704626747E+03  0.22417972753E+04  0.20990981865E+04 0.  0.
        3    1    3    3  502    0  0.74378250860E+03  0.42303436119E+03 -0.25556238038E+03  0.89301883032E+03  0.10100000352E+00 0.  1.
       -3    1    3    3    0  502 -0.74378250860E+03 -0.42303436119E+03  0.10426086479E+04  0.13487784450E+04  0.10100000352E+00 0. -1.
</event>
<event>
 5   0  0.6599245E-06  0.2101044E+04  0.7818609E-02  0.8560784E-01
       -1   -1    0    0    0  501  0.00000000000E+00  0.00000000000E+00  0.12293555612E+04  0.12293555612E+04  0.50400001928E-02 0. -1.
        1   -1    0    0  501    0  0.00000000000E+00  0.00000000000E+00 -0.89770302993E+03  0.89770302994E+03  0.50400001928E-02 0.  1.
    10030    2    1    2    0    0  0.00000000000E+00  0.00000000000E+00  0.33165253130E+03  0.21270585912E+04  0.21010437522E+04 0.  0.
        2    1    3    3  502    0 -0.38731880221E+03 -0.51885123702E+03  0.10033382472E+04  0.11941147763E+04  0.25500000920E-02 0. -1.
       -2    1    3    3    0  502  0.38731880221E+03  0.51885123702E+03 -0.67168571592E+03  0.93294381486E+03  0.25500000920E-02 0.  1.
</event>
<event>
 5   0  0.6283269E-06  0.2100841E+04  0.7818609E-02  0.8560873E-01
       -1   -1    0    0    0  501  0.00000000000E+00  0.00000000000E+00  0.10149176248E+04  0.10149176248E+04  0.50400001928E-02 0. -1.
        1   -1    0    0  501    0  0.00000000000E+00  0.00000000000E+00 -0.10871647966E+04  0.10871647966E+04  0.50400001928E-02 0.  1.
    10030    2    1    2    0    0  0.00000000000E+00  0.00000000000E+00 -0.72247171795E+02  0.21020824214E+04  0.21008405110E+04 0.  0.
        1    1    3    3  502    0  0.47672462341E+03 -0.82798578003E+03 -0.47290872208E+03  0.10660532247E+04  0.50400001928E-02 0.  1.
       -1    1    3    3    0  502 -0.47672462341E+03  0.82798578003E+03  0.40066155029E+03  0.10360291967E+04  0.50400001928E-02 0. -1.
</event>
<event>
 5   0  0.1441136E-05  0.2098566E+04  0.7818609E-02  0.8561875E-01
       -2   -1    0    0    0  501  0.00000000000E+00  0.00000000000E+00  0.73384079690E+03  0.73384079690E+03  0.25500000920E-02 0. -1.
        2   -1    0    0  501    0  0.00000000000E+00  0.00000000000E+00 -0.15003183754E+04  0.15003183754E+04  0.25500000920E-02 0.  1.
    10030    2    1    2    0    0  0.00000000000E+00  0.00000000000E+00 -0.76647757846E+03  0.22341591723E+04  0.20985660172E+04 0.  0.
        4    1    3    3  502    0  0.89892134631E+03 -0.84292562098E+02 -0.95241162071E+03  0.13123468791E+04  0.12699999809E+01 0.  1.
       -4    1    3    3    0  502 -0.89892134631E+03  0.84292562098E+02  0.18593404225E+03  0.92181229317E+03  0.12699999809E+01 0. -1.
</event>
<event>
 5   0  0.1441136E-05  0.2094297E+04  0.7818609E-02  0.8563760E-01
        2   -1    0    0  501    0  0.00000000000E+00  0.00000000000E+00  0.72769731837E+03  0.72769731838E+03  0.25500000920E-02 0. -1.
       -2   -1    0    0    0  501  0.00000000000E+00  0.00000000000E+00 -0.15068358002E+04  0.15068358002E+04  0.25500000920E-02 0.  1.
    10030    2    1    2    0    0  0.00000000000E+00  0.00000000000E+00 -0.77913848187E+03  0.22345331186E+04  0.20942973725E+04 0.  0.
        4    1    3    3  502    0  0.74638478424E+03  0.76562447355E+02  0.38979918617E+03  0.84551586202E+03  0.12699999809E+01 0. -1.
       -4    1    3    3    0  502 -0.74638478424E+03 -0.76562447355E+02 -0.11689376680E+04  0.13890172566E+04  0.12699999809E+01 0.  1.
</event>
<event>
 5   0  0.1441136E-05  0.2099667E+04  0.7818609E-02  0.8561390E-01
       -2   -1    0    0    0  501  0.00000000000E+00  0.00000000000E+00  0.73396466140E+03  0.73396466140E+03  0.25500000920E-02 0.  1.
        2   -1    0    0  501    0  0.00000000000E+00  0.00000000000E+00 -0.15016399810E+04  0.15016399810E+04  0.25500000920E-02 0. -1.
    10030    2    1    2    0    0  0.00000000000E+00  0.00000000000E+00 -0.76767531955E+03  0.22356046424E+04  0.20996672881E+04 0.  0.
        4    1    3    3  502    0 -0.45046541247E+03  0.35147845744E+03  0.55391741124E+03  0.79579036515E+03  0.12699999809E+01 0.  1.
       -4    1    3    3    0  502  0.45046541247E+03 -0.35147845744E+03 -0.13215927308E+04  0.14398142772E+04  0.12699999809E+01 0. -1.
</event>
<event>
 5   0  0.5009125E-06  0.2100529E+04  0.7818609E-02  0.8561010E-01
        3   -1    0    0  501    0  0.00000000000E+00  0.00000000000E+00  0.13581783979E+04  0.13581784016E+04  0.10100000352E+00 0.  1.
       -3   -1    0    0    0  501  0.00000000000E+00  0.00000000000E+00 -0.81215808357E+03  0.81215808985E+03  0.10100000352E+00 0. -1.
    10030    2    1    2    0    0  0.00000000000E+00  0.00000000000E+00  0.54602031431E+03  0.21703364915E+04  0.21005290530E+04 0.  0.
        3    1    3    3  502    0 -0.29202594998E+03  0.35549620886E+03 -0.70250588549E+03  0.83974474653E+03  0.10100000352E+00 0. -1.
       -3    1    3    3    0  502  0.29202594998E+03 -0.35549620886E+03  0.12485261998E+04  0.13305917450E+04  0.10100000352E+00 0.  1.
</event>
<event>
 5   0  0.6283269E-06  0.2099329E+04  0.7818609E-02  0.8561539E-01
        1   -1    0    0  501    0  0.00000000000E+00  0.00000000000E+00  0.17370334975E+04  0.17370334975E+04  0.50400001928E-02 0.  1.
       -1   -1    0    0    0  501  0.00000000000E+00  0.00000000000E+00 -0.63429699543E+03  0.63429699545E+03  0.50400001928E-02 0. -1.
    10030    2    1    2    0    0  0.00000000000E+00  0.00000000000E+00  0.11027365021E+04  0.23713304930E+04  0.20993285864E+04 0.  0.
        1    1    3    3  502    0  0.65724338130E+03 -0.45068699770E+03 -0.22030608094E+03  0.82681461132E+03  0.50400001928E-02 0. -1.
       -1    1    3    3    0  502 -0.65724338130E+03  0.45068699770E+03  0.13230425830E+04  0.15445158816E+04  0.50400001928E-02 0.  1.
</event>
<event>
 5   0  0.5009125E-06  0.2103555E+04  0.7818609E-02  0.8559679E-01
       -3   -1    0    0    0  501  0.00000000000E+00  0.00000000000E+00  0.15593730215E+04  0.15593730247E+04  0.10100000352E+00 0.  1.
        3   -1    0    0  501    0  0.00000000000E+00  0.00000000000E+00 -0.70941091976E+03  0.70941092695E+03  0.10100000352E+00 0. -1.
    10030    2    1    2    0    0  0.00000000000E+00  0.00000000000E+00  0.84996210171E+03  0.22687839517E+04  0.21035553345E+04 0.  0.
        3    1    3    3  502    0  0.45749811193E+03 -0.22812717932E+03  0.14163589056E+04  0.15057951693E+04  0.10100000352E+00 0.  1.
       -3    1    3    3    0  502 -0.45749811193E+03  0.22812717932E+03 -0.56639680388E+03  0.76298878236E+03  0.10100000352E+00 0. -1.
</event>
<event>
 5   0  0.1344501E-05  0.2114538E+04  0.7818609E-02  0.8554866E-01
       -2   -1    0    0    0  501  0.00000000000E+00  0.00000000000E+00  0.17024325035E+04  0.17024325035E+04  0.25500000920E-02 0.  1.
        2   -1    0    0  501    0  0.00000000000E+00  0.00000000000E+00 -0.65660025657E+03  0.65660025657E+03  0.25500000920E-02 0. -1.
    10030    2    1    2    0    0  0.00000000000E+00  0.00000000000E+00  0.10458322469E+04  0.23590327600E+04  0.21145378867E+04 0.  0.
        3    1    3    3  502    0 -0.68573803024E+03  0.79500968263E+03  0.66199203918E+03  0.12411730386E+04  0.10100000352E+00 0.  1.
       -3    1    3    3    0  502  0.68573803024E+03 -0.79500968263E+03  0.38384020774E+03  0.11178597215E+04  0.10100000352E+00 0. -1.
</event>
<event>
 5   0  0.1395356E-05  0.2096938E+04  0.7818609E-02  0.8562593E-01
        2   -1    0    0  501    0  0.00000000000E+00  0.00000000000E+00  0.13658915643E+04  0.13658915643E+04  0.25500000920E-02 0. -1.
       -2   -1    0    0    0  501  0.00000000000E+00  0.00000000000E+00 -0.80481291353E+03  0.80481291353E+03  0.25500000920E-02 0.  1.
    10030    2    1    2    0    0  0.00000000000E+00  0.00000000000E+00  0.56107865080E+03  0.21707044779E+04  0.20969379289E+04 0.  0.
        1    1    3    3  502    0  0.94519464894E+03 -0.11990407845E+02  0.75009333172E+03  0.12067214677E+04  0.50400001928E-02 0. -1.
       -1    1    3    3    0  502 -0.94519464894E+03  0.11990407845E+02 -0.18901468092E+03  0.96398301017E+03  0.50400001928E-02 0.  1.
</event>
<event>
 5   0  0.5009125E-06  0.2099908E+04  0.7818609E-02  0.8561284E-01
        4   -1    0    0  501    0  0.00000000000E+00  0.00000000000E+00  0.12061382873E+04  0.12061389559E+04  0.12699999809E+01 0. -1.
       -4   -1    0    0    0  501  0.00000000000E+00  0.00000000000E+00 -0.91399277223E+03  0.91399365456E+03  0.12699999809E+01 0.  1.
    10030    2    1    2    0    0  0.00000000000E+00  0.00000000000E+00  0.29214551503E+03  0.21201326104E+04  0.20999079227E+04 0.  0.
        1    1    3    3  502    0 -0.10459204631E+04  0.54636470011E+02  0.22073470943E+03  0.10703544137E+04  0.50400001928E-02 0.  1.
       -1    1    3    3    0  502  0.10459204631E+04 -0.54636470011E+02  0.71410805602E+02  0.10497781967E+04  0.50400001928E-02 0. -1.
</event>
<event>
 5   0  0.6283269E-06  0.2104372E+04  0.7818609E-02  0.8559320E-01
        1   -1    0    0  501    0  0.00000000000E+00  0.00000000000E+00  0.20404279418E+04  0.20404279418E+04  0.50400001928E-02 0.  1.
       -1   -1    0    0    0  501  0.00000000000E+00  0.00000000000E+00 -0.54257999601E+03  0.54257999603E+03  0.50400001928E-02 0. -1.
    10030    2    1    2    0    0  0.00000000000E+00  0.00000000000E+00  0.14978479458E+04  0.25830079378E+04  0.21043720056E+04 0.  0.
        1    1    3    3  502    0 -0.16963373520E+02 -0.88901013798E+03  0.14394316954E+04  0.16919191432E+04  0.50400001928E-02 0.  1.
       -1    1    3    3    0  502  0.16963373520E+02  0.88901013798E+03  0.58416250351E+02  0.89108879457E+03  0.50400001928E-02 0. -1.
</event>
<event>
 5   0  0.6599245E-06  0.2097667E+04  0.7818609E-02  0.8562272E-01
        1   -1    0    0  501    0  0.00000000000E+00  0.00000000000E+00  0.13222116293E+04  0.13222116293E+04  0.50400001928E-02 0. -1.
       -1   -1    0    0    0  501  0.00000000000E+00  0.00000000000E+00 -0.83197879510E+03  0.83197879512E+03  0.50400001928E-02 0.  1.
    10030    2    1    2    0    0  0.00000000000E+00  0.00000000000E+00  0.49023283417E+03  0.21541904244E+04  0.20976673122E+04 0.  0.
        2    1    3    3  502    0 -0.13417568806E+03  0.26240118662E+03 -0.78858211800E+03  0.84185465185E+03  0.25500000920E-02 0.  1.
       -2    1    3    3    0  502  0.13417568806E+03 -0.26240118662E+03  0.12788149522E+04  0.13123357725E+04  0.25500000920E-02 0. -1.
</event>
<event>
 5   0  0.1344501E-05  0.2097523E+04  0.7818609E-02  0.8562335E-01
        2   -1    0    0  501    0  0.00000000000E+00  0.00000000000E+00  0.16236594378E+04  0.16236594378E+04  0.25500000920E-02 0.  1.
       -2   -1    0    0    0  501  0.00000000000E+00  0.00000000000E+00 -0.67742103025E+03  0.67742103025E+03  0.25500000920E-02 0. -1.
    10030    2    1    2    0    0  0.00000000000E+00  0.00000000000E+00  0.94623840757E+03  0.23010804681E+04  0.20975233483E+04 0.  0.
        3    1    3    3  502    0  0.53163652289E+03 -0.89827746490E+03  0.58478776529E+03  0.11964600023E+04  0.10100000352E+00 0.  1.
       -3    1    3    3    0  502 -0.53163652289E+03  0.89827746490E+03  0.36145064228E+03  0.11046204658E+04  0.10100000352E+00 0. -1.
</event>
<event>
 5   0  0.6599245E-06  0.2099432E+04  0.7818609E-02  0.8561494E-01
        1   -1    0    0  501    0  0.00000000000E+00  0.00000000000E+00  0.17435861539E+04  0.17435861539E+04  0.50400001928E-02 0. -1.
       -1   -1    0    0    0  501  0.00000000000E+00  0.00000000000E+00 -0.63197560433E+03  0.63197560435E+03  0.50400001928E-02 0.  1.
    10030    2    1    2    0    0  0.00000000000E+00  0.00000000000E+00  0.11116105495E+04  0.23755617582E+04  0.20994322216E+04 0.  0.
        2    1    3    3  502    0  0.49034620577E+03 -0.88345686174E+03  0.87778051379E+03  0.13384446415E+04  0.25500000920E-02 0. -1.
       -2    1    3    3    0  502 -0.49034620577E+03  0.88345686174E+03  0.23383003572E+03  0.10371171167E+04  0.25500000920E-02 0.  1.
</event>
<event>
 5   0  0.1398469E-05  0.2100965E+04  0.7818609E-02  0.8560819E-01
        2   -1    0    0  501    0  0.00000000000E+00  0.00000000000E+00  0.21229738792E+04  0.21229738792E+04  0.25500000920E-02 0. -1.
       -2   -1    0    0    0  501  0.00000000000E+00  0.00000000000E+00 -0.51979590448E+03  0.51979590449E+03  0.25500000920E-02 0.  1.
    10030    2    1    2    0    0  0.00000000000E+00  0.00000000000E+00  0.16031779747E+04  0.26427697837E+04  0.21009646620E+04 0.  0.
        2    1    3    3  502    0 -0.59405037512E+03  0.54246816154E+03 -0.48153837195E+02  0.80590715750E+03  0.25500000920E-02 0.  1.
       -2    1    3    3    0  502  0.59405037512E+03 -0.54246816154E+03  0.16513318119E+04  0.18368626262E+04  0.25500000920E-02 0. -1.
</event>
<event>
 5   0  0.6589193E-06  0.2112276E+04  0.7818609E-02  0.8555855E-01
       -1   -1    0    0    0  501  0.00000000000E+00  0.00000000000E+00  0.45638099458E+03  0.45638099461E+03  0.50400001928E-02 0. -1.
        1   -1    0    0  501    0  0.00000000000E+00  0.00000000000E+00 -0.24440702131E+04  0.24440702131E+04  0.50400001928E-02 0.  1.
    10030    2    1    2    0    0  0.00000000000E+00  0.00000000000E+00 -0.19876892185E+04  0.29004512077E+04  0.21122757346E+04 0.  0.
        3    1    3    3  502    0  0.78020702818E+03  0.67302394086E+03 -0.67551596776E+03  0.12320738877E+04  0.10100000352E+00 0. -1.
       -3    1    3    3    0  502 -0.78020702818E+03 -0.67302394086E+03 -0.13121732507E+04  0.16683773200E+04  0.10100000352E+00 0.  1.
</event>
<event>
 5   0  0.6283269E-06  0.2097603E+04  0.7818609E-02  0.8562300E-01
        1   -1    0    0  501    0  0.00000000000E+00  0.00000000000E+00  0.10227711827E+04  0.10227711827E+04  0.50400001928E-02 0.  1.
       -1   -1    0    0    0  501  0.00000000000E+00  0.00000000000E+00 -0.10754940048E+04  0.10754940048E+04  0.50400001928E-02 0. -1.
    10030    2    1    2    0    0  0.00000000000E+00  0.00000000000E+00 -0.52722822046E+02  0.20982651875E+04  0.20976027034E+04 0.  0.
        1    1    3    3  502    0 -0.73257747915E+03  0.47235069393E+03 -0.60981171564E+03  0.10637928697E+04  0.50400001928E-02 0. -1.
       -1    1    3    3    0  502  0.73257747915E+03 -0.47235069393E+03  0.55708889359E+03  0.10344723179E+04  0.50400001928E-02 0.  1.
</event>
<event>
 5   0  0.1441136E-05  0.2099778E+04  0.7818609E-02  0.8561341E-01
       -2   -1    0    0    0  501  0.00000000000E+00  0.00000000000E+00  0.92655888899E+03  0.92655888900E+03  0.25500000920E-02 0.  1.
        2   -1    0    0  501    0  0.00000000000E+00  0.00000000000E+00 -0.11896350493E+04  0.11896350493E+04  0.25500000920E-02 0. -1.
    10030    2    1    2    0    0  0.00000000000E+00  0.00000000000E+00 -0.26307616027E+03  0.21161939383E+04  0.20997780164E+04 0.  0.
        4    1    3    3  502    0  0.83683628280E+03  0.58178572233E+03 -0.38549165294E+03  0.10896673888E+04  0.12699999809E+01 0. -1.
       -4    1    3    3    0  502 -0.83683628280E+03 -0.58178572233E+03  0.12241549267E+03  0.10265265494E+04  0.12699999809E+01 0.  1.
</event>
<event>
 5   0  0.1390735E-05  0.2100428E+04  0.7818609E-02  0.8561055E-01
       -2   -1    0    0    0  501  0.00000000000E+00  0.00000000000E+00  0.65076199483E+03  0.65076199483E+03  0.25500000920E-02 0. -1.
        2   -1    0    0  501    0  0.00000000000E+00  0.00000000000E+00 -0.16948585049E+04  0.16948585049E+04  0.25500000920E-02 0.  1.
    10030    2    1    2    0    0  0.00000000000E+00  0.00000000000E+00 -0.10440965101E+04  0.23456204998E+04  0.21004280532E+04 0.  0.
        5    1    3    3  502    0 -0.37316487973E+03 -0.93884357956E+03 -0.84231579301E+03  0.13153696361E+04  0.46999998093E+01 0.  1.
       -5    1    3    3    0  502  0.37316487973E+03  0.93884357956E+03 -0.20178071707E+03  0.10302508637E+04  0.46999998093E+01 0. -1.
</event>
<event>
 5   0  0.6599245E-06  0.2100125E+04  0.7818609E-02  0.8561188E-01
       -1   -1    0    0    0  501  0.00000000000E+00  0.00000000000E+00  0.54432598062E+03  0.54432598065E+03  0.50400001928E-02 0.  1.
        1   -1    0    0  501    0  0.00000000000E+00  0.00000000000E+00 -0.20256813203E+04  0.20256813203E+04  0.50400001928E-02 0. -1.
    10030    2    1    2    0    0  0.00000000000E+00  0.00000000000E+00 -0.14813553396E+04  0.25700073009E+04  0.21001247307E+04 0.  0.
        2    1    3    3  502    0  0.67580527905E+03 -0.71254767230E+02  0.23895756496E+03  0.72034070751E+03  0.25500000920E-02 0.  1.
       -2    1    3    3    0  502 -0.67580527905E+03  0.71254767230E+02 -0.17203129046E+04  0.18496665934E+04  0.25500000920E-02 0. -1.
</event>
<event>
 5   0  0.6599245E-06  0.2097838E+04  0.7818609E-02  0.8562196E-01
       -1   -1    0    0    0  501  0.00000000000E+00  0.00000000000E+00  0.11378243702E+04  0.11378243702E+04  0.50400001928E-02 0. -1.
        1   -1    0    0  501    0  0.00000000000E+00  0.00000000000E+00 -0.96696042760E+03  0.96696042762E+03  0.50400001928E-02 0.  1.
    10030    2    1    2    0    0  0.00000000000E+00  0.00000000000E+00  0.17086394258E+03  0.21047847978E+04  0.20978380677E+04 0.  0.
        2    1    3    3  502    0 -0.10256089932E+04  0.12837904000E+03 -0.93698182577E+02  0.10378508247E+04  0.25500000920E-02 0.  1.
       -2    1    3    3    0  502  0.10256089932E+04 -0.12837904000E+03  0.26456212516E+03  0.10669339731E+04  0.25500000920E-02 0. -1.
</event>
<event>
 5   0  0.6283269E-06  0.2053251E+04  0.7818609E-02  0.8582121E-01
       -1   -1    0    0    0  501  0.00000000000E+00  0.00000000000E+00  0.17987782267E+04  0.17987782267E+04  0.50400001928E-02 0.  1.
        1   -1    0    0  501    0  0.00000000000E+00  0.00000000000E+00 -0.58593076246E+03  0.58593076248E+03  0.50400001928E-02 0. -1.
    10030    2    1    2    0    0  0.00000000000E+00  0.00000000000E+00  0.12128474642E+04  0.23847089892E+04  0.20532505915E+04 0.  0.
        1    1    3    3  502    0  0.10240216982E+04 -0.52262618457E+01  0.69107082935E+03  0.12354054571E+04  0.50400001928E-02 0.  1.
       -1    1    3    3    0  502 -0.10240216982E+04  0.52262618457E+01  0.52177663485E+03  0.11493035321E+04  0.50400001928E-02 0. -1.
</event>
<event>
 5   0  0.6917078E-06  0.2093904E+04  0.7818609E-02  0.8563933E-01
       -1   -1    0    0    0  501  0.00000000000E+00  0.00000000000E+00  0.75338528525E+03  0.75338528527E+03  0.50400001928E-02 0. -1.
        1   -1    0    0  501    0  0.00000000000E+00  0.00000000000E+00 -0.14549116051E+04  0.14549116051E+04  0.50400001928E-02 0.  1.
    10030    2    1    2    0    0  0.00000000000E+00  0.00000000000E+00 -0.70152631987E+03  0.22082968904E+04  0.20939044817E+04 0.  0.
        5    1    3    3  502    0  0.10158027385E+04  0.25286537503E+03 -0.36874773355E+03  0.11098617403E+04  0.46999998093E+01 0.  1.
       -5    1    3    3    0  502 -0.10158027385E+04 -0.25286537503E+03 -0.33277858631E+03  0.10984351501E+04  0.46999998093E+01 0. -1.
</event>
<event>
 5   0  0.6589193E-06  0.2099676E+04  0.7818609E-02  0.8561386E-01
        1   -1    0    0  501    0  0.00000000000E+00  0.00000000000E+00  0.94410074541E+03  0.94410074542E+03  0.50400001928E-02 0.  1.
       -1   -1    0    0    0  501  0.00000000000E+00  0.00000000000E+00 -0.11674181534E+04  0.11674181534E+04  0.50400001928E-02 0. -1.
    10030    2    1    2    0    0  0.00000000000E+00  0.00000000000E+00 -0.22331740795E+03  0.21115188988E+04  0.20996764978E+04 0.  0.
        3    1    3    3  502    0 -0.62410983906E+03  0.21821593418E+03 -0.93175130803E+03  0.11424936741E+04  0.10100000352E+00 0. -1.
       -3    1    3    3    0  502  0.62410983906E+03 -0.21821593418E+03  0.70843390007E+03  0.96902522470E+03  0.10100000352E+00 0.  1.
</event>
<event>
 5   0  0.1395356E-05  0.2099685E+04  0.7818609E-02  0.8561382E-01
        2   -1    0    0  501    0  0.00000000000E+00  0.00000000000E+00  0.14494665315E+04  0.14494665315E+04  0.25500000920E-02 0. -1.
       -2   -1    0    0    0  501  0.00000000000E+00  0.00000000000E+00 -0.76039649443E+03  0.76039649443E+03  0.25500000920E-02 0.  1.
    10030    2    1    2    0    0  0.00000000000E+00  0.00000000000E+00  0.68907003706E+03  0.22098630259E+04  0.20996849948E+04 0.  0.
        1    1    3    3  502    0  0.60039002637E+03  0.78655820465E+03  0.71369270501E+03  0.12200406839E+04  0.50400001928E-02 0. -1.
       -1    1    3    3    0  502 -0.60039002637E+03 -0.78655820465E+03 -0.24622667947E+02  0.98982234207E+03  0.50400001928E-02 0.  1.
</event>
<event>
 5   0  0.6589193E-06  0.2097917E+04  0.7818609E-02  0.8562161E-01
       -1   -1    0    0    0  501  0.00000000000E+00  0.00000000000E+00  0.71688726522E+03  0.71688726524E+03  0.50400001928E-02 0. -1.
        1   -1    0    0  501    0  0.00000000000E+00  0.00000000000E+00 -0.15348495533E+04  0.15348495533E+04  0.50400001928E-02 0.  1.
    10030    2    1    2    0    0  0.00000000000E+00  0.00000000000E+00 -0.81796228807E+03  0.22517368185E+04  0.20979171564E+04 0.  0.
        3    1    3    3  502    0  0.93690941323E+03  0.11128035138E+03  0.83029954048E+02  0.94714125065E+03  0.10100000352E+00 0. -1.
       -3    1    3    3    0  502 -0.93690941323E+03 -0.11128035138E+03 -0.90099224212E+03  0.13045955679E+04  0.10100000352E+00 0.  1.
</event>
<event>
 5   0  0.6283269E-06  0.2101563E+04  0.7818609E-02  0.8560555E-01
       -1   -1    0    0    0  501  0.00000000000E+00  0.00000000000E+00  0.77952131780E+03  0.77952131782E+03  0.50400001928E-02 0. -1.
        1   -1    0    0  501    0  0.00000000000E+00  0.00000000000E+00 -0.14164354923E+04  0.14164354924E+04  0.50400001928E-02 0.  1.
    10030    2    1    2    0    0  0.00000000000E+00  0.00000000000E+00 -0.63691417454E+03  0.21959568102E+04  0.21015629056E+04 0.  0.
        1    1    3    3  502    0 -0.66683823039E+03 -0.17185235752E+03 -0.11477908375E+04  0.13385179359E+04  0.50400001928E-02 0.  1.
       -1    1    3    3    0  502  0.66683823039E+03  0.17185235752E+03  0.51087666291E+03  0.85743887422E+03  0.50400001928E-02 0. -1.
</event>
<event>
 5   0  0.6283269E-06  0.2079672E+04  0.7818609E-02  0.8570251E-01
        1   -1    0    0  501    0  0.00000000000E+00  0.00000000000E+00  0.13204748778E+04  0.13204748778E+04  0.50400001928E-02 0. -1.
       -1   -1    0    0    0  501  0.00000000000E+00  0.00000000000E+00 -0.81884131501E+03  0.81884131503E+03  0.50400001928E-02 0.  1.
    10030    2    1    2    0    0  0.00000000000E+00  0.00000000000E+00  0.50163356279E+03  0.21393161928E+04  0.20796724602E+04 0.  0.
        1    1    3    3  502    0 -0.44146248599E+03  0.20936663716E+03  0.11950390474E+04  0.12910622913E+04  0.50400001928E-02 0. -1.
       -1    1    3    3    0  502  0.44146248599E+03 -0.20936663716E+03 -0.69340548461E+03  0.84825390150E+03  0.50400001928E-02 0.  1.
</event>
<event>
 5   0  0.6599245E-06  0.2104444E+04  0.7818609E-02  0.8559288E-01
        1   -1    0    0  501    0  0.00000000000E+00  0.00000000000E+00  0.12670136419E+04  0.12670136419E+04  0.50400001928E-02 0.  1.
       -1   -1    0    0    0  501  0.00000000000E+00  0.00000000000E+00 -0.87384347195E+03  0.87384347196E+03  0.50400001928E-02 0. -1.
    10030    2    1    2    0    0  0.00000000000E+00  0.00000000000E+00  0.39317016991E+03  0.21408571138E+04  0.21044444396E+04 0.  0.
        2    1    3    3  502    0 -0.17570571973E+03  0.30842812787E+03 -0.81109485224E+03  0.88536730758E+03  0.25500000920E-02 0. -1.
       -2    1    3    3    0  502  0.17570571973E+03 -0.30842812787E+03  0.12042650221E+04  0.12554898062E+04  0.25500000920E-02 0.  1.
</event>
<event>
 5   0  0.6589193E-06  0.2105385E+04  0.7818609E-02  0.8558875E-01
       -1   -1    0    0    0  501  0.00000000000E+00  0.00000000000E+00  0.13549288164E+04  0.13549288164E+04  0.50400001928E-02 0. -1.
        1   -1    0    0  501    0  0.00000000000E+00  0.00000000000E+00 -0.81787464283E+03  0.81787464285E+03  0.50400001928E-02 0.  1.
    10030    2    1    2    0    0  0.00000000000E+00  0.00000000000E+00  0.53705417358E+03  0.21728034593E+04  0.21053854011E+04 0.  0.
        3    1    3    3  502    0 -0.30183452508E+03 -0.97085235874E+03  0.55022086703E+03  0.11560282850E+04  0.10100000352E+00 0. -1.
       -3    1    3    3    0  502  0.30183452508E+03  0.97085235874E+03 -0.13166693449E+02  0.10167751743E+04  0.10100000352E+00 0.  1.
</event>
<event>
 5   0  0.1395356E-05  0.2107372E+04  0.7818609E-02  0.8558003E-01
       -2   -1    0    0    0  501  0.00000000000E+00  0.00000000000E+00  0.66415552323E+03  0.66415552323E+03  0.25500000920E-02 0. -1.
        2   -1    0    0  501    0  0.00000000000E+00  0.00000000000E+00 -0.16716786357E+04  0.16716786357E+04  0.25500000920E-02 0.  1.
    10030    2    1    2    0    0  0.00000000000E+00  0.00000000000E+00 -0.10075231125E+04  0.23358341589E+04  0.21073723913E+04 0.  0.
        1    1    3    3  502    0 -0.18031218538E+03 -0.99667379394E+03 -0.82574192380E+03  0.13067979417E+04  0.50400001928E-02 0.  1.
       -1    1    3    3    0  502  0.18031218538E+03  0.99667379394E+03 -0.18178118865E+03  0.10290362172E+04  0.50400001928E-02 0. -1.
</event>
<event>
 5   0  0.1344501E-05  0.2100231E+04  0.7818609E-02  0.8561142E-01
        2   -1    0    0  501    0  0.00000000000E+00  0.00000000000E+00  0.14644891173E+04  0.14644891173E+04  0.25500000920E-02 0. -1.
       -2   -1    0    0    0  501  0.00000000000E+00  0.00000000000E+00 -0.75298799987E+03  0.75298799987E+03  0.25500000920E-02 0.  1.
    10030    2    1    2    0    0  0.00000000000E+00  0.00000000000E+00  0.71150111739E+03  0.22174771171E+04  0.21002311599E+04 0.  0.
        3    1    3    3  502    0  0.21069127644E+03  0.13137961809E+03 -0.72154894210E+03  0.76307555593E+03  0.10100000352E+00 0.  1.
       -3    1    3    3    0  502 -0.21069127644E+03 -0.13137961809E+03  0.14330500595E+04  0.14544015612E+04  0.10100000352E+00 0. -1.
</event>
<event>
 5   0  0.6589193E-06  0.2099679E+04  0.7818609E-02  0.8561385E-01
        1   -1    0    0  501    0  0.00000000000E+00  0.00000000000E+00  0.86036826077E+03  0.86036826078E+03  0.50400001928E-02 0. -1.
       -1   -1    0    0    0  501  0.00000000000E+00  0.00000000000E+00 -0.12810363764E+04  0.12810363764E+04  0.50400001928E-02 0.  1.
    10030    2    1    2    0    0  0.00000000000E+00  0.00000000000E+00 -0.42066811567E+03  0.21414046372E+04  0.20996790604E+04 0.  0.
        3    1    3    3  502    0  0.71710177954E+03  0.10827288008E+03  0.56383240189E+03  0.91862123120E+03  0.10100000352E+00 0. -1.
       -3    1    3    3    0  502 -0.71710177954E+03 -0.10827288008E+03 -0.98450051755E+03  0.12227834060E+04  0.10100000352E+00 0.  1.
</event>
<event>
 5   0  0.1390735E-05  0.2102764E+04  0.7818609E-02  0.8560027E-01
       -2   -1    0    0    0  501  0.00000000000E+00  0.00000000000E+00  0.65083436867E+03  0.65083436868E+03  0.25500000920E-02 0. -1.
        2   -1    0    0  501    0  0.00000000000E+00  0.00000000000E+00 -0.16984410078E+04  0.16984410078E+04  0.25500000920E-02 0.  1.
    10030    2    1    2    0    0  0.00000000000E+00  0.00000000000E+00 -0.10476066391E+04  0.23492753765E+04  0.21027636872E+04 0.  0.
        5    1    3    3  502    0  0.29639846674E+03 -0.40391934229E+03 -0.15564902750E+04  0.16351412637E+04  0.46999998093E+01 0.  1.
       -5    1    3    3    0  502 -0.29639846674E+03  0.40391934229E+03  0.50888363586E+03  0.71413411276E+03  0.46999998093E+01 0. -1.
</event>
<event>
 5   0  0.6238363E-06  0.2110403E+04  0.7818609E-02  0.8556675E-01
        1   -1    0    0  501    0  0.00000000000E+00  0.00000000000E+00  0.11709476424E+04  0.11709476425E+04  0.50400001928E-02 0.  1.
       -1   -1    0    0    0  501  0.00000000000E+00  0.00000000000E+00 -0.95089659906E+03  0.95089659907E+03  0.50400001928E-02 0. -1.
    10030    2    1    2    0    0  0.00000000000E+00  0.00000000000E+00  0.22005104339E+03  0.21218442415E+04  0.21104029292E+04 0.  0.
        4    1    3    3  502    0 -0.16992800930E+02  0.10072574719E+04  0.42572167022E+03  0.10936621615E+04  0.12699999809E+01 0.  1.
       -4    1    3    3    0  502  0.16992800930E+02 -0.10072574719E+04 -0.20567062684E+03  0.10281820800E+04  0.12699999809E+01 0. -1.
</event>
<event>
 5   0  0.6599245E-06  0.2098393E+04  0.7818609E-02  0.8561951E-01
       -1   -1    0    0    0  501  0.00000000000E+00  0.00000000000E+00  0.83905323081E+03  0.83905323083E+03  0.50400001928E-02 0. -1.
        1   -1    0    0  501    0  0.00000000000E+00  0.00000000000E+00 -0.13119713099E+04  0.13119713099E+04  0.50400001928E-02 0.  1.
    10030    2    1    2    0    0  0.00000000000E+00  0.00000000000E+00 -0.47291807909E+03  0.21510245407E+04  0.20983934487E+04 0.  0.
        2    1    3    3  502    0 -0.56893175463E+03 -0.30659598729E+03 -0.10837057828E+04  0.12617855066E+04  0.25500000920E-02 0.  1.
       -2    1    3    3    0  502  0.56893175463E+03  0.30659598729E+03  0.61078770374E+03  0.88923903417E+03  0.25500000920E-02 0. -1.
</event>
<event>
 5   0  0.6283269E-06  0.2101728E+04  0.7818609E-02  0.8560483E-01
       -1   -1    0    0    0  501  0.00000000000E+00  0.00000000000E+00  0.33959121930E+04  0.33959121930E+04  0.50400001928E-02 0. -1.
        1   -1    0    0  501    0  0.00000000000E+00  0.00000000000E+00 -0.32518953222E+03  0.32518953226E+03  0.50400001928E-02 0.  1.
    10030    2    1    2    0    0  0.00000000000E+00  0.00000000000E+00  0.30707226608E+04  0.37211017253E+04  0.21017279535E+04 0.  0.
        1    1    3    3  502    0 -0.82809243085E+03  0.60611753785E+03  0.19359771829E+04  0.21911465484E+04  0.50400001928E-02 0. -1.
       -1    1    3    3    0  502  0.82809243085E+03 -0.60611753785E+03  0.11347454779E+04  0.15299551769E+04  0.50400001928E-02 0.  1.
</event>
<event>
 5   0  0.6917078E-06  0.2097189E+04  0.7818609E-02  0.8562482E-01
        1   -1    0    0  501    0  0.00000000000E+00  0.00000000000E+00  0.14935582076E+04  0.14935582077E+04  0.50400001928E-02 0.  1.
       -1   -1    0    0    0  501  0.00000000000E+00  0.00000000000E+00 -0.73619551418E+03  0.73619551420E+03  0.50400001928E-02 0. -1.
    10030    2    1    2    0    0  0.00000000000E+00  0.00000000000E+00  0.75736269346E+03  0.22297537218E+04  0.20971894074E+04 0.  0.
        5    1    3    3  502    0  0.25412727835E+03 -0.99688045557E+03  0.16293226943E+03  0.10415950896E+04  0.46999998093E+01 0.  1.
       -5    1    3    3    0  502 -0.25412727835E+03  0.99688045557E+03  0.59443042403E+03  0.11881586322E+04  0.46999998093E+01 0. -1.
</event>
<event>
 5   0  0.1390735E-05  0.2102395E+04  0.7818609E-02  0.8560189E-01
        2   -1    0    0  501    0  0.00000000000E+00  0.00000000000E+00  0.82687653946E+03  0.82687653946E+03  0.25500000920E-02 0.  1.
       -2   -1    0    0    0  501  0.00000000000E+00  0.00000000000E+00 -0.13363743601E+04  0.13363743601E+04  0.25500000920E-02 0. -1.
    10030    2    1    2    0    0  0.00000000000E+00  0.00000000000E+00 -0.50949782069E+03  0.21632508996E+04  0.21023954018E+04 0.  0.
        5    1    3    3  502    0 -0.82653515258E+03 -0.64731658718E+03 -0.20015275344E+03  0.10687667366E+04  0.46999998093E+01 0.  1.
       -5    1    3    3    0  502  0.82653515258E+03  0.64731658718E+03 -0.30934506725E+03  0.10944841630E+04  0.46999998093E+01 0. -1.
</event>
<event>
 5   0  0.1441136E-05  0.2100232E+04  0.7818609E-02  0.8561141E-01
        2   -1    0    0  501    0  0.00000000000E+00  0.00000000000E+00  0.12770043410E+04  0.12770043410E+04  0.25500000920E-02 0. -1.
       -2   -1    0    0    0  501  0.00000000000E+00  0.00000000000E+00 -0.86353934538E+03  0.86353934538E+03  0.25500000920E-02 0.  1.
    10030    2    1    2    0    0  0.00000000000E+00  0.00000000000E+00  0.41346499563E+03  0.21405436864E+04  0.21002318850E+04 0.  0.
        4    1    3    3  502    0  0.78329029194E+03 -0.14480907114E+03  0.90413866754E+03  0.12049820296E+04  0.12699999809E+01 0. -1.
       -4    1    3    3    0  502 -0.78329029194E+03  0.14480907114E+03 -0.49067367191E+03  0.93556165683E+03  0.12699999809E+01 0.  1.
</event>
<event>
 5   0  0.6917078E-06  0.2099985E+04  0.7818609E-02  0.8561250E-01
       -1   -1    0    0    0  501  0.00000000000E+00  0.00000000000E+00  0.94344596711E+03  0.94344596713E+03  0.50400001928E-02 0. -1.
        1   -1    0    0  501    0  0.00000000000E+00  0.00000000000E+00 -0.11685714574E+04  0.11685714575E+04  0.50400001928E-02 0.  1.
    10030    2    1    2    0    0  0.00000000000E+00  0.00000000000E+00 -0.22512549034E+03  0.21120174246E+04  0.20999847893E+04 0.  0.
        5    1    3    3  502    0 -0.86836928117E+03 -0.29906427522E+03 -0.62435701405E+03  0.11105622091E+04  0.46999998093E+01 0.  1.
       -5    1    3    3    0  502  0.86836928117E+03  0.29906427522E+03  0.39923152372E+03  0.10014552155E+04  0.46999998093E+01 0. -1.
</event>
<event>
 5   0  0.6917078E-06  0.2105639E+04  0.7818609E-02  0.8558764E-01
        1   -1    0    0  501    0  0.00000000000E+00  0.00000000000E+00  0.16378004127E+04  0.16378004127E+04  0.50400001928E-02 0. -1.
       -1   -1    0    0    0  501  0.00000000000E+00  0.00000000000E+00 -0.67677880737E+03  0.67677880739E+03  0.50400001928E-02 0.  1.
    10030    2    1    2    0    0  0.00000000000E+00  0.00000000000E+00  0.96102160529E+03  0.23145792200E+04  0.21056387250E+04 0.  0.
        5    1    3    3  502    0  0.40914853882E+03  0.40211179991E+03  0.14508941638E+04  0.15601962669E+04  0.46999998093E+01 0. -1.
       -5    1    3    3    0  502 -0.40914853882E+03 -0.40211179991E+03 -0.48987255855E+03  0.75438295319E+03  0.46999998093E+01 0.  1.
</event>
<event>
 5   0  0.1395356E-05  0.2099734E+04  0.7818609E-02  0.8561361E-01
        2   -1    0    0  501    0  0.00000000000E+00  0.00000000000E+00  0.11574610041E+04  0.11574610041E+04  0.25500000920E-02 0. -1.
       -2   -1    0    0    0  501  0.00000000000E+00  0.00000000000E+00 -0.95227432336E+03  0.95227432336E+03  0.25500000920E-02 0.  1.
    10030    2    1    2    0    0  0.00000000000E+00  0.00000000000E+00  0.20518668071E+03  0.21097353274E+04  0.20997336921E+04 0.  0.
        1    1    3    3  502    0 -0.97997907969E+03 -0.10743652050E+03  0.46530981424E+03  0.10901444059E+04  0.50400001928E-02 0. -1.
       -1    1    3    3    0  502  0.97997907969E+03  0.10743652050E+03 -0.26012313353E+03  0.10195909215E+04  0.50400001928E-02 0.  1.
</event>
<event>
 5   0  0.1441136E-05  0.2100263E+04  0.7818609E-02  0.8561128E-01
        2   -1    0    0  501    0  0.00000000000E+00  0.00000000000E+00  0.92571446871E+03  0.92571446871E+03  0.25500000920E-02 0.  1.
       -2   -1    0    0    0  501  0.00000000000E+00  0.00000000000E+00 -0.11912701491E+04  0.11912701491E+04  0.25500000920E-02 0. -1.
    10030    2    1    2    0    0  0.00000000000E+00  0.00000000000E+00 -0.26555568044E+03  0.21169846179E+04  0.21002628533E+04 0.  0.
        4    1    3    3  502    0 -0.67655557243E+03  0.64774170429E+03 -0.61140329682E+03  0.11185313417E+04  0.12699999809E+01 0. -1.
       -4    1    3    3    0  502  0.67655557243E+03 -0.64774170429E+03  0.34584761638E+03  0.99845327618E+03  0.12699999809E+01 0.  1.
</event>
<event>
 5   0  0.1441136E-05  0.2100590E+04  0.7818609E-02  0.8560983E-01
       -2   -1    0    0    0  501  0.00000000000E+00  0.00000000000E+00  0.11508882959E+04  0.11508882959E+04  0.25500000920E-02 0. -1.
        2   -1    0    0  501    0  0.00000000000E+00  0.00000000000E+00 -0.95849450614E+03  0.95849450615E+03  0.25500000920E-02 0.  1.
    10030    2    1    2    0    0  0.00000000000E+00  0.00000000000E+00  0.19239378972E+03  0.21093828020E+04  0.21005904968E+04 0.  0.
        4    1    3    3  502    0 -0.21903674555E+03  0.29719111222E+03 -0.89118817831E+03  0.96463342009E+03  0.12699999809E+01 0.  1.
       -4    1    3    3    0  502  0.21903674555E+03 -0.29719111222E+03  0.10835819680E+04  0.11447493819E+04  0.12699999809E+01 0. -1.
</event>
<event>
 5   0  0.6238363E-06  0.2100422E+04  0.7818609E-02  0.8561057E-01
        1   -1    0    0  501    0  0.00000000000E+00  0.00000000000E+00  0.24645466161E+04  0.24645466161E+04  0.50400001928E-02 0. -1.
       -1   -1    0    0    0  501  0.00000000000E+00  0.00000000000E+00 -0.44752377208E+03  0.44752377211E+03  0.50400001928E-02 0.  1.
    10030    2    1    2    0    0  0.00000000000E+00  0.00000000000E+00  0.20170228440E+04  0.29120703882E+04  0.21004220511E+04 0.  0.
        4    1    3    3  502    0  0.66927858719E+03 -0.78758199140E+03  0.75016648959E+03  0.12770945914E+04  0.12699999809E+01 0.  1.
       -4    1    3    3    0  502 -0.66927858719E+03  0.78758199140E+03  0.12668563545E+04  0.16349757968E+04  0.12699999809E+01 0. -1.
</event>
<event>
 5   0  0.6589193E-06  0.2099394E+04  0.7818609E-02  0.8561511E-01
        1   -1    0    0  501    0  0.00000000000E+00  0.00000000000E+00  0.10512328239E+04  0.10512328239E+04  0.50400001928E-02 0.  1.
       -1   -1    0    0    0  501  0.00000000000E+00  0.00000000000E+00 -0.10481630414E+04  0.10481630414E+04  0.50400001928E-02 0. -1.
    10030    2    1    2    0    0  0.00000000000E+00  0.00000000000E+00  0.30697824872E+01  0.20993958653E+04  0.20993936209E+04 0.  0.
        3    1    3    3  502    0 -0.23610627296E+03 -0.45759813010E+03 -0.91319072438E+03  0.10483604009E+04  0.10100000352E+00 0. -1.
       -3    1    3    3    0  502  0.23610627296E+03  0.45759813010E+03  0.91626050687E+03  0.10510354644E+04  0.10100000352E+00 0.  1.
</event>
<event>
 5   0  0.6589193E-06  0.2092005E+04  0.7818609E-02  0.8564774E-01
        1   -1    0    0  501    0  0.00000000000E+00  0.00000000000E+00  0.13010140362E+04  0.13010140362E+04  0.50400001928E-02 0.  1.
       -1   -1    0    0    0  501  0.00000000000E+00  0.00000000000E+00 -0.84097558779E+03  0.84097558781E+03  0.50400001928E-02 0. -1.
    10030    2    1    2    0    0  0.00000000000E+00  0.00000000000E+00  0.46003844840E+03  0.21419896240E+04  0.20920048220E+04 0.  0.
        3    1    3    3  502    0 -0.18470832216E+03  0.10274276127E+04  0.16212985024E+03  0.10564141054E+04  0.10100000352E+00 0. -1.
       -3    1    3    3    0  502  0.18470832216E+03 -0.10274276127E+04  0.29790859816E+03  0.10855755186E+04  0.10100000352E+00 0.  1.
</event>
<event>
 5   0  0.1441136E-05  0.2099632E+04  0.7818609E-02  0.8561405E-01
        2   -1    0    0  501    0  0.00000000000E+00  0.00000000000E+00  0.15612169737E+04  0.15612169737E+04  0.25500000920E-02 0. -1.
       -2   -1    0    0    0  501  0.00000000000E+00  0.00000000000E+00 -0.70593242110E+03  0.70593242110E+03  0.25500000920E-02 0.  1.
    10030    2    1    2    0    0  0.00000000000E+00  0.00000000000E+00  0.85528455263E+03  0.22671493948E+04  0.20996320422E+04 0.  0.
        4    1    3    3  502    0 -0.45892451943E+03 -0.94414657712E+03  0.43774801804E+03  0.11373870994E+04  0.12699999809E+01 0.  1.
       -4    1    3    3    0  502  0.45892451943E+03  0.94414657712E+03  0.41753653459E+03  0.11297622955E+04  0.12699999809E+01 0. -1.
</event>
<event>
 5   0  0.6238363E-06  0.2096431E+04  0.7818609E-02  0.8562817E-01
        1   -1    0    0  501    0  0.00000000000E+00  0.00000000000E+00  0.22705586782E+04  0.22705586782E+04  0.50400001928E-02 0. -1.
       -1   -1    0    0    0  501  0.00000000000E+00  0.00000000000E+00 -0.48391406731E+03  0.48391406734E+03  0.50400001928E-02 0.  1.
    10030    2    1    2    0    0  0.00000000000E+00  0.00000000000E+00  0.17866446109E+04  0.27544727455E+04  0.20964305713E+04 0.  0.
        4    1    3    3  502    0 -0.21496692512E+03  0.22737248569E+02 -0.45430938002E+03  0.50311667339E+03  0.12699999809E+01 0.  1.
       -4    1    3    3    0  502  0.21496692512E+03 -0.22737248569E+02  0.22409539909E+04  0.22513560722E+04  0.12699999809E+01 0. -1.
</event>
<event>
 5   0  0.1395356E-05  0.2097877E+04  0.7818609E-02  0.8562179E-01
        2   -1    0    0  501    0  0.00000000000E+00  0.00000000000E+00  0.26391405867E+04  0.26391405867E+04  0.25500000920E-02 0. -1.
       -2   -1    0    0    0  501  0.00000000000E+00  0.00000000000E+00 -0.41690555524E+03  0.41690555525E+03  0.25500000920E-02 0.  1.
    10030    2    1    2    0    0  0.00000000000E+00  0.00000000000E+00  0.22222350314E+04  0.30560461419E+04  0.20978773765E+04 0.  0.
        1    1    3    3  502    0  0.47507264158E+03 -0.87756566277E+03  0.15819303576E+04  0.18703794170E+04  0.50400001928E-02 0. -1.
       -1    1    3    3    0  502 -0.47507264158E+03  0.87756566277E+03  0.64030467386E+03  0.11856667249E+04  0.50400001928E-02 0.  1.
</event>
<event>
 5   0  0.6917078E-06  0.2101556E+04  0.7818609E-02  0.8560558E-01
        1   -1    0    0  501    0  0.00000000000E+00  0.00000000000E+00  0.15570661870E+04  0.15570661870E+04  0.50400001928E-02 0.  1.
       -1   -1    0    0    0  501  0.00000000000E+00  0.00000000000E+00 -0.70911232355E+03  0.70911232357E+03  0.50400001928E-02 0. -1.
    10030    2    1    2    0    0  0.00000000000E+00  0.00000000000E+00  0.84795386343E+03  0.22661785106E+04  0.21015563964E+04 0.  0.
        5    1    3    3  502    0 -0.67868598806E+03  0.37943340346E+03 -0.33816023313E+03  0.84791438914E+03  0.46999998093E+01 0. -1.
       -5    1    3    3    0  502  0.67868598806E+03 -0.37943340346E+03  0.11861140966E+04  0.14182641214E+04  0.46999998093E+01 0.  1.
</event>
<event>
 5   0  0.1344501E-05  0.2096449E+04  0.7818609E-02  0.8562809E-01
       -2   -1    0    0    0  501  0.00000000000E+00  0.00000000000E+00  0.81426315268E+03  0.81426315269E+03  0.25500000920E-02 0.  1.
        2   -1    0    0  501    0  0.00000000000E+00  0.00000000000E+00 -0.13494102706E+04  0.13494102706E+04  0.25500000920E-02 0. -1.
    10030    2    1    2    0    0  0.00000000000E+00  0.00000000000E+00 -0.53514711790E+03  0.21636734233E+04  0.20964494377E+04 0.  0.
        3    1    3    3  502    0  0.26278077554E+03  0.91199481251E+03 -0.72679844068E+03  0.11954180263E+04  0.10100000352E+00 0. -1.
       -3    1    3    3    0  502 -0.26278077554E+03 -0.91199481251E+03  0.19165132277E+03  0.96825539697E+03  0.10100000352E+00 0.  1.
</event>
<event>
 5   0  0.1395356E-05  0.2098900E+04  0.7818609E-02  0.8561728E-01
       -2   -1    0    0    0  501  0.00000000000E+00  0.00000000000E+00  0.88554833602E+03  0.88554833603E+03  0.25500000920E-02 0.  1.
        2   -1    0    0  501    0  0.00000000000E+00  0.00000000000E+00 -0.12436871704E+04  0.12436871704E+04  0.25500000920E-02 0. -1.
    10030    2    1    2    0    0  0.00000000000E+00  0.00000000000E+00 -0.35813883442E+03  0.21292355065E+04  0.20988998112E+04 0.  0.
        1    1    3    3  502    0  0.10453865036E+04  0.78479739348E+02 -0.22827920953E+03  0.10728948732E+04  0.50400001928E-02 0.  1.
       -1    1    3    3    0  502 -0.10453865036E+04 -0.78479739348E+02 -0.12985962489E+03  0.10563406333E+04  0.50400001928E-02 0. -1.
</event>
<event>
 5   0  0.6917078E-06  0.2098352E+04  0.7818609E-02  0.8561970E-01
       -1   -1    0    0    0  501  0.00000000000E+00  0.00000000000E+00  0.74482814723E+03  0.74482814724E+03  0.50400001928E-02 0.  1.
        1   -1    0    0  501    0  0.00000000000E+00  0.00000000000E+00 -0.14778854139E+04  0.14778854139E+04  0.50400001928E-02 0. -1.
    10030    2    1    2    0    0  0.00000000000E+00  0.00000000000E+00 -0.73305726663E+03  0.22227135611E+04  0.20983523581E+04 0.  0.
        5    1    3    3  502    0  0.33575076393E+03 -0.74118692321E+02  0.68344211035E+03  0.76507343714E+03  0.46999998093E+01 0.  1.
       -5    1    3    3    0  502 -0.33575076393E+03  0.74118692321E+02 -0.14164993770E+04  0.14576401240E+04  0.46999998093E+01 0. -1.
</event>
<event>
 5   0  0.6599245E-06  0.2101531E+04  0.7818609E-02  0.8560569E-01
       -1   -1    0    0    0  501  0.00000000000E+00  0.00000000000E+00  0.87817755838E+03  0.87817755840E+03  0.50400001928E-02 0.  1.
        1   -1    0    0  501    0  0.00000000000E+00  0.00000000000E+00 -0.12572719972E+04  0.12572719972E+04  0.50400001928E-02 0. -1.
    10030    2    1    2    0    0  0.00000000000E+00  0.00000000000E+00 -0.37909443883E+03  0.21354495556E+04  0.21015309208E+04 0.  0.
        2    1    3    3  502    0 -0.62850097424E+03  0.69876040561E+03 -0.66705567661E+03  0.11524941886E+04  0.25500000920E-02 0. -1.
       -2    1    3    3    0  502  0.62850097424E+03 -0.69876040561E+03  0.28796123778E+03  0.98295536701E+03  0.25500000920E-02 0.  1.
</event>
<event>
 5   0  0.1398469E-05  0.2101468E+04  0.7818609E-02  0.8560597E-01
        2   -1    0    0  501    0  0.00000000000E+00  0.00000000000E+00  0.93358839822E+03  0.93358839823E+03  0.25500000920E-02 0. -1.
       -2   -1    0    0    0  501  0.00000000000E+00  0.00000000000E+00 -0.11825785799E+04  0.11825785799E+04  0.25500000920E-02 0.  1.
    10030    2    1    2    0    0  0.00000000000E+00  0.00000000000E+00 -0.24899018172E+03  0.21161669782E+04  0.21014677178E+04 0.  0.
        2    1    3    3  502    0  0.41125930714E+03 -0.32476248767E+03  0.79260945779E+03  0.95017611194E+03  0.25500000920E-02 0. -1.
       -2    1    3    3    0  502 -0.41125930714E+03  0.32476248767E+03 -0.10415996395E+04  0.11659908662E+04  0.25500000920E-02 0.  1.
</event>
<event>
 5   0  0.1398469E-05  0.2083027E+04  0.7818609E-02  0.8568757E-01
        2   -1    0    0  501    0  0.00000000000E+00  0.00000000000E+00  0.59041447846E+03  0.59041447846E+03  0.25500000920E-02 0.  1.
       -2   -1    0    0    0  501  0.00000000000E+00  0.00000000000E+00 -0.18372684384E+04  0.18372684384E+04  0.25500000920E-02 0. -1.
    10030    2    1    2    0    0  0.00000000000E+00  0.00000000000E+00 -0.12468539600E+04  0.24276829169E+04  0.20830265355E+04 0.  0.
        2    1    3    3  502    0 -0.16119051758E+03  0.31556621924E+03  0.51800084278E+03  0.62760600285E+03  0.25500000920E-02 0.  1.
       -2    1    3    3    0  502  0.16119051758E+03 -0.31556621924E+03 -0.17648548028E+04  0.18000769141E+04  0.25500000920E-02 0. -1.
</event>
<event>
 5   0  0.6283269E-06  0.2081847E+04  0.7818609E-02  0.8569282E-01
        1   -1    0    0  501    0  0.00000000000E+00  0.00000000000E+00  0.12971798645E+04  0.12971798645E+04  0.50400001928E-02 0.  1.
       -1   -1    0    0    0  501  0.00000000000E+00  0.00000000000E+00 -0.83529065026E+03  0.83529065028E+03  0.50400001928E-02 0. -1.
    10030    2    1    2    0    0  0.00000000000E+00  0.00000000000E+00  0.46188921419E+03  0.21324705147E+04  0.20818474608E+04 0.  0.
        1    1    3    3  502    0  0.56681082457E+03  0.68253301939E+03 -0.32671678270E+03  0.94544682004E+03  0.50400001928E-02 0. -1.
       -1    1    3    3    0  502 -0.56681082457E+03 -0.68253301939E+03  0.78860599690E+03  0.11870236947E+04  0.50400001928E-02 0.  1.
</event>
<event>
 5   0  0.6599245E-06  0.2106354E+04  0.7818609E-02  0.8558450E-01
        1   -1    0    0  501    0  0.00000000000E+00  0.00000000000E+00  0.13413165880E+04  0.13413165880E+04  0.50400001928E-02 0. -1.
       -1   -1    0    0    0  501  0.00000000000E+00  0.00000000000E+00 -0.82693473457E+03  0.82693473459E+03  0.50400001928E-02 0.  1.
    10030    2    1    2    0    0  0.00000000000E+00  0.00000000000E+00  0.51438185339E+03  0.21682513226E+04  0.21063535094E+04 0.  0.
        2    1    3    3  502    0 -0.71254004277E+03  0.18108255327E+03 -0.51907624284E+03  0.89996908255E+03  0.25500000920E-02 0.  1.
       -2    1    3    3    0  502  0.71254004277E+03 -0.18108255327E+03  0.10334580962E+04  0.12682822400E+04  0.25500000920E-02 0. -1.
</event>
<event>
 5   0  0.1395356E-05  0.2098923E+04  0.7818609E-02  0.8561718E-01
        2   -1    0    0  501    0  0.00000000000E+00  0.00000000000E+00  0.14004085579E+04  0.14004085579E+04  0.25500000920E-02 0.  1.
       -2   -1    0    0    0  501  0.00000000000E+00  0.00000000000E+00 -0.78646268897E+03  0.78646268898E+03  0.25500000920E-02 0. -1.
    10030    2    1    2    0    0  0.00000000000E+00  0.00000000000E+00  0.61394586891E+03  0.21868712469E+04  0.20989226571E+04 0.  0.
        1    1    3    3  502    0 -0.54739717972E+03 -0.34486821715E+02  0.12391903894E+04  0.13551479013E+04  0.50400001928E-02 0.  1.
       -1    1    3    3    0  502  0.54739717972E+03  0.34486821715E+02 -0.62524452044E+03  0.83172334559E+03  0.50400001928E-02 0. -1.
</event>
<event>
 5   0  0.6238363E-06  0.2099806E+04  0.7818609E-02  0.8561329E-01
        1   -1    0    0  501    0  0.00000000000E+00  0.00000000000E+00  0.13541837206E+04  0.13541837206E+04  0.50400001928E-02 0. -1.
       -1   -1    0    0    0  501  0.00000000000E+00  0.00000000000E+00 -0.81399352076E+03  0.81399352078E+03  0.50400001928E-02 0.  1.
    10030    2    1    2    0    0  0.00000000000E+00  0.00000000000E+00  0.54019019979E+03  0.21681772413E+04  0.20998064430E+04 0.  0.
        4    1    3    3  502    0 -0.93525266549E+03 -0.25343403078E+03  0.68744477916E+03  0.11880691451E+04  0.12699999809E+01 0. -1.
       -4    1    3    3    0  502  0.93525266549E+03  0.25343403078E+03 -0.14725457936E+03  0.98010809623E+03  0.12699999809E+01 0.  1.
</event>
<event>
 5   0  0.1395356E-05  0.2080175E+04  0.7818609E-02  0.8570027E-01
        2   -1    0    0  501    0  0.00000000000E+00  0.00000000000E+00  0.16702461511E+04  0.16702461511E+04  0.25500000920E-02 0. -1.
       -2   -1    0    0    0  501  0.00000000000E+00  0.00000000000E+00 -0.64767792084E+03  0.64767792084E+03  0.25500000920E-02 0.  1.
    10030    2    1    2    0    0  0.00000000000E+00  0.00000000000E+00  0.10225682303E+04  0.23179240720E+04  0.20801745643E+04 0.  0.
        1    1    3    3  502    0 -0.29224656916E+03  0.83485579071E+03  0.11209860396E+04  0.14279362554E+04  0.50400001928E-02 0. -1.
       -1    1    3    3    0  502  0.29224656916E+03 -0.83485579071E+03 -0.98417809287E+02  0.88998781659E+03  0.50400001928E-02 0.  1.
</event>
<event>
 5   0  0.6283269E-06  0.2098315E+04  0.7818609E-02  0.8561986E-01
       -1   -1    0    0    0  501  0.00000000000E+00  0.00000000000E+00  0.11260993516E+04  0.11260993516E+04  0.50400001928E-02 0.  1.
        1   -1    0    0  501    0  0.00000000000E+00  0.00000000000E+00 -0.97747309130E+03  0.97747309131E+03  0.50400001928E-02 0. -1.
    10030    2    1    2    0    0  0.00000000000E+00  0.00000000000E+00  0.14862626026E+03  0.21035724429E+04  0.20983153379E+04 0.  0.
        1    1    3    3  502    0 -0.28021196844E+03  0.17509774616E+03 -0.92394962828E+03  0.98125474959E+03  0.50400001928E-02 0. -1.
       -1    1    3    3    0  502  0.28021196844E+03 -0.17509774616E+03  0.10725758885E+04  0.11223176933E+04  0.50400001928E-02 0.  1.
</event>
<event>
 5   0  0.1441136E-05  0.2097939E+04  0.7818609E-02  0.8562152E-01
        2   -1    0    0  501    0  0.00000000000E+00  0.00000000000E+00  0.11694018069E+04  0.11694018069E+04  0.25500000920E-02 0.  1.
       -2   -1    0    0    0  501  0.00000000000E+00  0.00000000000E+00 -0.94093972683E+03  0.94093972683E+03  0.25500000920E-02 0. -1.
    10030    2    1    2    0    0  0.00000000000E+00  0.00000000000E+00  0.22846208007E+03  0.21103415337E+04  0.20979386233E+04 0.  0.
        4    1    3    3  502    0 -0.19840716122E+03 -0.48529578518E+03  0.10281492988E+04  0.11541100443E+04  0.12699999809E+01 0.  1.
       -4    1    3    3    0  502  0.19840716122E+03  0.48529578518E+03 -0.79968721874E+03  0.95623148947E+03  0.12699999809E+01 0. -1.
</event>
<event>
 5   0  0.6917078E-06  0.2100185E+04  0.7818609E-02  0.8561162E-01
        1   -1    0    0  501    0  0.00000000000E+00  0.00000000000E+00  0.10518542548E+04  0.10518542548E+04  0.50400001928E-02 0. -1.
       -1   -1    0    0    0  501  0.00000000000E+00  0.00000000000E+00 -0.10483336558E+04  0.10483336559E+04  0.50400001928E-02 0.  1.
    10030    2    1    2    0    0  0.00000000000E+00  0.00000000000E+00  0.35205989511E+01  0.21001879107E+04  0.21001849598E+04 0.  0.
        5    1    3    3  502    0 -0.47779391788E+03  0.36849427476E+03 -0.85765761015E+03  0.10486532910E+04  0.46999998093E+01 0.  1.
       -5    1    3    3    0  502  0.47779391788E+03 -0.36849427476E+03  0.86117820910E+03  0.10515346196E+04  0.46999998093E+01 0. -1.
</event>
<event>
 5   0  0.1344501E-05  0.2094845E+04  0.7818609E-02  0.8563518E-01
       -2   -1    0    0    0  501  0.00000000000E+00  0.00000000000E+00  0.65861675422E+03  0.65861675422E+03  0.25500000920E-02 0.  1.
        2   -1    0    0  501    0  0.00000000000E+00  0.00000000000E+00 -0.16657542332E+04  0.16657542332E+04  0.25500000920E-02 0. -1.
    10030    2    1    2    0    0  0.00000000000E+00  0.00000000000E+00 -0.10071374790E+04  0.23243709875E+04  0.20948447641E+04 0.  0.
        3    1    3    3  502    0  0.92907005534E+03 -0.47639965269E+03 -0.59617499611E+03  0.12023112879E+04  0.10100000352E+00 0. -1.
       -3    1    3    3    0  502 -0.92907005534E+03  0.47639965269E+03 -0.41096248291E+03  0.11220596996E+04  0.10100000352E+00 0.  1.
</event>
<event>
 5   0  0.1398469E-05  0.2112302E+04  0.7818609E-02  0.8555843E-01
       -2   -1    0    0    0  501  0.00000000000E+00  0.00000000000E+00  0.12727191974E+04  0.12727191974E+04  0.25500000920E-02 0. -1.
        2   -1    0    0  501    0  0.00000000000E+00  0.00000000000E+00 -0.87643464170E+03  0.87643464171E+03  0.25500000920E-02 0.  1.
    10030    2    1    2    0    0  0.00000000000E+00  0.00000000000E+00  0.39628455566E+03  0.21491538391E+04  0.21123022452E+04 0.  0.
        2    1    3    3  502    0 -0.41659139371E+03  0.39564641215E+02 -0.78848752940E+03  0.89265129483E+03  0.25500000920E-02 0.  1.
       -2    1    3    3    0  502  0.41659139371E+03 -0.39564641215E+02  0.11847720851E+04  0.12565025442E+04  0.25500000920E-02 0. -1.
</event>
<event>
 5   0  0.1395356E-05  0.2103110E+04  0.7818609E-02  0.8559875E-01
        2   -1    0    0  501    0  0.00000000000E+00  0.00000000000E+00  0.11284850279E+04  0.11284850279E+04  0.25500000920E-02 0.  1.
       -2   -1    0    0    0  501  0.00000000000E+00  0.00000000000E+00 -0.97986942034E+03  0.97986942035E+03  0.25500000920E-02 0. -1.
    10030    2    1    2    0    0  0.00000000000E+00  0.00000000000E+00  0.14861560752E+03  0.21083544482E+04  0.21031100495E+04 0.  0.
        1    1    3    3  502    0 -0.98898158352E+02  0.56376403743E+02  0.11222895611E+04  0.11280483162E+04  0.50400001928E-02 0.  1.
       -1    1    3    3    0  502  0.98898158352E+02 -0.56376403743E+02 -0.97367395358E+03  0.98030613205E+03  0.50400001928E-02 0. -1.
</event>
<event>
 5   0  0.6599245E-06  0.2105410E+04  0.7818609E-02  0.8558864E-01
       -1   -1    0    0    0  501  0.00000000000E+00  0.00000000000E+00  0.11629932106E+04  0.11629932107E+04  0.50400001928E-02 0. -1.
        1   -1    0    0  501    0  0.00000000000E+00  0.00000000000E+00 -0.95287582088E+03  0.95287582089E+03  0.50400001928E-02 0.  1.
    10030    2    1    2    0    0  0.00000000000E+00  0.00000000000E+00  0.21011738977E+03  0.21158690315E+04  0.21054102786E+04 0.  0.
        2    1    3    3  502    0 -0.19606149173E+01 -0.76468895278E+03 -0.62202340446E+03  0.98573127891E+03  0.25500000920E-02 0.  1.
       -2    1    3    3    0  502  0.19606149173E+01  0.76468895278E+03  0.83214079423E+03  0.11301377526E+04  0.25500000920E-02 0. -1.
</event>
<event>
 5   0  0.1398469E-05  0.2058264E+04  0.7818609E-02  0.8579855E-01
        2   -1    0    0  501    0  0.00000000000E+00  0.00000000000E+00  0.13458042268E+04  0.13458042268E+04  0.25500000920E-02 0. -1.
       -2   -1    0    0    0  501  0.00000000000E+00  0.00000000000E+00 -0.78697378499E+03  0.78697378500E+03  0.25500000920E-02 0.  1.
    10030    2    1    2    0    0  0.00000000000E+00  0.00000000000E+00  0.55883044180E+03  0.21327780118E+04  0.20582639736E+04 0.  0.
        2    1    3    3  502    0 -0.10278228370E+04  0.40925647995E+02  0.31247565224E+03  0.10750514993E+04  0.25500000920E-02 0.  1.
       -2    1    3    3    0  502  0.10278228370E+04 -0.40925647995E+02  0.24635478956E+03  0.10577265125E+04  0.25500000920E-02 0. -1.
</event>
<event>
 5   0  0.6589193E-06  0.2101474E+04  0.7818609E-02  0.8560594E-01
       -1   -1    0    0    0  501  0.00000000000E+00  0.00000000000E+00  0.12034401261E+04  0.12034401261E+04  0.50400001928E-02 0.  1.
        1   -1    0    0  501    0  0.00000000000E+00  0.00000000000E+00 -0.91741016948E+03  0.91741016950E+03  0.50400001928E-02 0. -1.
    10030    2    1    2    0    0  0.00000000000E+00  0.00000000000E+00  0.28602995658E+03  0.21208502956E+04  0.21014739685E+04 0.  0.
        3    1    3    3  502    0 -0.83609655062E+03  0.10402943314E+03  0.77663228492E+03  0.11458783884E+04  0.10100000352E+00 0.  1.
       -3    1    3    3    0  502  0.83609655062E+03 -0.10402943314E+03 -0.49060232833E+03  0.97497190713E+03  0.10100000352E+00 0. -1.
</event>
<event>
 5   0  0.6238363E-06  0.2133155E+04  0.7818609E-02  0.8546777E-01
        1   -1    0    0  501    0  0.00000000000E+00  0.00000000000E+00  0.25458785875E+04  0.25458785875E+04  0.50400001928E-02 0.  1.
       -1   -1    0    0    0  501  0.00000000000E+00  0.00000000000E+00 -0.44683515995E+03  0.44683515998E+03  0.50400001928E-02 0. -1.
    10030    2    1    2    0    0  0.00000000000E+00  0.00000000000E+00  0.20990434276E+04  0.29927137475E+04  0.21331554710E+04 0.  0.
        4    1    3    3  502    0 -0.48143928552E+03 -0.38586633380E+03  0.22700974850E+04  0.23524499607E+04  0.12699999809E+01 0.  1.
       -4    1    3    3    0  502  0.48143928552E+03  0.38586633380E+03 -0.17105405746E+03  0.64026378679E+03  0.12699999809E+01 0. -1.
</event>
<event>
 5   0  0.6599245E-06  0.2101416E+04  0.7818609E-02  0.8560620E-01
        1   -1    0    0  501    0  0.00000000000E+00  0.00000000000E+00  0.20114761114E+04  0.20114761114E+04  0.50400001928E-02 0.  1.
       -1   -1    0    0    0  501  0.00000000000E+00  0.00000000000E+00 -0.54884414854E+03  0.54884414857E+03  0.50400001928E-02 0. -1.
    10030    2    1    2    0    0  0.00000000000E+00  0.00000000000E+00  0.14626319629E+04  0.25603202600E+04  0.21014156121E+04 0.  0.
        2    1    3    3  502    0 -0.12353745033E+03 -0.10140748823E+04  0.43193790594E+03  0.11091346731E+04  0.25500000920E-02 0. -1.
       -2    1    3    3    0  502  0.12353745033E+03  0.10140748823E+04  0.10306940569E+04  0.14511855868E+04  0.25500000920E-02 0.  1.
</event>
<event>
 5   0  0.6917078E-06  0.2097914E+04  0.7818609E-02  0.8562163E-01
       -1   -1    0    0    0  501  0.00000000000E+00  0.00000000000E+00  0.84485250705E+03  0.84485250707E+03  0.50400001928E-02 0. -1.
        1   -1    0    0  501    0  0.00000000000E+00  0.00000000000E+00 -0.13023702908E+04  0.13023702908E+04  0.50400001928E-02 0.  1.
    10030    2    1    2    0    0  0.00000000000E+00  0.00000000000E+00 -0.45751778375E+03  0.21472227979E+04  0.20979140167E+04 0.  0.
        5    1    3    3  502    0 -0.37312853866E+03  0.59090460329E+03 -0.10293819164E+04  0.12442035108E+04  0.46999998093E+01 0.  1.
       -5    1    3    3    0  502  0.37312853866E+03 -0.59090460329E+03  0.57186413266E+03  0.90301928704E+03  0.46999998093E+01 0. -1.
</event>
<event>
 5   0  0.1395356E-05  0.2101112E+04  0.7818609E-02  0.8560754E-01
       -2   -1    0    0    0  501  0.00000000000E+00  0.00000000000E+00  0.82339549320E+03  0.82339549320E+03  0.25500000920E-02 0. -1.
        2   -1    0    0  501    0  0.00000000000E+00  0.00000000000E+00 -0.13403862456E+04  0.13403862456E+04  0.25500000920E-02 0.  1.
    10030    2    1    2    0    0  0.00000000000E+00  0.00000000000E+00 -0.51699075235E+03  0.21637817388E+04  0.21011120805E+04 0.  0.
        1    1    3    3  502    0 -0.39468421124E+03 -0.68817484763E+03 -0.96773720367E+03  0.12513494887E+04  0.50400001928E-02 0.  1.
       -1    1    3    3    0  502  0.39468421124E+03  0.68817484763E+03  0.45074645132E+03  0.91243225004E+03  0.50400001928E-02 0. -1.
</event>
<event>
 5   0  0.1441136E-05  0.2098163E+04  0.7818609E-02  0.8562053E-01
        2   -1    0    0  501    0  0.00000000000E+00  0.00000000000E+00  0.24355022179E+04  0.24355022179E+04  0.25500000920E-02 0. -1.
       -2   -1    0    0    0  501  0.00000000000E+00  0.00000000000E+00 -0.45188696647E+03  0.45188696648E+03  0.25500000920E-02 0.  1.
    10030    2    1    2    0    0  0.00000000000E+00  0.00000000000E+00  0.19836152514E+04  0.28873891844E+04  0.20981627288E+04 0.  0.
        4    1    3    3  502    0 -0.66543015331E+03 -0.31103952572E+03 -0.38953720472E+02  0.73556908631E+03  0.12699999809E+01 0.  1.
       -4    1    3    3    0  502  0.66543015331E+03  0.31103952572E+03  0.20225689719E+04  0.21518200981E+04  0.12699999809E+01 0. -1.
</event>
<event>
 5   0  0.1344501E-05  0.2100406E+04  0.7818609E-02  0.8561065E-01
       -2   -1    0    0    0  501  0.00000000000E+00  0.00000000000E+00  0.69303156132E+03  0.69303156132E+03  0.25500000920E-02 0. -1.
        2   -1    0    0  501    0  0.00000000000E+00  0.00000000000E+00 -0.15914511000E+04  0.15914511000E+04  0.25500000920E-02 0.  1.
    10030    2    1    2    0    0  0.00000000000E+00  0.00000000000E+00 -0.89841953871E+03  0.22844826614E+04  0.21004055233E+04 0.  0.
        3    1    3    3  502    0  0.37066108354E+03 -0.40411148278E+03 -0.14233785135E+04  0.15253531172E+04  0.10100000352E+00 0.  1.
       -3    1    3    3    0  502 -0.37066108354E+03  0.40411148278E+03  0.52495897478E+03  0.75912954413E+03  0.10100000352E+00 0. -1.
</event>
<event>
 5   0  0.6599245E-06  0.2131307E+04  0.7818609E-02  0.8547576E-01
        1   -1    0    0  501    0  0.00000000000E+00  0.00000000000E+00  0.26652102794E+04  0.26652102794E+04  0.50400001928E-02 0.  1.
       -1   -1    0    0    0  501  0.00000000000E+00  0.00000000000E+00 -0.42608921113E+03  0.42608921116E+03  0.50400001928E-02 0. -1.
    10030    2    1    2    0    0  0.00000000000E+00  0.00000000000E+00  0.22391210683E+04  0.30912994906E+04  0.21313069657E+04 0.  0.
        2    1    3    3  502    0  0.77991301556E+03 -0.23918718419E+03  0.12504895154E+03  0.82529513582E+03  0.25500000920E-02 0. -1.
       -2    1    3    3    0  502 -0.77991301556E+03  0.23918718419E+03  0.21140721167E+04  0.22660043547E+04  0.25500000920E-02 0.  1.
</event>
<event>
 5   0  0.5009125E-06  0.2100206E+04  0.7818609E-02  0.8561153E-01
        4   -1    0    0  501    0  0.00000000000E+00  0.00000000000E+00  0.85725330414E+03  0.85725424487E+03  0.12699999809E+01 0. -1.
       -4   -1    0    0    0  501  0.00000000000E+00  0.00000000000E+00 -0.12863349167E+04  0.12863355436E+04  0.12699999809E+01 0.  1.
    10030    2    1    2    0    0  0.00000000000E+00  0.00000000000E+00 -0.42908161252E+03  0.21435897885E+04  0.21002062163E+04 0.  0.
        4    1    3    3  502    0  0.54166536018E+03 -0.58764205331E+03 -0.90977996902E+03  0.12109606724E+04  0.12699999809E+01 0.  1.
       -4    1    3    3    0  502 -0.54166536018E+03  0.58764205331E+03  0.48069835650E+03  0.93262911604E+03  0.12699999809E+01 0. -1.
</event>
<event>
 5   0  0.5009125E-06  0.2102029E+04  0.7818609E-02  0.8560350E-01
       -3   -1    0    0    0  501  0.00000000000E+00  0.00000000000E+00  0.13456093368E+04  0.13456093406E+04  0.10100000352E+00 0. -1.
        3   -1    0    0  501    0  0.00000000000E+00  0.00000000000E+00 -0.82091557420E+03  0.82091558042E+03  0.10100000352E+00 0.  1.
    10030    2    1    2    0    0  0.00000000000E+00  0.00000000000E+00  0.52469376257E+03  0.21665249210E+04  0.21020291836E+04 0.  0.
        2    1    3    3  502    0 -0.85828874696E+03 -0.55050804924E+03 -0.25071342655E+00  0.10196659984E+04  0.25500000920E-02 0. -1.
       -2    1    3    3    0  502  0.85828874696E+03  0.55050804924E+03  0.52494447600E+03  0.11468589226E+04  0.25500000920E-02 0.  1.
</event>
<event>
 5   0  0.6917078E-06  0.2100006E+04  0.7818609E-02  0.8561241E-01
       -1   -1    0    0    0  501  0.00000000000E+00  0.00000000000E+00  0.47842244569E+03  0.47842244572E+03  0.50400001928E-02 0.  1.
        1   -1    0    0  501    0  0.00000000000E+00  0.00000000000E+00 -0.23044620661E+04  0.23044620661E+04  0.50400001928E-02 0. -1.
    10030    2    1    2    0    0  0.00000000000E+00  0.00000000000E+00 -0.18260396204E+04  0.27828845118E+04  0.21000060740E+04 0.  0.
        5    1    3    3  502    0 -0.25145388550E+03  0.75773401792E+03 -0.92763179145E+01  0.79843474281E+03  0.46999998093E+01 0.  1.
       -5    1    3    3    0  502  0.25145388550E+03 -0.75773401792E+03 -0.18167633025E+04  0.19844497690E+04  0.46999998093E+01 0. -1.
</event>
<event>
 5   0  0.6238363E-06  0.2092450E+04  0.7818609E-02  0.8564576E-01
        1   -1    0    0  501    0  0.00000000000E+00  0.00000000000E+00  0.11536212846E+04  0.11536212846E+04  0.50400001928E-02 0.  1.
       -1   -1    0    0    0  501  0.00000000000E+00  0.00000000000E+00 -0.94882705834E+03  0.94882705835E+03  0.50400001928E-02 0. -1.
    10030    2    1    2    0    0  0.00000000000E+00  0.00000000000E+00  0.20479422625E+03  0.21024483430E+04  0.20924503243E+04 0.  0.
        4    1    3    3  502    0 -0.19144061429E+03 -0.45229993588E+03  0.10305863026E+04  0.11416367552E+04  0.12699999809E+01 0.  1.
       -4    1    3    3    0  502  0.19144061429E+03  0.45229993588E+03 -0.82579207639E+03  0.96081158773E+03  0.12699999809E+01 0. -1.
</event>
<event>
 5   0  0.6283269E-06  0.2075564E+04  0.7818609E-02  0.8572085E-01
       -1   -1    0    0    0  501  0.00000000000E+00  0.00000000000E+00  0.11568894901E+04  0.11568894901E+04  0.50400001928E-02 0.  1.
        1   -1    0    0  501    0  0.00000000000E+00  0.00000000000E+00 -0.93093717898E+03  0.93093717900E+03  0.50400001928E-02 0. -1.
    10030    2    1    2    0    0  0.00000000000E+00  0.00000000000E+00  0.22595231115E+03  0.20878266691E+04  0.20755639603E+04 0.  0.
        1    1    3    3  502    0  0.40704461617E+03  0.79783276582E+03 -0.41430491886E+03  0.98684902978E+03  0.50400001928E-02 0. -1.
       -1    1    3    3    0  502 -0.40704461617E+03 -0.79783276582E+03  0.64025723001E+03  0.11009776394E+04  0.50400001928E-02 0.  1.
</event>
<event>
 5   0  0.1441136E-05  0.2106358E+04  0.7818609E-02  0.8558448E-01
       -2   -1    0    0    0  501  0.00000000000E+00  0.00000000000E+00  0.59676841641E+03  0.59676841641E+03  0.25500000920E-02 0. -1.
        2   -1    0    0  501    0  0.00000000000E+00  0.00000000000E+00 -0.18586546162E+04  0.18586546162E+04  0.25500000920E-02 0.  1.
    10030    2    1    2    0    0  0.00000000000E+00  0.00000000000E+00 -0.12618861998E+04  0.24554230327E+04  0.21063583475E+04 0.  0.
        4    1    3    3  502    0  0.28190515517E+02 -0.39262623486E+03  0.50778927573E+03  0.64249640226E+03  0.12699999809E+01 0. -1.
       -4    1    3    3    0  502 -0.28190515517E+02  0.39262623486E+03 -0.17696754756E+04  0.18129266304E+04  0.12699999809E+01 0.  1.
</event>
<event>
 5   0  0.1390735E-05  0.2100435E+04  0.7818609E-02  0.8561052E-01
        2   -1    0    0  501    0  0.00000000000E+00  0.00000000000E+00  0.17914507440E+04  0.17914507440E+04  0.25500000920E-02 0. -1.
       -2   -1    0    0    0  501  0.00000000000E+00  0.00000000000E+00 -0.61567812870E+03  0.61567812870E+03  0.25500000920E-02 0.  1.
    10030    2    1    2    0    0  0.00000000000E+00  0.00000000000E+00  0.11757726153E+04  0.24071288727E+04  0.21004352328E+04 0.  0.
        5    1    3    3  502    0  0.68177502012E+01 -0.97061321202E+03  0.10474344277E+04  0.14280327235E+04  0.46999998093E+01 0. -1.
       -5    1    3    3    0  502 -0.68177502012E+01  0.97061321202E+03  0.12833818766E+03  0.97909614925E+03  0.46999998093E+01 0.  1.
</event>
<event>
 5   0  0.6917078E-06  0.2099671E+04  0.7818609E-02  0.8561388E-01
       -1   -1    0    0    0  501  0.00000000000E+00  0.00000000000E+00  0.88269903642E+03  0.88269903644E+03  0.50400001928E-02 0. -1.
        1   -1    0    0  501    0  0.00000000000E+00  0.00000000000E+00 -0.12486193473E+04  0.12486193473E+04  0.50400001928E-02 0.  1.
    10030    2    1    2    0    0  0.00000000000E+00  0.00000000000E+00 -0.36592031086E+03  0.21313183837E+04  0.20996714931E+04 0.  0.
        5    1    3    3  502    0 -0.13279416616E+02 -0.95190698294E+03  0.26623630172E+03  0.98853786241E+03  0.46999998093E+01 0. -1.
       -5    1    3    3    0  502  0.13279416616E+02  0.95190698294E+03 -0.63215661259E+03  0.11427805213E+04  0.46999998093E+01 0.  1.
</event>
<event>
 5   0  0.1395356E-05  0.2096596E+04  0.7818609E-02  0.8562744E-01
       -2   -1    0    0    0  501  0.00000000000E+00  0.00000000000E+00  0.63117942300E+03  0.63117942301E+03  0.25500000920E-02 0. -1.
        2   -1    0    0  501    0  0.00000000000E+00  0.00000000000E+00 -0.17410721753E+04  0.17410721753E+04  0.25500000920E-02 0.  1.
    10030    2    1    2    0    0  0.00000000000E+00  0.00000000000E+00 -0.11098927523E+04  0.23722515983E+04  0.20965962234E+04 0.  0.
        1    1    3    3  502    0  0.90167849503E+03  0.29457848607E+03 -0.10598546453E+04  0.14223545486E+04  0.50400001928E-02 0.  1.
       -1    1    3    3    0  502 -0.90167849503E+03 -0.29457848607E+03 -0.50038107051E+02  0.94989704971E+03  0.50400001928E-02 0. -1.
</event>
<event>
 5   0  0.1398469E-05  0.2074675E+04  0.7818609E-02  0.8572482E-01
       -2   -1    0    0    0  501  0.00000000000E+00  0.00000000000E+00  0.46692855663E+03  0.46692855664E+03  0.25500000920E-02 0. -1.
        2   -1    0    0  501    0  0.00000000000E+00  0.00000000000E+00 -0.23045697018E+04  0.23045697018E+04  0.25500000920E-02 0.  1.
    10030    2    1    2    0    0  0.00000000000E+00  0.00000000000E+00 -0.18376411452E+04  0.27714982584E+04  0.20746753043E+04 0.  0.
        2    1    3    3  502    0  0.71185050829E+03 -0.85571941245E+02 -0.19202923088E+04  0.20497746838E+04  0.25500000920E-02 0.  1.
       -2    1    3    3    0  502 -0.71185050829E+03  0.85571941245E+02  0.82651163621E+02  0.72172357460E+03  0.25500000920E-02 0. -1.
</event>
<event>
 5   0  0.1398469E-05  0.2082884E+04  0.7818609E-02  0.8568821E-01
       -2   -1    0    0    0  501  0.00000000000E+00  0.00000000000E+00  0.85295541558E+03  0.85295541558E+03  0.25500000920E-02 0.  1.
        2   -1    0    0  501    0  0.00000000000E+00  0.00000000000E+00 -0.12715810090E+04  0.12715810090E+04  0.25500000920E-02 0. -1.
    10030    2    1    2    0    0  0.00000000000E+00  0.00000000000E+00 -0.41862559345E+03  0.21245364246E+04  0.20828844500E+04 0.  0.
        2    1    3    3  502    0  0.50576272120E+03 -0.23317715356E+03 -0.11069303144E+04  0.12391376986E+04  0.25500000920E-02 0. -1.
       -2    1    3    3    0  502 -0.50576272120E+03  0.23317715356E+03  0.68830472097E+03  0.88539872601E+03  0.25500000920E-02 0.  1.
</event>
<event>
 5   0  0.6238363E-06  0.2099747E+04  0.7818609E-02  0.8561355E-01
        1   -1    0    0  501    0  0.00000000000E+00  0.00000000000E+00  0.20029968186E+04  0.20029968186E+04  0.50400001928E-02 0.  1.
       -1   -1    0    0    0  501  0.00000000000E+00  0.00000000000E+00 -0.55029282352E+03  0.55029282354E+03  0.50400001928E-02 0. -1.
    10030    2    1    2    0    0  0.00000000000E+00  0.00000000000E+00  0.14527039951E+04  0.25532896422E+04  0.20997473894E+04 0.  0.
        4    1    3    3  502    0 -0.76708746906E+02 -0.10375605475E+04  0.55517223091E+03  0.11792514323E+04  0.12699999809E+01 0.  1.
       -4    1    3    3    0  502  0.76708746906E+02  0.10375605475E+04  0.89753176421E+03  0.13740382099E+04  0.12699999809E+01 0. -1.
</event>
<event>
 5   0  0.6283269E-06  0.2099940E+04  0.7818609E-02  0.8561270E-01
       -1   -1    0    0    0  501  0.00000000000E+00  0.00000000000E+00  0.54272278321E+03  0.54272278323E+03  0.50400001928E-02 0. -1.
        1   -1    0    0  501    0  0.00000000000E+00  0.00000000000E+00 -0.20313072138E+04  0.20313072138E+04  0.50400001928E-02 0.  1.
    10030    2    1    2    0    0  0.00000000000E+00  0.00000000000E+00 -0.14885844306E+04  0.25740299971E+04  0.20999397179E+04 0.  0.
        1    1    3    3  502    0 -0.83613391888E+03 -0.16987129242E+03 -0.14943760277E+04  0.17207951355E+04  0.50400001928E-02 0.  1.
       -1    1    3    3    0  502  0.83613391888E+03  0.16987129242E+03  0.57915970878E+01  0.85323486152E+03  0.50400001928E-02 0. -1.
</event>
<event>
 5   0  0.1390735E-05  0.2103798E+04  0.7818609E-02  0.8559572E-01
        2   -1    0    0  501    0  0.00000000000E+00  0.00000000000E+00  0.18022467421E+04  0.18022467421E+04  0.25500000920E-02 0.  1.
       -2   -1    0    0    0  501  0.00000000000E+00  0.00000000000E+00 -0.61395097011E+03  0.61395097012E+03  0.25500000920E-02 0. -1.
    10030    2    1    2    0    0  0.00000000000E+00  0.00000000000E+00  0.11882957720E+04  0.24161977122E+04  0.21037976478E+04 0.  0.
        5    1    3    3  502    0 -0.22153607376E+03 -0.50758020006E+03  0.16212331171E+04  0.17132235119E+04  0.46999998093E+01 0.  1.
       -5    1    3    3    0  502  0.22153607376E+03  0.50758020006E+03 -0.43293734519E+03  0.70297420033E+03  0.46999998093E+01 0. -1.
</event>
<event>
 5   0  0.6917078E-06  0.2098246E+04  0.7818609E-02  0.8562017E-01
        1   -1    0    0  501    0  0.00000000000E+00  0.00000000000E+00  0.19021069891E+04  0.19021069891E+04  0.50400001928E-02 0.  1.
       -1   -1    0    0    0  501  0.00000000000E+00  0.00000000000E+00 -0.57865236167E+03  0.57865236169E+03  0.50400001928E-02 0. -1.
    10030    2    1    2    0    0  0.00000000000E+00  0.00000000000E+00  0.13234546274E+04  0.24807593508E+04  0.20982456495E+04 0.  0.
        5    1    3    3  502    0 -0.66739132689E+03  0.18668728122E+03  0.15929527932E+04  0.17371770248E+04  0.46999998093E+01 0.  1.
       -5    1    3    3    0  502  0.66739132689E+03 -0.18668728122E+03 -0.26949816577E+03  0.74358232599E+03  0.46999998093E+01 0. -1.
</event>
<event>
 5   0  0.1398469E-05  0.2099495E+04  0.7818609E-02  0.8561466E-01
        2   -1    0    0  501    0  0.00000000000E+00  0.00000000000E+00  0.92085749643E+03  0.92085749644E+03  0.25500000920E-02 0. -1.
       -2   -1    0    0    0  501  0.00000000000E+00  0.00000000000E+00 -0.11966782218E+04  0.11966782218E+04  0.25500000920E-02 0.  1.
    10030    2    1    2    0    0  0.00000000000E+00  0.00000000000E+00 -0.27582072532E+03  0.21175357182E+04  0.20994952835E+04 0.  0.
        2    1    3    3  502    0 -0.93487391249E+02  0.71204041554E+03  0.63432443380E+03  0.95818001075E+03  0.25500000920E-02 0. -1.
       -2    1    3    3    0  502  0.93487391249E+02 -0.71204041554E+03 -0.91014515913E+03  0.11593557074E+04  0.25500000920E-02 0.  1.
</event>
<event>
 5   0  0.1441136E-05  0.2102099E+04  0.7818609E-02  0.8560319E-01
       -2   -1    0    0    0  501  0.00000000000E+00  0.00000000000E+00  0.12573174724E+04  0.12573174725E+04  0.25500000920E-02 0.  1.
        2   -1    0    0  501    0  0.00000000000E+00  0.00000000000E+00 -0.87862065529E+03  0.87862065529E+03  0.25500000920E-02 0. -1.
    10030    2    1    2    0    0  0.00000000000E+00  0.00000000000E+00  0.37869681716E+03  0.21359381277E+04  0.21020990477E+04 0.  0.
        4    1    3    3  502    0  0.56930922457E+03 -0.71891314654E+03 -0.33248915232E+03  0.97544848904E+03  0.12699999809E+01 0. -1.
       -4    1    3    3    0  502 -0.56930922457E+03  0.71891314654E+03  0.71118596949E+03  0.11604896387E+04  0.12699999809E+01 0.  1.
</event>
<event>
 5   0  0.6238363E-06  0.2097445E+04  0.7818609E-02  0.8562370E-01
       -1   -1    0    0    0  501  0.00000000000E+00  0.00000000000E+00  0.10630152085E+04  0.10630152085E+04  0.50400001928E-02 0.  1.
        1   -1    0    0  501    0  0.00000000000E+00  0.00000000000E+00 -0.10346215135E+04  0.10346215135E+04  0.50400001928E-02 0. -1.
    10030    2    1    2    0    0  0.00000000000E+00  0.00000000000E+00  0.28393694941E+02  0.20976367220E+04  0.20974445441E+04 0.  0.
        4    1    3    3  502    0 -0.58983866013E+03  0.54556781345E+02 -0.85129027036E+03  0.10371030926E+04  0.12699999809E+01 0. -1.
       -4    1    3    3    0  502  0.58983866013E+03 -0.54556781345E+02  0.87968396530E+03  0.10605336294E+04  0.12699999809E+01 0.  1.
</event>
<event>
 5   0  0.1390735E-05  0.2100700E+04  0.7818609E-02  0.8560935E-01
        2   -1    0    0  501    0  0.00000000000E+00  0.00000000000E+00  0.12112819905E+04  0.12112819905E+04  0.25500000920E-02 0. -1.
       -2   -1    0    0    0  501  0.00000000000E+00  0.00000000000E+00 -0.91079943968E+03  0.91079943968E+03  0.25500000920E-02 0.  1.
    10030    2    1    2    0    0  0.00000000000E+00  0.00000000000E+00  0.30048255083E+03  0.21220814302E+04  0.21006998436E+04 0.  0.
        5    1    3    3  502    0  0.70793852637E+03 -0.15459258571E+03  0.91833362688E+03  0.11698010792E+04  0.46999998093E+01 0. -1.
       -5    1    3    3    0  502 -0.70793852637E+03  0.15459258571E+03 -0.61785107605E+03  0.95228035098E+03  0.46999998093E+01 0.  1.
</event>
<event>
 5   0  0.1344501E-05  0.2099321E+04  0.7818609E-02  0.8561543E-01
       -2   -1    0    0    0  501  0.00000000000E+00  0.00000000000E+00  0.76086477880E+03  0.76086477881E+03  0.25500000920E-02 0. -1.
        2   -1    0    0  501    0  0.00000000000E+00  0.00000000000E+00 -0.14480720113E+04  0.14480720113E+04  0.25500000920E-02 0.  1.
    10030    2    1    2    0    0  0.00000000000E+00  0.00000000000E+00 -0.68720723247E+03  0.22089367901E+04  0.20993208336E+04 0.  0.
        3    1    3    3  502    0  0.67379508341E+03 -0.74238708165E+03 -0.67071994775E+03  0.12062353220E+04  0.10100000352E+00 0.  1.
       -3    1    3    3    0  502 -0.67379508341E+03  0.74238708165E+03 -0.16487284717E+02  0.10027014681E+04  0.10100000352E+00 0. -1.
</event>
<event>
 5   0  0.1441136E-05  0.2091538E+04  0.7818609E-02  0.8564980E-01
       -2   -1    0    0    0  501  0.00000000000E+00  0.00000000000E+00  0.76734263041E+03  0.76734263042E+03  0.25500000920E-02 0.  1.
        2   -1    0    0  501    0  0.00000000000E+00  0.00000000000E+00 -0.14252214439E+04  0.14252214439E+04  0.25500000920E-02 0. -1.
    10030    2    1    2    0    0  0.00000000000E+00  0.00000000000E+00 -0.65787881346E+03  0.21925640743E+04  0.20915383541E+04 0.  0.
        4    1    3    3  502    0  0.88835942485E+03 -0.13364154421E+03 -0.89013757020E+03  0.12646695366E+04  0.12699999809E+01 0. -1.
       -4    1    3    3    0  502 -0.88835942485E+03  0.13364154421E+03  0.23225875674E+03  0.92789453767E+03  0.12699999809E+01 0.  1.
</event>
<event>
 5   0  0.6599245E-06  0.2096183E+04  0.7818609E-02  0.8562927E-01
        1   -1    0    0  501    0  0.00000000000E+00  0.00000000000E+00  0.88100438604E+03  0.88100438606E+03  0.50400001928E-02 0.  1.
       -1   -1    0    0    0  501  0.00000000000E+00  0.00000000000E+00 -0.12468672017E+04  0.12468672017E+04  0.50400001928E-02 0. -1.
    10030    2    1    2    0    0  0.00000000000E+00  0.00000000000E+00 -0.36586281566E+03  0.21278715878E+04  0.20961826958E+04 0.  0.
        2    1    3    3  502    0 -0.95364946211E+03 -0.43202713307E+03 -0.13319341721E+03  0.10553839238E+04  0.25500000920E-02 0.  1.
       -2    1    3    3    0  502  0.95364946211E+03  0.43202713307E+03 -0.23266939845E+03  0.10724876639E+04  0.25500000920E-02 0. -1.
</event>
<event>
 5   0  0.1344501E-05  0.2095047E+04  0.7818609E-02  0.8563428E-01
       -2   -1    0    0    0  501  0.00000000000E+00  0.00000000000E+00  0.78501771779E+03  0.78501771780E+03  0.25500000920E-02 0.  1.
        2   -1    0    0  501    0  0.00000000000E+00  0.00000000000E+00 -0.13978096105E+04  0.13978096105E+04  0.25500000920E-02 0. -1.
    10030    2    1    2    0    0  0.00000000000E+00  0.00000000000E+00 -0.61279189272E+03  0.21828273283E+04  0.20950468351E+04 0.  0.
        3    1    3    3  502    0 -0.10051585800E+04 -0.66943008456E+02 -0.71692062838E+01  0.10074108124E+04  0.10100000352E+00 0.  1.
       -3    1    3    3    0  502  0.10051585800E+04  0.66943008456E+02 -0.60562268643E+03  0.11754165159E+04  0.10100000352E+00 0. -1.
</event>
<event>
 5   0  0.6589193E-06  0.2101468E+04  0.7818609E-02  0.8560597E-01
       -1   -1    0    0    0  501  0.00000000000E+00  0.00000000000E+00  0.13586767234E+04  0.13586767234E+04  0.50400001928E-02 0. -1.
        1   -1    0    0  501    0  0.00000000000E+00  0.00000000000E+00 -0.81258594891E+03  0.81258594892E+03  0.50400001928E-02 0.  1.
    10030    2    1    2    0    0  0.00000000000E+00  0.00000000000E+00  0.54609077449E+03  0.21712626723E+04  0.21014676915E+04 0.  0.
        3    1    3    3  502    0 -0.74211561233E+03  0.45343708372E+03  0.88229114603E+03  0.12388617548E+04  0.10100000352E+00 0.  1.
       -3    1    3    3    0  502  0.74211561233E+03 -0.45343708372E+03 -0.33620037154E+03  0.93240091752E+03  0.10100000352E+00 0. -1.
</event>
<event>
 5   0  0.1441136E-05  0.2087020E+04  0.7818609E-02  0.8566983E-01
       -2   -1    0    0    0  501  0.00000000000E+00  0.00000000000E+00  0.63509934712E+03  0.63509934712E+03  0.25500000920E-02 0. -1.
        2   -1    0    0  501    0  0.00000000000E+00  0.00000000000E+00 -0.17145561854E+04  0.17145561854E+04  0.25500000920E-02 0.  1.
    10030    2    1    2    0    0  0.00000000000E+00  0.00000000000E+00 -0.10794568383E+04  0.23496555325E+04  0.20870203774E+04 0.  0.
        4    1    3    3  502    0  0.40682070477E+03  0.95794765187E+03 -0.62506333003E+03  0.12140315354E+04  0.12699999809E+01 0.  1.
       -4    1    3    3    0  502 -0.40682070477E+03 -0.95794765187E+03 -0.45439350827E+03  0.11356239971E+04  0.12699999809E+01 0. -1.
</event>
<event>
 5   0  0.6283269E-06  0.2100886E+04  0.7818609E-02  0.8560853E-01
        1   -1    0    0  501    0  0.00000000000E+00  0.00000000000E+00  0.89778796127E+03  0.89778796129E+03  0.50400001928E-02 0.  1.
       -1   -1    0    0    0  501  0.00000000000E+00  0.00000000000E+00 -0.12290542110E+04  0.12290542110E+04  0.50400001928E-02 0. -1.
    10030    2    1    2    0    0  0.00000000000E+00  0.00000000000E+00 -0.33126624972E+03  0.21268421723E+04  0.21008855984E+04 0.  0.
        1    1    3    3  502    0  0.83992300332E+03 -0.85711888598E+02  0.46707898580E+03  0.96487302706E+03  0.50400001928E-02 0.  1.
       -1    1    3    3    0  502 -0.83992300332E+03  0.85711888598E+02 -0.79834523553E+03  0.11619691452E+04  0.50400001928E-02 0. -1.
</event>
<event>
 5   0  0.1390735E-05  0.2100505E+04  0.7818609E-02  0.8561021E-01
       -2   -1    0    0    0  501  0.00000000000E+00  0.00000000000E+00  0.10109925206E+04  0.10109925206E+04  0.25500000920E-02 0. -1.
        2   -1    0    0  501    0  0.00000000000E+00  0.00000000000E+00 -0.10910366315E+04  0.10910366315E+04  0.25500000920E-02 0.  1.
    10030    2    1    2    0    0  0.00000000000E+00  0.00000000000E+00 -0.80044110939E+02  0.21020291521E+04  0.21005045815E+04 0.  0.
        5    1    3    3  502    0  0.67479624298E+03 -0.53014289997E+03  0.56589764850E+03  0.10279414879E+04  0.46999998093E+01 0. -1.
       -5    1    3    3    0  502 -0.67479624298E+03  0.53014289997E+03 -0.64594175944E+03  0.10740876643E+04  0.46999998093E+01 0.  1.
</event>
<event>
 5   0  0.6917078E-06  0.2097832E+04  0.7818609E-02  0.8562199E-01
       -1   -1    0    0    0  501  0.00000000000E+00  0.00000000000E+00  0.75894842637E+03  0.75894842639E+03  0.50400001928E-02 0. -1.
        1   -1    0    0  501    0  0.00000000000E+00  0.00000000000E+00 -0.14496695117E+04  0.14496695117E+04  0.50400001928E-02 0.  1.
    10030    2    1    2    0    0  0.00000000000E+00  0.00000000000E+00 -0.69072108536E+03  0.22086179381E+04  0.20978316374E+04 0.  0.
        5    1    3    3  502    0  0.40750460863E+03 -0.61336777118E+03 -0.11317484296E+04  0.13502431732E+04  0.46999998093E+01 0.  1.
       -5    1    3    3    0  502 -0.40750460863E+03  0.61336777118E+03  0.44102734423E+03  0.85837476497E+03  0.46999998093E+01 0. -1.
</event>
<event>
 5   0  0.6917078E-06  0.2099469E+04  0.7818609E-02  0.8561477E-01
        1   -1    0    0  501    0  0.00000000000E+00  0.00000000000E+00  0.14717448267E+04  0.14717448267E+04  0.50400001928E-02 0. -1.
       -1   -1    0    0    0  501  0.00000000000E+00  0.00000000000E+00 -0.74873179238E+03  0.74873179240E+03  0.50400001928E-02 0.  1.
    10030    2    1    2    0    0  0.00000000000E+00  0.00000000000E+00  0.72301303430E+03  0.22204766191E+04  0.20994686395E+04 0.  0.
        5    1    3    3  502    0 -0.67726615232E+03  0.79110041267E+03  0.50098138040E+03  0.11556529486E+04  0.46999998093E+01 0.  1.
       -5    1    3    3    0  502  0.67726615232E+03 -0.79110041267E+03  0.22203165390E+03  0.10648236705E+04  0.46999998093E+01 0. -1.
</event>
<event>
 5   0  0.1390735E-05  0.2101115E+04  0.7818609E-02  0.8560752E-01
       -2   -1    0    0    0  501  0.00000000000E+00  0.00000000000E+00  0.11610774901E+04  0.11610774901E+04  0.25500000920E-02 0. -1.
        2   -1    0    0  501    0  0.00000000000E+00  0.00000000000E+00 -0.95055796169E+03  0.95055796169E+03  0.25500000920E-02 0.  1.
    10030    2    1    2    0    0  0.00000000000E+00  0.00000000000E+00  0.21051952844E+03  0.21116354518E+04  0.21011153727E+04 0.  0.
        5    1    3    3  502    0  0.83459828833E+03 -0.63670379185E+03  0.14673795816E+03  0.10599528951E+04  0.46999998093E+01 0. -1.
       -5    1    3    3    0  502 -0.83459828833E+03  0.63670379185E+03  0.63781570280E+02  0.10516825567E+04  0.46999998093E+01 0.  1.
</event>
<event>
 5   0  0.6238363E-06  0.2100954E+04  0.7818609E-02  0.8560823E-01
        1   -1    0    0  501    0  0.00000000000E+00  0.00000000000E+00  0.12147498780E+04  0.12147498780E+04  0.50400001928E-02 0.  1.
       -1   -1    0    0    0  501  0.00000000000E+00  0.00000000000E+00 -0.90841894757E+03  0.90841894758E+03  0.50400001928E-02 0. -1.
    10030    2    1    2    0    0  0.00000000000E+00  0.00000000000E+00  0.30633093043E+03  0.21231688256E+04  0.21009538841E+04 0.  0.
        4    1    3    3  502    0  0.29535314044E+03 -0.12000436775E+03  0.11646814636E+04  0.12075260041E+04  0.12699999809E+01 0.  1.
       -4    1    3    3    0  502 -0.29535314044E+03  0.12000436775E+03 -0.85835053321E+03  0.91564282152E+03  0.12699999809E+01 0. -1.
</event>
<event>
 5   0  0.6238363E-06  0.2097763E+04  0.7818609E-02  0.8562229E-01
       -1   -1    0    0    0  501  0.00000000000E+00  0.00000000000E+00  0.69673233392E+03  0.69673233394E+03  0.50400001928E-02 0. -1.
        1   -1    0    0  501    0  0.00000000000E+00  0.00000000000E+00 -0.15790175360E+04  0.15790175360E+04  0.50400001928E-02 0.  1.
    10030    2    1    2    0    0  0.00000000000E+00  0.00000000000E+00 -0.88228520206E+03  0.22757498699E+04  0.20977631641E+04 0.  0.
        4    1    3    3  502    0  0.68707225800E+03  0.44483014880E+03 -0.11526963678E+04  0.14137371319E+04  0.12699999809E+01 0.  1.
       -4    1    3    3    0  502 -0.68707225800E+03 -0.44483014880E+03  0.27041116574E+03  0.86201273799E+03  0.12699999809E+01 0. -1.
</event>
<event>
 5   0  0.6917078E-06  0.2097749E+04  0.7818609E-02  0.8562236E-01
       -1   -1    0    0    0  501  0.00000000000E+00  0.00000000000E+00  0.89922723868E+03  0.89922723870E+03  0.50400001928E-02 0. -1.
        1   -1    0    0  501    0  0.00000000000E+00  0.00000000000E+00 -0.12234253881E+04  0.12234253881E+04  0.50400001928E-02 0.  1.
    10030    2    1    2    0    0  0.00000000000E+00  0.00000000000E+00 -0.32419814939E+03  0.21226526268E+04  0.20977487299E+04 0.  0.
        5    1    3    3  502    0 -0.22571302730E+03 -0.49232341196E+03 -0.10709754339E+04  0.12001413178E+04  0.46999998093E+01 0.  1.
       -5    1    3    3    0  502  0.22571302730E+03  0.49232341196E+03  0.74677728448E+03  0.92251130902E+03  0.46999998093E+01 0. -1.
</event>
<event>
 5   0  0.6238363E-06  0.2095857E+04  0.7818609E-02  0.8563071E-01
       -1   -1    0    0    0  501  0.00000000000E+00  0.00000000000E+00  0.62372175600E+03  0.62372175602E+03  0.50400001928E-02 0. -1.
        1   -1    0    0  501    0  0.00000000000E+00  0.00000000000E+00 -0.17606473172E+04  0.17606473172E+04  0.50400001928E-02 0.  1.
    10030    2    1    2    0    0  0.00000000000E+00  0.00000000000E+00 -0.11369255612E+04  0.23843690733E+04  0.20958569001E+04 0.  0.
        4    1    3    3  502    0  0.91278544835E+03  0.75494949183E+02  0.10822813995E+02  0.91596697990E+03  0.12699999809E+01 0. -1.
       -4    1    3    3    0  502 -0.91278544835E+03 -0.75494949183E+02 -0.11477483752E+04  0.14684020934E+04  0.12699999809E+01 0.  1.
</event>
<event>
 5   0  0.6238363E-06  0.2097084E+04  0.7818609E-02  0.8562529E-01
        1   -1    0    0  501    0  0.00000000000E+00  0.00000000000E+00  0.16417000819E+04  0.16417000819E+04  0.50400001928E-02 0. -1.
       -1   -1    0    0    0  501  0.00000000000E+00  0.00000000000E+00 -0.66969625515E+03  0.66969625517E+03  0.50400001928E-02 0.  1.
    10030    2    1    2    0    0  0.00000000000E+00  0.00000000000E+00  0.97200382677E+03  0.23113963371E+04  0.20970840679E+04 0.  0.
        4    1    3    3  502    0  0.46118764821E+03  0.41717484577E+03 -0.44449507349E+03  0.76439936032E+03  0.12699999809E+01 0.  1.
       -4    1    3    3    0  502 -0.46118764821E+03 -0.41717484577E+03  0.14164989003E+04  0.15469969768E+04  0.12699999809E+01 0. -1.
</event>
<event>
 5   0  0.6238363E-06  0.2127534E+04  0.7818609E-02  0.8549211E-01
        1   -1    0    0  501    0  0.00000000000E+00  0.00000000000E+00  0.13719511427E+04  0.13719511427E+04  0.50400001928E-02 0. -1.
       -1   -1    0    0    0  501  0.00000000000E+00  0.00000000000E+00 -0.82481063859E+03  0.82481063861E+03  0.50400001928E-02 0.  1.
    10030    2    1    2    0    0  0.00000000000E+00  0.00000000000E+00  0.54714050414E+03  0.21967617813E+04  0.21275336878E+04 0.  0.
        4    1    3    3  502    0  0.68096359837E+03  0.58213071444E+03 -0.31868855294E+03  0.95086886460E+03  0.12699999809E+01 0.  1.
       -4    1    3    3    0  502 -0.68096359837E+03 -0.58213071444E+03  0.86582905708E+03  0.12458929167E+04  0.12699999809E+01 0. -1.
</event>
<event>
 5   0  0.6283269E-06  0.2094500E+04  0.7818609E-02  0.8563670E-01
        1   -1    0    0  501    0  0.00000000000E+00  0.00000000000E+00  0.21507567259E+04  0.21507567259E+04  0.50400001928E-02 0. -1.
       -1   -1    0    0    0  501  0.00000000000E+00  0.00000000000E+00 -0.50992890756E+03  0.50992890759E+03  0.50400001928E-02 0.  1.
    10030    2    1    2    0    0  0.00000000000E+00  0.00000000000E+00  0.16408278183E+04  0.26606856335E+04  0.20945004442E+04 0.  0.
        1    1    3    3  502    0 -0.17436714498E+03  0.33197410977E+03 -0.42172405455E+03  0.56432427648E+03  0.50400001928E-02 0.  1.
       -1    1    3    3    0  502  0.17436714498E+03 -0.33197410977E+03  0.20625518729E+04  0.20963613570E+04  0.50400001928E-02 0. -1.
</event>
<event>
 5   0  0.1398469E-05  0.2096442E+04  0.7818609E-02  0.8562812E-01
       -2   -1    0    0    0  501  0.00000000000E+00  0.00000000000E+00  0.71127480634E+03  0.71127480634E+03  0.25500000920E-02 0. -1.
        2   -1    0    0  501    0  0.00000000000E+00  0.00000000000E+00 -0.15447859962E+04  0.15447859962E+04  0.25500000920E-02 0.  1.
    10030    2    1    2    0    0  0.00000000000E+00  0.00000000000E+00 -0.83351118984E+03  0.22560608025E+04  0.20964420910E+04 0.  0.
        2    1    3    3  502    0 -0.16649022573E+03 -0.82346255683E+03  0.25783592359E+03  0.87879971624E+03  0.25500000920E-02 0. -1.
       -2    1    3    3    0  502  0.16649022573E+03  0.82346255683E+03 -0.10913471134E+04  0.13772610863E+04  0.25500000920E-02 0.  1.
</event>
<event>
 5   0  0.6283269E-06  0.2099961E+04  0.7818609E-02  0.8561260E-01
       -1   -1    0    0    0  501  0.00000000000E+00  0.00000000000E+00  0.79029342581E+03  0.79029342582E+03  0.50400001928E-02 0. -1.
        1   -1    0    0  501    0  0.00000000000E+00  0.00000000000E+00 -0.13950001317E+04  0.13950001317E+04  0.50400001928E-02 0.  1.
    10030    2    1    2    0    0  0.00000000000E+00  0.00000000000E+00 -0.60470670588E+03  0.21852935575E+04  0.20999613645E+04 0.  0.
        1    1    3    3  502    0 -0.77352829253E+03  0.55737394166E+03 -0.76005267520E+03  0.12192997168E+04  0.50400001928E-02 0. -1.
       -1    1    3    3    0  502  0.77352829253E+03 -0.55737394166E+03  0.15534596932E+03  0.96599384076E+03  0.50400001928E-02 0.  1.
</event>
<event>
 5   0  0.6238363E-06  0.2107058E+04  0.7818609E-02  0.8558141E-01
        1   -1    0    0  501    0  0.00000000000E+00  0.00000000000E+00  0.11490045999E+04  0.11490045999E+04  0.50400001928E-02 0. -1.
       -1   -1    0    0    0  501  0.00000000000E+00  0.00000000000E+00 -0.96598707248E+03  0.96598707250E+03  0.50400001928E-02 0.  1.
    10030    2    1    2    0    0  0.00000000000E+00  0.00000000000E+00  0.18301752740E+03  0.21149916724E+04  0.21070582239E+04 0.  0.
        4    1    3    3  502    0  0.82773263948E+03  0.44497112380E+03  0.56951745870E+03  0.10988595780E+04  0.12699999809E+01 0. -1.
       -4    1    3    3    0  502 -0.82773263948E+03 -0.44497112380E+03 -0.38649993130E+03  0.10161320944E+04  0.12699999809E+01 0.  1.
</event>
<event>
 5   0  0.1390735E-05  0.2100902E+04  0.7818609E-02  0.8560846E-01
       -2   -1    0    0    0  501  0.00000000000E+00  0.00000000000E+00  0.58934816519E+03  0.58934816520E+03  0.25500000920E-02 0.  1.
        2   -1    0    0  501    0  0.00000000000E+00  0.00000000000E+00 -0.18723188394E+04  0.18723188394E+04  0.25500000920E-02 0. -1.
    10030    2    1    2    0    0  0.00000000000E+00  0.00000000000E+00 -0.12829706742E+04  0.24616670046E+04  0.21009023515E+04 0.  0.
        5    1    3    3  502    0 -0.53988644064E+02  0.61548664136E+03  0.35391522006E+03  0.71205101809E+03  0.46999998093E+01 0.  1.
       -5    1    3    3    0  502  0.53988644064E+02 -0.61548664136E+03 -0.16368858943E+04  0.17496159865E+04  0.46999998093E+01 0. -1.
</event>
<event>
 5   0  0.1390735E-05  0.2096302E+04  0.7818609E-02  0.8562874E-01
       -2   -1    0    0    0  501  0.00000000000E+00  0.00000000000E+00  0.64592681517E+03  0.64592681517E+03  0.25500000920E-02 0. -1.
        2   -1    0    0  501    0  0.00000000000E+00  0.00000000000E+00 -0.17008439845E+04  0.17008439845E+04  0.25500000920E-02 0.  1.
    10030    2    1    2    0    0  0.00000000000E+00  0.00000000000E+00 -0.10549171693E+04  0.23467707996E+04  0.20963022091E+04 0.  0.
        5    1    3    3  502    0  0.86729686708E+03  0.99895565706E+02  0.12185560091E+03  0.88150658374E+03  0.46999998093E+01 0. -1.
       -5    1    3    3    0  502 -0.86729686708E+03 -0.99895565706E+02 -0.11767727702E+04  0.14652642159E+04  0.46999998093E+01 0.  1.
</event>
<event>
 5   0  0.6589193E-06  0.2101088E+04  0.7818609E-02  0.8560764E-01
        1   -1    0    0  501    0  0.00000000000E+00  0.00000000000E+00  0.16979775123E+04  0.16979775123E+04  0.50400001928E-02 0.  1.
       -1   -1    0    0    0  501  0.00000000000E+00  0.00000000000E+00 -0.64997481681E+03  0.64997481683E+03  0.50400001928E-02 0. -1.
    10030    2    1    2    0    0  0.00000000000E+00  0.00000000000E+00  0.10480026955E+04  0.23479523291E+04  0.21010879301E+04 0.  0.
        3    1    3    3  502    0  0.70195507393E+03  0.12513235163E+02  0.13973246430E+04  0.15637818502E+04  0.10100000352E+00 0.  1.
       -3    1    3    3    0  502 -0.70195507393E+03 -0.12513235163E+02 -0.34932194748E+03  0.78417047896E+03  0.10100000352E+00 0. -1.
</event>
<event>
 5   0  0.6238363E-06  0.2078886E+04  0.7818609E-02  0.8570602E-01
       -1   -1    0    0    0  501  0.00000000000E+00  0.00000000000E+00  0.81216123172E+03  0.81216123173E+03  0.50400001928E-02 0. -1.
        1   -1    0    0  501    0  0.00000000000E+00  0.00000000000E+00 -0.13303292716E+04  0.13303292716E+04  0.50400001928E-02 0.  1.
    10030    2    1    2    0    0  0.00000000000E+00  0.00000000000E+00 -0.51816803986E+03  0.21424905033E+04  0.20788861054E+04 0.  0.
        4    1    3    3  502    0 -0.51320861024E+03 -0.62404749084E+03  0.41485123786E+03  0.90825189837E+03  0.12699999809E+01 0. -1.
       -4    1    3    3    0  502  0.51320861024E+03  0.62404749084E+03 -0.93301927772E+03  0.12342386049E+04  0.12699999809E+01 0.  1.
</event>
<event>
 5   0  0.6238363E-06  0.2101511E+04  0.7818609E-02  0.8560578E-01
        1   -1    0    0  501    0  0.00000000000E+00  0.00000000000E+00  0.12761373165E+04  0.12761373165E+04  0.50400001928E-02 0. -1.
       -1   -1    0    0    0  501  0.00000000000E+00  0.00000000000E+00 -0.86517895077E+03  0.86517895079E+03  0.50400001928E-02 0.  1.
    10030    2    1    2    0    0  0.00000000000E+00  0.00000000000E+00  0.41095836570E+03  0.21413162673E+04  0.21015110226E+04 0.  0.
        4    1    3    3  502    0  0.50216702477E+03 -0.17979289715E+03 -0.71697971782E+03  0.89362113633E+03  0.12699999809E+01 0.  1.
       -4    1    3    3    0  502 -0.50216702477E+03  0.17979289715E+03  0.11279380835E+04  0.12476951309E+04  0.12699999809E+01 0. -1.
</event>
<event>
 5   0  0.1441136E-05  0.2042310E+04  0.7818609E-02  0.8587091E-01
        2   -1    0    0  501    0  0.00000000000E+00  0.00000000000E+00  0.76703203488E+03  0.76703203489E+03  0.25500000920E-02 0. -1.
       -2   -1    0    0    0  501  0.00000000000E+00  0.00000000000E+00 -0.13594709479E+04  0.13594709479E+04  0.25500000920E-02 0.  1.
    10030    2    1    2    0    0  0.00000000000E+00  0.00000000000E+00 -0.59243891306E+03  0.21265029828E+04  0.20423102287E+04 0.  0.
        4    1    3    3  502    0  0.73457163419E+03  0.60751934680E+03 -0.67748517876E+03  0.11694712578E+04  0.12699999809E+01 0.  1.
       -4    1    3    3    0  502 -0.73457163419E+03 -0.60751934680E+03  0.85046265695E+02  0.95703172503E+03  0.12699999809E+01 0. -1.
</event>
<event>
 5   0  0.5009125E-06  0.2101548E+04  0.7818609E-02  0.8560562E-01
       -3   -1    0    0    0  501  0.00000000000E+00  0.00000000000E+00  0.11089043031E+04  0.11089043077E+04  0.10100000352E+00 0.  1.
        3   -1    0    0  501    0  0.00000000000E+00  0.00000000000E+00 -0.99569113237E+03  0.99569113749E+03  0.10100000352E+00 0. -1.
    10030    2    1    2    0    0  0.00000000000E+00  0.00000000000E+00  0.11321317076E+03  0.21045954452E+04  0.21015481831E+04 0.  0.
        2    1    3    3  502    0 -0.64093936572E+03  0.34948548527E+03  0.81346882979E+03  0.10930118535E+04  0.25500000920E-02 0. -1.
       -2    1    3    3    0  502  0.64093936572E+03 -0.34948548527E+03 -0.70025565903E+03  0.10115835917E+04  0.25500000920E-02 0.  1.
</event>
<event>
 5   0  0.6589193E-06  0.2101255E+04  0.7818609E-02  0.8560691E-01
        1   -1    0    0  501    0  0.00000000000E+00  0.00000000000E+00  0.15746737698E+04  0.15746737699E+04  0.50400001928E-02 0. -1.
       -1   -1    0    0    0  501  0.00000000000E+00  0.00000000000E+00 -0.70098210667E+03  0.70098210669E+03  0.50400001928E-02 0.  1.
    10030    2    1    2    0    0  0.00000000000E+00  0.00000000000E+00  0.87369166317E+03  0.22756558765E+04  0.21012549931E+04 0.  0.
        3    1    3    3  502    0  0.85700469632E+03 -0.32100306866E+03  0.99573819793E+03  0.13524032641E+04  0.10100000352E+00 0. -1.
       -3    1    3    3    0  502 -0.85700469632E+03  0.32100306866E+03 -0.12204653476E+03  0.92325261248E+03  0.10100000352E+00 0.  1.
</event>
<event>
 5   0  0.1398469E-05  0.2098052E+04  0.7818609E-02  0.8562102E-01
        2   -1    0    0  501    0  0.00000000000E+00  0.00000000000E+00  0.15867585545E+04  0.15867585545E+04  0.25500000920E-02 0. -1.
       -2   -1    0    0    0  501  0.00000000000E+00  0.00000000000E+00 -0.69352397373E+03  0.69352397374E+03  0.25500000920E-02 0.  1.
    10030    2    1    2    0    0  0.00000000000E+00  0.00000000000E+00  0.89323458081E+03  0.22802825283E+04  0.20980515705E+04 0.  0.
        2    1    3    3  502    0  0.44471975563E+03  0.90761518196E+03  0.14130108542E+03  0.10205424912E+04  0.25500000920E-02 0. -1.
       -2    1    3    3    0  502 -0.44471975563E+03 -0.90761518196E+03  0.75193349539E+03  0.12597400371E+04  0.25500000920E-02 0.  1.
</event>
<event>
 5   0  0.1390735E-05  0.2105596E+04  0.7818609E-02  0.8558782E-01
       -2   -1    0    0    0  501  0.00000000000E+00  0.00000000000E+00  0.80199529794E+03  0.80199529794E+03  0.25500000920E-02 0.  1.
        2   -1    0    0  501    0  0.00000000000E+00  0.00000000000E+00 -0.13820331090E+04  0.13820331090E+04  0.25500000920E-02 0. -1.
    10030    2    1    2    0    0  0.00000000000E+00  0.00000000000E+00 -0.58003781102E+03  0.21840284069E+04  0.21055964048E+04 0.  0.
        5    1    3    3  502    0 -0.90249798470E+03 -0.10780306852E+03  0.26103080776E+03  0.94566552573E+03  0.46999998093E+01 0.  1.
       -5    1    3    3    0  502  0.90249798470E+03  0.10780306852E+03 -0.84106861878E+03  0.12383628812E+04  0.46999998093E+01 0. -1.
</event>
<event>
 5   0  0.1344501E-05  0.2099945E+04  0.7818609E-02  0.8561268E-01
       -2   -1    0    0    0  501  0.00000000000E+00  0.00000000000E+00  0.75047518755E+03  0.75047518755E+03  0.25500000920E-02 0. -1.
        2   -1    0    0  501    0  0.00000000000E+00  0.00000000000E+00 -0.14689918829E+04  0.14689918829E+04  0.25500000920E-02 0.  1.
    10030    2    1    2    0    0  0.00000000000E+00  0.00000000000E+00 -0.71851669531E+03  0.22194670704E+04  0.20999447219E+04 0.  0.
        3    1    3    3  502    0  0.18639679324E+03 -0.10093628341E+04 -0.12557487333E+03  0.10340822764E+04  0.10100000352E+00 0. -1.
       -3    1    3    3    0  502 -0.18639679324E+03  0.10093628341E+04 -0.59294182198E+03  0.11853847940E+04  0.10100000352E+00 0.  1.
</event>
<event>
 5   0  0.6599245E-06  0.2101670E+04  0.7818609E-02  0.8560508E-01
        1   -1    0    0  501    0  0.00000000000E+00  0.00000000000E+00  0.13047554203E+04  0.13047554203E+04  0.50400001928E-02 0.  1.
       -1   -1    0    0    0  501  0.00000000000E+00  0.00000000000E+00 -0.84633064092E+03  0.84633064093E+03  0.50400001928E-02 0. -1.
    10030    2    1    2    0    0  0.00000000000E+00  0.00000000000E+00  0.45842477937E+03  0.21510860612E+04  0.21016702797E+04 0.  0.
        2    1    3    3  502    0  0.81357087825E+03  0.38361919106E+03  0.78530407607E+03  0.11940534953E+04  0.25500000920E-02 0.  1.
       -2    1    3    3    0  502 -0.81357087825E+03 -0.38361919106E+03 -0.32687929669E+03  0.95703256596E+03  0.25500000920E-02 0. -1.
</event>
<event>
 5   0  0.1344501E-05  0.2114997E+04  0.7818609E-02  0.8554666E-01
       -2   -1    0    0    0  501  0.00000000000E+00  0.00000000000E+00  0.90105225566E+03  0.90105225566E+03  0.25500000920E-02 0. -1.
        2   -1    0    0  501    0  0.00000000000E+00  0.00000000000E+00 -0.12411074538E+04  0.12411074538E+04  0.25500000920E-02 0.  1.
    10030    2    1    2    0    0  0.00000000000E+00  0.00000000000E+00 -0.34005519810E+03  0.21421597094E+04  0.21149966153E+04 0.  0.
        3    1    3    3  502    0 -0.72028642140E+03 -0.32552785697E+03  0.54150584315E+03  0.95812812446E+03  0.10100000352E+00 0. -1.
       -3    1    3    3    0  502  0.72028642140E+03  0.32552785697E+03 -0.88156104125E+03  0.11840315850E+04  0.10100000352E+00 0.  1.
</event>
<event>
 5   0  0.6917078E-06  0.2082608E+04  0.7818609E-02  0.8568944E-01
        1   -1    0    0  501    0  0.00000000000E+00  0.00000000000E+00  0.89781018815E+03  0.89781018816E+03  0.50400001928E-02 0. -1.
       -1   -1    0    0    0  501  0.00000000000E+00  0.00000000000E+00 -0.12077321939E+04  0.12077321939E+04  0.50400001928E-02 0.  1.
    10030    2    1    2    0    0  0.00000000000E+00  0.00000000000E+00 -0.30992200579E+03  0.21055423821E+04  0.20826082381E+04 0.  0.
        5    1    3    3  502    0 -0.70455363030E+03  0.70273558119E+03 -0.46502884751E+03  0.10984111407E+04  0.46999998093E+01 0. -1.
       -5    1    3    3    0  502  0.70455363030E+03 -0.70273558119E+03  0.15510684172E+03  0.10071312414E+04  0.46999998093E+01 0.  1.
</event>
<event>
 5   0  0.6589193E-06  0.2071672E+04  0.7818609E-02  0.8573826E-01
        1   -1    0    0  501    0  0.00000000000E+00  0.00000000000E+00  0.10079948291E+04  0.10079948291E+04  0.50400001928E-02 0. -1.
       -1   -1    0    0    0  501  0.00000000000E+00  0.00000000000E+00 -0.10644457169E+04  0.10644457169E+04  0.50400001928E-02 0.  1.
    10030    2    1    2    0    0  0.00000000000E+00  0.00000000000E+00 -0.56450887818E+02  0.20724405460E+04  0.20716715748E+04 0.  0.
        3    1    3    3  502    0 -0.30703753832E+03 -0.63497701125E+03  0.73066533646E+03  0.10155489643E+04  0.10100000352E+00 0. -1.
       -3    1    3    3    0  502  0.30703753832E+03  0.63497701125E+03 -0.78711622428E+03  0.10568915817E+04  0.10100000352E+00 0.  1.
</event>
<event>
 5   0  0.6238363E-06  0.2092437E+04  0.7818609E-02  0.8564582E-01
       -1   -1    0    0    0  501  0.00000000000E+00  0.00000000000E+00  0.13124947564E+04  0.13124947564E+04  0.50400001928E-02 0. -1.
        1   -1    0    0  501    0  0.00000000000E+00  0.00000000000E+00 -0.83396358104E+03  0.83396358106E+03  0.50400001928E-02 0.  1.
    10030    2    1    2    0    0  0.00000000000E+00  0.00000000000E+00  0.47853117539E+03  0.21464583375E+04  0.20924366917E+04 0.  0.
        4    1    3    3  502    0  0.21035065768E+03 -0.38721894954E+03 -0.73411870619E+03  0.85622298599E+03  0.12699999809E+01 0.  1.
       -4    1    3    3    0  502 -0.21035065768E+03  0.38721894954E+03  0.12126498816E+04  0.12902353515E+04  0.12699999809E+01 0. -1.
</event>
<event>
 5   0  0.1441136E-05  0.2100683E+04  0.7818609E-02  0.8560943E-01
        2   -1    0    0  501    0  0.00000000000E+00  0.00000000000E+00  0.25432575152E+04  0.25432575152E+04  0.25500000920E-02 0.  1.
       -2   -1    0    0    0  501  0.00000000000E+00  0.00000000000E+00 -0.43378111429E+03  0.43378111430E+03  0.25500000920E-02 0. -1.
    10030    2    1    2    0    0  0.00000000000E+00  0.00000000000E+00  0.21094764010E+04  0.29770386295E+04  0.21006828213E+04 0.  0.
        4    1    3    3  502    0 -0.36460592152E+03 -0.87844990897E+02 -0.33565671902E+03  0.50331030822E+03  0.12699999809E+01 0. -1.
       -4    1    3    3    0  502  0.36460592152E+03  0.87844990897E+02  0.24451331200E+04  0.24737283213E+04  0.12699999809E+01 0.  1.
</event>
<event>
 5   0  0.6238363E-06  0.2101032E+04  0.7818609E-02  0.8560789E-01
       -1   -1    0    0    0  501  0.00000000000E+00  0.00000000000E+00  0.14039336693E+04  0.14039336693E+04  0.50400001928E-02 0.  1.
        1   -1    0    0  501    0  0.00000000000E+00  0.00000000000E+00 -0.78606540073E+03  0.78606540075E+03  0.50400001928E-02 0. -1.
    10030    2    1    2    0    0  0.00000000000E+00  0.00000000000E+00  0.61786826854E+03  0.21899990700E+04  0.21010318249E+04 0.  0.
        4    1    3    3  502    0 -0.86272337366E+03 -0.34047770386E+03 -0.20527608237E+03  0.94992450710E+03  0.12699999809E+01 0. -1.
       -4    1    3    3    0  502  0.86272337366E+03  0.34047770386E+03  0.82314435090E+03  0.12400745629E+04  0.12699999809E+01 0.  1.
</event>
<event>
 5   0  0.1390735E-05  0.2089648E+04  0.7818609E-02  0.8565817E-01
       -2   -1    0    0    0  501  0.00000000000E+00  0.00000000000E+00  0.10284744159E+04  0.10284744159E+04  0.25500000920E-02 0. -1.
        2   -1    0    0  501    0  0.00000000000E+00  0.00000000000E+00 -0.10614330753E+04  0.10614330753E+04  0.25500000920E-02 0.  1.
    10030    2    1    2    0    0  0.00000000000E+00  0.00000000000E+00 -0.32958659477E+02  0.20899074912E+04  0.20896475896E+04 0.  0.
        5    1    3    3  502    0 -0.29321953003E+03 -0.91581703302E+03  0.39214968247E+03  0.10385095061E+04  0.46999998093E+01 0. -1.
       -5    1    3    3    0  502  0.29321953003E+03  0.91581703302E+03 -0.42510834194E+03  0.10513979851E+04  0.46999998093E+01 0.  1.
</event>
<event>
 5   0  0.6589193E-06  0.2100301E+04  0.7818609E-02  0.8561111E-01
       -1   -1    0    0    0  501  0.00000000000E+00  0.00000000000E+00  0.64532554011E+03  0.64532554012E+03  0.50400001928E-02 0.  1.
        1   -1    0    0  501    0  0.00000000000E+00  0.00000000000E+00 -0.17089297648E+04  0.17089297648E+04  0.50400001928E-02 0. -1.
    10030    2    1    2    0    0  0.00000000000E+00  0.00000000000E+00 -0.10636042247E+04  0.23542553050E+04  0.21003009532E+04 0.  0.
        3    1    3    3  502    0  0.37744120028E+03 -0.87839496086E+03 -0.10188211425E+04  0.13971528540E+04  0.10100000352E+00 0. -1.
       -3    1    3    3    0  502 -0.37744120028E+03  0.87839496086E+03 -0.44783082239E+02  0.95710245094E+03  0.10100000352E+00 0.  1.
</event>
<event>
 5   0  0.1398469E-05  0.2105062E+04  0.7818609E-02  0.8559017E-01
        2   -1    0    0  501    0  0.00000000000E+00  0.00000000000E+00  0.12695681609E+04  0.12695681609E+04  0.25500000920E-02 0. -1.
       -2   -1    0    0    0  501  0.00000000000E+00  0.00000000000E+00 -0.87259674375E+03  0.87259674375E+03  0.25500000920E-02 0.  1.
    10030    2    1    2    0    0  0.00000000000E+00  0.00000000000E+00  0.39697141712E+03  0.21421649046E+04  0.21050615603E+04 0.  0.
        2    1    3    3  502    0 -0.16504596584E+03  0.47122221670E+03  0.11413864169E+04  0.12458143927E+04  0.25500000920E-02 0. -1.
       -2    1    3    3    0  502  0.16504596584E+03 -0.47122221670E+03 -0.74441499978E+03  0.89635051194E+03  0.25500000920E-02 0.  1.
</event>
<event>
 5   0  0.1441136E-05  0.2079396E+04  0.7818609E-02  0.8570374E-01
       -2   -1    0    0    0  501  0.00000000000E+00  0.00000000000E+00  0.49176594006E+03  0.49176594007E+03  0.25500000920E-02 0.  1.
        2   -1    0    0  501    0  0.00000000000E+00  0.00000000000E+00 -0.21981425658E+04  0.21981425658E+04  0.25500000920E-02 0. -1.
    10030    2    1    2    0    0  0.00000000000E+00  0.00000000000E+00 -0.17063766257E+04  0.26899085059E+04  0.20793957250E+04 0.  0.
        4    1    3    3  502    0  0.98833033389E+03 -0.28689591418E+03 -0.10444660192E+04  0.14662936243E+04  0.12699999809E+01 0.  1.
       -4    1    3    3    0  502 -0.98833033389E+03  0.28689591418E+03 -0.66191060649E+03  0.12236148816E+04  0.12699999809E+01 0. -1.
</event>
<event>
 5   0  0.1398469E-05  0.2100237E+04  0.7818609E-02  0.8561139E-01
       -2   -1    0    0    0  501  0.00000000000E+00  0.00000000000E+00  0.85006600304E+03  0.85006600304E+03  0.25500000920E-02 0. -1.
        2   -1    0    0  501    0  0.00000000000E+00  0.00000000000E+00 -0.12972512962E+04  0.12972512962E+04  0.25500000920E-02 0.  1.
    10030    2    1    2    0    0  0.00000000000E+00  0.00000000000E+00 -0.44718529317E+03  0.21473172993E+04  0.21002373431E+04 0.  0.
        2    1    3    3  502    0 -0.38311723232E+03  0.27242219376E+03  0.73647579929E+03  0.87372150500E+03  0.25500000920E-02 0. -1.
       -2    1    3    3    0  502  0.38311723232E+03 -0.27242219376E+03 -0.11836610925E+04  0.12735957943E+04  0.25500000920E-02 0.  1.
</event>
<event>
 5   0  0.6238363E-06  0.2099774E+04  0.7818609E-02  0.8561343E-01
       -1   -1    0    0    0  501  0.00000000000E+00  0.00000000000E+00  0.82822822350E+03  0.82822822352E+03  0.50400001928E-02 0. -1.
        1   -1    0    0  501    0  0.00000000000E+00  0.00000000000E+00 -0.13308687955E+04  0.13308687955E+04  0.50400001928E-02 0.  1.
    10030    2    1    2    0    0  0.00000000000E+00  0.00000000000E+00 -0.50264057197E+03  0.21590970190E+04  0.20997743671E+04 0.  0.
        4    1    3    3  502    0 -0.72248435141E+03  0.42056785889E+03  0.40176177806E+03  0.92751016230E+03  0.12699999809E+01 0. -1.
       -4    1    3    3    0  502  0.72248435141E+03 -0.42056785889E+03 -0.90440235004E+03  0.12315868567E+04  0.12699999809E+01 0.  1.
</event>
<event>
 5   0  0.1390735E-05  0.2100221E+04  0.7818609E-02  0.8561146E-01
        2   -1    0    0  501    0  0.00000000000E+00  0.00000000000E+00  0.80098568649E+03  0.80098568649E+03  0.25500000920E-02 0. -1.
       -2   -1    0    0    0  501  0.00000000000E+00  0.00000000000E+00 -0.13767182955E+04  0.13767182955E+04  0.25500000920E-02 0.  1.
    10030    2    1    2    0    0  0.00000000000E+00  0.00000000000E+00 -0.57573260904E+03  0.21777039820E+04  0.21002206066E+04 0.  0.
        5    1    3    3  502    0 -0.26206277241E+03 -0.52721106803E+03  0.61374248304E+03  0.85048829058E+03  0.46999998093E+01 0. -1.
       -5    1    3    3    0  502  0.26206277241E+03  0.52721106803E+03 -0.11894750921E+04  0.13272156914E+04  0.46999998093E+01 0.  1.
</event>
<event>
 5   0  0.6599245E-06  0.2100813E+04  0.7818609E-02  0.8560885E-01
       -1   -1    0    0    0  501  0.00000000000E+00  0.00000000000E+00  0.92983260575E+03  0.92983260576E+03  0.50400001928E-02 0. -1.
        1   -1    0    0  501    0  0.00000000000E+00  0.00000000000E+00 -0.11866160414E+04  0.11866160414E+04  0.50400001928E-02 0.  1.
    10030    2    1    2    0    0  0.00000000000E+00  0.00000000000E+00 -0.25678343566E+03  0.21164486472E+04  0.21008134480E+04 0.  0.
        2    1    3    3  502    0  0.79991104844E+03  0.44140689502E+03  0.39378675769E+03  0.99486971154E+03  0.25500000920E-02 0. -1.
       -2    1    3    3    0  502 -0.79991104844E+03 -0.44140689502E+03 -0.65057019335E+03  0.11215789356E+04  0.25500000920E-02 0.  1.
</event>
<event>
 5   0  0.6283269E-06  0.2100620E+04  0.7818609E-02  0.8560970E-01
        1   -1    0    0  501    0  0.00000000000E+00  0.00000000000E+00  0.20436273625E+04  0.20436273625E+04  0.50400001928E-02 0.  1.
       -1   -1    0    0    0  501  0.00000000000E+00  0.00000000000E+00 -0.53980029912E+03  0.53980029914E+03  0.50400001928E-02 0. -1.
    10030    2    1    2    0    0  0.00000000000E+00  0.00000000000E+00  0.15038270634E+04  0.25834276616E+04  0.21006195863E+04 0.  0.
        1    1    3    3  502    0 -0.40223137033E+02 -0.10389722511E+04  0.56921107964E+03  0.11853617560E+04  0.50400001928E-02 0. -1.
       -1    1    3    3    0  502  0.40223137033E+02  0.10389722511E+04  0.93461598374E+03  0.13980659056E+04  0.50400001928E-02 0.  1.
</event>
<event>
 5   0  0.6917078E-06  0.2099839E+04  0.7818609E-02  0.8561314E-01
       -1   -1    0    0    0  501  0.00000000000E+00  0.00000000000E+00  0.14427677148E+04  0.14427677148E+04  0.50400001928E-02 0. -1.
        1   -1    0    0  501    0  0.00000000000E+00  0.00000000000E+00 -0.76403934799E+03  0.76403934801E+03  0.50400001928E-02 0.  1.
    10030    2    1    2    0    0  0.00000000000E+00  0.00000000000E+00  0.67872836683E+03  0.22068070628E+04  0.20998393312E+04 0.  0.
        5    1    3    3  502    0  0.79372266912E+03  0.45892352174E+03 -0.19826450363E+03  0.93804977356E+03  0.46999998093E+01 0.  1.
       -5    1    3    3    0  502 -0.79372266912E+03 -0.45892352174E+03  0.87699287047E+03  0.12687572893E+04  0.46999998093E+01 0. -1.
</event>
<event>
 5   0  0.6238363E-06  0.2097982E+04  0.7818609E-02  0.8562133E-01
       -1   -1    0    0    0  501  0.00000000000E+00  0.00000000000E+00  0.11885163335E+04  0.11885163335E+04  0.50400001928E-02 0.  1.
        1   -1    0    0  501    0  0.00000000000E+00  0.00000000000E+00 -0.92584557142E+03  0.92584557144E+03  0.50400001928E-02 0. -1.
    10030    2    1    2    0    0  0.00000000000E+00  0.00000000000E+00  0.26267076205E+03  0.21143619049E+04  0.20979824441E+04 0.  0.
        4    1    3    3  502    0  0.10137647908E+03  0.17232938312E+03  0.11691353144E+04  0.11861085966E+04  0.12699999809E+01 0.  1.
       -4    1    3    3    0  502 -0.10137647908E+03 -0.17232938312E+03 -0.90646455233E+03  0.92825330828E+03  0.12699999809E+01 0. -1.
</event>
<event>
 5   0  0.1395356E-05  0.2099849E+04  0.7818609E-02  0.8561310E-01
        2   -1    0    0  501    0  0.00000000000E+00  0.00000000000E+00  0.17783628613E+04  0.17783628613E+04  0.25500000920E-02 0. -1.
       -2   -1    0    0    0  501  0.00000000000E+00  0.00000000000E+00 -0.61986281830E+03  0.61986281830E+03  0.25500000920E-02 0.  1.
    10030    2    1    2    0    0  0.00000000000E+00  0.00000000000E+00  0.11585000430E+04  0.23982256796E+04  0.20998485804E+04 0.  0.
        1    1    3    3  502    0  0.57858793074E+03 -0.67005538588E+03  0.12239042936E+04  0.15105230663E+04  0.50400001928E-02 0. -1.
       -1    1    3    3    0  502 -0.57858793074E+03  0.67005538588E+03 -0.65404250612E+02  0.88770261336E+03  0.50400001928E-02 0.  1.
</event>
<event>
 5   0  0.6283269E-06  0.2092407E+04  0.7818609E-02  0.8564596E-01
       -1   -1    0    0    0  501  0.00000000000E+00  0.00000000000E+00  0.78230454337E+03  0.78230454339E+03  0.50400001928E-02 0.  1.
        1   -1    0    0  501    0  0.00000000000E+00  0.00000000000E+00 -0.13991242707E+04  0.13991242707E+04  0.50400001928E-02 0. -1.
    10030    2    1    2    0    0  0.00000000000E+00  0.00000000000E+00 -0.61681972734E+03  0.21814288141E+04  0.20924065320E+04 0.  0.
        1    1    3    3  502    0  0.61545259034E+03 -0.11544739825E+03 -0.11821794018E+04  0.13377810474E+04  0.50400001928E-02 0. -1.
       -1    1    3    3    0  502 -0.61545259034E+03  0.11544739825E+03  0.56535967447E+03  0.84364776670E+03  0.50400001928E-02 0.  1.
</event>
<event>
 5   0  0.1344501E-05  0.2103409E+04  0.7818609E-02  0.8559743E-01
        2   -1    0    0  501    0  0.00000000000E+00  0.00000000000E+00  0.98321636833E+03  0.98321636834E+03  0.25500000920E-02 0. -1.
       -2   -1    0    0    0  501  0.00000000000E+00  0.00000000000E+00 -0.11249638291E+04  0.11249638291E+04  0.25500000920E-02 0.  1.
    10030    2    1    2    0    0  0.00000000000E+00  0.00000000000E+00 -0.14174746073E+03  0.21081801974E+04  0.21034094709E+04 0.  0.
        3    1    3    3  502    0  0.45778442299E+03 -0.57786543490E+03  0.68088600359E+03  0.10035441190E+04  0.10100000352E+00 0. -1.
       -3    1    3    3    0  502 -0.45778442299E+03  0.57786543490E+03 -0.82263346433E+03  0.11046360784E+04  0.10100000352E+00 0.  1.
</event>
<event>
 5   0  0.1395356E-05  0.2097494E+04  0.7818609E-02  0.8562348E-01
        2   -1    0    0  501    0  0.00000000000E+00  0.00000000000E+00  0.66031795148E+03  0.66031795149E+03  0.25500000920E-02 0.  1.
       -2   -1    0    0    0  501  0.00000000000E+00  0.00000000000E+00 -0.16656678834E+04  0.16656678834E+04  0.25500000920E-02 0. -1.
    10030    2    1    2    0    0  0.00000000000E+00  0.00000000000E+00 -0.10053499319E+04  0.23259858349E+04  0.20974941284E+04 0.  0.
        1    1    3    3  502    0 -0.37983288173E+03  0.30451743491E+02  0.58083514205E+03  0.69467243287E+03  0.50400001928E-02 0.  1.
       -1    1    3    3    0  502  0.37983288173E+03 -0.30451743491E+02 -0.15861850740E+04  0.16313134020E+04  0.50400001928E-02 0. -1.
</event>
<event>
 5   0  0.1395356E-05  0.2094529E+04  0.7818609E-02  0.8563657E-01
       -2   -1    0    0    0  501  0.00000000000E+00  0.00000000000E+00  0.11638889713E+04  0.11638889713E+04  0.25500000920E-02 0.  1.
        2   -1    0    0  501    0  0.00000000000E+00  0.00000000000E+00 -0.94232629575E+03  0.94232629575E+03  0.25500000920E-02 0. -1.
    10030    2    1    2    0    0  0.00000000000E+00  0.00000000000E+00  0.22156267551E+03  0.21062152670E+04  0.20945292387E+04 0.  0.
        1    1    3    3  502    0 -0.58651581058E+03  0.42695353676E+03  0.87029204522E+03  0.11330041318E+04  0.50400001928E-02 0.  1.
       -1    1    3    3    0  502  0.58651581058E+03 -0.42695353676E+03 -0.64872936971E+03  0.97321113524E+03  0.50400001928E-02 0. -1.
</event>
<event>
 5   0  0.1390735E-05  0.2105929E+04  0.7818609E-02  0.8558636E-01
       -2   -1    0    0    0  501  0.00000000000E+00  0.00000000000E+00  0.18728577885E+04  0.18728577885E+04  0.25500000920E-02 0. -1.
        2   -1    0    0  501    0  0.00000000000E+00  0.00000000000E+00 -0.59200147447E+03  0.59200147447E+03  0.25500000920E-02 0.  1.
    10030    2    1    2    0    0  0.00000000000E+00  0.00000000000E+00  0.12808563140E+04  0.24648592630E+04  0.21059293172E+04 0.  0.
        5    1    3    3  502    0 -0.56840092500E+03 -0.15421096644E+03  0.16620345442E+04  0.17633041569E+04  0.46999998093E+01 0. -1.
       -5    1    3    3    0  502  0.56840092500E+03  0.15421096644E+03 -0.38117823015E+03  0.70155510607E+03  0.46999998093E+01 0.  1.
</event>
<event>
 5   0  0.6917078E-06  0.2099915E+04  0.7818609E-02  0.8561281E-01
        1   -1    0    0  501    0  0.00000000000E+00  0.00000000000E+00  0.15324059925E+04  0.15324059925E+04  0.50400001928E-02 0. -1.
       -1   -1    0    0    0  501  0.00000000000E+00  0.00000000000E+00 -0.71939895038E+03  0.71939895040E+03  0.50400001928E-02 0.  1.
    10030    2    1    2    0    0  0.00000000000E+00  0.00000000000E+00  0.81300704212E+03  0.22518049429E+04  0.20999154865E+04 0.  0.
        5    1    3    3  502    0 -0.68865557068E+03  0.23293435974E+03 -0.40584259623E+03  0.83260747888E+03  0.46999998093E+01 0.  1.
       -5    1    3    3    0  502  0.68865557068E+03 -0.23293435974E+03  0.12188496384E+04  0.14191974640E+04  0.46999998093E+01 0. -1.
</event>
<event>
 5   0  0.1344501E-05  0.2095493E+04  0.7818609E-02  0.8563231E-01
       -2   -1    0    0    0  501  0.00000000000E+00  0.00000000000E+00  0.58454149317E+03  0.58454149317E+03  0.25500000920E-02 0.  1.
        2   -1    0    0  501    0  0.00000000000E+00  0.00000000000E+00 -0.18780063791E+04  0.18780063791E+04  0.25500000920E-02 0. -1.
    10030    2    1    2    0    0  0.00000000000E+00  0.00000000000E+00 -0.12934648859E+04  0.24625478723E+04  0.20954929282E+04 0.  0.
        3    1    3    3  502    0  0.47803591837E+03 -0.52183996972E+02  0.44720016536E+03  0.65668067345E+03  0.10100000352E+00 0.  1.
       -3    1    3    3    0  502 -0.47803591837E+03  0.52183996972E+02 -0.17406650513E+04  0.18058671988E+04  0.10100000352E+00 0. -1.
</event>
<event>
 5   0  0.6599245E-06  0.2100053E+04  0.7818609E-02  0.8561220E-01
       -1   -1    0    0    0  501  0.00000000000E+00  0.00000000000E+00  0.12707457406E+04  0.12707457406E+04  0.50400001928E-02 0. -1.
        1   -1    0    0  501    0  0.00000000000E+00  0.00000000000E+00 -0.86764490634E+03  0.86764490635E+03  0.50400001928E-02 0.  1.
    10030    2    1    2    0    0  0.00000000000E+00  0.00000000000E+00  0.40310083428E+03  0.21383906470E+04  0.21000533985E+04 0.  0.
        2    1    3    3  502    0  0.75150223083E+03 -0.14006191783E+03  0.93454090957E+03  0.12073688978E+04  0.25500000920E-02 0. -1.
       -2    1    3    3    0  502 -0.75150223083E+03  0.14006191783E+03 -0.53144007529E+03  0.93102174915E+03  0.25500000920E-02 0.  1.
</event>
<event>
 5   0  0.6283269E-06  0.2103348E+04  0.7818609E-02  0.8559770E-01
       -1   -1    0    0    0  501  0.00000000000E+00  0.00000000000E+00  0.11006822839E+04  0.11006822839E+04  0.50400001928E-02 0.  1.
        1   -1    0    0  501    0  0.00000000000E+00  0.00000000000E+00 -0.10048482545E+04  0.10048482545E+04  0.50400001928E-02 0. -1.
    10030    2    1    2    0    0  0.00000000000E+00  0.00000000000E+00  0.95834029434E+02  0.21055305384E+04  0.21033484464E+04 0.  0.
        1    1    3    3  502    0  0.18824761342E+03  0.89923738756E+03 -0.46442801687E+03  0.10294456887E+04  0.50400001928E-02 0. -1.
       -1    1    3    3    0  502 -0.18824761342E+03 -0.89923738756E+03  0.56026204631E+03  0.10760848497E+04  0.50400001928E-02 0.  1.
</event>
<event>
 5   0  0.6589193E-06  0.2097589E+04  0.7818609E-02  0.8562306E-01
        1   -1    0    0  501    0  0.00000000000E+00  0.00000000000E+00  0.70168410135E+03  0.70168410136E+03  0.50400001928E-02 0. -1.
       -1   -1    0    0    0  501  0.00000000000E+00  0.00000000000E+00 -0.15676141343E+04  0.15676141343E+04  0.50400001928E-02 0.  1.
    10030    2    1    2    0    0  0.00000000000E+00  0.00000000000E+00 -0.86593003296E+03  0.22692982357E+04  0.20975890113E+04 0.  0.
        3    1    3    3  502    0  0.86089669929E+03 -0.23876903615E+03  0.16138516008E+03  0.90785404089E+03  0.10100000352E+00 0. -1.
       -3    1    3    3    0  502 -0.86089669929E+03  0.23876903615E+03 -0.10273151930E+04  0.13614441948E+04  0.10100000352E+00 0.  1.
</event>
<event>
 5   0  0.6589193E-06  0.2093954E+04  0.7818609E-02  0.8563912E-01
       -1   -1    0    0    0  501  0.00000000000E+00  0.00000000000E+00  0.67993672206E+03  0.67993672208E+03  0.50400001928E-02 0. -1.
        1   -1    0    0  501    0  0.00000000000E+00  0.00000000000E+00 -0.16121507371E+04  0.16121507371E+04  0.50400001928E-02 0.  1.
    10030    2    1    2    0    0  0.00000000000E+00  0.00000000000E+00 -0.93221401503E+03  0.22920874592E+04  0.20939536649E+04 0.  0.
        3    1    3    3  502    0  0.92570522533E+03 -0.34409428072E+03 -0.85610655260E+02  0.99129220350E+03  0.10100000352E+00 0.  1.
       -3    1    3    3    0  502 -0.92570522533E+03  0.34409428072E+03 -0.84660335977E+03  0.13007952557E+04  0.10100000352E+00 0. -1.
</event>
<event>
 5   0  0.1398469E-05  0.2095532E+04  0.7818609E-02  0.8563214E-01
        2   -1    0    0  501    0  0.00000000000E+00  0.00000000000E+00  0.16579027399E+04  0.16579027399E+04  0.25500000920E-02 0. -1.
       -2   -1    0    0    0  501  0.00000000000E+00  0.00000000000E+00 -0.66217005039E+03  0.66217005040E+03  0.25500000920E-02 0.  1.
    10030    2    1    2    0    0  0.00000000000E+00  0.00000000000E+00  0.99573268952E+03  0.23200727903E+04  0.20955319524E+04 0.  0.
        2    1    3    3  502    0  0.22209799715E+03 -0.58140558085E+03 -0.43533460951E+03  0.75952366127E+03  0.25500000920E-02 0.  1.
       -2    1    3    3    0  502 -0.22209799715E+03  0.58140558085E+03  0.14310672990E+04  0.15605491290E+04  0.25500000920E-02 0. -1.
</event>
<event>
 5   0  0.6917078E-06  0.2098448E+04  0.7818609E-02  0.8561928E-01
       -1   -1    0    0    0  501  0.00000000000E+00  0.00000000000E+00  0.95253924915E+03  0.95253924916E+03  0.50400001928E-02 0. -1.
        1   -1    0    0  501    0  0.00000000000E+00  0.00000000000E+00 -0.11557220141E+04  0.11557220141E+04  0.50400001928E-02 0.  1.
    10030    2    1    2    0    0  0.00000000000E+00  0.00000000000E+00 -0.20318276493E+03  0.21082612633E+04  0.20984475972E+04 0.  0.
        5    1    3    3  502    0  0.11927371867E+03  0.81612499291E+03  0.54994917118E+03  0.99133869333E+03  0.46999998093E+01 0. -1.
       -5    1    3    3    0  502 -0.11927371867E+03 -0.81612499291E+03 -0.75313193611E+03  0.11169225699E+04  0.46999998093E+01 0.  1.
</event>
<event>
 5   0  0.1390735E-05  0.2100127E+04  0.7818609E-02  0.8561187E-01
       -2   -1    0    0    0  501  0.00000000000E+00  0.00000000000E+00  0.74650949562E+03  0.74650949563E+03  0.25500000920E-02 0.  1.
        2   -1    0    0  501    0  0.00000000000E+00  0.00000000000E+00 -0.14770521782E+04  0.14770521782E+04  0.25500000920E-02 0. -1.
    10030    2    1    2    0    0  0.00000000000E+00  0.00000000000E+00 -0.73054268261E+03  0.22235616739E+04  0.21001271167E+04 0.  0.
        5    1    3    3  502    0 -0.51513938236E+03  0.83518540981E+03 -0.76101543703E+03  0.12418010458E+04  0.46999998093E+01 0. -1.
       -5    1    3    3    0  502  0.51513938236E+03 -0.83518540981E+03  0.30472754411E+02  0.98176062804E+03  0.46999998093E+01 0.  1.
</event>
<event>
 5   0  0.6599245E-06  0.2091055E+04  0.7818609E-02  0.8565194E-01
       -1   -1    0    0    0  501  0.00000000000E+00  0.00000000000E+00  0.18099764524E+04  0.18099764524E+04  0.50400001928E-02 0. -1.
        1   -1    0    0  501    0  0.00000000000E+00  0.00000000000E+00 -0.60394610755E+03  0.60394610757E+03  0.50400001928E-02 0.  1.
    10030    2    1    2    0    0  0.00000000000E+00  0.00000000000E+00  0.12060303449E+04  0.24139225600E+04  0.20910554591E+04 0.  0.
        2    1    3    3  502    0  0.94739789144E+03 -0.43880747976E+02  0.11110052875E+04  0.14607604299E+04  0.25500000920E-02 0. -1.
       -2    1    3    3    0  502 -0.94739789144E+03  0.43880747976E+02  0.95025057404E+02  0.95316213011E+03  0.25500000920E-02 0.  1.
</event>
<event>
 5   0  0.1390735E-05  0.2110124E+04  0.7818609E-02  0.8556797E-01
        2   -1    0    0  501    0  0.00000000000E+00  0.00000000000E+00  0.14831542291E+04  0.14831542291E+04  0.25500000920E-02 0. -1.
       -2   -1    0    0    0  501  0.00000000000E+00  0.00000000000E+00 -0.75053281138E+03  0.75053281139E+03  0.25500000920E-02 0.  1.
    10030    2    1    2    0    0  0.00000000000E+00  0.00000000000E+00  0.73262141775E+03  0.22336870405E+04  0.21101240848E+04 0.  0.
        5    1    3    3  502    0 -0.29554236502E+03 -0.51838746040E+03 -0.55473319712E+03  0.81475263645E+03  0.46999998093E+01 0.  1.
       -5    1    3    3    0  502  0.29554236502E+03  0.51838746040E+03  0.12873546149E+04  0.14189344041E+04  0.46999998093E+01 0. -1.
</event>
<event>
 5   0  0.6283269E-06  0.2115687E+04  0.7818609E-02  0.8554365E-01
        1   -1    0    0  501    0  0.00000000000E+00  0.00000000000E+00  0.68026193766E+03  0.68026193768E+03  0.50400001928E-02 0. -1.
       -1   -1    0    0    0  501  0.00000000000E+00  0.00000000000E+00 -0.16450025756E+04  0.16450025756E+04  0.50400001928E-02 0.  1.
    10030    2    1    2    0    0  0.00000000000E+00  0.00000000000E+00 -0.96474063791E+03  0.23252645133E+04  0.21156867817E+04 0.  0.
        1    1    3    3  502    0  0.47112343313E+03 -0.80265595324E+03 -0.10349891107E+04  0.13919110344E+04  0.50400001928E-02 0.  1.
       -1    1    3    3    0  502 -0.47112343313E+03  0.80265595324E+03  0.70248472750E+02  0.93335347884E+03  0.50400001928E-02 0. -1.
</event>
<event>
 5   0  0.6599245E-06  0.2107446E+04  0.7818609E-02  0.8557970E-01
        1   -1    0    0  501    0  0.00000000000E+00  0.00000000000E+00  0.10360384819E+04  0.10360384819E+04  0.50400001928E-02 0. -1.
       -1   -1    0    0    0  501  0.00000000000E+00  0.00000000000E+00 -0.10717096807E+04  0.10717096807E+04  0.50400001928E-02 0.  1.
    10030    2    1    2    0    0  0.00000000000E+00  0.00000000000E+00 -0.35671198817E+02  0.21077481626E+04  0.21074462941E+04 0.  0.
        2    1    3    3  502    0 -0.58990640697E+03 -0.45318571054E+03  0.72857258866E+03  0.10412419864E+04  0.25500000920E-02 0. -1.
       -2    1    3    3    0  502  0.58990640697E+03  0.45318571054E+03 -0.76424378747E+03  0.10665061762E+04  0.25500000920E-02 0.  1.
</event>
<event>
 5   0  0.1395356E-05  0.2104599E+04  0.7818609E-02  0.8559220E-01
       -2   -1    0    0    0  501  0.00000000000E+00  0.00000000000E+00  0.94230630383E+03  0.94230630383E+03  0.25500000920E-02 0. -1.
        2   -1    0    0  501    0  0.00000000000E+00  0.00000000000E+00 -0.11751318859E+04  0.11751318859E+04  0.25500000920E-02 0.  1.
    10030    2    1    2    0    0  0.00000000000E+00  0.00000000000E+00 -0.23282558208E+03  0.21174381897E+04  0.21045989489E+04 0.  0.
        1    1    3    3  502    0 -0.25890336546E+03  0.92623926646E+03  0.31325700252E+03  0.10114742118E+04  0.50400001928E-02 0. -1.
       -1    1    3    3    0  502  0.25890336546E+03 -0.92623926646E+03 -0.54608258460E+03  0.11059639780E+04  0.50400001928E-02 0.  1.
</event>
<event>
 5   0  0.1395356E-05  0.2100832E+04  0.7818609E-02  0.8560877E-01
       -2   -1    0    0    0  501  0.00000000000E+00  0.00000000000E+00  0.14965877508E+04  0.14965877508E+04  0.25500000920E-02 0. -1.
        2   -1    0    0  501    0  0.00000000000E+00  0.00000000000E+00 -0.73725937600E+03  0.73725937601E+03  0.25500000920E-02 0.  1.
    10030    2    1    2    0    0  0.00000000000E+00  0.00000000000E+00  0.75932837475E+03  0.22338471268E+04  0.21008315984E+04 0.  0.
        1    1    3    3  502    0  0.42342815950E+03 -0.39515066355E+03  0.13114696631E+04  0.14336624884E+04  0.50400001928E-02 0. -1.
       -1    1    3    3    0  502 -0.42342815950E+03  0.39515066355E+03 -0.55214128839E+03  0.80018463840E+03  0.50400001928E-02 0.  1.
</event>
<event>
 5   0  0.5009125E-06  0.2102237E+04  0.7818609E-02  0.8560259E-01
       -3   -1    0    0    0  501  0.00000000000E+00  0.00000000000E+00  0.75783082280E+03  0.75783082953E+03  0.10100000352E+00 0.  1.
        3   -1    0    0  501    0  0.00000000000E+00  0.00000000000E+00 -0.14579115196E+04  0.14579115231E+04  0.10100000352E+00 0. -1.
    10030    2    1    2    0    0  0.00000000000E+00  0.00000000000E+00 -0.70008069681E+03  0.22157423526E+04  0.21022371872E+04 0.  0.
        2    1    3    3  502    0  0.33171488310E+03 -0.99484115210E+03 -0.42535928079E+03  0.11316687675E+04  0.25500000920E-02 0. -1.
       -2    1    3    3    0  502 -0.33171488310E+03  0.99484115210E+03 -0.27472141601E+03  0.10840735851E+04  0.25500000920E-02 0.  1.
</event>
<event>
 5   0  0.6238363E-06  0.2102127E+04  0.7818609E-02  0.8560307E-01
       -1   -1    0    0    0  501  0.00000000000E+00  0.00000000000E+00  0.47954888442E+03  0.47954888445E+03  0.50400001928E-02 0.  1.
        1   -1    0    0  501    0  0.00000000000E+00  0.00000000000E+00 -0.23036947415E+04  0.23036947415E+04  0.50400001928E-02 0. -1.
    10030    2    1    2    0    0  0.00000000000E+00  0.00000000000E+00 -0.18241458571E+04  0.27832436259E+04  0.21021267739E+04 0.  0.
        4    1    3    3  502    0 -0.26099295404E+03  0.30869099364E+03 -0.21966558898E+04  0.22335411710E+04  0.12699999809E+01 0. -1.
       -4    1    3    3    0  502  0.26099295404E+03 -0.30869099364E+03  0.37251003270E+03  0.54970245494E+03  0.12699999809E+01 0.  1.
</event>
<event>
 5   0  0.1390735E-05  0.2078674E+04  0.7818609E-02  0.8570696E-01
       -2   -1    0    0    0  501  0.00000000000E+00  0.00000000000E+00  0.98427686622E+03  0.98427686622E+03  0.25500000920E-02 0.  1.
        2   -1    0    0  501    0  0.00000000000E+00  0.00000000000E+00 -0.10974776359E+04  0.10974776359E+04  0.25500000920E-02 0. -1.
    10030    2    1    2    0    0  0.00000000000E+00  0.00000000000E+00 -0.11320076972E+03  0.20817545022E+04  0.20786744317E+04 0.  0.
        5    1    3    3  502    0 -0.91567247879E+03  0.34771029529E+03  0.29153694155E+03  0.10219463861E+04  0.46999998093E+01 0.  1.
       -5    1    3    3    0  502  0.91567247879E+03 -0.34771029529E+03 -0.40473771127E+03  0.10598081160E+04  0.46999998093E+01 0. -1.
</event>
<event>
 5   0  0.6917078E-06  0.2100445E+04  0.7818609E-02  0.8561047E-01
       -1   -1    0    0    0  501  0.00000000000E+00  0.00000000000E+00  0.13616033139E+04  0.13616033139E+04  0.50400001928E-02 0. -1.
        1   -1    0    0  501    0  0.00000000000E+00  0.00000000000E+00 -0.81005041611E+03  0.81005041613E+03  0.50400001928E-02 0.  1.
    10030    2    1    2    0    0  0.00000000000E+00  0.00000000000E+00  0.55155289782E+03  0.21716537301E+04  0.21004450300E+04 0.  0.
        5    1    3    3  502    0  0.92795555318E+03  0.47523233232E+03  0.14500540283E+03  0.10526138586E+04  0.46999998093E+01 0.  1.
       -5    1    3    3    0  502 -0.92795555318E+03 -0.47523233232E+03  0.40654749499E+03  0.11190398715E+04  0.46999998093E+01 0. -1.
</event>
<event>
 5   0  0.6599245E-06  0.2099747E+04  0.7818609E-02  0.8561355E-01
       -1   -1    0    0    0  501  0.00000000000E+00  0.00000000000E+00  0.55383270383E+03  0.55383270385E+03  0.50400001928E-02 0.  1.
        1   -1    0    0  501    0  0.00000000000E+00  0.00000000000E+00 -0.19901937503E+04  0.19901937503E+04  0.50400001928E-02 0. -1.
    10030    2    1    2    0    0  0.00000000000E+00  0.00000000000E+00 -0.14363610464E+04  0.25440264541E+04  0.20997470189E+04 0.  0.
        2    1    3    3  502    0  0.24341172373E+03 -0.10212227505E+04 -0.70673679190E+03  0.12655520797E+04  0.25500000920E-02 0.  1.
       -2    1    3    3    0  502 -0.24341172373E+03  0.10212227505E+04 -0.72962425453E+03  0.12784743744E+04  0.25500000920E-02 0. -1.
</event>
<event>
 5   0  0.1390735E-05  0.2101842E+04  0.7818609E-02  0.8560432E-01
        2   -1    0    0  501    0  0.00000000000E+00  0.00000000000E+00  0.24333061254E+04  0.24333061254E+04  0.25500000920E-02 0. -1.
       -2   -1    0    0    0  501  0.00000000000E+00  0.00000000000E+00 -0.45388260873E+03  0.45388260874E+03  0.25500000920E-02 0.  1.
    10030    2    1    2    0    0  0.00000000000E+00  0.00000000000E+00  0.19794235167E+04  0.28871887342E+04  0.21018423652E+04 0.  0.
        5    1    3    3  502    0  0.72782524478E+03 -0.76777789055E+02  0.20256898255E+04  0.21538490604E+04  0.46999998093E+01 0. -1.
       -5    1    3    3    0  502 -0.72782524478E+03  0.76777789055E+02 -0.46266308784E+02  0.73333967379E+03  0.46999998093E+01 0.  1.
</event>
<event>
 5   0  0.1395356E-05  0.2100892E+04  0.7818609E-02  0.8560850E-01
        2   -1    0    0  501    0  0.00000000000E+00  0.00000000000E+00  0.18075253776E+04  0.18075253776E+04  0.25500000920E-02 0.  1.
       -2   -1    0    0    0  501  0.00000000000E+00  0.00000000000E+00 -0.61046844125E+03  0.61046844126E+03  0.25500000920E-02 0. -1.
    10030    2    1    2    0    0  0.00000000000E+00  0.00000000000E+00  0.11970569364E+04  0.24179938189E+04  0.21008923817E+04 0.  0.
        1    1    3    3  502    0  0.28718206239E+03  0.97000955677E+03  0.92415427540E+03  0.13702018836E+04  0.50400001928E-02 0. -1.
       -1    1    3    3    0  502 -0.28718206239E+03 -0.97000955677E+03  0.27290266100E+03  0.10477919353E+04  0.50400001928E-02 0.  1.
</event>
<event>
 5   0  0.6599245E-06  0.2097759E+04  0.7818609E-02  0.8562231E-01
        1   -1    0    0  501    0  0.00000000000E+00  0.00000000000E+00  0.13985259681E+04  0.13985259681E+04  0.50400001928E-02 0. -1.
       -1   -1    0    0    0  501  0.00000000000E+00  0.00000000000E+00 -0.78664828110E+03  0.78664828111E+03  0.50400001928E-02 0.  1.
    10030    2    1    2    0    0  0.00000000000E+00  0.00000000000E+00  0.61187768702E+03  0.21851742492E+04  0.20977588507E+04 0.  0.
        2    1    3    3  502    0 -0.70505459623E+03  0.77928502962E+01  0.11148184526E+04  0.13190841120E+04  0.25500000920E-02 0. -1.
       -2    1    3    3    0  502  0.70505459623E+03 -0.77928502962E+01 -0.50294076559E+03  0.86609013727E+03  0.25500000920E-02 0.  1.
</event>
<event>
 5   0  0.6917078E-06  0.2101679E+04  0.7818609E-02  0.8560504E-01
        1   -1    0    0  501    0  0.00000000000E+00  0.00000000000E+00  0.96107021193E+03  0.96107021194E+03  0.50400001928E-02 0.  1.
       -1   -1    0    0    0  501  0.00000000000E+00  0.00000000000E+00 -0.11489936142E+04  0.11489936143E+04  0.50400001928E-02 0. -1.
    10030    2    1    2    0    0  0.00000000000E+00  0.00000000000E+00 -0.18792340232E+03  0.21100638262E+04  0.21016788873E+04 0.  0.
        5    1    3    3  502    0 -0.50920030669E+03  0.89760343502E+03  0.10498174637E+03  0.10373139043E+04  0.46999998093E+01 0.  1.
       -5    1    3    3    0  502  0.50920030669E+03 -0.89760343502E+03 -0.29290514870E+03  0.10727499219E+04  0.46999998093E+01 0. -1.
</event>
<event>
 5   0  0.6589193E-06  0.2109146E+04  0.7818609E-02  0.8557225E-01
       -1   -1    0    0    0  501  0.00000000000E+00  0.00000000000E+00  0.19741132852E+04  0.19741132852E+04  0.50400001928E-02 0.  1.
        1   -1    0    0  501    0  0.00000000000E+00  0.00000000000E+00 -0.56335352989E+03  0.56335352992E+03  0.50400001928E-02 0. -1.
    10030    2    1    2    0    0  0.00000000000E+00  0.00000000000E+00  0.14107597553E+04  0.25374668151E+04  0.21091455025E+04 0.  0.
        3    1    3    3  502    0  0.71283562466E+03  0.75482612222E+03  0.92795445146E+03  0.13924785732E+04  0.10100000352E+00 0.  1.
       -3    1    3    3    0  502 -0.71283562466E+03 -0.75482612222E+03  0.48280530385E+03  0.11449882419E+04  0.10100000352E+00 0. -1.
</event>
<event>
 5   0  0.6589193E-06  0.2087999E+04  0.7818609E-02  0.8566549E-01
       -1   -1    0    0    0  501  0.00000000000E+00  0.00000000000E+00  0.52113004160E+03  0.52113004163E+03  0.50400001928E-02 0.  1.
        1   -1    0    0  501    0  0.00000000000E+00  0.00000000000E+00 -0.20914829196E+04  0.20914829196E+04  0.50400001928E-02 0. -1.
    10030    2    1    2    0    0  0.00000000000E+00  0.00000000000E+00 -0.15703528780E+04  0.26126129612E+04  0.20879986407E+04 0.  0.
        3    1    3    3  502    0  0.15645427638E+03  0.40729869354E+03  0.40157835980E+03  0.59298849535E+03  0.10100000352E+00 0.  1.
       -3    1    3    3    0  502 -0.15645427638E+03 -0.40729869354E+03 -0.19719312378E+04  0.20196244658E+04  0.10100000352E+00 0. -1.
</event>
<event>
 5   0  0.6917078E-06  0.2106642E+04  0.7818609E-02  0.8558323E-01
       -1   -1    0    0    0  501  0.00000000000E+00  0.00000000000E+00  0.10507790811E+04  0.10507790811E+04  0.50400001928E-02 0. -1.
        1   -1    0    0  501    0  0.00000000000E+00  0.00000000000E+00 -0.10558690503E+04  0.10558690503E+04  0.50400001928E-02 0.  1.
    10030    2    1    2    0    0  0.00000000000E+00  0.00000000000E+00 -0.50899691552E+01  0.21066481314E+04  0.21066419823E+04 0.  0.
        5    1    3    3  502    0  0.62669964098E+03  0.73756981113E+03  0.41302975275E+03  0.10523199765E+04  0.46999998093E+01 0. -1.
       -5    1    3    3    0  502 -0.62669964098E+03 -0.73756981113E+03 -0.41811972191E+03  0.10543281549E+04  0.46999998093E+01 0.  1.
</event>
<event>
 5   0  0.6238363E-06  0.2102350E+04  0.7818609E-02  0.8560209E-01
        1   -1    0    0  501    0  0.00000000000E+00  0.00000000000E+00  0.98632005748E+03  0.98632005750E+03  0.50400001928E-02 0.  1.
       -1   -1    0    0    0  501  0.00000000000E+00  0.00000000000E+00 -0.11202944880E+04  0.11202944880E+04  0.50400001928E-02 0. -1.
    10030    2    1    2    0    0  0.00000000000E+00  0.00000000000E+00 -0.13397443053E+03  0.21066145455E+04  0.21023500411E+04 0.  0.
        4    1    3    3  502    0 -0.60929599749E+03 -0.59493199846E+03  0.55052708542E+03  0.10140351966E+04  0.12699999809E+01 0.  1.
       -4    1    3    3    0  502  0.60929599749E+03  0.59493199846E+03 -0.68450151595E+03  0.10925793489E+04  0.12699999809E+01 0. -1.
</event>
<event>
 5   0  0.6589193E-06  0.2119904E+04  0.7818609E-02  0.8552526E-01
        1   -1    0    0  501    0  0.00000000000E+00  0.00000000000E+00  0.24332610174E+04  0.24332610174E+04  0.50400001928E-02 0.  1.
       -1   -1    0    0    0  501  0.00000000000E+00  0.00000000000E+00 -0.46172537855E+03  0.46172537858E+03  0.50400001928E-02 0. -1.
    10030    2    1    2    0    0  0.00000000000E+00  0.00000000000E+00  0.19715356388E+04  0.28949863960E+04  0.21199041152E+04 0.  0.
        3    1    3    3  502    0  0.60692406741E+01  0.98461699139E+03  0.15216605134E+04  0.18124453602E+04  0.10100000352E+00 0.  1.
       -3    1    3    3    0  502 -0.60692406741E+01 -0.98461699139E+03  0.44987512539E+03  0.10825410357E+04  0.10100000352E+00 0. -1.
</event>
<event>
 5   0  0.1441136E-05  0.2074577E+04  0.7818609E-02  0.8572526E-01
        2   -1    0    0  501    0  0.00000000000E+00  0.00000000000E+00  0.22182226668E+04  0.22182226668E+04  0.25500000920E-02 0. -1.
       -2   -1    0    0    0  501  0.00000000000E+00  0.00000000000E+00 -0.48505856174E+03  0.48505856175E+03  0.25500000920E-02 0.  1.
    10030    2    1    2    0    0  0.00000000000E+00  0.00000000000E+00  0.17331641050E+04  0.27032812285E+04  0.20745774475E+04 0.  0.
        4    1    3    3  502    0  0.45475984976E+03 -0.32097522883E+03 -0.27396743277E+03  0.62039615214E+03  0.12699999809E+01 0.  1.
       -4    1    3    3    0  502 -0.45475984976E+03  0.32097522883E+03  0.20071315378E+04  0.20828850764E+04  0.12699999809E+01 0. -1.
</event>
<event>
 5   0  0.6589193E-06  0.2104719E+04  0.7818609E-02  0.8559167E-01
        1   -1    0    0  501    0  0.00000000000E+00  0.00000000000E+00  0.16139407921E+04  0.16139407921E+04  0.50400001928E-02 0. -1.
       -1   -1    0    0    0  501  0.00000000000E+00  0.00000000000E+00 -0.68618431781E+03  0.68618431783E+03  0.50400001928E-02 0.  1.
    10030    2    1    2    0    0  0.00000000000E+00  0.00000000000E+00  0.92775647429E+03  0.23001251099E+04  0.21047193271E+04 0.  0.
        3    1    3    3  502    0 -0.57349674140E+03  0.82356814788E+03  0.11777706497E+03  0.10104624950E+04  0.10100000352E+00 0.  1.
       -3    1    3    3    0  502  0.57349674140E+03 -0.82356814788E+03  0.80997940932E+03  0.12896626149E+04  0.10100000352E+00 0. -1.
</event>
<event>
 5   0  0.1344501E-05  0.2100835E+04  0.7818609E-02  0.8560876E-01
       -2   -1    0    0    0  501  0.00000000000E+00  0.00000000000E+00  0.86019711344E+03  0.86019711344E+03  0.25500000920E-02 0. -1.
        2   -1    0    0  501    0  0.00000000000E+00  0.00000000000E+00 -0.12827028004E+04  0.12827028004E+04  0.25500000920E-02 0.  1.
    10030    2    1    2    0    0  0.00000000000E+00  0.00000000000E+00 -0.42250568699E+03  0.21428999139E+04  0.21008353066E+04 0.  0.
        3    1    3    3  502    0 -0.37934481648E+03  0.19861541076E+03 -0.11896385225E+04  0.12643537462E+04  0.10100000352E+00 0.  1.
       -3    1    3    3    0  502  0.37934481648E+03 -0.19861541076E+03  0.76713283551E+03  0.87854616765E+03  0.10100000352E+00 0. -1.
</event>
<event>
 5   0  0.1344501E-05  0.2096640E+04  0.7818609E-02  0.8562725E-01
        2   -1    0    0  501    0  0.00000000000E+00  0.00000000000E+00  0.84321177751E+03  0.84321177752E+03  0.25500000920E-02 0. -1.
       -2   -1    0    0    0  501  0.00000000000E+00  0.00000000000E+00 -0.13033201099E+04  0.13033201099E+04  0.25500000920E-02 0.  1.
    10030    2    1    2    0    0  0.00000000000E+00  0.00000000000E+00 -0.46010833237E+03  0.21465318874E+04  0.20966400421E+04 0.  0.
        3    1    3    3  502    0 -0.80430591164E+02  0.23113615593E+03 -0.12736644473E+04  0.12969634294E+04  0.10100000352E+00 0.  1.
       -3    1    3    3    0  502  0.80430591164E+02 -0.23113615593E+03  0.81355611493E+03  0.84956845805E+03  0.10100000352E+00 0. -1.
</event>
<event>
 5   0  0.5009125E-06  0.2103256E+04  0.7818609E-02  0.8559810E-01
        4   -1    0    0  501    0  0.00000000000E+00  0.00000000000E+00  0.11782762713E+04  0.11782769557E+04  0.12699999809E+01 0. -1.
       -4   -1    0    0    0  501  0.00000000000E+00  0.00000000000E+00 -0.93859148302E+03  0.93859234223E+03  0.12699999809E+01 0.  1.
    10030    2    1    2    0    0  0.00000000000E+00  0.00000000000E+00  0.23968478828E+03  0.21168692980E+04  0.21032562438E+04 0.  0.
        2    1    3    3  502    0  0.10406369499E+03  0.25833928172E+03  0.11404834262E+04  0.11739978205E+04  0.25500000920E-02 0. -1.
       -2    1    3    3    0  502 -0.10406369499E+03 -0.25833928172E+03 -0.90079863788E+03  0.94287147751E+03  0.25500000920E-02 0.  1.
</event>
<event>
 5   0  0.1390735E-05  0.2099175E+04  0.7818609E-02  0.8561607E-01
       -2   -1    0    0    0  501  0.00000000000E+00  0.00000000000E+00  0.10027633647E+04  0.10027633647E+04  0.25500000920E-02 0.  1.
        2   -1    0    0  501    0  0.00000000000E+00  0.00000000000E+00 -0.10985976541E+04  0.10985976541E+04  0.25500000920E-02 0. -1.
    10030    2    1    2    0    0  0.00000000000E+00  0.00000000000E+00 -0.95834289385E+02  0.21013610187E+04  0.20991745806E+04 0.  0.
        5    1    3    3  502    0 -0.78241090683E+03  0.48942036842E+03  0.45251580726E+03  0.10278578549E+04  0.46999998093E+01 0.  1.
       -5    1    3    3    0  502  0.78241090683E+03 -0.48942036842E+03 -0.54835009664E+03  0.10735031638E+04  0.46999998093E+01 0. -1.
</event>
<event>
 5   0  0.6917078E-06  0.2102791E+04  0.7818609E-02  0.8560015E-01
        1   -1    0    0  501    0  0.00000000000E+00  0.00000000000E+00  0.10829757295E+04  0.10829757295E+04  0.50400001928E-02 0. -1.
       -1   -1    0    0    0  501  0.00000000000E+00  0.00000000000E+00 -0.10207362416E+04  0.10207362416E+04  0.50400001928E-02 0.  1.
    10030    2    1    2    0    0  0.00000000000E+00  0.00000000000E+00  0.62239487842E+02  0.21037119711E+04  0.21027910746E+04 0.  0.
        5    1    3    3  502    0 -0.96947069197E+03 -0.40546529692E+03 -0.25841218916E+01  0.10508588379E+04  0.46999998093E+01 0. -1.
       -5    1    3    3    0  502  0.96947069197E+03  0.40546529692E+03  0.64823609733E+02  0.10528531331E+04  0.46999998093E+01 0.  1.
</event>
<event>
 5   0  0.6599245E-06  0.2099063E+04  0.7818609E-02  0.8561656E-01
        1   -1    0    0  501    0  0.00000000000E+00  0.00000000000E+00  0.10432721043E+04  0.10432721043E+04  0.50400001928E-02 0. -1.
       -1   -1    0    0    0  501  0.00000000000E+00  0.00000000000E+00 -0.10558282973E+04  0.10558282973E+04  0.50400001928E-02 0.  1.
    10030    2    1    2    0    0  0.00000000000E+00  0.00000000000E+00 -0.12556192967E+02  0.20991004016E+04  0.20990628476E+04 0.  0.
        2    1    3    3  502    0  0.80709536150E+03 -0.51349748434E+03 -0.43806541857E+03  0.10521330239E+04  0.25500000920E-02 0.  1.
       -2    1    3    3    0  502 -0.80709536150E+03  0.51349748434E+03  0.42550922561E+03  0.10469673777E+04  0.25500000920E-02 0. -1.
</event>
<event>
 5   0  0.1390735E-05  0.2097640E+04  0.7818609E-02  0.8562284E-01
       -2   -1    0    0    0  501  0.00000000000E+00  0.00000000000E+00  0.57959725212E+03  0.57959725212E+03  0.25500000920E-02 0.  1.
        2   -1    0    0  501    0  0.00000000000E+00  0.00000000000E+00 -0.18979100074E+04  0.18979100074E+04  0.25500000920E-02 0. -1.
    10030    2    1    2    0    0  0.00000000000E+00  0.00000000000E+00 -0.13183127553E+04  0.24775072596E+04  0.20976400312E+04 0.  0.
        5    1    3    3  502    0 -0.43851743549E+02  0.10181215808E+04 -0.36623871375E+03  0.10828884588E+04  0.46999998093E+01 0.  1.
       -5    1    3    3    0  502  0.43851743549E+02 -0.10181215808E+04 -0.95207404156E+03  0.13946188007E+04  0.46999998093E+01 0. -1.
</event>
<event>
 5   0  0.1395356E-05  0.2098736E+04  0.7818609E-02  0.8561800E-01
        2   -1    0    0  501    0  0.00000000000E+00  0.00000000000E+00  0.17678130289E+04  0.17678130289E+04  0.25500000920E-02 0.  1.
       -2   -1    0    0    0  501  0.00000000000E+00  0.00000000000E+00 -0.62290143253E+03  0.62290143254E+03  0.25500000920E-02 0. -1.
    10030    2    1    2    0    0  0.00000000000E+00  0.00000000000E+00  0.11449115964E+04  0.23907144615E+04  0.20987360655E+04 0.  0.
        1    1    3    3  502    0 -0.99694482298E+03 -0.22974318177E+03  0.83836764460E+03  0.13227022406E+04  0.50400001928E-02 0.  1.
       -1    1    3    3    0  502  0.99694482298E+03  0.22974318177E+03  0.30654395181E+03  0.10680122209E+04  0.50400001928E-02 0. -1.
</event>
<event>
 5   0  0.6599245E-06  0.2090440E+04  0.7818609E-02  0.8565466E-01
        1   -1    0    0  501    0  0.00000000000E+00  0.00000000000E+00  0.16524988396E+04  0.16524988396E+04  0.50400001928E-02 0. -1.
       -1   -1    0    0    0  501  0.00000000000E+00  0.00000000000E+00 -0.66111065942E+03  0.66111065944E+03  0.50400001928E-02 0.  1.
    10030    2    1    2    0    0  0.00000000000E+00  0.00000000000E+00  0.99138818019E+03  0.23136094991E+04  0.20904397600E+04 0.  0.
        2    1    3    3  502    0  0.54179261464E+03 -0.77019652993E+03  0.99770664980E+03  0.13719185439E+04  0.25500000920E-02 0. -1.
       -2    1    3    3    0  502 -0.54179261464E+03  0.77019652993E+03 -0.63184696137E+01  0.94169095518E+03  0.25500000920E-02 0.  1.
</event>
<event>
 5   0  0.1395356E-05  0.2100109E+04  0.7818609E-02  0.8561196E-01
       -2   -1    0    0    0  501  0.00000000000E+00  0.00000000000E+00  0.10141586688E+04  0.10141586688E+04  0.25500000920E-02 0. -1.
        2   -1    0    0  501    0  0.00000000000E+00  0.00000000000E+00 -0.10872204567E+04  0.10872204567E+04  0.25500000920E-02 0.  1.
    10030    2    1    2    0    0  0.00000000000E+00  0.00000000000E+00 -0.73061787824E+02  0.21013791255E+04  0.21001086172E+04 0.  0.
        1    1    3    3  502    0 -0.91563921847E+03 -0.19863313152E+03 -0.51091026297E+03  0.10671830191E+04  0.50400001928E-02 0. -1.
       -1    1    3    3    0  502  0.91563921847E+03  0.19863313152E+03  0.43784847514E+03  0.10341961064E+04  0.50400001928E-02 0.  1.
</event>
<event>
 5   0  0.6238363E-06  0.2097080E+04  0.7818609E-02  0.8562531E-01
       -1   -1    0    0    0  501  0.00000000000E+00  0.00000000000E+00  0.45572050061E+03  0.45572050064E+03  0.50400001928E-02 0. -1.
        1   -1    0    0  501    0  0.00000000000E+00  0.00000000000E+00 -0.24125237497E+04  0.24125237497E+04  0.50400001928E-02 0.  1.
    10030    2    1    2    0    0  0.00000000000E+00  0.00000000000E+00 -0.19568032491E+04  0.28682442504E+04  0.20970803809E+04 0.  0.
        4    1    3    3  502    0 -0.75246715291E+02  0.87411860958E+03 -0.19306904142E+03  0.89834441025E+03  0.12699999809E+01 0. -1.
       -4    1    3    3    0  502  0.75246715291E+02 -0.87411860958E+03 -0.17637342077E+04  0.19698998401E+04  0.12699999809E+01 0.  1.
</event>
<event>
 5   0  0.1344501E-05  0.2070938E+04  0.7818609E-02  0.8574155E-01
       -2   -1    0    0    0  501  0.00000000000E+00  0.00000000000E+00  0.10293794637E+04  0.10293794637E+04  0.25500000920E-02 0.  1.
        2   -1    0    0  501    0  0.00000000000E+00  0.00000000000E+00 -0.10415947081E+04  0.10415947082E+04  0.25500000920E-02 0. -1.
    10030    2    1    2    0    0  0.00000000000E+00  0.00000000000E+00 -0.12215244497E+02  0.20709741718E+04  0.20709381469E+04 0.  0.
        3    1    3    3  502    0  0.72290468101E+03 -0.44583763932E+03  0.58621494131E+03  0.10319933847E+04  0.10100000352E+00 0.  1.
       -3    1    3    3    0  502 -0.72290468101E+03  0.44583763932E+03 -0.59843018581E+03  0.10389807871E+04  0.10100000352E+00 0. -1.
</event>
<event>
 5   0  0.6238363E-06  0.2113909E+04  0.7818609E-02  0.8555141E-01
       -1   -1    0    0    0  501  0.00000000000E+00  0.00000000000E+00  0.12728072675E+04  0.12728072675E+04  0.50400001928E-02 0.  1.
        1   -1    0    0  501    0  0.00000000000E+00  0.00000000000E+00 -0.87770800528E+03  0.87770800530E+03  0.50400001928E-02 0. -1.
    10030    2    1    2    0    0  0.00000000000E+00  0.00000000000E+00  0.39509926225E+03  0.21505152728E+04  0.21139092960E+04 0.  0.
        4    1    3    3  502    0  0.77576894933E+03 -0.12345676101E+03  0.91696770581E+03  0.12074313318E+04  0.12699999809E+01 0.  1.
       -4    1    3    3    0  502 -0.77576894933E+03  0.12345676101E+03 -0.52186844356E+03  0.94308394105E+03  0.12699999809E+01 0. -1.
</event>
<event>
 5   0  0.1344501E-05  0.2082046E+04  0.7818609E-02  0.8569194E-01
        2   -1    0    0  501    0  0.00000000000E+00  0.00000000000E+00  0.14639994753E+04  0.14639994753E+04  0.25500000920E-02 0.  1.
       -2   -1    0    0    0  501  0.00000000000E+00  0.00000000000E+00 -0.74025241425E+03  0.74025241426E+03  0.25500000920E-02 0. -1.
    10030    2    1    2    0    0  0.00000000000E+00  0.00000000000E+00  0.72374706104E+03  0.22042518896E+04  0.20820462493E+04 0.  0.
        3    1    3    3  502    0 -0.12064309091E+03  0.37826496282E+03  0.13806934941E+04  0.14366466762E+04  0.10100000352E+00 0.  1.
       -3    1    3    3    0  502  0.12064309091E+03 -0.37826496282E+03 -0.65694643304E+03  0.76760521335E+03  0.10100000352E+00 0. -1.
</event>
<event>
 5   0  0.1441136E-05  0.2105535E+04  0.7818609E-02  0.8558809E-01
       -2   -1    0    0    0  501  0.00000000000E+00  0.00000000000E+00  0.83455914855E+03  0.83455914855E+03  0.25500000920E-02 0.  1.
        2   -1    0    0  501    0  0.00000000000E+00  0.00000000000E+00 -0.13280293606E+04  0.13280293606E+04  0.25500000920E-02 0. -1.
    10030    2    1    2    0    0  0.00000000000E+00  0.00000000000E+00 -0.49347021202E+03  0.21625885091E+04  0.21055346612E+04 0.  0.
        4    1    3    3  502    0 -0.92112682844E+03 -0.14351240463E+03  0.25564767055E+03  0.96665805159E+03  0.12699999809E+01 0.  1.
       -4    1    3    3    0  502  0.92112682844E+03  0.14351240463E+03 -0.74911788257E+03  0.11959304575E+04  0.12699999809E+01 0. -1.
</event>
<event>
 5   0  0.1398469E-05  0.2102600E+04  0.7818609E-02  0.8560099E-01
       -2   -1    0    0    0  501  0.00000000000E+00  0.00000000000E+00  0.93080040353E+03  0.93080040353E+03  0.25500000920E-02 0.  1.
        2   -1    0    0  501    0  0.00000000000E+00  0.00000000000E+00 -0.11873990713E+04  0.11873990714E+04  0.25500000920E-02 0. -1.
    10030    2    1    2    0    0  0.00000000000E+00  0.00000000000E+00 -0.25659866782E+03  0.21181994749E+04  0.21025998523E+04 0.  0.
        2    1    3    3  502    0  0.20182420088E+03  0.41854490285E+03 -0.10783328708E+04  0.11741867927E+04  0.25500000920E-02 0. -1.
       -2    1    3    3    0  502 -0.20182420088E+03 -0.41854490285E+03  0.82173420301E+03  0.94401268221E+03  0.25500000920E-02 0.  1.
</event>
<event>
 5   0  0.1398469E-05  0.2105846E+04  0.7818609E-02  0.8558673E-01
        2   -1    0    0  501    0  0.00000000000E+00  0.00000000000E+00  0.15262272060E+04  0.15262272060E+04  0.25500000920E-02 0.  1.
       -2   -1    0    0    0  501  0.00000000000E+00  0.00000000000E+00 -0.72639681111E+03  0.72639681112E+03  0.25500000920E-02 0. -1.
    10030    2    1    2    0    0  0.00000000000E+00  0.00000000000E+00  0.79983039484E+03  0.22526240171E+04  0.21058457450E+04 0.  0.
        2    1    3    3  502    0 -0.11371601388E+03  0.15110463756E+03 -0.70808098000E+03  0.73290014160E+03  0.25500000920E-02 0. -1.
       -2    1    3    3    0  502  0.11371601388E+03 -0.15110463756E+03  0.15079113748E+04  0.15197238755E+04  0.25500000920E-02 0.  1.
</event>
<event>
 5   0  0.6238363E-06  0.2098129E+04  0.7818609E-02  0.8562068E-01
       -1   -1    0    0    0  501  0.00000000000E+00  0.00000000000E+00  0.76888549676E+03  0.76888549677E+03  0.50400001928E-02 0. -1.
        1   -1    0    0  501    0  0.00000000000E+00  0.00000000000E+00 -0.14313401478E+04  0.14313401478E+04  0.50400001928E-02 0.  1.
    10030    2    1    2    0    0  0.00000000000E+00  0.00000000000E+00 -0.66245465101E+03  0.22002256446E+04  0.20981293388E+04 0.  0.
        4    1    3    3  502    0  0.55808905068E+03 -0.76270779209E+03 -0.80874056549E+03  0.12438848338E+04  0.12699999809E+01 0.  1.
       -4    1    3    3    0  502 -0.55808905068E+03  0.76270779209E+03  0.14628591448E+03  0.95634081074E+03  0.12699999809E+01 0. -1.
</event>
<event>
 5   0  0.1398469E-05  0.2063926E+04  0.7818609E-02  0.8577303E-01
        2   -1    0    0  501    0  0.00000000000E+00  0.00000000000E+00  0.97289730437E+03  0.97289730438E+03  0.25500000920E-02 0.  1.
       -2   -1    0    0    0  501  0.00000000000E+00  0.00000000000E+00 -0.10946144653E+04  0.10946144653E+04  0.25500000920E-02 0. -1.
    10030    2    1    2    0    0  0.00000000000E+00  0.00000000000E+00 -0.12171716088E+03  0.20675117696E+04  0.20639258345E+04 0.  0.
        2    1    3    3  502    0  0.32827881386E+03 -0.14746307402E+02 -0.10408030883E+04  0.10914465181E+04  0.25500000920E-02 0. -1.
       -2    1    3    3    0  502 -0.32827881386E+03  0.14746307402E+02  0.91908592744E+03  0.97606525153E+03  0.25500000920E-02 0.  1.
</event>
<event>
 5   0  0.1390735E-05  0.2105492E+04  0.7818609E-02  0.8558828E-01
        2   -1    0    0  501    0  0.00000000000E+00  0.00000000000E+00  0.13174820833E+04  0.13174820833E+04  0.25500000920E-02 0. -1.
       -2   -1    0    0    0  501  0.00000000000E+00  0.00000000000E+00 -0.84120654625E+03  0.84120654625E+03  0.25500000920E-02 0.  1.
    10030    2    1    2    0    0  0.00000000000E+00  0.00000000000E+00  0.47627553706E+03  0.21586886296E+04  0.21054923919E+04 0.  0.
        5    1    3    3  502    0  0.38485228913E+03 -0.61993153659E+03 -0.53986651586E+03  0.90769176456E+03  0.46999998093E+01 0.  1.
       -5    1    3    3    0  502 -0.38485228913E+03  0.61993153659E+03  0.10161420529E+04  0.12509968650E+04  0.46999998093E+01 0. -1.
</event>
<event>
 5   0  0.1390735E-05  0.2100836E+04  0.7818609E-02  0.8560875E-01
       -2   -1    0    0    0  501  0.00000000000E+00  0.00000000000E+00  0.13470266199E+04  0.13470266199E+04  0.25500000920E-02 0. -1.
        2   -1    0    0  501    0  0.00000000000E+00  0.00000000000E+00 -0.81912099728E+03  0.81912099728E+03  0.25500000920E-02 0.  1.
    10030    2    1    2    0    0  0.00000000000E+00  0.00000000000E+00  0.52790562264E+03  0.21661476172E+04  0.21008358225E+04 0.  0.
        5    1    3    3  502    0  0.58580714907E+03 -0.37915453956E+03  0.10734902602E+04  0.12803638583E+04  0.46999998093E+01 0. -1.
       -5    1    3    3    0  502 -0.58580714907E+03  0.37915453956E+03 -0.54558463761E+03  0.88578375891E+03  0.46999998093E+01 0.  1.
</event>
<event>
 5   0  0.1344501E-05  0.2102987E+04  0.7818609E-02  0.8559929E-01
       -2   -1    0    0    0  501  0.00000000000E+00  0.00000000000E+00  0.73199502948E+03  0.73199502948E+03  0.25500000920E-02 0.  1.
        2   -1    0    0  501    0  0.00000000000E+00  0.00000000000E+00 -0.15104457877E+04  0.15104457877E+04  0.25500000920E-02 0. -1.
    10030    2    1    2    0    0  0.00000000000E+00  0.00000000000E+00 -0.77845075823E+03  0.22424408172E+04  0.21029872172E+04 0.  0.
        3    1    3    3  502    0  0.89097363003E+03 -0.33553298268E+03  0.86715982023E+02  0.95600003328E+03  0.10100000352E+00 0.  1.
       -3    1    3    3    0  502 -0.89097363003E+03  0.33553298268E+03 -0.86516674025E+03  0.12864407839E+04  0.10100000352E+00 0. -1.
</event>
<event>
 5   0  0.6917078E-06  0.2113528E+04  0.7818609E-02  0.8555307E-01
       -1   -1    0    0    0  501  0.00000000000E+00  0.00000000000E+00  0.74120110947E+03  0.74120110949E+03  0.50400001928E-02 0. -1.
        1   -1    0    0  501    0  0.00000000000E+00  0.00000000000E+00 -0.15066763183E+04  0.15066763184E+04  0.50400001928E-02 0.  1.
    10030    2    1    2    0    0  0.00000000000E+00  0.00000000000E+00 -0.76547520888E+03  0.22478774278E+04  0.21135280067E+04 0.  0.
        5    1    3    3  502    0  0.10234196971E+04  0.21443842555E+03 -0.54528018261E+03  0.11792897364E+04  0.46999998093E+01 0.  1.
       -5    1    3    3    0  502 -0.10234196971E+04 -0.21443842555E+03 -0.22019502627E+03  0.10685876915E+04  0.46999998093E+01 0. -1.
</event>
<event>
 5   0  0.6283269E-06  0.2101909E+04  0.7818609E-02  0.8560403E-01
       -1   -1    0    0    0  501  0.00000000000E+00  0.00000000000E+00  0.68054176805E+03  0.68054176807E+03  0.50400001928E-02 0.  1.
        1   -1    0    0  501    0  0.00000000000E+00  0.00000000000E+00 -0.16229790803E+04  0.16229790803E+04  0.50400001928E-02 0. -1.
    10030    2    1    2    0    0  0.00000000000E+00  0.00000000000E+00 -0.94243731228E+03  0.23035208484E+04  0.21019087067E+04 0.  0.
        1    1    3    3  502    0 -0.10022941920E+04 -0.31466972294E+03 -0.50399323866E+03  0.11651694582E+04  0.50400001928E-02 0. -1.
       -1    1    3    3    0  502  0.10022941920E+04  0.31466972294E+03 -0.43844407362E+03  0.11383513902E+04  0.50400001928E-02 0.  1.
</event>
<event>
 5   0  0.1344501E-05  0.2101248E+04  0.7818609E-02  0.8560694E-01
        2   -1    0    0  501    0  0.00000000000E+00  0.00000000000E+00  0.28628484549E+04  0.28628484549E+04  0.25500000920E-02 0. -1.
       -2   -1    0    0    0  501  0.00000000000E+00  0.00000000000E+00 -0.38556367507E+03  0.38556367507E+03  0.25500000920E-02 0.  1.
    10030    2    1    2    0    0  0.00000000000E+00  0.00000000000E+00  0.24772847798E+04  0.32484121300E+04  0.21012476022E+04 0.  0.
        3    1    3    3  502    0 -0.93528079718E+03 -0.47343585451E+03  0.11302201628E+04  0.15415217496E+04  0.10100000352E+00 0.  1.
       -3    1    3    3    0  502  0.93528079718E+03  0.47343585451E+03  0.13470646170E+04  0.17068903804E+04  0.10100000352E+00 0. -1.
</event>
<event>
 5   0  0.5009125E-06  0.2102006E+04  0.7818609E-02  0.8560360E-01
       -4   -1    0    0    0  501  0.00000000000E+00  0.00000000000E+00  0.12248731728E+04  0.12248738312E+04  0.12699999809E+01 0.  1.
        4   -1    0    0  501    0  0.00000000000E+00  0.00000000000E+00 -0.90181267848E+03  0.90181357273E+03  0.12699999809E+01 0. -1.
    10030    2    1    2    0    0  0.00000000000E+00  0.00000000000E+00  0.32306049432E+03  0.21266874039E+04  0.21020064774E+04 0.  0.
        5    1    3    3  502    0  0.36873280256E+03  0.54176934695E+03 -0.66976668123E+03  0.93706317944E+03  0.46999998093E+01 0. -1.
       -5    1    3    3    0  502 -0.36873280256E+03 -0.54176934695E+03  0.99282717555E+03  0.11896242245E+04  0.46999998093E+01 0.  1.
</event>
<event>
 5   0  0.1441136E-05  0.2097937E+04  0.7818609E-02  0.8562153E-01
        2   -1    0    0  501    0  0.00000000000E+00  0.00000000000E+00  0.52274351385E+03  0.52274351385E+03  0.25500000920E-02 0. -1.
       -2   -1    0    0    0  501  0.00000000000E+00  0.00000000000E+00 -0.21049222177E+04  0.21049222177E+04  0.25500000920E-02 0.  1.
    10030    2    1    2    0    0  0.00000000000E+00  0.00000000000E+00 -0.15821787038E+04  0.26276657316E+04  0.20979365448E+04 0.  0.
        4    1    3    3  502    0 -0.22831728716E+03 -0.30226273698E+03  0.43408450261E+03  0.57612716833E+03  0.12699999809E+01 0. -1.
       -4    1    3    3    0  502  0.22831728716E+03  0.30226273698E+03 -0.20162632065E+04  0.20515385632E+04  0.12699999809E+01 0.  1.
</event>
<event>
 5   0  0.5009125E-06  0.2101353E+04  0.7818609E-02  0.8560648E-01
       -3   -1    0    0    0  501  0.00000000000E+00  0.00000000000E+00  0.11794138377E+04  0.11794138420E+04  0.10100000352E+00 0.  1.
        3   -1    0    0  501    0  0.00000000000E+00  0.00000000000E+00 -0.93599144135E+03  0.93599144680E+03  0.10100000352E+00 0. -1.
    10030    2    1    2    0    0  0.00000000000E+00  0.00000000000E+00  0.24342239633E+03  0.21154052888E+04  0.21013531528E+04 0.  0.
        5    1    3    3  502    0  0.56733151690E+03 -0.98649779884E+02  0.10063952896E+04  0.11595043761E+04  0.46999998093E+01 0.  1.
       -5    1    3    3    0  502 -0.56733151690E+03  0.98649779884E+02 -0.76297289328E+03  0.95590091276E+03  0.46999998093E+01 0. -1.
</event>
<event>
 5   0  0.6238363E-06  0.2092660E+04  0.7818609E-02  0.8564484E-01
        1   -1    0    0  501    0  0.00000000000E+00  0.00000000000E+00  0.12384908163E+04  0.12384908163E+04  0.50400001928E-02 0. -1.
       -1   -1    0    0    0  501  0.00000000000E+00  0.00000000000E+00 -0.88398436493E+03  0.88398436494E+03  0.50400001928E-02 0.  1.
    10030    2    1    2    0    0  0.00000000000E+00  0.00000000000E+00  0.35450645135E+03  0.21224751812E+04  0.20926600467E+04 0.  0.
        4    1    3    3  502    0 -0.63194427218E+03  0.44156424792E+03 -0.54026673140E+03  0.94139380822E+03  0.12699999809E+01 0.  1.
       -4    1    3    3    0  502  0.63194427218E+03 -0.44156424792E+03  0.89477318275E+03  0.11810813730E+04  0.12699999809E+01 0. -1.
</event>
<event>
 5   0  0.1441136E-05  0.2095428E+04  0.7818609E-02  0.8563260E-01
       -2   -1    0    0    0  501  0.00000000000E+00  0.00000000000E+00  0.89048716614E+03  0.89048716614E+03  0.25500000920E-02 0.  1.
        2   -1    0    0  501    0  0.00000000000E+00  0.00000000000E+00 -0.12327015788E+04  0.12327015788E+04  0.25500000920E-02 0. -1.
    10030    2    1    2    0    0  0.00000000000E+00  0.00000000000E+00 -0.34221441270E+03  0.21231887450E+04  0.20954282957E+04 0.  0.
        4    1    3    3  502    0  0.55993749904E+03 -0.10516305019E+03  0.71981048485E+03  0.91799674125E+03  0.12699999809E+01 0.  1.
       -4    1    3    3    0  502 -0.55993749904E+03  0.10516305019E+03 -0.10620248975E+04  0.12051920037E+04  0.12699999809E+01 0. -1.
</event>
<event>
 5   0  0.1395356E-05  0.2104621E+04  0.7818609E-02  0.8559211E-01
        2   -1    0    0  501    0  0.00000000000E+00  0.00000000000E+00  0.11665924448E+04  0.11665924448E+04  0.25500000920E-02 0. -1.
       -2   -1    0    0    0  501  0.00000000000E+00  0.00000000000E+00 -0.94922382721E+03  0.94922382722E+03  0.25500000920E-02 0.  1.
    10030    2    1    2    0    0  0.00000000000E+00  0.00000000000E+00  0.21736861762E+03  0.21158162720E+04  0.21046209590E+04 0.  0.
        1    1    3    3  502    0  0.80137835108E+03  0.44792062834E+03  0.62573249105E+03  0.11110271379E+04  0.50400001928E-02 0. -1.
       -1    1    3    3    0  502 -0.80137835108E+03 -0.44792062834E+03 -0.40836387343E+03  0.10047891341E+04  0.50400001928E-02 0.  1.
</event>
<event>
 5   0  0.1398469E-05  0.2096756E+04  0.7818609E-02  0.8562674E-01
       -2   -1    0    0    0  501  0.00000000000E+00  0.00000000000E+00  0.48773941572E+03  0.48773941573E+03  0.25500000920E-02 0. -1.
        2   -1    0    0  501    0  0.00000000000E+00  0.00000000000E+00 -0.22534491561E+04  0.22534491561E+04  0.25500000920E-02 0.  1.
    10030    2    1    2    0    0  0.00000000000E+00  0.00000000000E+00 -0.17657097404E+04  0.27411885719E+04  0.20967555649E+04 0.  0.
        2    1    3    3  502    0 -0.88815964361E+03  0.53468975480E+03 -0.67874406819E+03  0.12391183142E+04  0.25500000920E-02 0.  1.
       -2    1    3    3    0  502  0.88815964361E+03 -0.53468975480E+03 -0.10869656722E+04  0.15020702577E+04  0.25500000920E-02 0. -1.
</event>
<event>
 5   0  0.6589193E-06  0.2101479E+04  0.7818609E-02  0.8560592E-01
       -1   -1    0    0    0  501  0.00000000000E+00  0.00000000000E+00  0.79950847890E+03  0.79950847892E+03  0.50400001928E-02 0. -1.
        1   -1    0    0  501    0  0.00000000000E+00  0.00000000000E+00 -0.13809150521E+04  0.13809150521E+04  0.50400001928E-02 0.  1.
    10030    2    1    2    0    0  0.00000000000E+00  0.00000000000E+00 -0.58140657320E+03  0.21804235310E+04  0.21014788058E+04 0.  0.
        3    1    3    3  502    0  0.51177432712E+03 -0.73643278740E+03 -0.85881897348E+03  0.12416989376E+04  0.10100000352E+00 0.  1.
       -3    1    3    3    0  502 -0.51177432712E+03  0.73643278740E+03  0.27741240027E+03  0.93872459342E+03  0.10100000352E+00 0. -1.
</event>
<event>
 5   0  0.5009125E-06  0.2117990E+04  0.7818609E-02  0.8553360E-01
       -3   -1    0    0    0  501  0.00000000000E+00  0.00000000000E+00  0.11494807818E+04  0.11494807862E+04  0.10100000352E+00 0. -1.
        3   -1    0    0  501    0  0.00000000000E+00  0.00000000000E+00 -0.97563253582E+03  0.97563254105E+03  0.10100000352E+00 0.  1.
    10030    2    1    2    0    0  0.00000000000E+00  0.00000000000E+00  0.17384824593E+03  0.21251133272E+04  0.21179904251E+04 0.  0.
        3    1    3    3  502    0  0.55881755954E+02  0.48985631380E+03 -0.85345182985E+03  0.98562772632E+03  0.10100000352E+00 0.  1.
       -3    1    3    3    0  502 -0.55881755954E+02 -0.48985631380E+03  0.10273000758E+04  0.11394856009E+04  0.10100000352E+00 0. -1.
</event>
<event>
 5   0  0.6283269E-06  0.2102384E+04  0.7818609E-02  0.8560194E-01
       -1   -1    0    0    0  501  0.00000000000E+00  0.00000000000E+00  0.85523244662E+03  0.85523244664E+03  0.50400001928E-02 0. -1.
        1   -1    0    0  501    0  0.00000000000E+00  0.00000000000E+00 -0.12920513464E+04  0.12920513464E+04  0.50400001928E-02 0.  1.
    10030    2    1    2    0    0  0.00000000000E+00  0.00000000000E+00 -0.43681889980E+03  0.21472837931E+04  0.21023836322E+04 0.  0.
        1    1    3    3  502    0 -0.22283040549E+03  0.29664954112E+03 -0.12229541663E+04  0.12779950050E+04  0.50400001928E-02 0.  1.
       -1    1    3    3    0  502  0.22283040549E+03 -0.29664954112E+03  0.78613526650E+03  0.86928878810E+03  0.50400001928E-02 0. -1.
</event>
<event>
 5   0  0.6599245E-06  0.2101633E+04  0.7818609E-02  0.8560524E-01
        1   -1    0    0  501    0  0.00000000000E+00  0.00000000000E+00  0.24248629073E+04  0.24248629073E+04  0.50400001928E-02 0. -1.
       -1   -1    0    0    0  501  0.00000000000E+00  0.00000000000E+00 -0.45537219353E+03  0.45537219356E+03  0.50400001928E-02 0.  1.
    10030    2    1    2    0    0  0.00000000000E+00  0.00000000000E+00  0.19694907138E+04  0.28802351009E+04  0.21016328330E+04 0.  0.
        2    1    3    3  502    0  0.22580614261E+03 -0.58241865650E+03  0.21427887510E+04  0.22319819750E+04  0.25500000920E-02 0. -1.
       -2    1    3    3    0  502 -0.22580614261E+03  0.58241865650E+03 -0.17329803719E+03  0.64825312586E+03  0.25500000920E-02 0.  1.
</event>
<event>
 5   0  0.1398469E-05  0.2099180E+04  0.7818609E-02  0.8561605E-01
       -2   -1    0    0    0  501  0.00000000000E+00  0.00000000000E+00  0.53573888758E+03  0.53573888759E+03  0.25500000920E-02 0. -1.
        2   -1    0    0  501    0  0.00000000000E+00  0.00000000000E+00 -0.20562979393E+04  0.20562979393E+04  0.25500000920E-02 0.  1.
    10030    2    1    2    0    0  0.00000000000E+00  0.00000000000E+00 -0.15205590517E+04  0.25920368269E+04  0.20991796212E+04 0.  0.
        2    1    3    3  502    0  0.84146974488E+03  0.41243517486E+03 -0.13439879980E+04  0.16384376228E+04  0.25500000920E-02 0. -1.
       -2    1    3    3    0  502 -0.84146974488E+03 -0.41243517486E+03 -0.17657105370E+03  0.95359920408E+03  0.25500000920E-02 0.  1.
</event>
<event>
 5   0  0.1390735E-05  0.2098461E+04  0.7818609E-02  0.8561922E-01
        2   -1    0    0  501    0  0.00000000000E+00  0.00000000000E+00  0.14098428651E+04  0.14098428651E+04  0.25500000920E-02 0. -1.
       -2   -1    0    0    0  501  0.00000000000E+00  0.00000000000E+00 -0.78085620628E+03  0.78085620628E+03  0.25500000920E-02 0.  1.
    10030    2    1    2    0    0  0.00000000000E+00  0.00000000000E+00  0.62898665880E+03  0.21906990714E+04  0.20984609132E+04 0.  0.
        5    1    3    3  502    0 -0.37429927434E+03  0.90253624396E+03  0.71364865179E+03  0.12099537622E+04  0.46999998093E+01 0. -1.
       -5    1    3    3    0  502  0.37429927434E+03 -0.90253624396E+03 -0.84661992985E+02  0.98074530918E+03  0.46999998093E+01 0.  1.
</event>
<event>
 5   0  0.6283269E-06  0.2101885E+04  0.7818609E-02  0.8560413E-01
        1   -1    0    0  501    0  0.00000000000E+00  0.00000000000E+00  0.16372647687E+04  0.16372647687E+04  0.50400001928E-02 0.  1.
       -1   -1    0    0    0  501  0.00000000000E+00  0.00000000000E+00 -0.67458858387E+03  0.67458858389E+03  0.50400001928E-02 0. -1.
    10030    2    1    2    0    0  0.00000000000E+00  0.00000000000E+00  0.96267618483E+03  0.23118533526E+04  0.21018849843E+04 0.  0.
        1    1    3    3  502    0 -0.81012398880E+03  0.19808575040E+03 -0.22202861914E+03  0.86303855619E+03  0.50400001928E-02 0. -1.
       -1    1    3    3    0  502  0.81012398880E+03 -0.19808575040E+03  0.11847048040E+04  0.14488147964E+04  0.50400001928E-02 0.  1.
</event>
<event>
 5   0  0.1395356E-05  0.2096912E+04  0.7818609E-02  0.8562605E-01
        2   -1    0    0  501    0  0.00000000000E+00  0.00000000000E+00  0.28810309135E+04  0.28810309135E+04  0.25500000920E-02 0. -1.
       -2   -1    0    0    0  501  0.00000000000E+00  0.00000000000E+00 -0.38155082089E+03  0.38155082090E+03  0.25500000920E-02 0.  1.
    10030    2    1    2    0    0  0.00000000000E+00  0.00000000000E+00  0.24994800926E+04  0.32625817344E+04  0.20969117388E+04 0.  0.
        1    1    3    3  502    0 -0.38547891262E+03  0.87482590883E+03  0.57989848013E+03  0.11181219120E+04  0.50400001928E-02 0.  1.
       -1    1    3    3    0  502  0.38547891262E+03 -0.87482590883E+03  0.19195816125E+04  0.21444598224E+04  0.50400001928E-02 0. -1.
</event>
<event>
 5   0  0.6283269E-06  0.2097042E+04  0.7818609E-02  0.8562547E-01
        1   -1    0    0  501    0  0.00000000000E+00  0.00000000000E+00  0.23129299542E+04  0.23129299542E+04  0.50400001928E-02 0.  1.
       -1   -1    0    0    0  501  0.00000000000E+00  0.00000000000E+00 -0.47532645221E+03  0.47532645223E+03  0.50400001928E-02 0. -1.
    10030    2    1    2    0    0  0.00000000000E+00  0.00000000000E+00  0.18376035020E+04  0.27882564064E+04  0.20970424787E+04 0.  0.
        1    1    3    3  502    0 -0.69945036083E+03  0.75210216800E+03  0.11993102587E+04  0.15789976488E+04  0.50400001928E-02 0. -1.
       -1    1    3    3    0  502  0.69945036083E+03 -0.75210216800E+03  0.63829324329E+03  0.12092587576E+04  0.50400001928E-02 0.  1.
</event>
<event>
 5   0  0.1390735E-05  0.2100786E+04  0.7818609E-02  0.8560897E-01
       -2   -1    0    0    0  501  0.00000000000E+00  0.00000000000E+00  0.90612793372E+03  0.90612793373E+03  0.25500000920E-02 0.  1.
        2   -1    0    0  501    0  0.00000000000E+00  0.00000000000E+00 -0.12176261390E+04  0.12176261390E+04  0.25500000920E-02 0. -1.
    10030    2    1    2    0    0  0.00000000000E+00  0.00000000000E+00 -0.31149820525E+03  0.21237540727E+04  0.21007856220E+04 0.  0.
        5    1    3    3  502    0  0.42517547738E+03  0.95146051582E+03 -0.28853074303E+03  0.10813525694E+04  0.46999998093E+01 0. -1.
       -5    1    3    3    0  502 -0.42517547738E+03 -0.95146051582E+03 -0.22967462221E+02  0.10424015033E+04  0.46999998093E+01 0.  1.
</event>
<event>
 5   0  0.1395356E-05  0.2105139E+04  0.7818609E-02  0.8558983E-01
       -2   -1    0    0    0  501  0.00000000000E+00  0.00000000000E+00  0.83855077808E+03  0.83855077808E+03  0.25500000920E-02 0.  1.
        2   -1    0    0  501    0  0.00000000000E+00  0.00000000000E+00 -0.13212109139E+04  0.13212109139E+04  0.25500000920E-02 0. -1.
    10030    2    1    2    0    0  0.00000000000E+00  0.00000000000E+00 -0.48266013582E+03  0.21597616920E+04  0.21051388932E+04 0.  0.
        1    1    3    3  502    0 -0.94502178097E+02  0.98694179621E+03  0.12127762581E+03  0.99884585063E+03  0.50400001928E-02 0.  1.
       -1    1    3    3    0  502  0.94502178097E+02 -0.98694179621E+03 -0.60393776162E+03  0.11609158414E+04  0.50400001928E-02 0. -1.
</event>
<event>
 5   0  0.1390735E-05  0.2101114E+04  0.7818609E-02  0.8560753E-01
       -2   -1    0    0    0  501  0.00000000000E+00  0.00000000000E+00  0.89601764636E+03  0.89601764636E+03  0.25500000920E-02 0. -1.
        2   -1    0    0  501    0  0.00000000000E+00  0.00000000000E+00 -0.12317506037E+04  0.12317506037E+04  0.25500000920E-02 0.  1.
    10030    2    1    2    0    0  0.00000000000E+00  0.00000000000E+00 -0.33573295730E+03  0.21277682500E+04  0.21011142537E+04 0.  0.
        5    1    3    3  502    0 -0.72830267220E+03  0.75706743729E+03 -0.15925568016E+03  0.10625254579E+04  0.46999998093E+01 0. -1.
       -5    1    3    3    0  502  0.72830267220E+03 -0.75706743729E+03 -0.17647727714E+03  0.10652427922E+04  0.46999998093E+01 0.  1.
</event>
<event>
 5   0  0.1390735E-05  0.2062592E+04  0.7818609E-02  0.8577903E-01
        2   -1    0    0  501    0  0.00000000000E+00  0.00000000000E+00  0.24261944250E+04  0.24261944250E+04  0.25500000920E-02 0.  1.
       -2   -1    0    0    0  501  0.00000000000E+00  0.00000000000E+00 -0.43837037657E+03  0.43837037657E+03  0.25500000920E-02 0. -1.
    10030    2    1    2    0    0  0.00000000000E+00  0.00000000000E+00  0.19878240484E+04  0.28645648016E+04  0.20625923143E+04 0.  0.
        5    1    3    3  502    0 -0.46653727884E+03 -0.64401983019E+02  0.22681059646E+04  0.23164911838E+04  0.46999998093E+01 0.  1.
       -5    1    3    3    0  502  0.46653727884E+03  0.64401983019E+02 -0.28028191617E+03  0.54807361777E+03  0.46999998093E+01 0. -1.
</event>
<event>
 5   0  0.5009125E-06  0.2103982E+04  0.7818609E-02  0.8559491E-01
        4   -1    0    0  501    0  0.00000000000E+00  0.00000000000E+00  0.89298711488E+03  0.89298801797E+03  0.12699999809E+01 0.  1.
       -4   -1    0    0    0  501  0.00000000000E+00  0.00000000000E+00 -0.12393051793E+04  0.12393058300E+04  0.12699999809E+01 0. -1.
    10030    2    1    2    0    0  0.00000000000E+00  0.00000000000E+00 -0.34631806444E+03  0.21322938480E+04  0.21039821417E+04 0.  0.
        2    1    3    3  502    0  0.90434617456E+03 -0.24026342468E+03 -0.66037404865E+03  0.11452783072E+04  0.25500000920E-02 0. -1.
       -2    1    3    3    0  502 -0.90434617456E+03  0.24026342468E+03  0.31405598421E+03  0.98701554087E+03  0.25500000920E-02 0.  1.
</event>
<event>
 5   0  0.1395356E-05  0.2099981E+04  0.7818609E-02  0.8561252E-01
       -2   -1    0    0    0  501  0.00000000000E+00  0.00000000000E+00  0.41766987943E+03  0.41766987944E+03  0.25500000920E-02 0.  1.
        2   -1    0    0  501    0  0.00000000000E+00  0.00000000000E+00 -0.26395963429E+04  0.26395963429E+04  0.25500000920E-02 0. -1.
    10030    2    1    2    0    0  0.00000000000E+00  0.00000000000E+00 -0.22219264635E+04  0.30572662224E+04  0.20999808440E+04 0.  0.
        1    1    3    3  502    0  0.96182930115E+02  0.49095875399E+03 -0.24549212149E+04  0.25053801758E+04  0.50400001928E-02 0. -1.
       -1    1    3    3    0  502 -0.96182930115E+02 -0.49095875399E+03  0.23299475138E+03  0.55188604654E+03  0.50400001928E-02 0.  1.
</event>
<event>
 5   0  0.6599245E-06  0.2101393E+04  0.7818609E-02  0.8560630E-01
        1   -1    0    0  501    0  0.00000000000E+00  0.00000000000E+00  0.10520443042E+04  0.10520443042E+04  0.50400001928E-02 0.  1.
       -1   -1    0    0    0  501  0.00000000000E+00  0.00000000000E+00 -0.10493504105E+04  0.10493504105E+04  0.50400001928E-02 0. -1.
    10030    2    1    2    0    0  0.00000000000E+00  0.00000000000E+00  0.26938937065E+01  0.21013947148E+04  0.21013929880E+04 0.  0.
        2    1    3    3  502    0  0.20985322129E+03 -0.10237701313E+04  0.11006440539E+03  0.10508367283E+04  0.25500000920E-02 0.  1.
       -2    1    3    3    0  502 -0.20985322129E+03  0.10237701313E+04 -0.10737051168E+03  0.10505579865E+04  0.25500000920E-02 0. -1.
</event>
<event>
 5   0  0.1441136E-05  0.2099108E+04  0.7818609E-02  0.8561637E-01
        2   -1    0    0  501    0  0.00000000000E+00  0.00000000000E+00  0.20721421183E+04  0.20721421183E+04  0.25500000920E-02 0. -1.
       -2   -1    0    0    0  501  0.00000000000E+00  0.00000000000E+00 -0.53160597112E+03  0.53160597113E+03  0.25500000920E-02 0.  1.
    10030    2    1    2    0    0  0.00000000000E+00  0.00000000000E+00  0.15405361472E+04  0.26037480894E+04  0.20991075467E+04 0.  0.
        4    1    3    3  502    0  0.56963241285E+03 -0.22626898395E+02 -0.32281745537E+03  0.65513798904E+03  0.12699999809E+01 0.  1.
       -4    1    3    3    0  502 -0.56963241285E+03  0.22626898395E+02  0.18633536026E+04  0.19486101004E+04  0.12699999809E+01 0. -1.
</event>
<event>
 5   0  0.6589193E-06  0.2098985E+04  0.7818609E-02  0.8561691E-01
       -1   -1    0    0    0  501  0.00000000000E+00  0.00000000000E+00  0.31029216729E+04  0.31029216729E+04  0.50400001928E-02 0. -1.
        1   -1    0    0  501    0  0.00000000000E+00  0.00000000000E+00 -0.35496697577E+03  0.35496697581E+03  0.50400001928E-02 0.  1.
    10030    2    1    2    0    0  0.00000000000E+00  0.00000000000E+00  0.27479546971E+04  0.34578886487E+04  0.20989852047E+04 0.  0.
        3    1    3    3  502    0  0.11181322906E+03 -0.34437534136E+03 -0.24881584413E+03  0.43932437722E+03  0.10100000352E+00 0.  1.
       -3    1    3    3    0  502 -0.11181322906E+03  0.34437534136E+03  0.29967705412E+04  0.30185642715E+04  0.10100000352E+00 0. -1.
</event>
<event>
 5   0  0.1344501E-05  0.2101099E+04  0.7818609E-02  0.8560759E-01
        2   -1    0    0  501    0  0.00000000000E+00  0.00000000000E+00  0.69825108661E+03  0.69825108661E+03  0.25500000920E-02 0.  1.
       -2   -1    0    0    0  501  0.00000000000E+00  0.00000000000E+00 -0.15805977088E+04  0.15805977088E+04  0.25500000920E-02 0. -1.
    10030    2    1    2    0    0  0.00000000000E+00  0.00000000000E+00 -0.88234662220E+03  0.22788487954E+04  0.21010988246E+04 0.  0.
        3    1    3    3  502    0 -0.30367271694E+03  0.74791515674E+03  0.28806084466E+03  0.85707249467E+03  0.10100000352E+00 0.  1.
       -3    1    3    3    0  502  0.30367271694E+03 -0.74791515674E+03 -0.11704074669E+04  0.14217763008E+04  0.10100000352E+00 0. -1.
</event>
<event>
 5   0  0.6238363E-06  0.2095919E+04  0.7818609E-02  0.8563043E-01
        1   -1    0    0  501    0  0.00000000000E+00  0.00000000000E+00  0.14949034598E+04  0.14949034598E+04  0.50400001928E-02 0. -1.
       -1   -1    0    0    0  501  0.00000000000E+00  0.00000000000E+00 -0.73464246231E+03  0.73464246233E+03  0.50400001928E-02 0.  1.
    10030    2    1    2    0    0  0.00000000000E+00  0.00000000000E+00  0.76026099752E+03  0.22295459222E+04  0.20959194247E+04 0.  0.
        4    1    3    3  502    0 -0.10129329986E+04  0.25998976982E+03  0.30806150575E+03  0.10901978922E+04  0.12699999809E+01 0. -1.
       -4    1    3    3    0  502  0.10129329986E+04 -0.25998976982E+03  0.45219949177E+03  0.11393480299E+04  0.12699999809E+01 0.  1.
</event>
<event>
 5   0  0.1395356E-05  0.2085212E+04  0.7818609E-02  0.8567786E-01
        2   -1    0    0  501    0  0.00000000000E+00  0.00000000000E+00  0.17111713139E+04  0.17111713139E+04  0.25500000920E-02 0.  1.
       -2   -1    0    0    0  501  0.00000000000E+00  0.00000000000E+00 -0.63525315791E+03  0.63525315792E+03  0.25500000920E-02 0. -1.
    10030    2    1    2    0    0  0.00000000000E+00  0.00000000000E+00  0.10759181560E+04  0.23464244718E+04  0.20852117215E+04 0.  0.
        1    1    3    3  502    0  0.31893482397E+03 -0.86165306944E+03 -0.16584653334E+02  0.91893442898E+03  0.50400001928E-02 0. -1.
       -1    1    3    3    0  502 -0.31893482397E+03  0.86165306944E+03  0.10925028093E+04  0.14274900429E+04  0.50400001928E-02 0.  1.
</event>
<event>
 5   0  0.6917078E-06  0.2064134E+04  0.7818609E-02  0.8577209E-01
       -1   -1    0    0    0  501  0.00000000000E+00  0.00000000000E+00  0.71205014325E+03  0.71205014327E+03  0.50400001928E-02 0.  1.
        1   -1    0    0  501    0  0.00000000000E+00  0.00000000000E+00 -0.14959097237E+04  0.14959097237E+04  0.50400001928E-02 0. -1.
    10030    2    1    2    0    0  0.00000000000E+00  0.00000000000E+00 -0.78385958048E+03  0.22079598670E+04  0.20641344269E+04 0.  0.
        5    1    3    3  502    0 -0.78476093410E+03  0.31215358871E+03 -0.10264312528E+04  0.13292376738E+04  0.46999998093E+01 0. -1.
       -5    1    3    3    0  502  0.78476093410E+03 -0.31215358871E+03  0.24257167235E+03  0.87872219322E+03  0.46999998093E+01 0.  1.
</event>
<event>
 5   0  0.6238363E-06  0.2102971E+04  0.7818609E-02  0.8559936E-01
       -1   -1    0    0    0  501  0.00000000000E+00  0.00000000000E+00  0.85459746011E+03  0.85459746013E+03  0.50400001928E-02 0.  1.
        1   -1    0    0  501    0  0.00000000000E+00  0.00000000000E+00 -0.12937338309E+04  0.12937338309E+04  0.50400001928E-02 0. -1.
    10030    2    1    2    0    0  0.00000000000E+00  0.00000000000E+00 -0.43913637074E+03  0.21483312910E+04  0.21029708946E+04 0.  0.
        4    1    3    3  502    0  0.87334063936E+03  0.57825830395E+03 -0.12530938160E+03  0.10548983802E+04  0.12699999809E+01 0.  1.
       -4    1    3    3    0  502 -0.87334063936E+03 -0.57825830395E+03 -0.31382698914E+03  0.10934329108E+04  0.12699999809E+01 0. -1.
</event>
<event>
 5   0  0.1344501E-05  0.2097356E+04  0.7818609E-02  0.8562409E-01
       -2   -1    0    0    0  501  0.00000000000E+00  0.00000000000E+00  0.59865418719E+03  0.59865418720E+03  0.25500000920E-02 0.  1.
        2   -1    0    0  501    0  0.00000000000E+00  0.00000000000E+00 -0.18369967721E+04  0.18369967721E+04  0.25500000920E-02 0. -1.
    10030    2    1    2    0    0  0.00000000000E+00  0.00000000000E+00 -0.12383425849E+04  0.24356509593E+04  0.20973562497E+04 0.  0.
        3    1    3    3  502    0  0.36832189039E+03  0.97903647249E+03 -0.70570434863E+03  0.12618209331E+04  0.10100000352E+00 0. -1.
       -3    1    3    3    0  502 -0.36832189039E+03 -0.97903647249E+03 -0.53263823629E+03  0.11738300262E+04  0.10100000352E+00 0.  1.
</event>
<event>
 5   0  0.6917078E-06  0.2076857E+04  0.7818609E-02  0.8571507E-01
        1   -1    0    0  501    0  0.00000000000E+00  0.00000000000E+00  0.10811779370E+04  0.10811779370E+04  0.50400001928E-02 0.  1.
       -1   -1    0    0    0  501  0.00000000000E+00  0.00000000000E+00 -0.99736973261E+03  0.99736973262E+03  0.50400001928E-02 0. -1.
    10030    2    1    2    0    0  0.00000000000E+00  0.00000000000E+00  0.83808204360E+02  0.20785476696E+04  0.20768573855E+04 0.  0.
        5    1    3    3  502    0  0.10424603933E+03 -0.84096545567E+03  0.64257748190E+03  0.10634933214E+04  0.46999998093E+01 0.  1.
       -5    1    3    3    0  502 -0.10424603933E+03  0.84096545567E+03 -0.55876927754E+03  0.10150543482E+04  0.46999998093E+01 0. -1.
</event>
<event>
 5   0  0.6589193E-06  0.2096599E+04  0.7818609E-02  0.8562743E-01
       -1   -1    0    0    0  501  0.00000000000E+00  0.00000000000E+00  0.13648737493E+04  0.13648737493E+04  0.50400001928E-02 0.  1.
        1   -1    0    0  501    0  0.00000000000E+00  0.00000000000E+00 -0.80515249681E+03  0.80515249682E+03  0.50400001928E-02 0. -1.
    10030    2    1    2    0    0  0.00000000000E+00  0.00000000000E+00  0.55972125246E+03  0.21700262461E+04  0.20965986808E+04 0.  0.
        3    1    3    3  502    0 -0.16055105606E+02 -0.18665806847E+03 -0.78768465323E+03  0.80965802910E+03  0.10100000352E+00 0. -1.
       -3    1    3    3    0  502  0.16055105606E+02  0.18665806847E+03  0.13474059057E+04  0.13603682170E+04  0.10100000352E+00 0.  1.
</event>
<event>
 5   0  0.6599245E-06  0.2101734E+04  0.7818609E-02  0.8560480E-01
        1   -1    0    0  501    0  0.00000000000E+00  0.00000000000E+00  0.10591295760E+04  0.10591295760E+04  0.50400001928E-02 0.  1.
       -1   -1    0    0    0  501  0.00000000000E+00  0.00000000000E+00 -0.10426691807E+04  0.10426691807E+04  0.50400001928E-02 0. -1.
    10030    2    1    2    0    0  0.00000000000E+00  0.00000000000E+00  0.16460395264E+02  0.21017987568E+04  0.21017343004E+04 0.  0.
        2    1    3    3  502    0 -0.29368391861E+03 -0.10089716323E+04  0.15141884144E+02  0.10509535078E+04  0.25500000920E-02 0.  1.
       -2    1    3    3    0  502  0.29368391861E+03  0.10089716323E+04  0.13185111196E+01  0.10508452490E+04  0.25500000920E-02 0. -1.
</event>
<event>
 5   0  0.1398469E-05  0.2097282E+04  0.7818609E-02  0.8562442E-01
       -2   -1    0    0    0  501  0.00000000000E+00  0.00000000000E+00  0.69621721567E+03  0.69621721567E+03  0.25500000920E-02 0.  1.
        2   -1    0    0  501    0  0.00000000000E+00  0.00000000000E+00 -0.15794603541E+04  0.15794603541E+04  0.25500000920E-02 0. -1.
    10030    2    1    2    0    0  0.00000000000E+00  0.00000000000E+00 -0.88324313846E+03  0.22756775698E+04  0.20972815643E+04 0.  0.
        2    1    3    3  502    0 -0.39654337518E+03 -0.83929576289E+03 -0.97095263198E+03  0.13432844224E+04  0.25500000920E-02 0. -1.
       -2    1    3    3    0  502  0.39654337518E+03  0.83929576289E+03  0.87709493524E+02  0.93239314737E+03  0.25500000920E-02 0.  1.
</event>
<event>
 5   0  0.6599245E-06  0.2112447E+04  0.7818609E-02  0.8555780E-01
        1   -1    0    0  501    0  0.00000000000E+00  0.00000000000E+00  0.13169262135E+04  0.13169262136E+04  0.50400001928E-02 0.  1.
       -1   -1    0    0    0  501  0.00000000000E+00  0.00000000000E+00 -0.84713020035E+03  0.84713020037E+03  0.50400001928E-02 0. -1.
    10030    2    1    2    0    0  0.00000000000E+00  0.00000000000E+00  0.46979601319E+03  0.21640564139E+04  0.21124468913E+04 0.  0.
        2    1    3    3  502    0  0.43742284442E+03 -0.17810677354E+03  0.12027264350E+04  0.12921345305E+04  0.25500000920E-02 0.  1.
       -2    1    3    3    0  502 -0.43742284442E+03  0.17810677354E+03 -0.73293042177E+03  0.87192188341E+03  0.25500000920E-02 0. -1.
</event>
<event>
 5   0  0.6599245E-06  0.2099451E+04  0.7818609E-02  0.8561485E-01
        1   -1    0    0  501    0  0.00000000000E+00  0.00000000000E+00  0.14558966688E+04  0.14558966688E+04  0.50400001928E-02 0. -1.
       -1   -1    0    0    0  501  0.00000000000E+00  0.00000000000E+00 -0.75686912660E+03  0.75686912661E+03  0.50400001928E-02 0.  1.
    10030    2    1    2    0    0  0.00000000000E+00  0.00000000000E+00  0.69902754217E+03  0.22127657954E+04  0.20994506330E+04 0.  0.
        2    1    3    3  502    0  0.52821927209E+03 -0.30929028637E+03 -0.54930223844E+03  0.82244089746E+03  0.25500000920E-02 0.  1.
       -2    1    3    3    0  502 -0.52821927209E+03  0.30929028637E+03  0.12483297806E+04  0.13903248979E+04  0.25500000920E-02 0. -1.
</event>
<event>
 5   0  0.6589193E-06  0.2094813E+04  0.7818609E-02  0.8563532E-01
       -1   -1    0    0    0  501  0.00000000000E+00  0.00000000000E+00  0.14872800765E+04  0.14872800765E+04  0.50400001928E-02 0.  1.
        1   -1    0    0  501    0  0.00000000000E+00  0.00000000000E+00 -0.73762896212E+03  0.73762896214E+03  0.50400001928E-02 0. -1.
    10030    2    1    2    0    0  0.00000000000E+00  0.00000000000E+00  0.74965111435E+03  0.22249090386E+04  0.20948134611E+04 0.  0.
        3    1    3    3  502    0  0.28134418722E+03 -0.22811756657E+03 -0.66899523772E+03  0.76075410887E+03  0.10100000352E+00 0. -1.
       -3    1    3    3    0  502 -0.28134418722E+03  0.22811756657E+03  0.14186463521E+04  0.14641549297E+04  0.10100000352E+00 0.  1.
</event>
<event>
 5   0  0.1395356E-05  0.2069496E+04  0.7818609E-02  0.8574801E-01
       -2   -1    0    0    0  501  0.00000000000E+00  0.00000000000E+00  0.54953347895E+03  0.54953347896E+03  0.25500000920E-02 0. -1.
        2   -1    0    0  501    0  0.00000000000E+00  0.00000000000E+00 -0.19483866421E+04  0.19483866421E+04  0.25500000920E-02 0.  1.
    10030    2    1    2    0    0  0.00000000000E+00  0.00000000000E+00 -0.13988531631E+04  0.24979201210E+04  0.20694962573E+04 0.  0.
        1    1    3    3  502    0  0.44186583505E+03 -0.23501250911E+03  0.39372663224E+03  0.63678642933E+03  0.50400001928E-02 0. -1.
       -1    1    3    3    0  502 -0.44186583505E+03  0.23501250911E+03 -0.17925797954E+04  0.18611336917E+04  0.50400001928E-02 0.  1.
</event>
<event>
 5   0  0.1441136E-05  0.2101583E+04  0.7818609E-02  0.8560547E-01
       -2   -1    0    0    0  501  0.00000000000E+00  0.00000000000E+00  0.85204333434E+03  0.85204333435E+03  0.25500000920E-02 0.  1.
        2   -1    0    0  501    0  0.00000000000E+00  0.00000000000E+00 -0.12958993689E+04  0.12958993689E+04  0.25500000920E-02 0. -1.
    10030    2    1    2    0    0  0.00000000000E+00  0.00000000000E+00 -0.44385603460E+03  0.21479427033E+04  0.21015826601E+04 0.  0.
        4    1    3    3  502    0 -0.70536356208E+03  0.18143128773E+02  0.57389740345E+03  0.90952007697E+03  0.12699999809E+01 0.  1.
       -4    1    3    3    0  502  0.70536356208E+03 -0.18143128773E+02 -0.10177534380E+04  0.12384226263E+04  0.12699999809E+01 0. -1.
</event>
<event>
 5   0  0.6283269E-06  0.2108297E+04  0.7818609E-02  0.8557597E-01
       -1   -1    0    0    0  501  0.00000000000E+00  0.00000000000E+00  0.13341172777E+04  0.13341172778E+04  0.50400001928E-02 0.  1.
        1   -1    0    0  501    0  0.00000000000E+00  0.00000000000E+00 -0.83293224590E+03  0.83293224592E+03  0.50400001928E-02 0. -1.
    10030    2    1    2    0    0  0.00000000000E+00  0.00000000000E+00  0.50118503184E+03  0.21670495237E+04  0.21082972281E+04 0.  0.
        1    1    3    3  502    0  0.79769735177E+03 -0.68893640496E+03  0.23355144061E+03  0.10795835820E+04  0.50400001928E-02 0. -1.
       -1    1    3    3    0  502 -0.79769735177E+03  0.68893640496E+03  0.26763359124E+03  0.10874659417E+04  0.50400001928E-02 0.  1.
</event>
<event>
 5   0  0.1395356E-05  0.2102170E+04  0.7818609E-02  0.8560288E-01
       -2   -1    0    0    0  501  0.00000000000E+00  0.00000000000E+00  0.81588463047E+03  0.81588463048E+03  0.25500000920E-02 0. -1.
        2   -1    0    0  501    0  0.00000000000E+00  0.00000000000E+00 -0.13540881987E+04  0.13540881987E+04  0.25500000920E-02 0.  1.
    10030    2    1    2    0    0  0.00000000000E+00  0.00000000000E+00 -0.53820356827E+03  0.21699728292E+04  0.21021700689E+04 0.  0.
        1    1    3    3  502    0 -0.17432765340E+03  0.80387931982E+02  0.79763510131E+03  0.82041093679E+03  0.50400001928E-02 0. -1.
       -1    1    3    3    0  502  0.17432765340E+03 -0.80387931982E+02 -0.13358386696E+04  0.13495618924E+04  0.50400001928E-02 0.  1.
</event>
<event>
 5   0  0.1441136E-05  0.2101587E+04  0.7818609E-02  0.8560545E-01
        2   -1    0    0  501    0  0.00000000000E+00  0.00000000000E+00  0.93990565247E+03  0.93990565248E+03  0.25500000920E-02 0. -1.
       -2   -1    0    0    0  501  0.00000000000E+00  0.00000000000E+00 -0.11747636494E+04  0.11747636494E+04  0.25500000920E-02 0.  1.
    10030    2    1    2    0    0  0.00000000000E+00  0.00000000000E+00 -0.23485799691E+03  0.21146693019E+04  0.21015870140E+04 0.  0.
        4    1    3    3  502    0 -0.86145953134E+03  0.57097504913E+03  0.73595728812E+02  0.10361191896E+04  0.12699999809E+01 0. -1.
       -4    1    3    3    0  502  0.86145953134E+03 -0.57097504913E+03 -0.30845372573E+03  0.10785501123E+04  0.12699999809E+01 0.  1.
</event>
<event>
 5   0  0.1390735E-05  0.2098005E+04  0.7818609E-02  0.8562123E-01
       -2   -1    0    0    0  501  0.00000000000E+00  0.00000000000E+00  0.84154810006E+03  0.84154810006E+03  0.25500000920E-02 0.  1.
        2   -1    0    0  501    0  0.00000000000E+00  0.00000000000E+00 -0.13075971024E+04  0.13075971024E+04  0.25500000920E-02 0. -1.
    10030    2    1    2    0    0  0.00000000000E+00  0.00000000000E+00 -0.46604900239E+03  0.21491452025E+04  0.20980046303E+04 0.  0.
        5    1    3    3  502    0  0.56526268206E+03  0.76771435766E+03  0.21522219102E+03  0.97736887417E+03  0.46999998093E+01 0.  1.
       -5    1    3    3    0  502 -0.56526268206E+03 -0.76771435766E+03 -0.68127119340E+03  0.11717763283E+04  0.46999998093E+01 0. -1.
</event>
<event>
 5   0  0.1395356E-05  0.2095934E+04  0.7818609E-02  0.8563037E-01
        2   -1    0    0  501    0  0.00000000000E+00  0.00000000000E+00  0.15228208248E+04  0.15228208248E+04  0.25500000920E-02 0. -1.
       -2   -1    0    0    0  501  0.00000000000E+00  0.00000000000E+00 -0.72118425483E+03  0.72118425484E+03  0.25500000920E-02 0.  1.
    10030    2    1    2    0    0  0.00000000000E+00  0.00000000000E+00  0.80163656995E+03  0.22440050796E+04  0.20959335884E+04 0.  0.
        1    1    3    3  502    0  0.55439394553E+03  0.79665318359E+03 -0.22358879465E+02  0.97082895573E+03  0.50400001928E-02 0.  1.
       -1    1    3    3    0  502 -0.55439394553E+03 -0.79665318359E+03  0.82399544941E+03  0.12731761239E+04  0.50400001928E-02 0. -1.
</event>
<event>
 5   0  0.1390735E-05  0.2099543E+04  0.7818609E-02  0.8561445E-01
       -2   -1    0    0    0  501  0.00000000000E+00  0.00000000000E+00  0.82433381862E+03  0.82433381862E+03  0.25500000920E-02 0. -1.
        2   -1    0    0  501    0  0.00000000000E+00  0.00000000000E+00 -0.13368610851E+04  0.13368610852E+04  0.25500000920E-02 0.  1.
    10030    2    1    2    0    0  0.00000000000E+00  0.00000000000E+00 -0.51252726653E+03  0.21611949038E+04  0.20995426200E+04 0.  0.
        5    1    3    3  502    0 -0.24825500043E+03  0.13414941679E+03 -0.12970785849E+04  0.13274266671E+04  0.46999998093E+01 0.  1.
       -5    1    3    3    0  502  0.24825500043E+03 -0.13414941679E+03  0.78455131836E+03  0.83376823663E+03  0.46999998093E+01 0. -1.
</event>
<event>
 5   0  0.1395356E-05  0.2096339E+04  0.7818609E-02  0.8562858E-01
        2   -1    0    0  501    0  0.00000000000E+00  0.00000000000E+00  0.54015139306E+03  0.54015139307E+03  0.25500000920E-02 0.  1.
       -2   -1    0    0    0  501  0.00000000000E+00  0.00000000000E+00 -0.20339845887E+04  0.20339845887E+04  0.25500000920E-02 0. -1.
    10030    2    1    2    0    0  0.00000000000E+00  0.00000000000E+00 -0.14938331956E+04  0.25741359817E+04  0.20963392942E+04 0.  0.
        1    1    3    3  502    0 -0.26721134901E+03  0.71740893276E+03  0.13221044566E+03  0.77688936394E+03  0.50400001928E-02 0. -1.
       -1    1    3    3    0  502  0.26721134901E+03 -0.71740893276E+03 -0.16260436413E+04  0.17972466178E+04  0.50400001928E-02 0.  1.
</event>
<event>
 5   0  0.6238363E-06  0.2099582E+04  0.7818609E-02  0.8561427E-01
       -1   -1    0    0    0  501  0.00000000000E+00  0.00000000000E+00  0.10007726863E+04  0.10007726863E+04  0.50400001928E-02 0. -1.
        1   -1    0    0  501    0  0.00000000000E+00  0.00000000000E+00 -0.11012103931E+04  0.11012103932E+04  0.50400001928E-02 0.  1.
    10030    2    1    2    0    0  0.00000000000E+00  0.00000000000E+00 -0.10043770687E+03  0.21019830795E+04  0.20995821330E+04 0.  0.
        4    1    3    3  502    0 -0.35341949244E+02 -0.61356788584E+03 -0.90227674005E+03  0.10917048742E+04  0.12699999809E+01 0.  1.
       -4    1    3    3    0  502  0.35341949244E+02  0.61356788584E+03  0.80183903318E+03  0.10102782052E+04  0.12699999809E+01 0. -1.
</event>
<event>
 5   0  0.6589193E-06  0.2106795E+04  0.7818609E-02  0.8558256E-01
        1   -1    0    0  501    0  0.00000000000E+00  0.00000000000E+00  0.74322559304E+03  0.74322559306E+03  0.50400001928E-02 0.  1.
       -1   -1    0    0    0  501  0.00000000000E+00  0.00000000000E+00 -0.14930139210E+04  0.14930139210E+04  0.50400001928E-02 0. -1.
    10030    2    1    2    0    0  0.00000000000E+00  0.00000000000E+00 -0.74978832792E+03  0.22362395140E+04  0.21067948708E+04 0.  0.
        3    1    3    3  502    0 -0.92433979105E+02 -0.10352043326E+04 -0.19272749668E+03  0.10570411293E+04  0.10100000352E+00 0. -1.
       -3    1    3    3    0  502  0.92433979105E+02  0.10352043326E+04 -0.55706083124E+03  0.11791983848E+04  0.10100000352E+00 0.  1.
</event>
<event>
 5   0  0.1395356E-05  0.2102541E+04  0.7818609E-02  0.8560125E-01
        2   -1    0    0  501    0  0.00000000000E+00  0.00000000000E+00  0.16835070274E+04  0.16835070274E+04  0.25500000920E-02 0. -1.
       -2   -1    0    0    0  501  0.00000000000E+00  0.00000000000E+00 -0.65646847069E+03  0.65646847070E+03  0.25500000920E-02 0.  1.
    10030    2    1    2    0    0  0.00000000000E+00  0.00000000000E+00  0.10270385567E+04  0.23399754981E+04  0.21025406381E+04 0.  0.
        1    1    3    3  502    0  0.61911493203E+02  0.10125381995E+04  0.20649919345E+03  0.10352335753E+04  0.50400001928E-02 0.  1.
       -1    1    3    3    0  502 -0.61911493203E+02 -0.10125381995E+04  0.82053936323E+03  0.13047419228E+04  0.50400001928E-02 0. -1.
</event>
<event>
 5   0  0.6599245E-06  0.2100957E+04  0.7818609E-02  0.8560822E-01
        1   -1    0    0  501    0  0.00000000000E+00  0.00000000000E+00  0.19659024761E+04  0.19659024761E+04  0.50400001928E-02 0.  1.
       -1   -1    0    0    0  501  0.00000000000E+00  0.00000000000E+00 -0.56132214758E+03  0.56132214761E+03  0.50400001928E-02 0. -1.
    10030    2    1    2    0    0  0.00000000000E+00  0.00000000000E+00  0.14045803285E+04  0.25272246237E+04  0.21009565439E+04 0.  0.
        2    1    3    3  502    0  0.16906006248E+03  0.57301332857E+03 -0.33706664508E+03  0.68595881996E+03  0.25500000920E-02 0. -1.
       -2    1    3    3    0  502 -0.16906006248E+03 -0.57301332857E+03  0.17416469736E+04  0.18412658038E+04  0.25500000920E-02 0.  1.
</event>
<event>
 5   0  0.1398469E-05  0.2099797E+04  0.7818609E-02  0.8561333E-01
       -2   -1    0    0    0  501  0.00000000000E+00  0.00000000000E+00  0.52447409383E+03  0.52447409384E+03  0.25500000920E-02 0. -1.
        2   -1    0    0  501    0  0.00000000000E+00  0.00000000000E+00 -0.21016986858E+04  0.21016986858E+04  0.25500000920E-02 0.  1.
    10030    2    1    2    0    0  0.00000000000E+00  0.00000000000E+00 -0.15772245920E+04  0.26261727797E+04  0.20997966699E+04 0.  0.
        2    1    3    3  502    0  0.53059697356E+03 -0.84761839716E+03 -0.38859730552E+03  0.10728457305E+04  0.25500000920E-02 0. -1.
       -2    1    3    3    0  502 -0.53059697356E+03  0.84761839716E+03 -0.11886272865E+04  0.15533270492E+04  0.25500000920E-02 0.  1.
</event>
<event>
 5   0  0.6238363E-06  0.2094865E+04  0.7818609E-02  0.8563509E-01
       -1   -1    0    0    0  501  0.00000000000E+00  0.00000000000E+00  0.41846924659E+03  0.41846924662E+03  0.50400001928E-02 0. -1.
        1   -1    0    0  501    0  0.00000000000E+00  0.00000000000E+00 -0.26217324424E+04  0.26217324424E+04  0.50400001928E-02 0.  1.
    10030    2    1    2    0    0  0.00000000000E+00  0.00000000000E+00 -0.22032631958E+04  0.30402016890E+04  0.20948645779E+04 0.  0.
        4    1    3    3  502    0  0.52598397614E+03 -0.54529526769E+03 -0.51988655296E+02  0.75941458065E+03  0.12699999809E+01 0. -1.
       -4    1    3    3    0  502 -0.52598397614E+03  0.54529526769E+03 -0.21512745405E+04  0.22807871083E+04  0.12699999809E+01 0.  1.
</event>
<event>
 5   0  0.1390735E-05  0.2106887E+04  0.7818609E-02  0.8558216E-01
       -2   -1    0    0    0  501  0.00000000000E+00  0.00000000000E+00  0.14520392176E+04  0.14520392176E+04  0.25500000920E-02 0. -1.
        2   -1    0    0  501    0  0.00000000000E+00  0.00000000000E+00 -0.76426515753E+03  0.76426515754E+03  0.25500000920E-02 0.  1.
    10030    2    1    2    0    0  0.00000000000E+00  0.00000000000E+00  0.68777406007E+03  0.22163043751E+04  0.21068867852E+04 0.  0.
        5    1    3    3  502    0  0.71884085560E+03 -0.39511307254E+03  0.10391778427E+04  0.13239181223E+04  0.46999998093E+01 0.  1.
       -5    1    3    3    0  502 -0.71884085560E+03  0.39511307254E+03 -0.35140378266E+03  0.89238625283E+03  0.46999998093E+01 0. -1.
</event>
<event>
 5   0  0.6238363E-06  0.2099404E+04  0.7818609E-02  0.8561506E-01
       -1   -1    0    0    0  501  0.00000000000E+00  0.00000000000E+00  0.61441447035E+03  0.61441447037E+03  0.50400001928E-02 0.  1.
        1   -1    0    0  501    0  0.00000000000E+00  0.00000000000E+00 -0.17933731240E+04  0.17933731240E+04  0.50400001928E-02 0. -1.
    10030    2    1    2    0    0  0.00000000000E+00  0.00000000000E+00 -0.11789586536E+04  0.24077875944E+04  0.20994041042E+04 0.  0.
        4    1    3    3  502    0 -0.50924990877E+03 -0.65347667766E+03  0.14980337400E+03  0.84190848766E+03  0.12699999809E+01 0.  1.
       -4    1    3    3    0  502  0.50924990877E+03  0.65347667766E+03 -0.13287620276E+04  0.15658791067E+04  0.12699999809E+01 0. -1.
</event>
<event>
 5   0  0.1395356E-05  0.2098263E+04  0.7818609E-02  0.8562009E-01
       -2   -1    0    0    0  501  0.00000000000E+00  0.00000000000E+00  0.18507466917E+04  0.18507466917E+04  0.25500000920E-02 0. -1.
        2   -1    0    0  501    0  0.00000000000E+00  0.00000000000E+00 -0.59472060610E+03  0.59472060611E+03  0.25500000920E-02 0.  1.
    10030    2    1    2    0    0  0.00000000000E+00  0.00000000000E+00  0.12560260856E+04  0.24454672978E+04  0.20982632764E+04 0.  0.
        1    1    3    3  502    0  0.79953034179E+03 -0.60600374415E+03  0.27032912720E+03  0.10390222050E+04  0.50400001928E-02 0.  1.
       -1    1    3    3    0  502 -0.79953034179E+03  0.60600374415E+03  0.98569695842E+03  0.14064450929E+04  0.50400001928E-02 0. -1.
</event>
<event>
 5   0  0.6599245E-06  0.2100033E+04  0.7818609E-02  0.8561229E-01
        1   -1    0    0  501    0  0.00000000000E+00  0.00000000000E+00  0.13703801047E+04  0.13703801047E+04  0.50400001928E-02 0.  1.
       -1   -1    0    0    0  501  0.00000000000E+00  0.00000000000E+00 -0.80454635894E+03  0.80454635896E+03  0.50400001928E-02 0. -1.
    10030    2    1    2    0    0  0.00000000000E+00  0.00000000000E+00  0.56583374573E+03  0.21749264636E+04  0.21000326889E+04 0.  0.
        2    1    3    3  502    0  0.19221522332E+03  0.90535235434E+02 -0.78205056225E+03  0.81039891587E+03  0.25500000920E-02 0. -1.
       -2    1    3    3    0  502 -0.19221522332E+03 -0.90535235434E+02  0.13478843080E+04  0.13645275478E+04  0.25500000920E-02 0.  1.
</event>
<event>
 5   0  0.6599245E-06  0.2105969E+04  0.7818609E-02  0.8558619E-01
        1   -1    0    0  501    0  0.00000000000E+00  0.00000000000E+00  0.93416120067E+03  0.93416120068E+03  0.50400001928E-02 0.  1.
       -1   -1    0    0    0  501  0.00000000000E+00  0.00000000000E+00 -0.11869218140E+04  0.11869218140E+04  0.50400001928E-02 0. -1.
    10030    2    1    2    0    0  0.00000000000E+00  0.00000000000E+00 -0.25276061335E+03  0.21210830147E+04  0.21059689522E+04 0.  0.
        2    1    3    3  502    0 -0.38538881875E+03 -0.78664126269E+03  0.46214824451E+03  0.99040901535E+03  0.25500000920E-02 0. -1.
       -2    1    3    3    0  502  0.38538881875E+03  0.78664126269E+03 -0.71490885786E+03  0.11306739994E+04  0.25500000920E-02 0.  1.
</event>
<event>
 5   0  0.6589193E-06  0.2100110E+04  0.7818609E-02  0.8561195E-01
        1   -1    0    0  501    0  0.00000000000E+00  0.00000000000E+00  0.10466518762E+04  0.10466518762E+04  0.50400001928E-02 0. -1.
       -1   -1    0    0    0  501  0.00000000000E+00  0.00000000000E+00 -0.10534696875E+04  0.10534696875E+04  0.50400001928E-02 0.  1.
    10030    2    1    2    0    0  0.00000000000E+00  0.00000000000E+00 -0.68178112924E+01  0.21001215638E+04  0.21001104971E+04 0.  0.
        3    1    3    3  502    0  0.36419872652E+03 -0.24279205280E+03 -0.95789144763E+03  0.10531594034E+04  0.10100000352E+00 0.  1.
       -3    1    3    3    0  502 -0.36419872652E+03  0.24279205280E+03  0.95107363634E+03  0.10469621604E+04  0.10100000352E+00 0. -1.
</event>
<event>
 5   0  0.6917078E-06  0.2101028E+04  0.7818609E-02  0.8560791E-01
       -1   -1    0    0    0  501  0.00000000000E+00  0.00000000000E+00  0.10927489889E+04  0.10927489890E+04  0.50400001928E-02 0. -1.
        1   -1    0    0  501    0  0.00000000000E+00  0.00000000000E+00 -0.10099114852E+04  0.10099114852E+04  0.50400001928E-02 0.  1.
    10030    2    1    2    0    0  0.00000000000E+00  0.00000000000E+00  0.82837503784E+02  0.21026604741E+04  0.21010280858E+04 0.  0.
        5    1    3    3  502    0 -0.12690470736E+03  0.87623470999E+03  0.60724780052E+03  0.10736219321E+04  0.46999998093E+01 0. -1.
       -5    1    3    3    0  502  0.12690470736E+03 -0.87623470999E+03 -0.52441029674E+03  0.10290385421E+04  0.46999998093E+01 0.  1.
</event>
<event>
 5   0  0.6238363E-06  0.2100980E+04  0.7818609E-02  0.8560812E-01
       -1   -1    0    0    0  501  0.00000000000E+00  0.00000000000E+00  0.15455133762E+04  0.15455133762E+04  0.50400001928E-02 0.  1.
        1   -1    0    0  501    0  0.00000000000E+00  0.00000000000E+00 -0.71402134546E+03  0.71402134548E+03  0.50400001928E-02 0. -1.
    10030    2    1    2    0    0  0.00000000000E+00  0.00000000000E+00  0.83149203078E+03  0.22595347217E+04  0.21009802858E+04 0.  0.
        4    1    3    3  502    0 -0.24413656104E+03  0.10121049940E+04  0.26530073633E+03  0.10744046132E+04  0.12699999809E+01 0. -1.
       -4    1    3    3    0  502  0.24413656104E+03 -0.10121049940E+04  0.56619129445E+03  0.11851301085E+04  0.12699999809E+01 0.  1.
</event>
<event>
 5   0  0.1441136E-05  0.2101551E+04  0.7818609E-02  0.8560560E-01
        2   -1    0    0  501    0  0.00000000000E+00  0.00000000000E+00  0.24486695974E+04  0.24486695974E+04  0.25500000920E-02 0.  1.
       -2   -1    0    0    0  501  0.00000000000E+00  0.00000000000E+00 -0.45090991446E+03  0.45090991447E+03  0.25500000920E-02 0. -1.
    10030    2    1    2    0    0  0.00000000000E+00  0.00000000000E+00  0.19977596829E+04  0.28995795118E+04  0.21015512354E+04 0.  0.
        4    1    3    3  502    0 -0.28798380586E+03 -0.80365831508E+03  0.18441579306E+04  0.20321716083E+04  0.12699999809E+01 0.  1.
       -4    1    3    3    0  502  0.28798380586E+03  0.80365831508E+03  0.15360175230E+03  0.86740790349E+03  0.12699999809E+01 0. -1.
</event>
<event>
 5   0  0.1395356E-05  0.2093990E+04  0.7818609E-02  0.8563895E-01
        2   -1    0    0  501    0  0.00000000000E+00  0.00000000000E+00  0.16663086933E+04  0.16663086933E+04  0.25500000920E-02 0.  1.
       -2   -1    0    0    0  501  0.00000000000E+00  0.00000000000E+00 -0.65786040367E+03  0.65786040368E+03  0.25500000920E-02 0. -1.
    10030    2    1    2    0    0  0.00000000000E+00  0.00000000000E+00  0.10084482896E+04  0.23241690970E+04  0.20939899805E+04 0.  0.
        1    1    3    3  502    0  0.58370000619E+03 -0.70378850872E+03 -0.61918053445E+02  0.91643756340E+03  0.50400001928E-02 0. -1.
       -1    1    3    3    0  502 -0.58370000619E+03  0.70378850872E+03  0.10703663431E+04  0.14077315336E+04  0.50400001928E-02 0.  1.
</event>
<event>
 5   0  0.1390735E-05  0.2101067E+04  0.7818609E-02  0.8560774E-01
        2   -1    0    0  501    0  0.00000000000E+00  0.00000000000E+00  0.13010690901E+04  0.13010690901E+04  0.25500000920E-02 0. -1.
       -2   -1    0    0    0  501  0.00000000000E+00  0.00000000000E+00 -0.84824130339E+03  0.84824130339E+03  0.25500000920E-02 0.  1.
    10030    2    1    2    0    0  0.00000000000E+00  0.00000000000E+00  0.45282778670E+03  0.21493103935E+04  0.21010669107E+04 0.  0.
        5    1    3    3  502    0  0.89155778654E+03 -0.42613953727E+02  0.79312640999E+03  0.11940531094E+04  0.46999998093E+01 0.  1.
       -5    1    3    3    0  502 -0.89155778654E+03  0.42613953727E+02 -0.34029862330E+03  0.95525728409E+03  0.46999998093E+01 0. -1.
</event>
<event>
 5   0  0.1398469E-05  0.2103078E+04  0.7818609E-02  0.8559889E-01
       -2   -1    0    0    0  501  0.00000000000E+00  0.00000000000E+00  0.64783599521E+03  0.64783599521E+03  0.25500000920E-02 0.  1.
        2   -1    0    0  501    0  0.00000000000E+00  0.00000000000E+00 -0.17068115952E+04  0.17068115952E+04  0.25500000920E-02 0. -1.
    10030    2    1    2    0    0  0.00000000000E+00  0.00000000000E+00 -0.10589756000E+04  0.23546475904E+04  0.21030777336E+04 0.  0.
        2    1    3    3  502    0  0.26385961491E+03 -0.67291237298E+03 -0.13845879131E+04  0.15618952101E+04  0.25500000920E-02 0. -1.
       -2    1    3    3    0  502 -0.26385961491E+03  0.67291237298E+03  0.32561231312E+03  0.79275238035E+03  0.25500000920E-02 0.  1.
</event>
<event>
 5   0  0.6599245E-06  0.2087096E+04  0.7818609E-02  0.8566949E-01
       -1   -1    0    0    0  501  0.00000000000E+00  0.00000000000E+00  0.79097221127E+03  0.79097221128E+03  0.50400001928E-02 0. -1.
        1   -1    0    0  501    0  0.00000000000E+00  0.00000000000E+00 -0.13767765099E+04  0.13767765099E+04  0.50400001928E-02 0.  1.
    10030    2    1    2    0    0  0.00000000000E+00  0.00000000000E+00 -0.58580429858E+03  0.21677487211E+04  0.20870955517E+04 0.  0.
        2    1    3    3  502    0  0.57736631287E+03  0.27965302118E+03 -0.11477723799E+04  0.13148912911E+04  0.25500000920E-02 0.  1.
       -2    1    3    3    0  502 -0.57736631287E+03 -0.27965302118E+03  0.56196808131E+03  0.85285743000E+03  0.25500000920E-02 0. -1.
</event>
<event>
 5   0  0.6283269E-06  0.2100189E+04  0.7818609E-02  0.8561160E-01
        1   -1    0    0  501    0  0.00000000000E+00  0.00000000000E+00  0.69124391584E+03  0.69124391586E+03  0.50400001928E-02 0.  1.
       -1   -1    0    0    0  501  0.00000000000E+00  0.00000000000E+00 -0.15952371644E+04  0.15952371644E+04  0.50400001928E-02 0. -1.
    10030    2    1    2    0    0  0.00000000000E+00  0.00000000000E+00 -0.90399324855E+03  0.22864810803E+04  0.21001885480E+04 0.  0.
        1    1    3    3  502    0  0.10053259557E+04  0.28065736280E+03 -0.32668153687E+03  0.10936954142E+04  0.50400001928E-02 0.  1.
       -1    1    3    3    0  502 -0.10053259557E+04 -0.28065736280E+03 -0.57731171168E+03  0.11927856660E+04  0.50400001928E-02 0. -1.
</event>
<event>
 5   0  0.1390735E-05  0.2084577E+04  0.7818609E-02  0.8568068E-01
        2   -1    0    0  501    0  0.00000000000E+00  0.00000000000E+00  0.17272924464E+04  0.17272924464E+04  0.25500000920E-02 0.  1.
       -2   -1    0    0    0  501  0.00000000000E+00  0.00000000000E+00 -0.62894143558E+03  0.62894143559E+03  0.25500000920E-02 0. -1.
    10030    2    1    2    0    0  0.00000000000E+00  0.00000000000E+00  0.10983510108E+04  0.23562338820E+04  0.20845774545E+04 0.  0.
        5    1    3    3  502    0  0.24957754016E+02 -0.83214225078E+03 -0.15965156522E+03  0.84769943216E+03  0.46999998093E+01 0. -1.
       -5    1    3    3    0  502 -0.24957754016E+02  0.83214225078E+03  0.12580025760E+04  0.15085344498E+04  0.46999998093E+01 0.  1.
</event>
<event>
 5   0  0.1395356E-05  0.2153014E+04  0.7818609E-02  0.8538243E-01
       -2   -1    0    0    0  501  0.00000000000E+00  0.00000000000E+00  0.10146400808E+04  0.10146400808E+04  0.25500000920E-02 0.  1.
        2   -1    0    0  501    0  0.00000000000E+00  0.00000000000E+00 -0.11421464097E+04  0.11421464097E+04  0.25500000920E-02 0. -1.
    10030    2    1    2    0    0  0.00000000000E+00  0.00000000000E+00 -0.12750632889E+03  0.21567864906E+04  0.21530141899E+04 0.  0.
        1    1    3    3  502    0 -0.47016745056E+03 -0.96738306895E+03 -0.19176976524E+02  0.10757579607E+04  0.50400001928E-02 0. -1.
       -1    1    3    3    0  502  0.47016745056E+03  0.96738306895E+03 -0.10832935237E+03  0.10810285298E+04  0.50400001928E-02 0.  1.
</event>
<event>
 5   0  0.6917078E-06  0.2098135E+04  0.7818609E-02  0.8562065E-01
       -1   -1    0    0    0  501  0.00000000000E+00  0.00000000000E+00  0.79970387845E+03  0.79970387846E+03  0.50400001928E-02 0.  1.
        1   -1    0    0  501    0  0.00000000000E+00  0.00000000000E+00 -0.13761874808E+04  0.13761874808E+04  0.50400001928E-02 0. -1.
    10030    2    1    2    0    0  0.00000000000E+00  0.00000000000E+00 -0.57648360232E+03  0.21758913592E+04  0.20981348535E+04 0.  0.
        5    1    3    3  502    0  0.54190842199E+03 -0.89440911540E+03 -0.20217225631E+03  0.10651422979E+04  0.46999998093E+01 0.  1.
       -5    1    3    3    0  502 -0.54190842199E+03  0.89440911540E+03 -0.37431134601E+03  0.11107490614E+04  0.46999998093E+01 0. -1.
</event>
<event>
 5   0  0.6589193E-06  0.2104474E+04  0.7818609E-02  0.8559275E-01
        1   -1    0    0  501    0  0.00000000000E+00  0.00000000000E+00  0.94999698578E+03  0.94999698579E+03  0.50400001928E-02 0. -1.
       -1   -1    0    0    0  501  0.00000000000E+00  0.00000000000E+00 -0.11654800391E+04  0.11654800391E+04  0.50400001928E-02 0.  1.
    10030    2    1    2    0    0  0.00000000000E+00  0.00000000000E+00 -0.21548305331E+03  0.21154770249E+04  0.21044738289E+04 0.  0.
        3    1    3    3  502    0  0.50801424786E+03 -0.29700120889E+03  0.76912332560E+03  0.96842082500E+03  0.10100000352E+00 0. -1.
       -3    1    3    3    0  502 -0.50801424786E+03  0.29700120889E+03 -0.98460637891E+03  0.11470561999E+04  0.10100000352E+00 0.  1.
</event>
<event>
 5   0  0.1390735E-05  0.2101763E+04  0.7818609E-02  0.8560467E-01
        2   -1    0    0  501    0  0.00000000000E+00  0.00000000000E+00  0.11246560106E+04  0.11246560106E+04  0.25500000920E-02 0. -1.
       -2   -1    0    0    0  501  0.00000000000E+00  0.00000000000E+00 -0.98194676653E+03  0.98194676653E+03  0.25500000920E-02 0.  1.
    10030    2    1    2    0    0  0.00000000000E+00  0.00000000000E+00  0.14270924407E+03  0.21066027771E+04  0.21017633864E+04 0.  0.
        5    1    3    3  502    0  0.80687828519E+03 -0.48621407854E+03  0.53812374579E+03  0.10849220954E+04  0.46999998093E+01 0. -1.
       -5    1    3    3    0  502 -0.80687828519E+03  0.48621407854E+03 -0.39541450172E+03  0.10216806817E+04  0.46999998093E+01 0.  1.
</event>
<event>
 5   0  0.6589193E-06  0.2099084E+04  0.7818609E-02  0.8561647E-01
       -1   -1    0    0    0  501  0.00000000000E+00  0.00000000000E+00  0.47450140810E+03  0.47450140813E+03  0.50400001928E-02 0.  1.
        1   -1    0    0  501    0  0.00000000000E+00  0.00000000000E+00 -0.23214640565E+04  0.23214640565E+04  0.50400001928E-02 0. -1.
    10030    2    1    2    0    0  0.00000000000E+00  0.00000000000E+00 -0.18469626484E+04  0.27959654647E+04  0.20990835750E+04 0.  0.
        3    1    3    3  502    0  0.10437746763E+03 -0.27205215407E+03 -0.22665051900E+04  0.22851592542E+04  0.10100000352E+00 0. -1.
       -3    1    3    3    0  502 -0.10437746763E+03  0.27205215407E+03  0.41954254159E+03  0.51080621050E+03  0.10100000352E+00 0.  1.
</event>
<event>
 5   0  0.1344501E-05  0.2103466E+04  0.7818609E-02  0.8559718E-01
        2   -1    0    0  501    0  0.00000000000E+00  0.00000000000E+00  0.15563103381E+04  0.15563103381E+04  0.25500000920E-02 0. -1.
       -2   -1    0    0    0  501  0.00000000000E+00  0.00000000000E+00 -0.71074693800E+03  0.71074693800E+03  0.25500000920E-02 0.  1.
    10030    2    1    2    0    0  0.00000000000E+00  0.00000000000E+00  0.84556340015E+03  0.22670572761E+04  0.21034664793E+04 0.  0.
        3    1    3    3  502    0 -0.81212613221E+03  0.63833411082E+03  0.20960203388E+03  0.10540172268E+04  0.10100000352E+00 0.  1.
       -3    1    3    3    0  502  0.81212613221E+03 -0.63833411082E+03  0.63596136627E+03  0.12130400493E+04  0.10100000352E+00 0. -1.
</event>
<event>
 5   0  0.6599245E-06  0.2100149E+04  0.7818609E-02  0.8561178E-01
       -1   -1    0    0    0  501  0.00000000000E+00  0.00000000000E+00  0.10490839157E+04  0.10490839157E+04  0.50400001928E-02 0.  1.
        1   -1    0    0  501    0  0.00000000000E+00  0.00000000000E+00 -0.10510660204E+04  0.10510660204E+04  0.50400001928E-02 0. -1.
    10030    2    1    2    0    0  0.00000000000E+00  0.00000000000E+00 -0.19821047384E+01  0.21001499362E+04  0.21001490008E+04 0.  0.
        2    1    3    3  502    0 -0.35550907056E+03  0.66238814698E+03 -0.73414327303E+03  0.10507669113E+04  0.25500000920E-02 0. -1.
       -2    1    3    3    0  502  0.35550907056E+03 -0.66238814698E+03  0.73216116829E+03  0.10493830249E+04  0.25500000920E-02 0.  1.
</event>
<event>
 5   0  0.1395356E-05  0.2097412E+04  0.7818609E-02  0.8562384E-01
        2   -1    0    0  501    0  0.00000000000E+00  0.00000000000E+00  0.13036687148E+04  0.13036687148E+04  0.25500000920E-02 0. -1.
       -2   -1    0    0    0  501  0.00000000000E+00  0.00000000000E+00 -0.84360728344E+03  0.84360728344E+03  0.25500000920E-02 0.  1.
    10030    2    1    2    0    0  0.00000000000E+00  0.00000000000E+00  0.46006143139E+03  0.21472759983E+04  0.20974121417E+04 0.  0.
        1    1    3    3  502    0 -0.81906375036E+03  0.30172733936E+03 -0.36506261503E+03  0.94613716098E+03  0.50400001928E-02 0. -1.
       -1    1    3    3    0  502  0.81906375036E+03 -0.30172733936E+03  0.82512404641E+03  0.12011388373E+04  0.50400001928E-02 0.  1.
</event>
<event>
 5   0  0.6599245E-06  0.2098073E+04  0.7818609E-02  0.8562093E-01
        1   -1    0    0  501    0  0.00000000000E+00  0.00000000000E+00  0.10280655474E+04  0.10280655474E+04  0.50400001928E-02 0.  1.
       -1   -1    0    0    0  501  0.00000000000E+00  0.00000000000E+00 -0.10704352866E+04  0.10704352866E+04  0.50400001928E-02 0. -1.
    10030    2    1    2    0    0  0.00000000000E+00  0.00000000000E+00 -0.42369739190E+02  0.20985008340E+04  0.20980730578E+04 0.  0.
        2    1    3    3  502    0 -0.52942400035E+02 -0.32215638518E+02 -0.10686027070E+04  0.10703982860E+04  0.25500000920E-02 0. -1.
       -2    1    3    3    0  502  0.52942400035E+02  0.32215638518E+02  0.10262329678E+04  0.10281025481E+04  0.25500000920E-02 0.  1.
</event>
<event>
 5   0  0.1441136E-05  0.2095642E+04  0.7818609E-02  0.8563165E-01
       -2   -1    0    0    0  501  0.00000000000E+00  0.00000000000E+00  0.75205312922E+03  0.75205312922E+03  0.25500000920E-02 0. -1.
        2   -1    0    0  501    0  0.00000000000E+00  0.00000000000E+00 -0.14599089380E+04  0.14599089380E+04  0.25500000920E-02 0.  1.
    10030    2    1    2    0    0  0.00000000000E+00  0.00000000000E+00 -0.70785580881E+03  0.22119620673E+04  0.20956422264E+04 0.  0.
        4    1    3    3  502    0 -0.86220895802E+02  0.10188477452E+04 -0.59564260418E+03  0.11833327915E+04  0.12699999809E+01 0. -1.
       -4    1    3    3    0  502  0.86220895802E+02 -0.10188477452E+04 -0.11221320463E+03  0.10286292757E+04  0.12699999809E+01 0.  1.
</event>
<event>
 5   0  0.6238363E-06  0.2110226E+04  0.7818609E-02  0.8556752E-01
       -1   -1    0    0    0  501  0.00000000000E+00  0.00000000000E+00  0.42268450778E+03  0.42268450781E+03  0.50400001928E-02 0.  1.
        1   -1    0    0  501    0  0.00000000000E+00  0.00000000000E+00 -0.26337938304E+04  0.26337938304E+04  0.50400001928E-02 0. -1.
    10030    2    1    2    0    0  0.00000000000E+00  0.00000000000E+00 -0.22111093227E+04  0.30564783383E+04  0.21102263849E+04 0.  0.
        4    1    3    3  502    0  0.27275789103E+03 -0.58496876792E+02 -0.25794120845E+04  0.25944531344E+04  0.12699999809E+01 0. -1.
       -4    1    3    3    0  502 -0.27275789103E+03  0.58496876792E+02  0.36830276188E+03  0.46202520388E+03  0.12699999809E+01 0.  1.
</event>
<event>
 5   0  0.5009125E-06  0.2078308E+04  0.7818609E-02  0.8570860E-01
        4   -1    0    0  501    0  0.00000000000E+00  0.00000000000E+00  0.96983774454E+03  0.96983857607E+03  0.12699999809E+01 0.  1.
       -4   -1    0    0    0  501  0.00000000000E+00  0.00000000000E+00 -0.11134226407E+04  0.11134233650E+04  0.12699999809E+01 0. -1.
    10030    2    1    2    0    0  0.00000000000E+00  0.00000000000E+00 -0.14358489613E+03  0.20832619410E+04  0.20783078917E+04 0.  0.
        4    1    3    3  502    0 -0.91608348537E+02  0.14659034386E+03  0.95532488530E+03  0.97083884749E+03  0.12699999809E+01 0.  1.
       -4    1    3    3    0  502  0.91608348537E+02 -0.14659034386E+03 -0.10989097814E+04  0.11124230935E+04  0.12699999809E+01 0. -1.
</event>
<event>
 5   0  0.6589193E-06  0.2097222E+04  0.7818609E-02  0.8562468E-01
        1   -1    0    0  501    0  0.00000000000E+00  0.00000000000E+00  0.12734786745E+04  0.12734786745E+04  0.50400001928E-02 0. -1.
       -1   -1    0    0    0  501  0.00000000000E+00  0.00000000000E+00 -0.86344965435E+03  0.86344965437E+03  0.50400001928E-02 0.  1.
    10030    2    1    2    0    0  0.00000000000E+00  0.00000000000E+00  0.41002902012E+03  0.21369283288E+04  0.20972217063E+04 0.  0.
        3    1    3    3  502    0  0.28651700889E+03 -0.10083922890E+04  0.17928355372E+03  0.10635269662E+04  0.10100000352E+00 0.  1.
       -3    1    3    3    0  502 -0.28651700889E+03  0.10083922890E+04  0.23074546640E+03  0.10734013627E+04  0.10100000352E+00 0. -1.
</event>
<event>
 5   0  0.6599245E-06  0.2098574E+04  0.7818609E-02  0.8561872E-01
       -1   -1    0    0    0  501  0.00000000000E+00  0.00000000000E+00  0.55756855301E+03  0.55756855304E+03  0.50400001928E-02 0.  1.
        1   -1    0    0  501    0  0.00000000000E+00  0.00000000000E+00 -0.19746512156E+04  0.19746512156E+04  0.50400001928E-02 0. -1.
    10030    2    1    2    0    0  0.00000000000E+00  0.00000000000E+00 -0.14170826626E+04  0.25322197687E+04  0.20985742027E+04 0.  0.
        2    1    3    3  502    0 -0.46817554316E+03 -0.28568183653E+03  0.37084422386E+03  0.66206335748E+03  0.25500000920E-02 0.  1.
       -2    1    3    3    0  502  0.46817554316E+03  0.28568183653E+03 -0.17879268865E+04  0.18701564112E+04  0.25500000920E-02 0. -1.
</event>
<event>
 5   0  0.6589193E-06  0.2099015E+04  0.7818609E-02  0.8561678E-01
        1   -1    0    0  501    0  0.00000000000E+00  0.00000000000E+00  0.93409026372E+03  0.93409026373E+03  0.50400001928E-02 0.  1.
       -1   -1    0    0    0  501  0.00000000000E+00  0.00000000000E+00 -0.11791853434E+04  0.11791853434E+04  0.50400001928E-02 0. -1.
    10030    2    1    2    0    0  0.00000000000E+00  0.00000000000E+00 -0.24509507968E+03  0.21132756071E+04  0.20990145768E+04 0.  0.
        3    1    3    3  502    0 -0.55089094787E+03 -0.35540248977E+03  0.70257771626E+03  0.96094080139E+03  0.10100000352E+00 0.  1.
       -3    1    3    3    0  502  0.55089094787E+03  0.35540248977E+03 -0.94767279594E+03  0.11523348058E+04  0.10100000352E+00 0. -1.
</event>
<event>
 5   0  0.6917078E-06  0.2148329E+04  0.7818609E-02  0.8540248E-01
       -1   -1    0    0    0  501  0.00000000000E+00  0.00000000000E+00  0.60192209454E+03  0.60192209456E+03  0.50400001928E-02 0. -1.
        1   -1    0    0  501    0  0.00000000000E+00  0.00000000000E+00 -0.19169086037E+04  0.19169086037E+04  0.50400001928E-02 0.  1.
    10030    2    1    2    0    0  0.00000000000E+00  0.00000000000E+00 -0.13149865092E+04  0.25188306983E+04  0.21483292502E+04 0.  0.
        5    1    3    3  502    0  0.18135512191E+03 -0.38947694448E+03  0.49678514911E+03  0.65681012850E+03  0.46999998093E+01 0. -1.
       -5    1    3    3    0  502 -0.18135512191E+03  0.38947694448E+03 -0.18117716583E+04  0.18620205698E+04  0.46999998093E+01 0.  1.
</event>
<event>
 5   0  0.6917078E-06  0.2100380E+04  0.7818609E-02  0.8561076E-01
        1   -1    0    0  501    0  0.00000000000E+00  0.00000000000E+00  0.11516747737E+04  0.11516747737E+04  0.50400001928E-02 0.  1.
       -1   -1    0    0    0  501  0.00000000000E+00  0.00000000000E+00 -0.95764787700E+03  0.95764787702E+03  0.50400001928E-02 0. -1.
    10030    2    1    2    0    0  0.00000000000E+00  0.00000000000E+00  0.19402689671E+03  0.21093226507E+04  0.21003798724E+04 0.  0.
        5    1    3    3  502    0 -0.63410639745E+03 -0.79076391086E+03  0.37291636936E+03  0.10800403671E+04  0.46999998093E+01 0.  1.
       -5    1    3    3    0  502  0.63410639745E+03  0.79076391086E+03 -0.17888947265E+03  0.10292822836E+04  0.46999998093E+01 0. -1.
</event>
<event>
 5   0  0.6917078E-06  0.2100204E+04  0.7818609E-02  0.8561153E-01
       -1   -1    0    0    0  501  0.00000000000E+00  0.00000000000E+00  0.60274544982E+03  0.60274544984E+03  0.50400001928E-02 0.  1.
        1   -1    0    0  501    0  0.00000000000E+00  0.00000000000E+00 -0.18294862713E+04  0.18294862714E+04  0.50400001928E-02 0. -1.
    10030    2    1    2    0    0  0.00000000000E+00  0.00000000000E+00 -0.12267408215E+04  0.24322317212E+04  0.21002043001E+04 0.  0.
        5    1    3    3  502    0  0.17140567652E+03  0.44624727388E+03  0.46941605728E+03  0.66999258221E+03  0.46999998093E+01 0.  1.
       -5    1    3    3    0  502 -0.17140567652E+03 -0.44624727388E+03 -0.16961568788E+04  0.17622391390E+04  0.46999998093E+01 0. -1.
</event>
<event>
 5   0  0.1441136E-05  0.2092340E+04  0.7818609E-02  0.8564625E-01
        2   -1    0    0  501    0  0.00000000000E+00  0.00000000000E+00  0.75964724064E+03  0.75964724064E+03  0.25500000920E-02 0. -1.
       -2   -1    0    0    0  501  0.00000000000E+00  0.00000000000E+00 -0.14407629881E+04  0.14407629881E+04  0.25500000920E-02 0.  1.
    10030    2    1    2    0    0  0.00000000000E+00  0.00000000000E+00 -0.68111574744E+03  0.22004102287E+04  0.20923399612E+04 0.  0.
        4    1    3    3  502    0  0.23381166344E+03 -0.64892027232E+03  0.48664698858E+03  0.84415183361E+03  0.12699999809E+01 0. -1.
       -4    1    3    3    0  502 -0.23381166344E+03  0.64892027232E+03 -0.11677627360E+04  0.13562583951E+04  0.12699999809E+01 0.  1.
</event>
<event>
 5   0  0.6238363E-06  0.2099901E+04  0.7818609E-02  0.8561287E-01
       -1   -1    0    0    0  501  0.00000000000E+00  0.00000000000E+00  0.12484412468E+04  0.12484412468E+04  0.50400001928E-02 0. -1.
        1   -1    0    0  501    0  0.00000000000E+00  0.00000000000E+00 -0.88301813694E+03  0.88301813695E+03  0.50400001928E-02 0.  1.
    10030    2    1    2    0    0  0.00000000000E+00  0.00000000000E+00  0.36542310984E+03  0.21314593837E+04  0.20999012013E+04 0.  0.
        4    1    3    3  502    0  0.27827259337E+03 -0.75189518464E+02  0.12074909721E+04  0.12414206219E+04  0.12699999809E+01 0. -1.
       -4    1    3    3    0  502 -0.27827259337E+03  0.75189518464E+02 -0.84206786229E+03  0.89003876180E+03  0.12699999809E+01 0.  1.
</event>
<event>
 5   0  0.1344501E-05  0.2100119E+04  0.7818609E-02  0.8561191E-01
        2   -1    0    0  501    0  0.00000000000E+00  0.00000000000E+00  0.13687579289E+04  0.13687579289E+04  0.25500000920E-02 0.  1.
       -2   -1    0    0    0  501  0.00000000000E+00  0.00000000000E+00 -0.80556644455E+03  0.80556644456E+03  0.25500000920E-02 0. -1.
    10030    2    1    2    0    0  0.00000000000E+00  0.00000000000E+00  0.56319148436E+03  0.21743243735E+04  0.21001194807E+04 0.  0.
        3    1    3    3  502    0  0.32997199378E+03 -0.14555641867E+03 -0.73943288984E+03  0.82269629662E+03  0.10100000352E+00 0. -1.
       -3    1    3    3    0  502 -0.32997199378E+03  0.14555641867E+03  0.13026243742E+04  0.13516280769E+04  0.10100000352E+00 0.  1.
</event>
<event>
 5   0  0.1395356E-05  0.2100938E+04  0.7818609E-02  0.8560830E-01
       -2   -1    0    0    0  501  0.00000000000E+00  0.00000000000E+00  0.88143491283E+03  0.88143491283E+03  0.25500000920E-02 0.  1.
        2   -1    0    0  501    0  0.00000000000E+00  0.00000000000E+00 -0.12519195883E+04  0.12519195883E+04  0.25500000920E-02 0. -1.
    10030    2    1    2    0    0  0.00000000000E+00  0.00000000000E+00 -0.37048467545E+03  0.21333545011E+04  0.21009384885E+04 0.  0.
        1    1    3    3  502    0 -0.73579287684E+03 -0.29771069957E+03  0.51346069626E+03  0.94533840760E+03  0.50400001928E-02 0.  1.
       -1    1    3    3    0  502  0.73579287684E+03  0.29771069957E+03 -0.88394537171E+03  0.11880160935E+04  0.50400001928E-02 0. -1.
</event>
<event>
 5   0  0.6238363E-06  0.2097478E+04  0.7818609E-02  0.8562355E-01
        1   -1    0    0  501    0  0.00000000000E+00  0.00000000000E+00  0.10015922758E+04  0.10015922758E+04  0.50400001928E-02 0.  1.
       -1   -1    0    0    0  501  0.00000000000E+00  0.00000000000E+00 -0.10981052569E+04  0.10981052569E+04  0.50400001928E-02 0. -1.
    10030    2    1    2    0    0  0.00000000000E+00  0.00000000000E+00 -0.96512981030E+02  0.20996975327E+04  0.20974782415E+04 0.  0.
        4    1    3    3  502    0 -0.25306754292E+02 -0.25484263719E+03 -0.10663216911E+04  0.10966443195E+04  0.12699999809E+01 0. -1.
       -4    1    3    3    0  502  0.25306754292E+02  0.25484263719E+03  0.96980871010E+03  0.10030532133E+04  0.12699999809E+01 0.  1.
</event>
<event>
 5   0  0.1395356E-05  0.2101165E+04  0.7818609E-02  0.8560730E-01
       -2   -1    0    0    0  501  0.00000000000E+00  0.00000000000E+00  0.92795167427E+03  0.92795167428E+03  0.25500000920E-02 0. -1.
        2   -1    0    0  501    0  0.00000000000E+00  0.00000000000E+00 -0.11894189252E+04  0.11894189252E+04  0.25500000920E-02 0.  1.
    10030    2    1    2    0    0  0.00000000000E+00  0.00000000000E+00 -0.26146725094E+03  0.21173705995E+04  0.21011647085E+04 0.  0.
        1    1    3    3  502    0  0.12689416206E+03  0.10371802597E+04 -0.20905579250E+02  0.10451229893E+04  0.50400001928E-02 0. -1.
       -1    1    3    3    0  502 -0.12689416206E+03 -0.10371802597E+04 -0.24056167169E+03  0.10722476102E+04  0.50400001928E-02 0.  1.
</event>
<event>
 5   0  0.1344501E-05  0.2097136E+04  0.7818609E-02  0.8562506E-01
        2   -1    0    0  501    0  0.00000000000E+00  0.00000000000E+00  0.18298674091E+04  0.18298674091E+04  0.25500000920E-02 0. -1.
       -2   -1    0    0    0  501  0.00000000000E+00  0.00000000000E+00 -0.60086039525E+03  0.60086039525E+03  0.25500000920E-02 0.  1.
    10030    2    1    2    0    0  0.00000000000E+00  0.00000000000E+00  0.12290070138E+04  0.24307278043E+04  0.20971360039E+04 0.  0.
        3    1    3    3  502    0 -0.87807384562E+03 -0.11122590103E+03 -0.37168139724E+02  0.88587039697E+03  0.10100000352E+00 0.  1.
       -3    1    3    3    0  502  0.87807384562E+03  0.11122590103E+03  0.12661751536E+04  0.15448574074E+04  0.10100000352E+00 0. -1.
</event>
<event>
 5   0  0.6599245E-06  0.2103380E+04  0.7818609E-02  0.8559756E-01
       -1   -1    0    0    0  501  0.00000000000E+00  0.00000000000E+00  0.56261987625E+03  0.56261987627E+03  0.50400001928E-02 0.  1.
        1   -1    0    0  501    0  0.00000000000E+00  0.00000000000E+00 -0.19658957502E+04  0.19658957502E+04  0.50400001928E-02 0. -1.
    10030    2    1    2    0    0  0.00000000000E+00  0.00000000000E+00 -0.14032758739E+04  0.25285156265E+04  0.21033801594E+04 0.  0.
        2    1    3    3  502    0 -0.28979015899E+03 -0.49750255538E+03  0.35634039664E+03  0.67710088402E+03  0.25500000920E-02 0.  1.
       -2    1    3    3    0  502  0.28979015899E+03  0.49750255538E+03 -0.17596162706E+04  0.18514147424E+04  0.25500000920E-02 0. -1.
</event>
<event>
 5   0  0.1344501E-05  0.2114374E+04  0.7818609E-02  0.8554938E-01
        2   -1    0    0  501    0  0.00000000000E+00  0.00000000000E+00  0.23315880831E+04  0.23315880831E+04  0.25500000920E-02 0. -1.
       -2   -1    0    0    0  501  0.00000000000E+00  0.00000000000E+00 -0.47934902582E+03  0.47934902582E+03  0.25500000920E-02 0.  1.
    10030    2    1    2    0    0  0.00000000000E+00  0.00000000000E+00  0.18522390572E+04  0.28109371089E+04  0.21143741166E+04 0.  0.
        3    1    3    3  502    0  0.44549811988E+03  0.74848863265E+03  0.12962898759E+03  0.88062903236E+03  0.10100000352E+00 0.  1.
       -3    1    3    3    0  502 -0.44549811988E+03 -0.74848863265E+03  0.17226100696E+04  0.19303080765E+04  0.10100000352E+00 0. -1.
</event>
<event>
 5   0  0.6238363E-06  0.2101065E+04  0.7818609E-02  0.8560774E-01
        1   -1    0    0  501    0  0.00000000000E+00  0.00000000000E+00  0.12551398253E+04  0.12551398253E+04  0.50400001928E-02 0.  1.
       -1   -1    0    0    0  501  0.00000000000E+00  0.00000000000E+00 -0.87927922582E+03  0.87927922583E+03  0.50400001928E-02 0. -1.
    10030    2    1    2    0    0  0.00000000000E+00  0.00000000000E+00  0.37586059947E+03  0.21344190511E+04  0.21010648480E+04 0.  0.
        4    1    3    3  502    0  0.60507898138E+03 -0.45713508376E+03  0.92646765381E+03  0.11972622875E+04  0.12699999809E+01 0.  1.
       -4    1    3    3    0  502 -0.60507898138E+03  0.45713508376E+03 -0.55060705434E+03  0.93715676367E+03  0.12699999809E+01 0. -1.
</event>
<event>
 5   0  0.6599245E-06  0.2110898E+04  0.7818609E-02  0.8556458E-01
       -1   -1    0    0    0  501  0.00000000000E+00  0.00000000000E+00  0.52005142709E+03  0.52005142712E+03  0.50400001928E-02 0. -1.
        1   -1    0    0  501    0  0.00000000000E+00  0.00000000000E+00 -0.21420439848E+04  0.21420439848E+04  0.50400001928E-02 0.  1.
    10030    2    1    2    0    0  0.00000000000E+00  0.00000000000E+00 -0.16219925577E+04  0.26620954119E+04  0.21108984165E+04 0.  0.
        2    1    3    3  502    0 -0.58482956372E+02  0.32156137678E+01 -0.21399928541E+04  0.21407942480E+04  0.25500000920E-02 0.  1.
       -2    1    3    3    0  502  0.58482956372E+02 -0.32156137678E+01  0.51800029647E+03  0.52130116392E+03  0.25500000920E-02 0. -1.
</event>
<event>
 5   0  0.6238363E-06  0.2115869E+04  0.7818609E-02  0.8554285E-01
       -1   -1    0    0    0  501  0.00000000000E+00  0.00000000000E+00  0.63072547539E+03  0.63072547541E+03  0.50400001928E-02 0. -1.
        1   -1    0    0  501    0  0.00000000000E+00  0.00000000000E+00 -0.17745052450E+04  0.17745052450E+04  0.50400001928E-02 0.  1.
    10030    2    1    2    0    0  0.00000000000E+00  0.00000000000E+00 -0.11437797696E+04  0.24052307204E+04  0.21158692438E+04 0.  0.
        4    1    3    3  502    0 -0.56698751219E+03  0.33850448889E+03  0.36768279119E+03  0.75581239459E+03  0.12699999809E+01 0. -1.
       -4    1    3    3    0  502  0.56698751219E+03 -0.33850448889E+03 -0.15114625608E+04  0.16494183258E+04  0.12699999809E+01 0.  1.
</event>
<event>
 5   0  0.1395356E-05  0.2105583E+04  0.7818609E-02  0.8558788E-01
        2   -1    0    0  501    0  0.00000000000E+00  0.00000000000E+00  0.23049058606E+04  0.23049058606E+04  0.25500000920E-02 0. -1.
       -2   -1    0    0    0  501  0.00000000000E+00  0.00000000000E+00 -0.48087410083E+03  0.48087410083E+03  0.25500000920E-02 0.  1.
    10030    2    1    2    0    0  0.00000000000E+00  0.00000000000E+00  0.18240317597E+04  0.27857799614E+04  0.21055826112E+04 0.  0.
        1    1    3    3  502    0  0.11461187049E+03 -0.77571122172E+03 -0.17422569435E+02  0.78432603317E+03  0.50400001928E-02 0.  1.
       -1    1    3    3    0  502 -0.11461187049E+03  0.77571122172E+03  0.18414543292E+04  0.20014539282E+04  0.50400001928E-02 0. -1.
</event>
<event>
 5   0  0.6283269E-06  0.2095361E+04  0.7818609E-02  0.8563290E-01
        1   -1    0    0  501    0  0.00000000000E+00  0.00000000000E+00  0.80092336936E+03  0.80092336938E+03  0.50400001928E-02 0.  1.
       -1   -1    0    0    0  501  0.00000000000E+00  0.00000000000E+00 -0.13704612907E+04  0.13704612907E+04  0.50400001928E-02 0. -1.
    10030    2    1    2    0    0  0.00000000000E+00  0.00000000000E+00 -0.56953792135E+03  0.21713846601E+04  0.20953610425E+04 0.  0.
        1    1    3    3  502    0 -0.91828650417E+03 -0.49832955275E+03 -0.20415164151E+03  0.10645470115E+04  0.50400001928E-02 0.  1.
       -1    1    3    3    0  502  0.91828650417E+03  0.49832955275E+03 -0.36538627984E+03  0.11068376486E+04  0.50400001928E-02 0. -1.
</event>
<event>
 5   0  0.6599245E-06  0.2104106E+04  0.7818609E-02  0.8559437E-01
       -1   -1    0    0    0  501  0.00000000000E+00  0.00000000000E+00  0.13440007363E+04  0.13440007363E+04  0.50400001928E-02 0.  1.
        1   -1    0    0  501    0  0.00000000000E+00  0.00000000000E+00 -0.82352324100E+03  0.82352324102E+03  0.50400001928E-02 0. -1.
    10030    2    1    2    0    0  0.00000000000E+00  0.00000000000E+00  0.52047749529E+03  0.21675239773E+04  0.21041063113E+04 0.  0.
        2    1    3    3  502    0  0.72026675562E+03 -0.75785431151E+03  0.38076285749E+03  0.11127028850E+04  0.25500000920E-02 0.  1.
       -2    1    3    3    0  502 -0.72026675562E+03  0.75785431151E+03  0.13971463781E+03  0.10548210923E+04  0.25500000920E-02 0. -1.
</event>
<event>
 5   0  0.1398469E-05  0.2102300E+04  0.7818609E-02  0.8560231E-01
       -2   -1    0    0    0  501  0.00000000000E+00  0.00000000000E+00  0.52285214520E+03  0.52285214521E+03  0.25500000920E-02 0.  1.
        2   -1    0    0  501    0  0.00000000000E+00  0.00000000000E+00 -0.21132472754E+04  0.21132472754E+04  0.25500000920E-02 0. -1.
    10030    2    1    2    0    0  0.00000000000E+00  0.00000000000E+00 -0.15903951302E+04  0.26360994206E+04  0.21022995708E+04 0.  0.
        2    1    3    3  502    0  0.20328735321E+03  0.10387497536E+03  0.49139235760E+03  0.54183226888E+03  0.25500000920E-02 0.  1.
       -2    1    3    3    0  502 -0.20328735321E+03 -0.10387497536E+03 -0.20817874878E+04  0.20942671518E+04  0.25500000920E-02 0. -1.
</event>
<event>
 5   0  0.1398469E-05  0.2102552E+04  0.7818609E-02  0.8560120E-01
       -2   -1    0    0    0  501  0.00000000000E+00  0.00000000000E+00  0.78664630696E+03  0.78664630696E+03  0.25500000920E-02 0.  1.
        2   -1    0    0  501    0  0.00000000000E+00  0.00000000000E+00 -0.14049273786E+04  0.14049273786E+04  0.25500000920E-02 0. -1.
    10030    2    1    2    0    0  0.00000000000E+00  0.00000000000E+00 -0.61828107168E+03  0.21915736856E+04  0.21025517201E+04 0.  0.
        2    1    3    3  502    0  0.54005576698E+03  0.35578922025E+03  0.55476673172E+03  0.85206357001E+03  0.25500000920E-02 0.  1.
       -2    1    3    3    0  502 -0.54005576698E+03 -0.35578922025E+03 -0.11730478034E+04  0.13395101156E+04  0.25500000920E-02 0. -1.
</event>
<event>
 5   0  0.1390735E-05  0.2100689E+04  0.7818609E-02  0.8560940E-01
       -2   -1    0    0    0  501  0.00000000000E+00  0.00000000000E+00  0.10419654788E+04  0.10419654788E+04  0.25500000920E-02 0. -1.
        2   -1    0    0  501    0  0.00000000000E+00  0.00000000000E+00 -0.10587908153E+04  0.10587908153E+04  0.25500000920E-02 0.  1.
    10030    2    1    2    0    0  0.00000000000E+00  0.00000000000E+00 -0.16825336492E+02  0.21007562941E+04  0.21006889145E+04 0.  0.
        5    1    3    3  502    0 -0.10592003527E+03 -0.62210674510E+03  0.83123651861E+03  0.10436532451E+04  0.46999998093E+01 0. -1.
       -5    1    3    3    0  502  0.10592003527E+03  0.62210674510E+03 -0.84806185510E+03  0.10571030490E+04  0.46999998093E+01 0.  1.
</event>
<event>
 5   0  0.1395356E-05  0.2101489E+04  0.7818609E-02  0.8560588E-01
        2   -1    0    0  501    0  0.00000000000E+00  0.00000000000E+00  0.24431086882E+04  0.24431086882E+04  0.25500000920E-02 0.  1.
       -2   -1    0    0    0  501  0.00000000000E+00  0.00000000000E+00 -0.45190929946E+03  0.45190929947E+03  0.25500000920E-02 0. -1.
    10030    2    1    2    0    0  0.00000000000E+00  0.00000000000E+00  0.19911993888E+04  0.28950179877E+04  0.21014885542E+04 0.  0.
        1    1    3    3  502    0 -0.23041037015E+03  0.75194345663E+03  0.35660472162E+02  0.78726080173E+03  0.50400001928E-02 0. -1.
       -1    1    3    3    0  502  0.23041037015E+03 -0.75194345663E+03  0.19555389166E+04  0.21077571860E+04  0.50400001928E-02 0.  1.
</event>
<event>
 5   0  0.6589193E-06  0.2097443E+04  0.7818609E-02  0.8562370E-01
        1   -1    0    0  501    0  0.00000000000E+00  0.00000000000E+00  0.16815306881E+04  0.16815306881E+04  0.50400001928E-02 0. -1.
       -1   -1    0    0    0  501  0.00000000000E+00  0.00000000000E+00 -0.65405712589E+03  0.65405712591E+03  0.50400001928E-02 0.  1.
    10030    2    1    2    0    0  0.00000000000E+00  0.00000000000E+00  0.10274735622E+04  0.23355878140E+04  0.20974433284E+04 0.  0.
        3    1    3    3  502    0 -0.71410877292E+03 -0.57616792891E+03  0.10792314544E+04  0.14165667525E+04  0.10100000352E+00 0. -1.
       -3    1    3    3    0  502  0.71410877292E+03  0.57616792891E+03 -0.51757892242E+02  0.91902106149E+03  0.10100000352E+00 0.  1.
</event>
<event>
 5   0  0.1441136E-05  0.2102622E+04  0.7818609E-02  0.8560089E-01
        2   -1    0    0  501    0  0.00000000000E+00  0.00000000000E+00  0.10392735367E+04  0.10392735367E+04  0.25500000920E-02 0.  1.
       -2   -1    0    0    0  501  0.00000000000E+00  0.00000000000E+00 -0.10634874719E+04  0.10634874719E+04  0.25500000920E-02 0. -1.
    10030    2    1    2    0    0  0.00000000000E+00  0.00000000000E+00 -0.24213935196E+02  0.21027610086E+04  0.21026215885E+04 0.  0.
        4    1    3    3  502    0  0.79228191083E+03 -0.57983778075E+03  0.36385717725E+03  0.10470511623E+04  0.12699999809E+01 0.  1.
       -4    1    3    3    0  502 -0.79228191083E+03  0.57983778075E+03 -0.38807111244E+03  0.10557098462E+04  0.12699999809E+01 0. -1.
</event>
<event>
 5   0  0.1390735E-05  0.2101833E+04  0.7818609E-02  0.8560436E-01
       -2   -1    0    0    0  501  0.00000000000E+00  0.00000000000E+00  0.12708161064E+04  0.12708161064E+04  0.25500000920E-02 0.  1.
        2   -1    0    0  501    0  0.00000000000E+00  0.00000000000E+00 -0.86906796839E+03  0.86906796839E+03  0.25500000920E-02 0. -1.
    10030    2    1    2    0    0  0.00000000000E+00  0.00000000000E+00  0.40174813799E+03  0.21398840748E+04  0.21018330778E+04 0.  0.
        5    1    3    3  502    0  0.70805857644E+03 -0.58711778586E+03  0.71835650993E+03  0.11670957148E+04  0.46999998093E+01 0.  1.
       -5    1    3    3    0  502 -0.70805857644E+03  0.58711778586E+03 -0.31660837193E+03  0.97278835998E+03  0.46999998093E+01 0. -1.
</event>
<event>
 5   0  0.1344501E-05  0.2098905E+04  0.7818609E-02  0.8561726E-01
       -2   -1    0    0    0  501  0.00000000000E+00  0.00000000000E+00  0.10391340518E+04  0.10391340518E+04  0.25500000920E-02 0. -1.
        2   -1    0    0  501    0  0.00000000000E+00  0.00000000000E+00 -0.10598731951E+04  0.10598731951E+04  0.25500000920E-02 0.  1.
    10030    2    1    2    0    0  0.00000000000E+00  0.00000000000E+00 -0.20739143217E+02  0.20990072469E+04  0.20989047883E+04 0.  0.
        3    1    3    3  502    0 -0.22176937495E+03  0.41152425890E+03  0.92925941794E+03  0.10402196630E+04  0.10100000352E+00 0. -1.
       -3    1    3    3    0  502  0.22176937495E+03 -0.41152425890E+03 -0.94999856116E+03  0.10587875839E+04  0.10100000352E+00 0.  1.
</event>
<event>
 5   0  0.6283269E-06  0.2093739E+04  0.7818609E-02  0.8564006E-01
        1   -1    0    0  501    0  0.00000000000E+00  0.00000000000E+00  0.14913369426E+04  0.14913369426E+04  0.50400001928E-02 0.  1.
       -1   -1    0    0    0  501  0.00000000000E+00  0.00000000000E+00 -0.73486801021E+03  0.73486801023E+03  0.50400001928E-02 0. -1.
    10030    2    1    2    0    0  0.00000000000E+00  0.00000000000E+00  0.75646893242E+03  0.22262049529E+04  0.20937390588E+04 0.  0.
        1    1    3    3  502    0  0.12666977578E+03 -0.86015050950E+03 -0.24178065391E+03  0.90242008828E+03  0.50400001928E-02 0. -1.
       -1    1    3    3    0  502 -0.12666977578E+03  0.86015050950E+03  0.99824958633E+03  0.13237848646E+04  0.50400001928E-02 0.  1.
</event>
<event>
 5   0  0.5009125E-06  0.2098755E+04  0.7818609E-02  0.8561792E-01
        4   -1    0    0  501    0  0.00000000000E+00  0.00000000000E+00  0.11746590257E+04  0.11746597123E+04  0.12699999809E+01 0.  1.
       -4   -1    0    0    0  501  0.00000000000E+00  0.00000000000E+00 -0.93745652715E+03  0.93745738740E+03  0.12699999809E+01 0. -1.
    10030    2    1    2    0    0  0.00000000000E+00  0.00000000000E+00  0.23720249857E+03  0.21121170997E+04  0.20987552543E+04 0.  0.
        1    1    3    3  502    0 -0.30839931248E+03 -0.43886196231E+03  0.10262766302E+04  0.11579955439E+04  0.50400001928E-02 0.  1.
       -1    1    3    3    0  502  0.30839931248E+03  0.43886196231E+03 -0.78907413166E+03  0.95412155576E+03  0.50400001928E-02 0. -1.
</event>
<event>
 5   0  0.6599245E-06  0.2104936E+04  0.7818609E-02  0.8559072E-01
       -1   -1    0    0    0  501  0.00000000000E+00  0.00000000000E+00  0.74255627544E+03  0.74255627546E+03  0.50400001928E-02 0.  1.
        1   -1    0    0  501    0  0.00000000000E+00  0.00000000000E+00 -0.14917237005E+04  0.14917237005E+04  0.50400001928E-02 0. -1.
    10030    2    1    2    0    0  0.00000000000E+00  0.00000000000E+00 -0.74916742505E+03  0.22342799760E+04  0.21049359088E+04 0.  0.
        2    1    3    3  502    0  0.19829608840E+03 -0.38095393731E+03  0.64531346055E+03  0.77516237228E+03  0.25500000920E-02 0.  1.
       -2    1    3    3    0  502 -0.19829608840E+03  0.38095393731E+03 -0.13944808856E+04  0.14591176037E+04  0.25500000920E-02 0. -1.
</event>
<event>
 5   0  0.1398469E-05  0.2096347E+04  0.7818609E-02  0.8562854E-01
        2   -1    0    0  501    0  0.00000000000E+00  0.00000000000E+00  0.10438545487E+04  0.10438545487E+04  0.25500000920E-02 0.  1.
       -2   -1    0    0    0  501  0.00000000000E+00  0.00000000000E+00 -0.10525098705E+04  0.10525098705E+04  0.25500000920E-02 0. -1.
    10030    2    1    2    0    0  0.00000000000E+00  0.00000000000E+00 -0.86553217246E+01  0.20963644192E+04  0.20963465514E+04 0.  0.
        2    1    3    3  502    0 -0.10150900543E+04 -0.45861487302E+02 -0.26153817637E+03  0.10492441623E+04  0.25500000920E-02 0. -1.
       -2    1    3    3    0  502  0.10150900543E+04  0.45861487302E+02  0.25288285464E+03  0.10471202570E+04  0.25500000920E-02 0.  1.
</event>
<event>
 5   0  0.1441136E-05  0.2100417E+04  0.7818609E-02  0.8561060E-01
        2   -1    0    0  501    0  0.00000000000E+00  0.00000000000E+00  0.93084210097E+03  0.93084210098E+03  0.25500000920E-02 0.  1.
       -2   -1    0    0    0  501  0.00000000000E+00  0.00000000000E+00 -0.11848814052E+04  0.11848814052E+04  0.25500000920E-02 0. -1.
    10030    2    1    2    0    0  0.00000000000E+00  0.00000000000E+00 -0.25403930421E+03  0.21157235062E+04  0.21004166221E+04 0.  0.
        4    1    3    3  502    0  0.60662672292E+03 -0.59162751241E+03  0.49791828857E+03  0.98282415996E+03  0.12699999809E+01 0.  1.
       -4    1    3    3    0  502 -0.60662672292E+03  0.59162751241E+03 -0.75195759278E+03  0.11328993462E+04  0.12699999809E+01 0. -1.
</event>
<event>
 5   0  0.1390735E-05  0.2105610E+04  0.7818609E-02  0.8558776E-01
       -2   -1    0    0    0  501  0.00000000000E+00  0.00000000000E+00  0.71254406492E+03  0.71254406493E+03  0.25500000920E-02 0. -1.
        2   -1    0    0  501    0  0.00000000000E+00  0.00000000000E+00 -0.15555501564E+04  0.15555501564E+04  0.25500000920E-02 0.  1.
    10030    2    1    2    0    0  0.00000000000E+00  0.00000000000E+00 -0.84300609147E+03  0.22680942213E+04  0.21056096805E+04 0.  0.
        5    1    3    3  502    0 -0.87789711053E+03 -0.27920108473E+03 -0.97045632641E+03  0.13380822672E+04  0.46999998093E+01 0.  1.
       -5    1    3    3    0  502  0.87789711053E+03  0.27920108473E+03  0.12745023494E+03  0.93001195410E+03  0.46999998093E+01 0. -1.
</event>
<event>
 5   0  0.6238363E-06  0.2097468E+04  0.7818609E-02  0.8562360E-01
       -1   -1    0    0    0  501  0.00000000000E+00  0.00000000000E+00  0.11545258365E+04  0.11545258365E+04  0.50400001928E-02 0. -1.
        1   -1    0    0  501    0  0.00000000000E+00  0.00000000000E+00 -0.95263584326E+03  0.95263584327E+03  0.50400001928E-02 0.  1.
    10030    2    1    2    0    0  0.00000000000E+00  0.00000000000E+00  0.20188999326E+03  0.21071616798E+04  0.20974677055E+04 0.  0.
        4    1    3    3  502    0  0.16438551671E+03 -0.35543814230E+03  0.10783145471E+04  0.11472239304E+04  0.12699999809E+01 0. -1.
       -4    1    3    3    0  502 -0.16438551671E+03  0.35543814230E+03 -0.87642455388E+03  0.95993774936E+03  0.12699999809E+01 0.  1.
</event>
<event>
 5   0  0.6238363E-06  0.2102438E+04  0.7818609E-02  0.8560170E-01
       -1   -1    0    0    0  501  0.00000000000E+00  0.00000000000E+00  0.36599104643E+03  0.36599104647E+03  0.50400001928E-02 0. -1.
        1   -1    0    0  501    0  0.00000000000E+00  0.00000000000E+00 -0.30193682300E+04  0.30193682300E+04  0.50400001928E-02 0.  1.
    10030    2    1    2    0    0  0.00000000000E+00  0.00000000000E+00 -0.26533771835E+04  0.33853592764E+04  0.21024383350E+04 0.  0.
        4    1    3    3  502    0 -0.15806938574E+03  0.65524192746E+03 -0.26256093318E+04  0.27107478470E+04  0.12699999809E+01 0.  1.
       -4    1    3    3    0  502  0.15806938574E+03 -0.65524192746E+03 -0.27767851773E+02  0.67461142941E+03  0.12699999809E+01 0. -1.
</event>
<event>
 5   0  0.1398469E-05  0.2093631E+04  0.7818609E-02  0.8564054E-01
        2   -1    0    0  501    0  0.00000000000E+00  0.00000000000E+00  0.56794146987E+03  0.56794146988E+03  0.25500000920E-02 0. -1.
       -2   -1    0    0    0  501  0.00000000000E+00  0.00000000000E+00 -0.19294648383E+04  0.19294648383E+04  0.25500000920E-02 0.  1.
    10030    2    1    2    0    0  0.00000000000E+00  0.00000000000E+00 -0.13615233684E+04  0.24974063081E+04  0.20936313872E+04 0.  0.
        2    1    3    3  502    0  0.76657091093E+03 -0.71255616375E+03 -0.65529343065E+03  0.12348185001E+04  0.25500000920E-02 0. -1.
       -2    1    3    3    0  502 -0.76657091093E+03  0.71255616375E+03 -0.70622993774E+03  0.12625878080E+04  0.25500000920E-02 0.  1.
</event>
<event>
 5   0  0.1395356E-05  0.2097799E+04  0.7818609E-02  0.8562214E-01
       -2   -1    0    0    0  501  0.00000000000E+00  0.00000000000E+00  0.61088020213E+03  0.61088020213E+03  0.25500000920E-02 0.  1.
        2   -1    0    0  501    0  0.00000000000E+00  0.00000000000E+00 -0.18009911734E+04  0.18009911734E+04  0.25500000920E-02 0. -1.
    10030    2    1    2    0    0  0.00000000000E+00  0.00000000000E+00 -0.11901109712E+04  0.24118713755E+04  0.20977987053E+04 0.  0.
        1    1    3    3  502    0  0.16021455308E+03 -0.52437888691E+03 -0.16231015678E+04  0.17132135359E+04  0.50400001928E-02 0. -1.
       -1    1    3    3    0  502 -0.16021455308E+03  0.52437888691E+03  0.43299059660E+03  0.69865783960E+03  0.50400001928E-02 0.  1.
</event>
<event>
 5   0  0.1395356E-05  0.2103485E+04  0.7818609E-02  0.8559710E-01
       -2   -1    0    0    0  501  0.00000000000E+00  0.00000000000E+00  0.80803060232E+03  0.80803060232E+03  0.25500000920E-02 0.  1.
        2   -1    0    0  501    0  0.00000000000E+00  0.00000000000E+00 -0.13689612385E+04  0.13689612385E+04  0.25500000920E-02 0. -1.
    10030    2    1    2    0    0  0.00000000000E+00  0.00000000000E+00 -0.56093063621E+03  0.21769918409E+04  0.21034852737E+04 0.  0.
        1    1    3    3  502    0  0.13977851842E+03 -0.78605262926E+03  0.42811000255E+03  0.90592215145E+03  0.50400001928E-02 0.  1.
       -1    1    3    3    0  502 -0.13977851842E+03  0.78605262926E+03 -0.98904063876E+03  0.12710696894E+04  0.50400001928E-02 0. -1.
</event>
<event>
 5   0  0.6599245E-06  0.2098434E+04  0.7818609E-02  0.8561933E-01
        1   -1    0    0  501    0  0.00000000000E+00  0.00000000000E+00  0.20598403531E+04  0.20598403531E+04  0.50400001928E-02 0. -1.
       -1   -1    0    0    0  501  0.00000000000E+00  0.00000000000E+00 -0.53443776048E+03  0.53443776050E+03  0.50400001928E-02 0.  1.
    10030    2    1    2    0    0  0.00000000000E+00  0.00000000000E+00  0.15254025926E+04  0.25942781136E+04  0.20984341451E+04 0.  0.
        2    1    3    3  502    0 -0.21933050726E+03  0.61485087205E+03 -0.25279756032E+03  0.70003862236E+03  0.25500000920E-02 0.  1.
       -2    1    3    3    0  502  0.21933050726E+03 -0.61485087205E+03  0.17782001530E+04  0.18942394913E+04  0.25500000920E-02 0. -1.
</event>
<event>
 5   0  0.1390735E-05  0.2095452E+04  0.7818609E-02  0.8563249E-01
       -2   -1    0    0    0  501  0.00000000000E+00  0.00000000000E+00  0.70745420913E+03  0.70745420913E+03  0.25500000920E-02 0.  1.
        2   -1    0    0  501    0  0.00000000000E+00  0.00000000000E+00 -0.15516622952E+04  0.15516622952E+04  0.25500000920E-02 0. -1.
    10030    2    1    2    0    0  0.00000000000E+00  0.00000000000E+00 -0.84420808606E+03  0.22591165043E+04  0.20954522394E+04 0.  0.
        5    1    3    3  502    0  0.84534210062E+03  0.61555431963E+03 -0.35225531360E+03  0.11034565163E+04  0.46999998093E+01 0. -1.
       -5    1    3    3    0  502 -0.84534210062E+03 -0.61555431963E+03 -0.49195277246E+03  0.11556599880E+04  0.46999998093E+01 0.  1.
</event>
<event>
 5   0  0.6238363E-06  0.2099316E+04  0.7818609E-02  0.8561545E-01
        1   -1    0    0  501    0  0.00000000000E+00  0.00000000000E+00  0.10059749336E+04  0.10059749336E+04  0.50400001928E-02 0.  1.
       -1   -1    0    0    0  501  0.00000000000E+00  0.00000000000E+00 -0.10952376148E+04  0.10952376148E+04  0.50400001928E-02 0. -1.
    10030    2    1    2    0    0  0.00000000000E+00  0.00000000000E+00 -0.89262681228E+02  0.21012125485E+04  0.20993156855E+04 0.  0.
        4    1    3    3  502    0 -0.12451674940E+03  0.64953239081E+03 -0.86046489739E+03  0.10852641154E+04  0.12699999809E+01 0. -1.
       -4    1    3    3    0  502  0.12451674940E+03 -0.64953239081E+03  0.77120221616E+03  0.10159484331E+04  0.12699999809E+01 0.  1.
</event>
<event>
 5   0  0.6283269E-06  0.2097669E+04  0.7818609E-02  0.8562271E-01
       -1   -1    0    0    0  501  0.00000000000E+00  0.00000000000E+00  0.91900578420E+03  0.91900578422E+03  0.50400001928E-02 0. -1.
        1   -1    0    0  501    0  0.00000000000E+00  0.00000000000E+00 -0.11970043683E+04  0.11970043683E+04  0.50400001928E-02 0.  1.
    10030    2    1    2    0    0  0.00000000000E+00  0.00000000000E+00 -0.27799858406E+03  0.21160101525E+04  0.20976691237E+04 0.  0.
        1    1    3    3  502    0  0.94035257520E+03  0.71001349788E+02  0.32408956088E+03  0.99716508205E+03  0.50400001928E-02 0. -1.
       -1    1    3    3    0  502 -0.94035257520E+03 -0.71001349788E+02 -0.60208814494E+03  0.11188450704E+04  0.50400001928E-02 0.  1.
</event>
<event>
 5   0  0.6283269E-06  0.2104537E+04  0.7818609E-02  0.8559247E-01
       -1   -1    0    0    0  501  0.00000000000E+00  0.00000000000E+00  0.61047901215E+03  0.61047901218E+03  0.50400001928E-02 0. -1.
        1   -1    0    0  501    0  0.00000000000E+00  0.00000000000E+00 -0.18137709519E+04  0.18137709519E+04  0.50400001928E-02 0.  1.
    10030    2    1    2    0    0  0.00000000000E+00  0.00000000000E+00 -0.12032919398E+04  0.24242499641E+04  0.21045370978E+04 0.  0.
        1    1    3    3  502    0  0.72119620811E+03  0.76535753331E+03 -0.55896325173E+03  0.11909391425E+04  0.50400001928E-02 0.  1.
       -1    1    3    3    0  502 -0.72119620811E+03 -0.76535753331E+03 -0.64432868805E+03  0.12333108216E+04  0.50400001928E-02 0. -1.
</event>
<event>
 5   0  0.6599245E-06  0.2100561E+04  0.7818609E-02  0.8560996E-01
       -1   -1    0    0    0  501  0.00000000000E+00  0.00000000000E+00  0.64874251881E+03  0.64874251883E+03  0.50400001928E-02 0. -1.
        1   -1    0    0  501    0  0.00000000000E+00  0.00000000000E+00 -0.17003490941E+04  0.17003490941E+04  0.50400001928E-02 0.  1.
    10030    2    1    2    0    0  0.00000000000E+00  0.00000000000E+00 -0.10516065753E+04  0.23490916129E+04  0.21005606434E+04 0.  0.
        2    1    3    3  502    0  0.23994101303E+03  0.12333342356E+03 -0.16609391121E+04  0.16827066165E+04  0.25500000920E-02 0.  1.
       -2    1    3    3    0  502 -0.23994101303E+03 -0.12333342356E+03  0.60933253679E+03  0.66638499645E+03  0.25500000920E-02 0. -1.
</event>
<event>
 5   0  0.6283269E-06  0.2100894E+04  0.7818609E-02  0.8560850E-01
        1   -1    0    0  501    0  0.00000000000E+00  0.00000000000E+00  0.99725062899E+03  0.99725062900E+03  0.50400001928E-02 0. -1.
       -1   -1    0    0    0  501  0.00000000000E+00  0.00000000000E+00 -0.11064812512E+04  0.11064812512E+04  0.50400001928E-02 0.  1.
    10030    2    1    2    0    0  0.00000000000E+00  0.00000000000E+00 -0.10923062222E+03  0.21037318802E+04  0.21008942132E+04 0.  0.
        1    1    3    3  502    0 -0.51496770699E+03 -0.72943664573E+03 -0.60868859710E+03  0.10806347059E+04  0.50400001928E-02 0.  1.
       -1    1    3    3    0  502  0.51496770699E+03  0.72943664573E+03  0.49945797488E+03  0.10230971743E+04  0.50400001928E-02 0. -1.
</event>
<event>
 5   0  0.1344501E-05  0.2087200E+04  0.7818609E-02  0.8566903E-01
        2   -1    0    0  501    0  0.00000000000E+00  0.00000000000E+00  0.97946853716E+03  0.97946853716E+03  0.25500000920E-02 0.  1.
       -2   -1    0    0    0  501  0.00000000000E+00  0.00000000000E+00 -0.11119303994E+04  0.11119303994E+04  0.25500000920E-02 0. -1.
    10030    2    1    2    0    0  0.00000000000E+00  0.00000000000E+00 -0.13246186221E+03  0.20913989365E+04  0.20871998866E+04 0.  0.
        3    1    3    3  502    0 -0.90724286704E+03  0.12454725461E+03 -0.56773678407E+03  0.10774630874E+04  0.10100000352E+00 0. -1.
       -3    1    3    3    0  502  0.90724286704E+03 -0.12454725461E+03  0.43527492187E+03  0.10139358492E+04  0.10100000352E+00 0.  1.
</event>
<event>
 5   0  0.6283269E-06  0.2100638E+04  0.7818609E-02  0.8560963E-01
       -1   -1    0    0    0  501  0.00000000000E+00  0.00000000000E+00  0.64943639429E+03  0.64943639431E+03  0.50400001928E-02 0. -1.
        1   -1    0    0  501    0  0.00000000000E+00  0.00000000000E+00 -0.16986568785E+04  0.16986568785E+04  0.50400001928E-02 0.  1.
    10030    2    1    2    0    0  0.00000000000E+00  0.00000000000E+00 -0.10492204842E+04  0.23480932728E+04  0.21006376159E+04 0.  0.
        1    1    3    3  502    0 -0.37614465262E+03 -0.64413436731E+02 -0.16184197531E+04  0.16628037731E+04  0.50400001928E-02 0.  1.
       -1    1    3    3    0  502  0.37614465262E+03  0.64413436731E+02  0.56919926897E+03  0.68528949966E+03  0.50400001928E-02 0. -1.
</event>
<event>
 5   0  0.1441136E-05  0.2088509E+04  0.7818609E-02  0.8566322E-01
        2   -1    0    0  501    0  0.00000000000E+00  0.00000000000E+00  0.92129172321E+03  0.92129172322E+03  0.25500000920E-02 0. -1.
       -2   -1    0    0    0  501  0.00000000000E+00  0.00000000000E+00 -0.11836288516E+04  0.11836288516E+04  0.25500000920E-02 0.  1.
    10030    2    1    2    0    0  0.00000000000E+00  0.00000000000E+00 -0.26233712839E+03  0.21049205748E+04  0.20885090034E+04 0.  0.
        4    1    3    3  502    0 -0.77165479914E+03 -0.79471400934E+02 -0.83573198987E+03  0.11402703208E+04  0.12699999809E+01 0.  1.
       -4    1    3    3    0  502  0.77165479914E+03  0.79471400934E+02  0.57339486148E+03  0.96465025407E+03  0.12699999809E+01 0. -1.
</event>
<event>
 5   0  0.1344501E-05  0.2101776E+04  0.7818609E-02  0.8560461E-01
       -2   -1    0    0    0  501  0.00000000000E+00  0.00000000000E+00  0.10818081759E+04  0.10818081759E+04  0.25500000920E-02 0. -1.
        2   -1    0    0  501    0  0.00000000000E+00  0.00000000000E+00 -0.10208520263E+04  0.10208520263E+04  0.25500000920E-02 0.  1.
    10030    2    1    2    0    0  0.00000000000E+00  0.00000000000E+00  0.60956149637E+02  0.21026602022E+04  0.21017764567E+04 0.  0.
        3    1    3    3  502    0  0.91339862205E+03  0.13855724229E+03 -0.47060267777E+03  0.10368037629E+04  0.10100000352E+00 0. -1.
       -3    1    3    3    0  502 -0.91339862205E+03 -0.13855724229E+03  0.53155882741E+03  0.10658564394E+04  0.10100000352E+00 0.  1.
</event>
<event>
 5   0  0.1398469E-05  0.2098652E+04  0.7818609E-02  0.8561838E-01
        2   -1    0    0  501    0  0.00000000000E+00  0.00000000000E+00  0.12371015969E+04  0.12371015969E+04  0.25500000920E-02 0.  1.
       -2   -1    0    0    0  501  0.00000000000E+00  0.00000000000E+00 -0.89005187912E+03  0.89005187913E+03  0.25500000920E-02 0. -1.
    10030    2    1    2    0    0  0.00000000000E+00  0.00000000000E+00  0.34704971778E+03  0.21271534760E+04  0.20986515680E+04 0.  0.
        2    1    3    3  502    0 -0.21106615862E+03  0.67307326966E+03  0.96093321595E+03  0.11920441247E+04  0.25500000920E-02 0.  1.
       -2    1    3    3    0  502  0.21106615862E+03 -0.67307326966E+03 -0.61388349818E+03  0.93510935135E+03  0.25500000920E-02 0. -1.
</event>
<event>
 5   0  0.6917078E-06  0.2062897E+04  0.7818609E-02  0.8577766E-01
        1   -1    0    0  501    0  0.00000000000E+00  0.00000000000E+00  0.92198744501E+03  0.92198744502E+03  0.50400001928E-02 0.  1.
       -1   -1    0    0    0  501  0.00000000000E+00  0.00000000000E+00 -0.11539047688E+04  0.11539047688E+04  0.50400001928E-02 0. -1.
    10030    2    1    2    0    0  0.00000000000E+00  0.00000000000E+00 -0.23191732375E+03  0.20758922138E+04  0.20628967105E+04 0.  0.
        5    1    3    3  502    0  0.67825475857E+03  0.14658435921E+03  0.65196541706E+03  0.95215412981E+03  0.46999998093E+01 0.  1.
       -5    1    3    3    0  502 -0.67825475857E+03 -0.14658435921E+03 -0.88388274081E+03  0.11237380840E+04  0.46999998093E+01 0. -1.
</event>
<event>
 5   0  0.6283269E-06  0.2101490E+04  0.7818609E-02  0.8560587E-01
       -1   -1    0    0    0  501  0.00000000000E+00  0.00000000000E+00  0.10717927534E+04  0.10717927534E+04  0.50400001928E-02 0. -1.
        1   -1    0    0  501    0  0.00000000000E+00  0.00000000000E+00 -0.10301104713E+04  0.10301104713E+04  0.50400001928E-02 0.  1.
    10030    2    1    2    0    0  0.00000000000E+00  0.00000000000E+00  0.41682282130E+02  0.21019032247E+04  0.21014898889E+04 0.  0.
        1    1    3    3  502    0  0.77152961861E+03 -0.38603832392E+03  0.62077692174E+03  0.10628487788E+04  0.50400001928E-02 0. -1.
       -1    1    3    3    0  502 -0.77152961861E+03  0.38603832392E+03 -0.57909463961E+03  0.10390544459E+04  0.50400001928E-02 0.  1.
</event>
<event>
 5   0  0.1441136E-05  0.2101183E+04  0.7818609E-02  0.8560722E-01
        2   -1    0    0  501    0  0.00000000000E+00  0.00000000000E+00  0.15397844882E+04  0.15397844882E+04  0.25500000920E-02 0.  1.
       -2   -1    0    0    0  501  0.00000000000E+00  0.00000000000E+00 -0.71681628838E+03  0.71681628838E+03  0.25500000920E-02 0. -1.
    10030    2    1    2    0    0  0.00000000000E+00  0.00000000000E+00  0.82296819986E+03  0.22566007766E+04  0.21011830970E+04 0.  0.
        4    1    3    3  502    0 -0.20906861205E+02 -0.33260245692E+03 -0.65854443890E+03  0.73806766770E+03  0.12699999809E+01 0. -1.
       -4    1    3    3    0  502  0.20906861205E+02  0.33260245692E+03  0.14815126388E+04  0.15185331089E+04  0.12699999809E+01 0.  1.
</event>
<event>
 5   0  0.1441136E-05  0.2098948E+04  0.7818609E-02  0.8561707E-01
       -2   -1    0    0    0  501  0.00000000000E+00  0.00000000000E+00  0.72325739827E+03  0.72325739828E+03  0.25500000920E-02 0.  1.
        2   -1    0    0  501    0  0.00000000000E+00  0.00000000000E+00 -0.15228271603E+04  0.15228271603E+04  0.25500000920E-02 0. -1.
    10030    2    1    2    0    0  0.00000000000E+00  0.00000000000E+00 -0.79956976205E+03  0.22460845586E+04  0.20989483176E+04 0.  0.
        4    1    3    3  502    0 -0.78509057403E+02  0.43621100568E+03 -0.14177591797E+04  0.14854246592E+04  0.12699999809E+01 0. -1.
       -4    1    3    3    0  502  0.78509057403E+02 -0.43621100568E+03  0.61818941766E+03  0.76065989942E+03  0.12699999809E+01 0.  1.
</event>
<event>
 5   0  0.1390735E-05  0.2098529E+04  0.7818609E-02  0.8561892E-01
       -2   -1    0    0    0  501  0.00000000000E+00  0.00000000000E+00  0.58753567405E+03  0.58753567406E+03  0.25500000920E-02 0.  1.
        2   -1    0    0  501    0  0.00000000000E+00  0.00000000000E+00 -0.18738532968E+04  0.18738532968E+04  0.25500000920E-02 0. -1.
    10030    2    1    2    0    0  0.00000000000E+00  0.00000000000E+00 -0.12863176227E+04  0.24613889708E+04  0.20985286844E+04 0.  0.
        5    1    3    3  502    0 -0.46170265878E+03 -0.40977601371E+03 -0.16383022738E+04  0.17507547392E+04  0.46999998093E+01 0. -1.
       -5    1    3    3    0  502  0.46170265878E+03  0.40977601371E+03  0.35198465109E+03  0.71063423161E+03  0.46999998093E+01 0.  1.
</event>
<event>
 5   0  0.1344501E-05  0.2099432E+04  0.7818609E-02  0.8561493E-01
       -2   -1    0    0    0  501  0.00000000000E+00  0.00000000000E+00  0.10828798381E+04  0.10828798381E+04  0.25500000920E-02 0. -1.
        2   -1    0    0  501    0  0.00000000000E+00  0.00000000000E+00 -0.10175682149E+04  0.10175682149E+04  0.25500000920E-02 0.  1.
    10030    2    1    2    0    0  0.00000000000E+00  0.00000000000E+00  0.65311623273E+02  0.21004480530E+04  0.20994324031E+04 0.  0.
        3    1    3    3  502    0 -0.52867735165E+03  0.14291479299E+02 -0.87453535612E+03  0.10220156984E+04  0.10100000352E+00 0.  1.
       -3    1    3    3    0  502  0.52867735165E+03 -0.14291479299E+02  0.93984697939E+03  0.10784323546E+04  0.10100000352E+00 0. -1.
</event>
<event>
 5   0  0.1441136E-05  0.2098301E+04  0.7818609E-02  0.8561992E-01
        2   -1    0    0  501    0  0.00000000000E+00  0.00000000000E+00  0.85374735540E+03  0.85374735541E+03  0.25500000920E-02 0.  1.
       -2   -1    0    0    0  501  0.00000000000E+00  0.00000000000E+00 -0.12892767578E+04  0.12892767578E+04  0.25500000920E-02 0. -1.
    10030    2    1    2    0    0  0.00000000000E+00  0.00000000000E+00 -0.43552940239E+03  0.21430241132E+04  0.20983008577E+04 0.  0.
        4    1    3    3  502    0  0.65050922325E+03 -0.17042890137E+03  0.60469864023E+03  0.90436182933E+03  0.12699999809E+01 0.  1.
       -4    1    3    3    0  502 -0.65050922325E+03  0.17042890137E+03 -0.10402280426E+04  0.12386622839E+04  0.12699999809E+01 0. -1.
</event>
<event>
 5   0  0.6917078E-06  0.2099580E+04  0.7818609E-02  0.8561428E-01
        1   -1    0    0  501    0  0.00000000000E+00  0.00000000000E+00  0.15410436646E+04  0.15410436646E+04  0.50400001928E-02 0. -1.
       -1   -1    0    0    0  501  0.00000000000E+00  0.00000000000E+00 -0.71513838306E+03  0.71513838308E+03  0.50400001928E-02 0.  1.
    10030    2    1    2    0    0  0.00000000000E+00  0.00000000000E+00  0.82590528156E+03  0.22561820477E+04  0.20995804101E+04 0.  0.
        5    1    3    3  502    0  0.79871870544E+03  0.10274751775E+03 -0.31072315006E+03  0.86317992841E+03  0.46999998093E+01 0.  1.
       -5    1    3    3    0  502 -0.79871870544E+03 -0.10274751775E+03  0.11366284316E+04  0.13930021193E+04  0.46999998093E+01 0. -1.
</event>
<event>
 5   0  0.6599245E-06  0.2100059E+04  0.7818609E-02  0.8561217E-01
       -1   -1    0    0    0  501  0.00000000000E+00  0.00000000000E+00  0.62146754788E+03  0.62146754790E+03  0.50400001928E-02 0. -1.
        1   -1    0    0  501    0  0.00000000000E+00  0.00000000000E+00 -0.17741270112E+04  0.17741270112E+04  0.50400001928E-02 0.  1.
    10030    2    1    2    0    0  0.00000000000E+00  0.00000000000E+00 -0.11526594633E+04  0.23955945591E+04  0.21000593928E+04 0.  0.
        2    1    3    3  502    0  0.22958904061E+03  0.19488105763E+03  0.57114904202E+03  0.64567869905E+03  0.25500000920E-02 0. -1.
       -2    1    3    3    0  502 -0.22958904061E+03 -0.19488105763E+03 -0.17238085053E+04  0.17499158600E+04  0.25500000920E-02 0.  1.
</event>
<event>
 5   0  0.1441136E-05  0.2101199E+04  0.7818609E-02  0.8560715E-01
        2   -1    0    0  501    0  0.00000000000E+00  0.00000000000E+00  0.11096144897E+04  0.11096144897E+04  0.25500000920E-02 0. -1.
       -2   -1    0    0    0  501  0.00000000000E+00  0.00000000000E+00 -0.99472303431E+03  0.99472303431E+03  0.25500000920E-02 0.  1.
    10030    2    1    2    0    0  0.00000000000E+00  0.00000000000E+00  0.11489145536E+03  0.21043375240E+04  0.21011987931E+04 0.  0.
        4    1    3    3  502    0 -0.23176252636E+03 -0.45131193052E+03  0.97879886133E+03  0.11024722904E+04  0.12699999809E+01 0. -1.
       -4    1    3    3    0  502  0.23176252636E+03  0.45131193052E+03 -0.86390740597E+03  0.10018652336E+04  0.12699999809E+01 0.  1.
</event>
<event>
 5   0  0.1344501E-05  0.2126288E+04  0.7818609E-02  0.8549751E-01
        2   -1    0    0  501    0  0.00000000000E+00  0.00000000000E+00  0.79507372650E+03  0.79507372651E+03  0.25500000920E-02 0.  1.
       -2   -1    0    0    0  501  0.00000000000E+00  0.00000000000E+00 -0.14215976925E+04  0.14215976925E+04  0.25500000920E-02 0. -1.
    10030    2    1    2    0    0  0.00000000000E+00  0.00000000000E+00 -0.62652396595E+03  0.22166714190E+04  0.21262878215E+04 0.  0.
        3    1    3    3  502    0 -0.51506224430E+03 -0.92201392841E+03 -0.44041444213E+03  0.11442743075E+04  0.10100000352E+00 0. -1.
       -3    1    3    3    0  502  0.51506224430E+03  0.92201392841E+03 -0.18610952382E+03  0.10723971115E+04  0.10100000352E+00 0.  1.
</event>
<event>
 5   0  0.6917078E-06  0.2098040E+04  0.7818609E-02  0.8562107E-01
       -1   -1    0    0    0  501  0.00000000000E+00  0.00000000000E+00  0.56630846628E+03  0.56630846630E+03  0.50400001928E-02 0.  1.
        1   -1    0    0  501    0  0.00000000000E+00  0.00000000000E+00 -0.19431860391E+04  0.19431860391E+04  0.50400001928E-02 0. -1.
    10030    2    1    2    0    0  0.00000000000E+00  0.00000000000E+00 -0.13768775728E+04  0.25094945054E+04  0.20980397570E+04 0.  0.
        5    1    3    3  502    0  0.79890408762E+02  0.60803736328E+03 -0.17064214527E+04  0.18132810529E+04  0.46999998093E+01 0. -1.
       -5    1    3    3    0  502 -0.79890408762E+02 -0.60803736328E+03  0.32954387995E+03  0.69621345245E+03  0.46999998093E+01 0.  1.
</event>
<event>
 5   0  0.1398469E-05  0.2041350E+04  0.7818609E-02  0.8587528E-01
       -2   -1    0    0    0  501  0.00000000000E+00  0.00000000000E+00  0.70175761522E+03  0.70175761523E+03  0.25500000920E-02 0. -1.
        2   -1    0    0  501    0  0.00000000000E+00  0.00000000000E+00 -0.14845263861E+04  0.14845263861E+04  0.25500000920E-02 0.  1.
    10030    2    1    2    0    0  0.00000000000E+00  0.00000000000E+00 -0.78276877091E+03  0.21862840014E+04  0.20413502360E+04 0.  0.
        2    1    3    3  502    0  0.47371562567E+03 -0.75009922119E+03  0.14914908237E+03  0.89961146303E+03  0.25500000920E-02 0. -1.
       -2    1    3    3    0  502 -0.47371562567E+03  0.75009922119E+03 -0.93191785329E+03  0.12866725383E+04  0.25500000920E-02 0.  1.
</event>
<event>
 5   0  0.1441136E-05  0.2097379E+04  0.7818609E-02  0.8562399E-01
        2   -1    0    0  501    0  0.00000000000E+00  0.00000000000E+00  0.19416861766E+04  0.19416861766E+04  0.25500000920E-02 0. -1.
       -2   -1    0    0    0  501  0.00000000000E+00  0.00000000000E+00 -0.56638903445E+03  0.56638903445E+03  0.25500000920E-02 0.  1.
    10030    2    1    2    0    0  0.00000000000E+00  0.00000000000E+00  0.13752971422E+04  0.25080752111E+04  0.20973790871E+04 0.  0.
        4    1    3    3  502    0  0.23793338959E+03  0.80512851741E+03 -0.63817443104E+02  0.84197298435E+03  0.12699999809E+01 0.  1.
       -4    1    3    3    0  502 -0.23793338959E+03 -0.80512851741E+03  0.14391145853E+04  0.16661022267E+04  0.12699999809E+01 0. -1.
</event>
<event>
 5   0  0.6283269E-06  0.2096028E+04  0.7818609E-02  0.8562995E-01
       -1   -1    0    0    0  501  0.00000000000E+00  0.00000000000E+00  0.63423673203E+03  0.63423673205E+03  0.50400001928E-02 0. -1.
        1   -1    0    0  501    0  0.00000000000E+00  0.00000000000E+00 -0.17317402790E+04  0.17317402790E+04  0.50400001928E-02 0.  1.
    10030    2    1    2    0    0  0.00000000000E+00  0.00000000000E+00 -0.10975035470E+04  0.23659770110E+04  0.20960279533E+04 0.  0.
        1    1    3    3  502    0 -0.45870751407E+03 -0.27049711753E+03 -0.15676391311E+04  0.16556188327E+04  0.50400001928E-02 0.  1.
       -1    1    3    3    0  502  0.45870751407E+03  0.27049711753E+03  0.47013558409E+03  0.71035817832E+03  0.50400001928E-02 0. -1.
</event>
<event>
 5   0  0.1398469E-05  0.2100107E+04  0.7818609E-02  0.8561196E-01
       -2   -1    0    0    0  501  0.00000000000E+00  0.00000000000E+00  0.61323217520E+03  0.61323217521E+03  0.25500000920E-02 0.  1.
        2   -1    0    0  501    0  0.00000000000E+00  0.00000000000E+00 -0.17980340897E+04  0.17980340897E+04  0.25500000920E-02 0. -1.
    10030    2    1    2    0    0  0.00000000000E+00  0.00000000000E+00 -0.11848019145E+04  0.24112662649E+04  0.21001070029E+04 0.  0.
        2    1    3    3  502    0 -0.29662884216E+03 -0.95679580566E+03 -0.95396396377E+03  0.13832910496E+04  0.25500000920E-02 0. -1.
       -2    1    3    3    0  502  0.29662884216E+03  0.95679580566E+03 -0.23083795069E+03  0.10279752153E+04  0.25500000920E-02 0.  1.
</event>
<event>
 5   0  0.6917078E-06  0.2095652E+04  0.7818609E-02  0.8563161E-01
       -1   -1    0    0    0  501  0.00000000000E+00  0.00000000000E+00  0.84023751077E+03  0.84023751079E+03  0.50400001928E-02 0. -1.
        1   -1    0    0  501    0  0.00000000000E+00  0.00000000000E+00 -0.13067013913E+04  0.13067013914E+04  0.50400001928E-02 0.  1.
    10030    2    1    2    0    0  0.00000000000E+00  0.00000000000E+00 -0.46646388057E+03  0.21469389021E+04  0.20956521891E+04 0.  0.
        5    1    3    3  502    0 -0.65898903265E+03  0.81008814370E+03 -0.32140858450E+03  0.10926275275E+04  0.46999998093E+01 0.  1.
       -5    1    3    3    0  502  0.65898903265E+03 -0.81008814370E+03 -0.14505529607E+03  0.10543113746E+04  0.46999998093E+01 0. -1.
</event>
<event>
 5   0  0.5009125E-06  0.2099828E+04  0.7818609E-02  0.8561319E-01
       -3   -1    0    0    0  501  0.00000000000E+00  0.00000000000E+00  0.82026205123E+03  0.82026205745E+03  0.10100000352E+00 0. -1.
        3   -1    0    0  501    0  0.00000000000E+00  0.00000000000E+00 -0.13438626384E+04  0.13438626422E+04  0.10100000352E+00 0.  1.
    10030    2    1    2    0    0  0.00000000000E+00  0.00000000000E+00 -0.52360058714E+03  0.21641246996E+04  0.20998281217E+04 0.  0.
        5    1    3    3  502    0 -0.49952319759E+03 -0.36017901242E+03  0.61455704449E+03  0.87003149187E+03  0.46999998093E+01 0. -1.
       -5    1    3    3    0  502  0.49952319759E+03  0.36017901242E+03 -0.11381576316E+04  0.12940932077E+04  0.46999998093E+01 0.  1.
</event>
<event>
 5   0  0.6283269E-06  0.2105883E+04  0.7818609E-02  0.8558656E-01
        1   -1    0    0  501    0  0.00000000000E+00  0.00000000000E+00  0.67048746076E+03  0.67048746078E+03  0.50400001928E-02 0. -1.
       -1   -1    0    0    0  501  0.00000000000E+00  0.00000000000E+00 -0.16535514854E+04  0.16535514854E+04  0.50400001928E-02 0.  1.
    10030    2    1    2    0    0  0.00000000000E+00  0.00000000000E+00 -0.98306402466E+03  0.23240389462E+04  0.21058827477E+04 0.  0.
        1    1    3    3  502    0 -0.34268105708E+03  0.56209958781E+03  0.41536372247E+03  0.77840431362E+03  0.50400001928E-02 0. -1.
       -1    1    3    3    0  502  0.34268105708E+03 -0.56209958781E+03 -0.13984277471E+04  0.15456346326E+04  0.50400001928E-02 0.  1.
</event>
<event>
 5   0  0.1390735E-05  0.2095627E+04  0.7818609E-02  0.8563172E-01
       -2   -1    0    0    0  501  0.00000000000E+00  0.00000000000E+00  0.99585868798E+03  0.99585868798E+03  0.25500000920E-02 0.  1.
        2   -1    0    0  501    0  0.00000000000E+00  0.00000000000E+00 -0.11024786156E+04  0.11024786156E+04  0.25500000920E-02 0. -1.
    10030    2    1    2    0    0  0.00000000000E+00  0.00000000000E+00 -0.10661992766E+03  0.20983373036E+04  0.20956267871E+04 0.  0.
        5    1    3    3  502    0  0.44851885921E+03 -0.53971943270E+03  0.72578677517E+03  0.10095814807E+04  0.46999998093E+01 0.  1.
       -5    1    3    3    0  502 -0.44851885921E+03  0.53971943270E+03 -0.83240670283E+03  0.10887558230E+04  0.46999998093E+01 0. -1.
</event>
<event>
 5   0  0.6917078E-06  0.2098623E+04  0.7818609E-02  0.8561850E-01
       -1   -1    0    0    0  501  0.00000000000E+00  0.00000000000E+00  0.11877406377E+04  0.11877406377E+04  0.50400001928E-02 0.  1.
        1   -1    0    0  501    0  0.00000000000E+00  0.00000000000E+00 -0.92701619327E+03  0.92701619328E+03  0.50400001928E-02 0. -1.
    10030    2    1    2    0    0  0.00000000000E+00  0.00000000000E+00  0.26072444440E+03  0.21147568310E+04  0.20986231720E+04 0.  0.
        5    1    3    3  502    0 -0.73085416186E+03  0.54985454543E+03  0.64865559903E+03  0.11212778439E+04  0.46999998093E+01 0.  1.
       -5    1    3    3    0  502  0.73085416186E+03 -0.54985454543E+03 -0.38793115463E+03  0.99347898708E+03  0.46999998093E+01 0. -1.
</event>
<event>
 5   0  0.1344501E-05  0.2103587E+04  0.7818609E-02  0.8559665E-01
       -2   -1    0    0    0  501  0.00000000000E+00  0.00000000000E+00  0.12501585455E+04  0.12501585455E+04  0.25500000920E-02 0. -1.
        2   -1    0    0  501    0  0.00000000000E+00  0.00000000000E+00 -0.88490339176E+03  0.88490339177E+03  0.25500000920E-02 0.  1.
    10030    2    1    2    0    0  0.00000000000E+00  0.00000000000E+00  0.36525515371E+03  0.21350619372E+04  0.21035869719E+04 0.  0.
        3    1    3    3  502    0  0.67740899912E+03 -0.80021774114E+03  0.97478683855E+02  0.10529641444E+04  0.10100000352E+00 0. -1.
       -3    1    3    3    0  502 -0.67740899912E+03  0.80021774114E+03  0.26777646986E+03  0.10820977929E+04  0.10100000352E+00 0.  1.
</event>
<event>
 5   0  0.6283269E-06  0.2145433E+04  0.7818609E-02  0.8541490E-01
       -1   -1    0    0    0  501  0.00000000000E+00  0.00000000000E+00  0.55656225204E+03  0.55656225206E+03  0.50400001928E-02 0.  1.
        1   -1    0    0  501    0  0.00000000000E+00  0.00000000000E+00 -0.20675510604E+04  0.20675510604E+04  0.50400001928E-02 0. -1.
    10030    2    1    2    0    0  0.00000000000E+00  0.00000000000E+00 -0.15109888084E+04  0.26241133125E+04  0.21454331725E+04 0.  0.
        1    1    3    3  502    0  0.73465377360E+03 -0.77920552032E+03 -0.83132230408E+03  0.13557190650E+04  0.50400001928E-02 0.  1.
       -1    1    3    3    0  502 -0.73465377360E+03  0.77920552032E+03 -0.67966650431E+03  0.12683942475E+04  0.50400001928E-02 0. -1.
</event>
<event>
 5   0  0.6589193E-06  0.2098589E+04  0.7818609E-02  0.8561865E-01
       -1   -1    0    0    0  501  0.00000000000E+00  0.00000000000E+00  0.10447858845E+04  0.10447858845E+04  0.50400001928E-02 0. -1.
        1   -1    0    0  501    0  0.00000000000E+00  0.00000000000E+00 -0.10538227331E+04  0.10538227331E+04  0.50400001928E-02 0.  1.
    10030    2    1    2    0    0  0.00000000000E+00  0.00000000000E+00 -0.90368485950E+01  0.20986086177E+04  0.20985891607E+04 0.  0.
        3    1    3    3  502    0  0.21982692435E+03  0.68718557531E+03 -0.76641210339E+03  0.10525851101E+04  0.10100000352E+00 0.  1.
       -3    1    3    3    0  502 -0.21982692435E+03 -0.68718557531E+03  0.75737525479E+03  0.10460235076E+04  0.10100000352E+00 0. -1.
</event>
<event>
 5   0  0.1344501E-05  0.2100077E+04  0.7818609E-02  0.8561210E-01
        2   -1    0    0  501    0  0.00000000000E+00  0.00000000000E+00  0.10011931756E+04  0.10011931756E+04  0.25500000920E-02 0. -1.
       -2   -1    0    0    0  501  0.00000000000E+00  0.00000000000E+00 -0.11012665993E+04  0.11012665993E+04  0.25500000920E-02 0.  1.
    10030    2    1    2    0    0  0.00000000000E+00  0.00000000000E+00 -0.10007342377E+03  0.21024597749E+04  0.21000767641E+04 0.  0.
        3    1    3    3  502    0 -0.16078939141E+02  0.62371494977E+03 -0.89556698608E+03  0.10914756560E+04  0.10100000352E+00 0.  1.
       -3    1    3    3    0  502  0.16078939141E+02 -0.62371494977E+03  0.79549356231E+03  0.10109841189E+04  0.10100000352E+00 0. -1.
</event>
<event>
 5   0  0.1390735E-05  0.2101232E+04  0.7818609E-02  0.8560701E-01
        2   -1    0    0  501    0  0.00000000000E+00  0.00000000000E+00  0.16038115438E+04  0.16038115438E+04  0.25500000920E-02 0.  1.
       -2   -1    0    0    0  501  0.00000000000E+00  0.00000000000E+00 -0.68823160484E+03  0.68823160484E+03  0.25500000920E-02 0. -1.
    10030    2    1    2    0    0  0.00000000000E+00  0.00000000000E+00  0.91557993892E+03  0.22920431486E+04  0.21012318222E+04 0.  0.
        5    1    3    3  502    0 -0.55587839635E+03 -0.22941159173E+03 -0.48191624815E+03  0.77064637168E+03  0.46999998093E+01 0. -1.
       -5    1    3    3    0  502  0.55587839635E+03  0.22941159173E+03  0.13974961871E+04  0.15213967769E+04  0.46999998093E+01 0.  1.
</event>
<event>
 5   0  0.1390735E-05  0.2099696E+04  0.7818609E-02  0.8561377E-01
       -2   -1    0    0    0  501  0.00000000000E+00  0.00000000000E+00  0.13236848533E+04  0.13236848533E+04  0.25500000920E-02 0.  1.
        2   -1    0    0  501    0  0.00000000000E+00  0.00000000000E+00 -0.83266093561E+03  0.83266093561E+03  0.25500000920E-02 0. -1.
    10030    2    1    2    0    0  0.00000000000E+00  0.00000000000E+00  0.49102391772E+03  0.21563457889E+04  0.20996958527E+04 0.  0.
        5    1    3    3  502    0 -0.78203915870E+03 -0.85823069674E+02 -0.46837418519E+03  0.91561308006E+03  0.46999998093E+01 0. -1.
       -5    1    3    3    0  502  0.78203915870E+03  0.85823069674E+02  0.95939810291E+03  0.12407327089E+04  0.46999998093E+01 0.  1.
</event>
<event>
 5   0  0.6238363E-06  0.2098616E+04  0.7818609E-02  0.8561853E-01
       -1   -1    0    0    0  501  0.00000000000E+00  0.00000000000E+00  0.80554431968E+03  0.80554431969E+03  0.50400001928E-02 0.  1.
        1   -1    0    0  501    0  0.00000000000E+00  0.00000000000E+00 -0.13668361237E+04  0.13668361237E+04  0.50400001928E-02 0. -1.
    10030    2    1    2    0    0  0.00000000000E+00  0.00000000000E+00 -0.56129180406E+03  0.21723804434E+04  0.20986158061E+04 0.  0.
        4    1    3    3  502    0 -0.91919433972E+03 -0.46903969198E+02  0.24097813531E+03  0.95141488904E+03  0.12699999809E+01 0.  1.
       -4    1    3    3    0  502  0.91919433972E+03  0.46903969198E+02 -0.80226993937E+03  0.12209655544E+04  0.12699999809E+01 0. -1.
</event>
<event>
 5   0  0.6917078E-06  0.2122059E+04  0.7818609E-02  0.8551588E-01
        1   -1    0    0  501    0  0.00000000000E+00  0.00000000000E+00  0.13463695235E+04  0.13463695235E+04  0.50400001928E-02 0. -1.
       -1   -1    0    0    0  501  0.00000000000E+00  0.00000000000E+00 -0.83616238116E+03  0.83616238117E+03  0.50400001928E-02 0.  1.
    10030    2    1    2    0    0  0.00000000000E+00  0.00000000000E+00  0.51020714231E+03  0.21825319046E+04  0.21220589499E+04 0.  0.
        5    1    3    3  502    0  0.27285952681E+03 -0.31641436389E+03  0.12581869693E+04  0.13257552228E+04  0.46999998093E+01 0. -1.
       -5    1    3    3    0  502 -0.27285952681E+03  0.31641436389E+03 -0.74797982697E+03  0.85677668187E+03  0.46999998093E+01 0.  1.
</event>
<event>
 5   0  0.6238363E-06  0.2101105E+04  0.7818609E-02  0.8560757E-01
       -1   -1    0    0    0  501  0.00000000000E+00  0.00000000000E+00  0.68017030594E+03  0.68017030596E+03  0.50400001928E-02 0.  1.
        1   -1    0    0  501    0  0.00000000000E+00  0.00000000000E+00 -0.16226241359E+04  0.16226241359E+04  0.50400001928E-02 0. -1.
    10030    2    1    2    0    0  0.00000000000E+00  0.00000000000E+00 -0.94245382991E+03  0.23027944418E+04  0.21011051901E+04 0.  0.
        4    1    3    3  502    0 -0.16817956018E+03 -0.14480149572E+03 -0.15966390142E+04  0.16119893276E+04  0.12699999809E+01 0. -1.
       -4    1    3    3    0  502  0.16817956018E+03  0.14480149572E+03  0.65418518429E+03  0.69080511425E+03  0.12699999809E+01 0.  1.
</event>
<event>
 5   0  0.6283269E-06  0.2099089E+04  0.7818609E-02  0.8561645E-01
       -1   -1    0    0    0  501  0.00000000000E+00  0.00000000000E+00  0.16964004119E+04  0.16964004119E+04  0.50400001928E-02 0. -1.
        1   -1    0    0  501    0  0.00000000000E+00  0.00000000000E+00 -0.64934199017E+03  0.64934199019E+03  0.50400001928E-02 0.  1.
    10030    2    1    2    0    0  0.00000000000E+00  0.00000000000E+00  0.10470584217E+04  0.23457424021E+04  0.20990893450E+04 0.  0.
        1    1    3    3  502    0  0.62682917382E+03  0.83985884188E+03  0.45966176220E+03  0.11443629770E+04  0.50400001928E-02 0. -1.
       -1    1    3    3    0  502 -0.62682917382E+03 -0.83985884188E+03  0.58739665954E+03  0.12013794251E+04  0.50400001928E-02 0.  1.
</event>
<event>
 5   0  0.6238363E-06  0.2102860E+04  0.7818609E-02  0.8559985E-01
       -1   -1    0    0    0  501  0.00000000000E+00  0.00000000000E+00  0.66107682143E+03  0.66107682144E+03  0.50400001928E-02 0. -1.
        1   -1    0    0  501    0  0.00000000000E+00  0.00000000000E+00 -0.16722793577E+04  0.16722793577E+04  0.50400001928E-02 0.  1.
    10030    2    1    2    0    0  0.00000000000E+00  0.00000000000E+00 -0.10112025363E+04  0.23333561792E+04  0.21028600737E+04 0.  0.
        4    1    3    3  502    0  0.84372931197E+03  0.23041305097E+03 -0.11531180358E+04  0.14472913126E+04  0.12699999809E+01 0.  1.
       -4    1    3    3    0  502 -0.84372931197E+03 -0.23041305097E+03  0.14191549954E+03  0.88606486661E+03  0.12699999809E+01 0. -1.
</event>
<event>
 5   0  0.1344501E-05  0.2099089E+04  0.7818609E-02  0.8561645E-01
       -2   -1    0    0    0  501  0.00000000000E+00  0.00000000000E+00  0.69725838967E+03  0.69725838967E+03  0.25500000920E-02 0. -1.
        2   -1    0    0  501    0  0.00000000000E+00  0.00000000000E+00 -0.15798209816E+04  0.15798209816E+04  0.25500000920E-02 0.  1.
    10030    2    1    2    0    0  0.00000000000E+00  0.00000000000E+00 -0.88256259194E+03  0.22770793713E+04  0.20990887867E+04 0.  0.
        3    1    3    3  502    0 -0.32399659491E+03 -0.98173475606E+03 -0.63764552567E+03  0.12146475832E+04  0.10100000352E+00 0.  1.
       -3    1    3    3    0  502  0.32399659491E+03  0.98173475606E+03 -0.24491706627E+03  0.10624317881E+04  0.10100000352E+00 0. -1.
</event>
<event>
 5   0  0.1390735E-05  0.2091121E+04  0.7818609E-02  0.8565165E-01
        2   -1    0    0  501    0  0.00000000000E+00  0.00000000000E+00  0.13378095593E+04  0.13378095593E+04  0.25500000920E-02 0.  1.
       -2   -1    0    0    0  501  0.00000000000E+00  0.00000000000E+00 -0.81715397900E+03  0.81715397901E+03  0.25500000920E-02 0. -1.
    10030    2    1    2    0    0  0.00000000000E+00  0.00000000000E+00  0.52065558025E+03  0.21549635383E+04  0.20911206608E+04 0.  0.
        5    1    3    3  502    0  0.78035796580E+02  0.40421618035E+03  0.12507603217E+04  0.13167778014E+04  0.46999998093E+01 0.  1.
       -5    1    3    3    0  502 -0.78035796580E+02 -0.40421618035E+03 -0.73010474143E+03  0.83818573685E+03  0.46999998093E+01 0. -1.
</event>
<event>
 5   0  0.1390735E-05  0.2102061E+04  0.7818609E-02  0.8560336E-01
       -2   -1    0    0    0  501  0.00000000000E+00  0.00000000000E+00  0.74586955140E+03  0.74586955140E+03  0.25500000920E-02 0.  1.
        2   -1    0    0  501    0  0.00000000000E+00  0.00000000000E+00 -0.14810431013E+04  0.14810431013E+04  0.25500000920E-02 0. -1.
    10030    2    1    2    0    0  0.00000000000E+00  0.00000000000E+00 -0.73517354991E+03  0.22269126527E+04  0.21020608493E+04 0.  0.
        5    1    3    3  502    0 -0.56039139478E+03  0.47232334958E+03 -0.11656670411E+04  0.13769275953E+04  0.46999998093E+01 0. -1.
       -5    1    3    3    0  502  0.56039139478E+03 -0.47232334958E+03  0.43049349120E+03  0.84998505744E+03  0.46999998093E+01 0.  1.
</event>
<event>
 5   0  0.6283269E-06  0.2100155E+04  0.7818609E-02  0.8561175E-01
       -1   -1    0    0    0  501  0.00000000000E+00  0.00000000000E+00  0.72951585069E+03  0.72951585071E+03  0.50400001928E-02 0. -1.
        1   -1    0    0  501    0  0.00000000000E+00  0.00000000000E+00 -0.15114999043E+04  0.15114999043E+04  0.50400001928E-02 0.  1.
    10030    2    1    2    0    0  0.00000000000E+00  0.00000000000E+00 -0.78198405361E+03  0.22410157550E+04  0.21001553643E+04 0.  0.
        1    1    3    3  502    0  0.89503200266E+03  0.43078481843E+03 -0.27552307549E+02  0.99368857056E+03  0.50400001928E-02 0. -1.
       -1    1    3    3    0  502 -0.89503200266E+03 -0.43078481843E+03 -0.75443174606E+03  0.12473271845E+04  0.50400001928E-02 0.  1.
</event>
<event>
 5   0  0.1395356E-05  0.2148523E+04  0.7818609E-02  0.8540165E-01
       -2   -1    0    0    0  501  0.00000000000E+00  0.00000000000E+00  0.93451673981E+03  0.93451673981E+03  0.25500000920E-02 0. -1.
        2   -1    0    0  501    0  0.00000000000E+00  0.00000000000E+00 -0.12349037597E+04  0.12349037597E+04  0.25500000920E-02 0.  1.
    10030    2    1    2    0    0  0.00000000000E+00  0.00000000000E+00 -0.30038701992E+03  0.21694204995E+04  0.21485234330E+04 0.  0.
        1    1    3    3  502    0  0.14222449091E+03 -0.60879693548E+02 -0.12235966682E+04  0.12333381326E+04  0.50400001928E-02 0.  1.
       -1    1    3    3    0  502 -0.14222449091E+03  0.60879693548E+02  0.92320964830E+03  0.93608236691E+03  0.50400001928E-02 0. -1.
</event>
<event>
 5   0  0.1395356E-05  0.2094874E+04  0.7818609E-02  0.8563505E-01
       -2   -1    0    0    0  501  0.00000000000E+00  0.00000000000E+00  0.69159208040E+03  0.69159208040E+03  0.25500000920E-02 0. -1.
        2   -1    0    0  501    0  0.00000000000E+00  0.00000000000E+00 -0.15863744388E+04  0.15863744388E+04  0.25500000920E-02 0.  1.
    10030    2    1    2    0    0  0.00000000000E+00  0.00000000000E+00 -0.89478235842E+03  0.22779665192E+04  0.20948737417E+04 0.  0.
        1    1    3    3  502    0 -0.87402991112E+03  0.40290809513E+03  0.20891347804E+01  0.96242796258E+03  0.50400001928E-02 0. -1.
       -1    1    3    3    0  502  0.87402991112E+03 -0.40290809513E+03 -0.89687149320E+03  0.13155385566E+04  0.50400001928E-02 0.  1.
</event>
<event>
 5   0  0.6283269E-06  0.2098640E+04  0.7818609E-02  0.8561843E-01
       -1   -1    0    0    0  501  0.00000000000E+00  0.00000000000E+00  0.92737773069E+03  0.92737773071E+03  0.50400001928E-02 0.  1.
        1   -1    0    0  501    0  0.00000000000E+00  0.00000000000E+00 -0.11872962084E+04  0.11872962084E+04  0.50400001928E-02 0. -1.
    10030    2    1    2    0    0  0.00000000000E+00  0.00000000000E+00 -0.25991847772E+03  0.21146739391E+04  0.20986396198E+04 0.  0.
        1    1    3    3  502    0 -0.73698016780E+03  0.93219342240E+02 -0.87673049533E+03  0.11491240033E+04  0.50400001928E-02 0. -1.
       -1    1    3    3    0  502  0.73698016780E+03 -0.93219342240E+02  0.61681201760E+03  0.96554993583E+03  0.50400001928E-02 0.  1.
</event>
<event>
 5   0  0.1441136E-05  0.2104696E+04  0.7818609E-02  0.8559178E-01
       -2   -1    0    0    0  501  0.00000000000E+00  0.00000000000E+00  0.89383999076E+03  0.89383999077E+03  0.25500000920E-02 0.  1.
        2   -1    0    0  501    0  0.00000000000E+00  0.00000000000E+00 -0.12389648703E+04  0.12389648703E+04  0.25500000920E-02 0. -1.
    10030    2    1    2    0    0  0.00000000000E+00  0.00000000000E+00 -0.34512487954E+03  0.21328048611E+04  0.21046960334E+04 0.  0.
        4    1    3    3  502    0 -0.14847839434E+03  0.85983217158E+02 -0.12246945409E+04  0.12366556831E+04  0.12699999809E+01 0. -1.
       -4    1    3    3    0  502  0.14847839434E+03 -0.85983217158E+02  0.87956966131E+03  0.89614917799E+03  0.12699999809E+01 0.  1.
</event>
<event>
 5   0  0.6599245E-06  0.2106341E+04  0.7818609E-02  0.8558455E-01
       -1   -1    0    0    0  501  0.00000000000E+00  0.00000000000E+00  0.98342509817E+03  0.98342509819E+03  0.50400001928E-02 0.  1.
        1   -1    0    0  501    0  0.00000000000E+00  0.00000000000E+00 -0.11278628064E+04  0.11278628065E+04  0.50400001928E-02 0. -1.
    10030    2    1    2    0    0  0.00000000000E+00  0.00000000000E+00 -0.14443770827E+03  0.21112879046E+04  0.21063414644E+04 0.  0.
        2    1    3    3  502    0 -0.76687951411E+03  0.28894712046E+03  0.59082830547E+03  0.10102834821E+04  0.25500000920E-02 0.  1.
       -2    1    3    3    0  502  0.76687951411E+03 -0.28894712046E+03 -0.73526601374E+03  0.11010044226E+04  0.25500000920E-02 0. -1.
</event>
<event>
 5   0  0.1398469E-05  0.2093636E+04  0.7818609E-02  0.8564052E-01
        2   -1    0    0  501    0  0.00000000000E+00  0.00000000000E+00  0.11163869033E+04  0.11163869033E+04  0.25500000920E-02 0.  1.
       -2   -1    0    0    0  501  0.00000000000E+00  0.00000000000E+00 -0.98158392233E+03  0.98158392234E+03  0.25500000920E-02 0. -1.
    10030    2    1    2    0    0  0.00000000000E+00  0.00000000000E+00  0.13480298098E+03  0.20979708257E+04  0.20936355322E+04 0.  0.
        2    1    3    3  502    0 -0.37059270716E+03 -0.95812222679E+03 -0.13423714540E+03  0.10360293274E+04  0.25500000920E-02 0.  1.
       -2    1    3    3    0  502  0.37059270716E+03  0.95812222679E+03  0.26904012638E+03  0.10619414982E+04  0.25500000920E-02 0. -1.
</event>
<event>
 5   0  0.6283269E-06  0.2100848E+04  0.7818609E-02  0.8560870E-01
        1   -1    0    0  501    0  0.00000000000E+00  0.00000000000E+00  0.18425055939E+04  0.18425055939E+04  0.50400001928E-02 0.  1.
       -1   -1    0    0    0  501  0.00000000000E+00  0.00000000000E+00 -0.59885334113E+03  0.59885334115E+03  0.50400001928E-02 0. -1.
    10030    2    1    2    0    0  0.00000000000E+00  0.00000000000E+00  0.12436522528E+04  0.24413589351E+04  0.21008480488E+04 0.  0.
        1    1    3    3  502    0 -0.73972245154E+03  0.39573181303E+03  0.13564219596E+04  0.15948898099E+04  0.50400001928E-02 0.  1.
       -1    1    3    3    0  502  0.73972245154E+03 -0.39573181303E+03 -0.11276970677E+03  0.84646912522E+03  0.50400001928E-02 0. -1.
</event>
<event>
 5   0  0.1398469E-05  0.2103078E+04  0.7818609E-02  0.8559889E-01
        2   -1    0    0  501    0  0.00000000000E+00  0.00000000000E+00  0.99179644929E+03  0.99179644929E+03  0.25500000920E-02 0.  1.
       -2   -1    0    0    0  501  0.00000000000E+00  0.00000000000E+00 -0.11148806969E+04  0.11148806969E+04  0.25500000920E-02 0. -1.
    10030    2    1    2    0    0  0.00000000000E+00  0.00000000000E+00 -0.12308424764E+03  0.21066771462E+04  0.21030784261E+04 0.  0.
        2    1    3    3  502    0  0.59042415379E+03  0.69790534679E+03  0.45902218177E+03  0.10229241995E+04  0.25500000920E-02 0.  1.
       -2    1    3    3    0  502 -0.59042415379E+03 -0.69790534679E+03 -0.58210642941E+03  0.10837529468E+04  0.25500000920E-02 0. -1.
</event>
<event>
 5   0  0.1390735E-05  0.2090111E+04  0.7818609E-02  0.8565612E-01
        2   -1    0    0  501    0  0.00000000000E+00  0.00000000000E+00  0.75695867950E+03  0.75695867950E+03  0.25500000920E-02 0. -1.
       -2   -1    0    0    0  501  0.00000000000E+00  0.00000000000E+00 -0.14428016908E+04  0.14428016908E+04  0.25500000920E-02 0.  1.
    10030    2    1    2    0    0  0.00000000000E+00  0.00000000000E+00 -0.68584301130E+03  0.21997603703E+04  0.20901112532E+04 0.  0.
        5    1    3    3  502    0 -0.31581731586E+03  0.53167078971E+03  0.54371341335E+03  0.82344445562E+03  0.46999998093E+01 0. -1.
       -5    1    3    3    0  502  0.31581731586E+03 -0.53167078971E+03 -0.12295564247E+04  0.13763159147E+04  0.46999998093E+01 0.  1.
</event>
<event>
 5   0  0.1390735E-05  0.2107941E+04  0.7818609E-02  0.8557753E-01
        2   -1    0    0  501    0  0.00000000000E+00  0.00000000000E+00  0.90331932310E+03  0.90331932311E+03  0.25500000920E-02 0.  1.
       -2   -1    0    0    0  501  0.00000000000E+00  0.00000000000E+00 -0.12297465727E+04  0.12297465727E+04  0.25500000920E-02 0. -1.
    10030    2    1    2    0    0  0.00000000000E+00  0.00000000000E+00 -0.32642724963E+03  0.21330658958E+04  0.21079410254E+04 0.  0.
        5    1    3    3  502    0 -0.48618131245E+03  0.17179972251E+03 -0.10933783507E+04  0.12088778768E+04  0.46999998093E+01 0. -1.
       -5    1    3    3    0  502  0.48618131245E+03 -0.17179972251E+03  0.76695110103E+03  0.92418801908E+03  0.46999998093E+01 0.  1.
</event>
<event>
 5   0  0.1390735E-05  0.2097235E+04  0.7818609E-02  0.8562462E-01
        2   -1    0    0  501    0  0.00000000000E+00  0.00000000000E+00  0.86574178994E+03  0.86574178995E+03  0.25500000920E-02 0.  1.
       -2   -1    0    0    0  501  0.00000000000E+00  0.00000000000E+00 -0.12701230407E+04  0.12701230407E+04  0.25500000920E-02 0. -1.
    10030    2    1    2    0    0  0.00000000000E+00  0.00000000000E+00 -0.40438125077E+03  0.21358648307E+04  0.20972349365E+04 0.  0.
        5    1    3    3  502    0  0.48358923810E+02 -0.37837340803E+03  0.79256668297E+03  0.87959596314E+03  0.46999998093E+01 0.  1.
       -5    1    3    3    0  502 -0.48358923810E+02  0.37837340803E+03 -0.11969479337E+04  0.12562688675E+04  0.46999998093E+01 0. -1.
</event>
<event>
 5   0  0.6283269E-06  0.2095757E+04  0.7818609E-02  0.8563115E-01
        1   -1    0    0  501    0  0.00000000000E+00  0.00000000000E+00  0.10022932745E+04  0.10022932745E+04  0.50400001928E-02 0.  1.
       -1   -1    0    0    0  501  0.00000000000E+00  0.00000000000E+00 -0.10955372317E+04  0.10955372317E+04  0.50400001928E-02 0. -1.
    10030    2    1    2    0    0  0.00000000000E+00  0.00000000000E+00 -0.93243957180E+02  0.20978305062E+04  0.20957572372E+04 0.  0.
        1    1    3    3  502    0 -0.80636606639E+03  0.50649478509E+03  0.39117369724E+03  0.10294561971E+04  0.50400001928E-02 0.  1.
       -1    1    3    3    0  502  0.80636606639E+03 -0.50649478509E+03 -0.48441765442E+03  0.10683743091E+04  0.50400001928E-02 0. -1.
</event>
<event>
 5   0  0.6283269E-06  0.2097395E+04  0.7818609E-02  0.8562392E-01
       -1   -1    0    0    0  501  0.00000000000E+00  0.00000000000E+00  0.11360659636E+04  0.11360659636E+04  0.50400001928E-02 0.  1.
        1   -1    0    0  501    0  0.00000000000E+00  0.00000000000E+00 -0.96804769937E+03  0.96804769938E+03  0.50400001928E-02 0. -1.
    10030    2    1    2    0    0  0.00000000000E+00  0.00000000000E+00  0.16801826426E+03  0.21041136630E+04  0.20973946147E+04 0.  0.
        1    1    3    3  502    0  0.85790196799E+03  0.19200531043E+03 -0.48957788012E+03  0.10062546033E+04  0.50400001928E-02 0. -1.
       -1    1    3    3    0  502 -0.85790196799E+03 -0.19200531043E+03  0.65759614439E+03  0.10978590597E+04  0.50400001928E-02 0.  1.
</event>
<event>
 5   0  0.6589193E-06  0.2083617E+04  0.7818609E-02  0.8568495E-01
       -1   -1    0    0    0  501  0.00000000000E+00  0.00000000000E+00  0.10100682956E+04  0.10100682956E+04  0.50400001928E-02 0.  1.
        1   -1    0    0  501    0  0.00000000000E+00  0.00000000000E+00 -0.10745458414E+04  0.10745458414E+04  0.50400001928E-02 0. -1.
    10030    2    1    2    0    0  0.00000000000E+00  0.00000000000E+00 -0.64477545829E+02  0.20846141370E+04  0.20836167465E+04 0.  0.
        3    1    3    3  502    0  0.49536213661E+03 -0.66597961233E+03  0.59770711847E+03  0.10228227120E+04  0.10100000352E+00 0.  1.
       -3    1    3    3    0  502 -0.49536213661E+03  0.66597961233E+03 -0.66218466430E+03  0.10617914250E+04  0.10100000352E+00 0. -1.
</event>
<event>
 5   0  0.1395356E-05  0.2102125E+04  0.7818609E-02  0.8560308E-01
        2   -1    0    0  501    0  0.00000000000E+00  0.00000000000E+00  0.11283658397E+04  0.11283658397E+04  0.25500000920E-02 0. -1.
       -2   -1    0    0    0  501  0.00000000000E+00  0.00000000000E+00 -0.97905534885E+03  0.97905534885E+03  0.25500000920E-02 0.  1.
    10030    2    1    2    0    0  0.00000000000E+00  0.00000000000E+00  0.14931049084E+03  0.21074211885E+04  0.21021252206E+04 0.  0.
        1    1    3    3  502    0 -0.38777450746E+03 -0.37025659542E+02  0.10533280795E+04  0.11230494251E+04  0.50400001928E-02 0. -1.
       -1    1    3    3    0  502  0.38777450746E+03  0.37025659542E+02 -0.90401758865E+03  0.98437176347E+03  0.50400001928E-02 0.  1.
</event>
<event>
 5   0  0.6917078E-06  0.2108907E+04  0.7818609E-02  0.8557330E-01
       -1   -1    0    0    0  501  0.00000000000E+00  0.00000000000E+00  0.82412387670E+03  0.82412387671E+03  0.50400001928E-02 0.  1.
        1   -1    0    0  501    0  0.00000000000E+00  0.00000000000E+00 -0.13491560414E+04  0.13491560414E+04  0.50400001928E-02 0. -1.
    10030    2    1    2    0    0  0.00000000000E+00  0.00000000000E+00 -0.52503216470E+03  0.21732799181E+04  0.21089065481E+04 0.  0.
        5    1    3    3  502    0 -0.31165687401E+03  0.96925829735E+03  0.20189615315E+02  0.10183424594E+04  0.46999998093E+01 0.  1.
       -5    1    3    3    0  502  0.31165687401E+03 -0.96925829735E+03 -0.54522178002E+03  0.11549374587E+04  0.46999998093E+01 0. -1.
</event>
<event>
 5   0  0.1395356E-05  0.2090105E+04  0.7818609E-02  0.8565615E-01
        2   -1    0    0  501    0  0.00000000000E+00  0.00000000000E+00  0.23452236513E+04  0.23452236513E+04  0.25500000920E-02 0.  1.
       -2   -1    0    0    0  501  0.00000000000E+00  0.00000000000E+00 -0.46568455421E+03  0.46568455422E+03  0.25500000920E-02 0. -1.
    10030    2    1    2    0    0  0.00000000000E+00  0.00000000000E+00  0.18795390971E+04  0.28109082055E+04  0.20901047157E+04 0.  0.
        1    1    3    3  502    0 -0.58739402792E+03  0.86389095848E+03  0.97769135834E+03  0.14308108625E+04  0.50400001928E-02 0.  1.
       -1    1    3    3    0  502  0.58739402792E+03 -0.86389095848E+03  0.90184773877E+03  0.13800973430E+04  0.50400001928E-02 0. -1.
</event>
<event>
 5   0  0.1344501E-05  0.2096398E+04  0.7818609E-02  0.8562832E-01
        2   -1    0    0  501    0  0.00000000000E+00  0.00000000000E+00  0.86956461386E+03  0.86956461386E+03  0.25500000920E-02 0. -1.
       -2   -1    0    0    0  501  0.00000000000E+00  0.00000000000E+00 -0.12635303998E+04  0.12635303998E+04  0.25500000920E-02 0.  1.
    10030    2    1    2    0    0  0.00000000000E+00  0.00000000000E+00 -0.39396578591E+03  0.21330950136E+04  0.20963981723E+04 0.  0.
        3    1    3    3  502    0  0.42429129053E+03  0.88380904702E+03 -0.57439318425E+03  0.11362522040E+04  0.10100000352E+00 0.  1.
       -3    1    3    3    0  502 -0.42429129053E+03 -0.88380904702E+03  0.18042739834E+03  0.99684280962E+03  0.10100000352E+00 0. -1.
</event>
<event>
 5   0  0.1398469E-05  0.2103736E+04  0.7818609E-02  0.8559599E-01
        2   -1    0    0  501    0  0.00000000000E+00  0.00000000000E+00  0.13054843790E+04  0.13054843790E+04  0.25500000920E-02 0. -1.
       -2   -1    0    0    0  501  0.00000000000E+00  0.00000000000E+00 -0.84752190602E+03  0.84752190603E+03  0.25500000920E-02 0.  1.
    10030    2    1    2    0    0  0.00000000000E+00  0.00000000000E+00  0.45796247301E+03  0.21530062851E+04  0.21037363040E+04 0.  0.
        2    1    3    3  502    0  0.33877616285E+03  0.20717310257E+03 -0.76786191494E+03  0.86446625346E+03  0.25500000920E-02 0.  1.
       -2    1    3    3    0  502 -0.33877616285E+03 -0.20717310257E+03  0.12258243880E+04  0.12885400316E+04  0.25500000920E-02 0. -1.
</event>
<event>
 5   0  0.6599245E-06  0.2100897E+04  0.7818609E-02  0.8560848E-01
        1   -1    0    0  501    0  0.00000000000E+00  0.00000000000E+00  0.19000234560E+04  0.19000234560E+04  0.50400001928E-02 0.  1.
       -1   -1    0    0    0  501  0.00000000000E+00  0.00000000000E+00 -0.58075171666E+03  0.58075171668E+03  0.50400001928E-02 0. -1.
    10030    2    1    2    0    0  0.00000000000E+00  0.00000000000E+00  0.13192717393E+04  0.24807751727E+04  0.21008968407E+04 0.  0.
        2    1    3    3  502    0  0.48086892135E+03 -0.14457552600E+03 -0.42985912853E+03  0.66099612149E+03  0.25500000920E-02 0. -1.
       -2    1    3    3    0  502 -0.48086892135E+03  0.14457552600E+03  0.17491308678E+04  0.18197790512E+04  0.25500000920E-02 0.  1.
</event>
<event>
 5   0  0.1390735E-05  0.2097318E+04  0.7818609E-02  0.8562426E-01
        2   -1    0    0  501    0  0.00000000000E+00  0.00000000000E+00  0.12025247206E+04  0.12025247206E+04  0.25500000920E-02 0.  1.
       -2   -1    0    0    0  501  0.00000000000E+00  0.00000000000E+00 -0.91448065008E+03  0.91448065009E+03  0.25500000920E-02 0. -1.
    10030    2    1    2    0    0  0.00000000000E+00  0.00000000000E+00  0.28804407055E+03  0.21170053707E+04  0.20973178951E+04 0.  0.
        5    1    3    3  502    0  0.33350226777E+02 -0.28486986694E+03  0.11621530178E+04  0.11970316644E+04  0.46999998093E+01 0.  1.
       -5    1    3    3    0  502 -0.33350226777E+02  0.28486986694E+03 -0.87410894725E+03  0.91997370635E+03  0.46999998093E+01 0. -1.
</event>
<event>
 5   0  0.5009125E-06  0.2075646E+04  0.7818609E-02  0.8572048E-01
        3   -1    0    0  501    0  0.00000000000E+00  0.00000000000E+00  0.17196666172E+04  0.17196666202E+04  0.10100000352E+00 0.  1.
       -3   -1    0    0    0  501  0.00000000000E+00  0.00000000000E+00 -0.62632847430E+03  0.62632848245E+03  0.10100000352E+00 0. -1.
    10030    2    1    2    0    0  0.00000000000E+00  0.00000000000E+00  0.10933381429E+04  0.23459951026E+04  0.20756456169E+04 0.  0.
        4    1    3    3  502    0 -0.82177676275E+03 -0.12451077139E+03 -0.15577333244E+03  0.84562812393E+03  0.12699999809E+01 0. -1.
       -4    1    3    3    0  502  0.82177676275E+03  0.12451077139E+03  0.12491114753E+04  0.15003669787E+04  0.12699999809E+01 0.  1.
</event>
<event>
 5   0  0.1390735E-05  0.2070991E+04  0.7818609E-02  0.8574131E-01
        2   -1    0    0  501    0  0.00000000000E+00  0.00000000000E+00  0.14302440659E+04  0.14302440660E+04  0.25500000920E-02 0. -1.
       -2   -1    0    0    0  501  0.00000000000E+00  0.00000000000E+00 -0.74969810857E+03  0.74969810857E+03  0.25500000920E-02 0.  1.
    10030    2    1    2    0    0  0.00000000000E+00  0.00000000000E+00  0.68054595738E+03  0.21799421745E+04  0.20709913288E+04 0.  0.
        5    1    3    3  502    0  0.74949212796E+03 -0.17015898871E+03  0.10707076281E+04  0.13180020661E+04  0.46999998093E+01 0. -1.
       -5    1    3    3    0  502 -0.74949212796E+03  0.17015898871E+03 -0.39016167070E+03  0.86194010847E+03  0.46999998093E+01 0.  1.
</event>
<event>
 5   0  0.1395356E-05  0.2098431E+04  0.7818609E-02  0.8561935E-01
       -2   -1    0    0    0  501  0.00000000000E+00  0.00000000000E+00  0.59930689867E+03  0.59930689868E+03  0.25500000920E-02 0. -1.
        2   -1    0    0  501    0  0.00000000000E+00  0.00000000000E+00 -0.18368771251E+04  0.18368771251E+04  0.25500000920E-02 0.  1.
    10030    2    1    2    0    0  0.00000000000E+00  0.00000000000E+00 -0.12375702264E+04  0.24361840237E+04  0.20984309691E+04 0.  0.
        1    1    3    3  502    0 -0.23238748915E+02  0.10322153505E+03  0.59309760113E+03  0.60246119314E+03  0.50400001928E-02 0. -1.
       -1    1    3    3    0  502  0.23238748915E+02 -0.10322153505E+03 -0.18306678275E+04  0.18337228306E+04  0.50400001928E-02 0.  1.
</event>
<event>
 5   0  0.1441136E-05  0.2099683E+04  0.7818609E-02  0.8561383E-01
       -2   -1    0    0    0  501  0.00000000000E+00  0.00000000000E+00  0.12025623852E+04  0.12025623852E+04  0.25500000920E-02 0.  1.
        2   -1    0    0  501    0  0.00000000000E+00  0.00000000000E+00 -0.91651582044E+03  0.91651582045E+03  0.25500000920E-02 0. -1.
    10030    2    1    2    0    0  0.00000000000E+00  0.00000000000E+00  0.28604656476E+03  0.21190782057E+04  0.20996832629E+04 0.  0.
        4    1    3    3  502    0  0.21669144350E+02 -0.73720636432E+03 -0.61102140786E+03  0.95775338640E+03  0.12699999809E+01 0. -1.
       -4    1    3    3    0  502 -0.21669144350E+02  0.73720636432E+03  0.89706797261E+03  0.11613248192E+04  0.12699999809E+01 0.  1.
</event>
<event>
 5   0  0.6599245E-06  0.2099087E+04  0.7818609E-02  0.8561646E-01
        1   -1    0    0  501    0  0.00000000000E+00  0.00000000000E+00  0.20733756385E+04  0.20733756385E+04  0.50400001928E-02 0.  1.
       -1   -1    0    0    0  501  0.00000000000E+00  0.00000000000E+00 -0.53127910587E+03  0.53127910590E+03  0.50400001928E-02 0. -1.
    10030    2    1    2    0    0  0.00000000000E+00  0.00000000000E+00  0.15420965327E+04  0.26046547444E+04  0.20990866160E+04 0.  0.
        2    1    3    3  502    0 -0.52507795805E+03 -0.13886565417E+03  0.18854341969E+04  0.19621041366E+04  0.25500000920E-02 0.  1.
       -2    1    3    3    0  502  0.52507795805E+03  0.13886565417E+03 -0.34333766425E+03  0.64255060784E+03  0.25500000920E-02 0. -1.
</event>
<event>
 5   0  0.6599245E-06  0.2092079E+04  0.7818609E-02  0.8564741E-01
        1   -1    0    0  501    0  0.00000000000E+00  0.00000000000E+00  0.87805748241E+03  0.87805748242E+03  0.50400001928E-02 0.  1.
       -1   -1    0    0    0  501  0.00000000000E+00  0.00000000000E+00 -0.12461583935E+04  0.12461583935E+04  0.50400001928E-02 0. -1.
    10030    2    1    2    0    0  0.00000000000E+00  0.00000000000E+00 -0.36810091111E+03  0.21242158760E+04  0.20920790632E+04 0.  0.
        2    1    3    3  502    0  0.13629665302E+03  0.17679626866E+03 -0.12216904728E+04  0.12419183989E+04  0.25500000920E-02 0. -1.
       -2    1    3    3    0  502 -0.13629665302E+03 -0.17679626866E+03  0.85358956166E+03  0.88229747706E+03  0.25500000920E-02 0.  1.
</event>
<event>
 5   0  0.1390735E-05  0.2099368E+04  0.7818609E-02  0.8561522E-01
        2   -1    0    0  501    0  0.00000000000E+00  0.00000000000E+00  0.15872606801E+04  0.15872606801E+04  0.25500000920E-02 0. -1.
       -2   -1    0    0    0  501  0.00000000000E+00  0.00000000000E+00 -0.69417465869E+03  0.69417465869E+03  0.25500000920E-02 0.  1.
    10030    2    1    2    0    0  0.00000000000E+00  0.00000000000E+00  0.89308602141E+03  0.22814353388E+04  0.20993676580E+04 0.  0.
        5    1    3    3  502    0 -0.58008791086E+03  0.75244347764E+03  0.93149625876E+03  0.13305564781E+04  0.46999998093E+01 0. -1.
       -5    1    3    3    0  502  0.58008791086E+03 -0.75244347764E+03 -0.38410237351E+02  0.95087886068E+03  0.46999998093E+01 0.  1.
</event>
<event>
 5   0  0.1344501E-05  0.2102410E+04  0.7818609E-02  0.8560182E-01
        2   -1    0    0  501    0  0.00000000000E+00  0.00000000000E+00  0.17052630434E+04  0.17052630434E+04  0.25500000920E-02 0.  1.
       -2   -1    0    0    0  501  0.00000000000E+00  0.00000000000E+00 -0.64801273124E+03  0.64801273124E+03  0.25500000920E-02 0. -1.
    10030    2    1    2    0    0  0.00000000000E+00  0.00000000000E+00  0.10572503122E+04  0.23532757746E+04  0.21024102000E+04 0.  0.
        3    1    3    3  502    0 -0.12351988863E+01  0.16722540852E+03 -0.63302829177E+03  0.65474475282E+03  0.10100000352E+00 0. -1.
       -3    1    3    3    0  502  0.12351988863E+01 -0.16722540852E+03  0.16902786039E+04  0.16985310218E+04  0.10100000352E+00 0.  1.
</event>
<event>
 5   0  0.6599245E-06  0.2101847E+04  0.7818609E-02  0.8560430E-01
       -1   -1    0    0    0  501  0.00000000000E+00  0.00000000000E+00  0.15125896269E+04  0.15125896269E+04  0.50400001928E-02 0.  1.
        1   -1    0    0  501    0  0.00000000000E+00  0.00000000000E+00 -0.73016513172E+03  0.73016513174E+03  0.50400001928E-02 0. -1.
    10030    2    1    2    0    0  0.00000000000E+00  0.00000000000E+00  0.78242449518E+03  0.22427547587E+04  0.21018470013E+04 0.  0.
        2    1    3    3  502    0  0.53914132086E+03 -0.83479467157E+03  0.26408312477E+02  0.99410910192E+03  0.25500000920E-02 0. -1.
       -2    1    3    3    0  502 -0.53914132086E+03  0.83479467157E+03  0.75601618270E+03  0.12486456567E+04  0.25500000920E-02 0.  1.
</event>
<event>
 5   0  0.1441136E-05  0.2104067E+04  0.7818609E-02  0.8559454E-01
       -2   -1    0    0    0  501  0.00000000000E+00  0.00000000000E+00  0.14386923147E+04  0.14386923147E+04  0.25500000920E-02 0.  1.
        2   -1    0    0  501    0  0.00000000000E+00  0.00000000000E+00 -0.76929192622E+03  0.76929192622E+03  0.25500000920E-02 0. -1.
    10030    2    1    2    0    0  0.00000000000E+00  0.00000000000E+00  0.66940038851E+03  0.22079842409E+04  0.21040669020E+04 0.  0.
        4    1    3    3  502    0  0.68591402253E+03 -0.77164084347E+02  0.11678517419E+04  0.13565808660E+04  0.12699999809E+01 0.  1.
       -4    1    3    3    0  502 -0.68591402253E+03  0.77164084347E+02 -0.49845135337E+03  0.85140337490E+03  0.12699999809E+01 0. -1.
</event>
<event>
 5   0  0.6599245E-06  0.2097792E+04  0.7818609E-02  0.8562217E-01
        1   -1    0    0  501    0  0.00000000000E+00  0.00000000000E+00  0.82626251001E+03  0.82626251003E+03  0.50400001928E-02 0.  1.
       -1   -1    0    0    0  501  0.00000000000E+00  0.00000000000E+00 -0.13315174693E+04  0.13315174693E+04  0.50400001928E-02 0. -1.
    10030    2    1    2    0    0  0.00000000000E+00  0.00000000000E+00 -0.50525495926E+03  0.21577799793E+04  0.20977921406E+04 0.  0.
        2    1    3    3  502    0  0.41557795947E+03 -0.86468445382E+03  0.18352465720E+03  0.97676278844E+03  0.25500000920E-02 0.  1.
       -2    1    3    3    0  502 -0.41557795947E+03  0.86468445382E+03 -0.68877961646E+03  0.11810171909E+04  0.25500000920E-02 0. -1.
</event>
<event>
 5   0  0.6589193E-06  0.2099570E+04  0.7818609E-02  0.8561433E-01
        1   -1    0    0  501    0  0.00000000000E+00  0.00000000000E+00  0.94977153606E+03  0.94977153607E+03  0.50400001928E-02 0. -1.
       -1   -1    0    0    0  501  0.00000000000E+00  0.00000000000E+00 -0.11603303515E+04  0.11603303515E+04  0.50400001928E-02 0.  1.
    10030    2    1    2    0    0  0.00000000000E+00  0.00000000000E+00 -0.21055881544E+03  0.21101018876E+04  0.20995701849E+04 0.  0.
        3    1    3    3  502    0 -0.68371141310E+03  0.47768572030E+03  0.53541642883E+03  0.99111841182E+03  0.10100000352E+00 0.  1.
       -3    1    3    3    0  502  0.68371141310E+03 -0.47768572030E+03 -0.74597524428E+03  0.11189834758E+04  0.10100000352E+00 0. -1.
</event>
<event>
 5   0  0.1395356E-05  0.2108782E+04  0.7818609E-02  0.8557385E-01
        2   -1    0    0  501    0  0.00000000000E+00  0.00000000000E+00  0.16201007406E+04  0.16201007406E+04  0.25500000920E-02 0. -1.
       -2   -1    0    0    0  501  0.00000000000E+00  0.00000000000E+00 -0.68621696603E+03  0.68621696604E+03  0.25500000920E-02 0.  1.
    10030    2    1    2    0    0  0.00000000000E+00  0.00000000000E+00  0.93388377457E+03  0.23063177066E+04  0.21087822219E+04 0.  0.
        1    1    3    3  502    0  0.77960490152E+03  0.62915888215E+02  0.12402840889E+04  0.14663037996E+04  0.50400001928E-02 0. -1.
       -1    1    3    3    0  502 -0.77960490152E+03 -0.62915888215E+02 -0.30640031431E+03  0.84001390708E+03  0.50400001928E-02 0.  1.
</event>
<event>
 5   0  0.6599245E-06  0.2096112E+04  0.7818609E-02  0.8562958E-01
        1   -1    0    0  501    0  0.00000000000E+00  0.00000000000E+00  0.15421768453E+04  0.15421768453E+04  0.50400001928E-02 0.  1.
       -1   -1    0    0    0  501  0.00000000000E+00  0.00000000000E+00 -0.71225382270E+03  0.71225382272E+03  0.50400001928E-02 0. -1.
    10030    2    1    2    0    0  0.00000000000E+00  0.00000000000E+00  0.82992302261E+03  0.22544306680E+04  0.20961119754E+04 0.  0.
        2    1    3    3  502    0 -0.15500735688E+03  0.10014438017E+04  0.70256141837E+03  0.12330894190E+04  0.25500000920E-02 0.  1.
       -2    1    3    3    0  502  0.15500735688E+03 -0.10014438017E+04  0.12736160423E+03  0.10213412490E+04  0.25500000920E-02 0. -1.
</event>
<event>
 5   0  0.1395356E-05  0.2087915E+04  0.7818609E-02  0.8566586E-01
       -2   -1    0    0    0  501  0.00000000000E+00  0.00000000000E+00  0.84036189748E+03  0.84036189748E+03  0.25500000920E-02 0.  1.
        2   -1    0    0  501    0  0.00000000000E+00  0.00000000000E+00 -0.12968779616E+04  0.12968779616E+04  0.25500000920E-02 0. -1.
    10030    2    1    2    0    0  0.00000000000E+00  0.00000000000E+00 -0.45651606411E+03  0.21372398591E+04  0.20879145812E+04 0.  0.
        1    1    3    3  502    0  0.86354113944E+02  0.37336480092E+03 -0.12222748674E+04  0.12809426838E+04  0.50400001928E-02 0. -1.
       -1    1    3    3    0  502 -0.86354113944E+02 -0.37336480092E+03  0.76575880331E+03  0.85629717530E+03  0.50400001928E-02 0.  1.
</event>
<event>
 5   0  0.1344501E-05  0.2097755E+04  0.7818609E-02  0.8562233E-01
       -2   -1    0    0    0  501  0.00000000000E+00  0.00000000000E+00  0.70064391213E+03  0.70064391214E+03  0.25500000920E-02 0. -1.
        2   -1    0    0  501    0  0.00000000000E+00  0.00000000000E+00 -0.15701901608E+04  0.15701901608E+04  0.25500000920E-02 0.  1.
    10030    2    1    2    0    0  0.00000000000E+00  0.00000000000E+00 -0.86954624867E+03  0.22708340729E+04  0.20977551593E+04 0.  0.
        3    1    3    3  502    0  0.19168862059E+03  0.92795729815E+03  0.52108140233E+02  0.94898079166E+03  0.10100000352E+00 0. -1.
       -3    1    3    3    0  502 -0.19168862059E+03 -0.92795729815E+03 -0.92165438890E+03  0.13218532813E+04  0.10100000352E+00 0.  1.
</event>
<event>
 5   0  0.6283269E-06  0.2101372E+04  0.7818609E-02  0.8560639E-01
       -1   -1    0    0    0  501  0.00000000000E+00  0.00000000000E+00  0.10640758341E+04  0.10640758341E+04  0.50400001928E-02 0.  1.
        1   -1    0    0  501    0  0.00000000000E+00  0.00000000000E+00 -0.10374644427E+04  0.10374644427E+04  0.50400001928E-02 0. -1.
    10030    2    1    2    0    0  0.00000000000E+00  0.00000000000E+00  0.26611391478E+02  0.21015402768E+04  0.21013717826E+04 0.  0.
        1    1    3    3  502    0 -0.46469904109E+03  0.31897579047E+03  0.90008423700E+03  0.10619992408E+04  0.50400001928E-02 0.  1.
       -1    1    3    3    0  502  0.46469904109E+03 -0.31897579047E+03 -0.87347284552E+03  0.10395410360E+04  0.50400001928E-02 0. -1.
</event>
<event>
 5   0  0.6283269E-06  0.2135174E+04  0.7818609E-02  0.8545905E-01
        1   -1    0    0  501    0  0.00000000000E+00  0.00000000000E+00  0.66162093179E+03  0.66162093181E+03  0.50400001928E-02 0. -1.
       -1   -1    0    0    0  501  0.00000000000E+00  0.00000000000E+00 -0.17226507716E+04  0.17226507716E+04  0.50400001928E-02 0.  1.
    10030    2    1    2    0    0  0.00000000000E+00  0.00000000000E+00 -0.10610298398E+04  0.23842717034E+04  0.21351738184E+04 0.  0.
        1    1    3    3  502    0  0.63032119765E+03  0.56274930684E+02 -0.14906317624E+04  0.16193994971E+04  0.50400001928E-02 0.  1.
       -1    1    3    3    0  502 -0.63032119765E+03 -0.56274930684E+02  0.42960192263E+03  0.76487220631E+03  0.50400001928E-02 0. -1.
</event>
<event>
 5   0  0.1395356E-05  0.2100214E+04  0.7818609E-02  0.8561149E-01
       -2   -1    0    0    0  501  0.00000000000E+00  0.00000000000E+00  0.11289283669E+04  0.11289283669E+04  0.25500000920E-02 0. -1.
        2   -1    0    0  501    0  0.00000000000E+00  0.00000000000E+00 -0.97678916700E+03  0.97678916700E+03  0.25500000920E-02 0.  1.
    10030    2    1    2    0    0  0.00000000000E+00  0.00000000000E+00  0.15213919988E+03  0.21057175339E+04  0.21002142739E+04 0.  0.
        1    1    3    3  502    0  0.86734630858E+03  0.40730792316E+03 -0.35463214411E+03  0.10217403393E+04  0.50400001928E-02 0. -1.
       -1    1    3    3    0  502 -0.86734630858E+03 -0.40730792316E+03  0.50677134399E+03  0.10839771946E+04  0.50400001928E-02 0.  1.
</event>
<event>
 5   0  0.6599245E-06  0.2100356E+04  0.7818609E-02  0.8561087E-01
       -1   -1    0    0    0  501  0.00000000000E+00  0.00000000000E+00  0.56457191179E+03  0.56457191181E+03  0.50400001928E-02 0. -1.
        1   -1    0    0  501    0  0.00000000000E+00  0.00000000000E+00 -0.19534685874E+04  0.19534685874E+04  0.50400001928E-02 0.  1.
    10030    2    1    2    0    0  0.00000000000E+00  0.00000000000E+00 -0.13888966756E+04  0.25180404992E+04  0.21003556794E+04 0.  0.
        2    1    3    3  502    0  0.94228022698E+03  0.45102697065E+03 -0.82332559197E+03  0.13301061555E+04  0.25500000920E-02 0.  1.
       -2    1    3    3    0  502 -0.94228022698E+03 -0.45102697065E+03 -0.56557108366E+03  0.11879343438E+04  0.25500000920E-02 0. -1.
</event>
<event>
 5   0  0.6283269E-06  0.2097725E+04  0.7818609E-02  0.8562246E-01
        1   -1    0    0  501    0  0.00000000000E+00  0.00000000000E+00  0.13034322439E+04  0.13034322439E+04  0.50400001928E-02 0. -1.
       -1   -1    0    0    0  501  0.00000000000E+00  0.00000000000E+00 -0.84401195459E+03  0.84401195461E+03  0.50400001928E-02 0.  1.
    10030    2    1    2    0    0  0.00000000000E+00  0.00000000000E+00  0.45942028934E+03  0.21474441985E+04  0.20977248589E+04 0.  0.
        1    1    3    3  502    0 -0.36904711817E+03  0.17965296289E+03 -0.75838271318E+03  0.86233131810E+03  0.50400001928E-02 0.  1.
       -1    1    3    3    0  502  0.36904711817E+03 -0.17965296289E+03  0.12178030025E+04  0.12851128804E+04  0.50400001928E-02 0. -1.
</event>
<event>
 5   0  0.1344501E-05  0.2099864E+04  0.7818609E-02  0.8561303E-01
       -2   -1    0    0    0  501  0.00000000000E+00  0.00000000000E+00  0.11933136430E+04  0.11933136430E+04  0.25500000920E-02 0. -1.
        2   -1    0    0  501    0  0.00000000000E+00  0.00000000000E+00 -0.92377790563E+03  0.92377790563E+03  0.25500000920E-02 0.  1.
    10030    2    1    2    0    0  0.00000000000E+00  0.00000000000E+00  0.26953573741E+03  0.21170915487E+04  0.20998635936E+04 0.  0.
        3    1    3    3  502    0  0.17496516574E+03  0.69985176574E+03  0.90388402993E+03  0.11564651543E+04  0.10100000352E+00 0. -1.
       -3    1    3    3    0  502 -0.17496516574E+03 -0.69985176574E+03 -0.63434829252E+03  0.96062639442E+03  0.10100000352E+00 0.  1.
</event>
<event>
 5   0  0.6238363E-06  0.2098437E+04  0.7818609E-02  0.8561932E-01
        1   -1    0    0  501    0  0.00000000000E+00  0.00000000000E+00  0.85491354986E+03  0.85491354987E+03  0.50400001928E-02 0.  1.
       -1   -1    0    0    0  501  0.00000000000E+00  0.00000000000E+00 -0.12876848633E+04  0.12876848633E+04  0.50400001928E-02 0. -1.
    10030    2    1    2    0    0  0.00000000000E+00  0.00000000000E+00 -0.43277131343E+03  0.21425984132E+04  0.20984367873E+04 0.  0.
        4    1    3    3  502    0  0.35831008845E+03 -0.98425735558E+03 -0.27856858215E+03  0.10838591834E+04  0.12699999809E+01 0. -1.
       -4    1    3    3    0  502 -0.35831008845E+03  0.98425735558E+03 -0.15420273128E+03  0.10587392298E+04  0.12699999809E+01 0.  1.
</event>
<event>
 5   0  0.6238363E-06  0.2091918E+04  0.7818609E-02  0.8564812E-01
       -1   -1    0    0    0  501  0.00000000000E+00  0.00000000000E+00  0.57977547996E+03  0.57977547998E+03  0.50400001928E-02 0. -1.
        1   -1    0    0  501    0  0.00000000000E+00  0.00000000000E+00 -0.18869902203E+04  0.18869902203E+04  0.50400001928E-02 0.  1.
    10030    2    1    2    0    0  0.00000000000E+00  0.00000000000E+00 -0.13072147403E+04  0.24667657002E+04  0.20919184120E+04 0.  0.
        4    1    3    3  502    0 -0.21052642323E+03 -0.10007251954E+04 -0.91264462027E+03  0.13706546273E+04  0.12699999809E+01 0. -1.
       -4    1    3    3    0  502  0.21052642323E+03  0.10007251954E+04 -0.39457012004E+03  0.10961110729E+04  0.12699999809E+01 0.  1.
</event>
<event>
 5   0  0.6238363E-06  0.2101743E+04  0.7818609E-02  0.8560476E-01
       -1   -1    0    0    0  501  0.00000000000E+00  0.00000000000E+00  0.55820364699E+03  0.55820364701E+03  0.50400001928E-02 0.  1.
        1   -1    0    0  501    0  0.00000000000E+00  0.00000000000E+00 -0.19783654990E+04  0.19783654990E+04  0.50400001928E-02 0. -1.
    10030    2    1    2    0    0  0.00000000000E+00  0.00000000000E+00 -0.14201618520E+04  0.25365691461E+04  0.21017429307E+04 0.  0.
        4    1    3    3  502    0  0.14495723139E+02  0.99176668939E+03 -0.11290605908E+04  0.15028608461E+04  0.12699999809E+01 0.  1.
       -4    1    3    3    0  502 -0.14495723139E+02 -0.99176668939E+03 -0.29110126125E+03  0.10337082999E+04  0.12699999809E+01 0. -1.
</event>
<event>
 5   0  0.1398469E-05  0.2097223E+04  0.7818609E-02  0.8562468E-01
        2   -1    0    0  501    0  0.00000000000E+00  0.00000000000E+00  0.17343319820E+04  0.17343319820E+04  0.25500000920E-02 0.  1.
       -2   -1    0    0    0  501  0.00000000000E+00  0.00000000000E+00 -0.63401144291E+03  0.63401144292E+03  0.25500000920E-02 0. -1.
    10030    2    1    2    0    0  0.00000000000E+00  0.00000000000E+00  0.11003205390E+04  0.23683434249E+04  0.20972232331E+04 0.  0.
        2    1    3    3  502    0 -0.50941431311E+03 -0.89697947516E+03  0.33735484275E+03  0.10853033729E+04  0.25500000920E-02 0.  1.
       -2    1    3    3    0  502  0.50941431311E+03  0.89697947516E+03  0.76296569630E+03  0.12830400520E+04  0.25500000920E-02 0. -1.
</event>
<event>
 5   0  0.1441136E-05  0.2098063E+04  0.7818609E-02  0.8562097E-01
        2   -1    0    0  501    0  0.00000000000E+00  0.00000000000E+00  0.18019932355E+04  0.18019932355E+04  0.25500000920E-02 0.  1.
       -2   -1    0    0    0  501  0.00000000000E+00  0.00000000000E+00 -0.61069421212E+03  0.61069421213E+03  0.25500000920E-02 0. -1.
    10030    2    1    2    0    0  0.00000000000E+00  0.00000000000E+00  0.11912990233E+04  0.24126874476E+04  0.20980627628E+04 0.  0.
        4    1    3    3  502    0  0.32267602775E+03  0.29106540300E+03 -0.50232187138E+03  0.66420460934E+03  0.12699999809E+01 0. -1.
       -4    1    3    3    0  502 -0.32267602775E+03 -0.29106540300E+03  0.16936208947E+04  0.17484828382E+04  0.12699999809E+01 0.  1.
</event>
<event>
 5   0  0.1344501E-05  0.2098950E+04  0.7818609E-02  0.8561706E-01
        2   -1    0    0  501    0  0.00000000000E+00  0.00000000000E+00  0.22514092728E+04  0.22514092728E+04  0.25500000920E-02 0. -1.
       -2   -1    0    0    0  501  0.00000000000E+00  0.00000000000E+00 -0.48920348061E+03  0.48920348062E+03  0.25500000920E-02 0.  1.
    10030    2    1    2    0    0  0.00000000000E+00  0.00000000000E+00  0.17622057922E+04  0.27406127535E+04  0.20989495016E+04 0.  0.
        3    1    3    3  502    0  0.42417639994E+03 -0.32444869838E+02  0.21337780432E+04  0.21757727445E+04  0.10100000352E+00 0. -1.
       -3    1    3    3    0  502 -0.42417639994E+03  0.32444869838E+02 -0.37157225097E+03  0.56484000897E+03  0.10100000352E+00 0.  1.
</event>
<event>
 5   0  0.6589193E-06  0.2103835E+04  0.7818609E-02  0.8559556E-01
        1   -1    0    0  501    0  0.00000000000E+00  0.00000000000E+00  0.18971180221E+04  0.18971180221E+04  0.50400001928E-02 0. -1.
       -1   -1    0    0    0  501  0.00000000000E+00  0.00000000000E+00 -0.58326890012E+03  0.58326890014E+03  0.50400001928E-02 0.  1.
    10030    2    1    2    0    0  0.00000000000E+00  0.00000000000E+00  0.13138491220E+04  0.24803869223E+04  0.21038345393E+04 0.  0.
        3    1    3    3  502    0 -0.13712766100E+03 -0.40797520115E+03 -0.47470474415E+03  0.64077481574E+03  0.10100000352E+00 0.  1.
       -3    1    3    3    0  502  0.13712766100E+03  0.40797520115E+03  0.17885538662E+04  0.18396121065E+04  0.10100000352E+00 0. -1.
</event>
<event>
 5   0  0.1344501E-05  0.2103947E+04  0.7818609E-02  0.8559507E-01
        2   -1    0    0  501    0  0.00000000000E+00  0.00000000000E+00  0.17045280843E+04  0.17045280843E+04  0.25500000920E-02 0. -1.
       -2   -1    0    0    0  501  0.00000000000E+00  0.00000000000E+00 -0.64923999473E+03  0.64923999474E+03  0.25500000920E-02 0.  1.
    10030    2    1    2    0    0  0.00000000000E+00  0.00000000000E+00  0.10552880896E+04  0.23537680791E+04  0.21039465816E+04 0.  0.
        3    1    3    3  502    0 -0.77570527674E+03  0.33247970235E+03 -0.17492644797E+03  0.86189367166E+03  0.10100000352E+00 0.  1.
       -3    1    3    3    0  502  0.77570527674E+03 -0.33247970235E+03  0.12302145376E+04  0.14918744074E+04  0.10100000352E+00 0. -1.
</event>
<event>
 5   0  0.1398469E-05  0.2080376E+04  0.7818609E-02  0.8569938E-01
        2   -1    0    0  501    0  0.00000000000E+00  0.00000000000E+00  0.11713842449E+04  0.11713842449E+04  0.25500000920E-02 0. -1.
       -2   -1    0    0    0  501  0.00000000000E+00  0.00000000000E+00 -0.92368562164E+03  0.92368562164E+03  0.25500000920E-02 0.  1.
    10030    2    1    2    0    0  0.00000000000E+00  0.00000000000E+00  0.24769862325E+03  0.20950698665E+04  0.20803757203E+04 0.  0.
        2    1    3    3  502    0  0.30531698217E+03  0.88688024383E+03 -0.32901096929E+03  0.99399358369E+03  0.25500000920E-02 0.  1.
       -2    1    3    3    0  502 -0.30531698217E+03 -0.88688024383E+03  0.57670959254E+03  0.11010762828E+04  0.25500000920E-02 0. -1.
</event>
<event>
 5   0  0.6589193E-06  0.2102239E+04  0.7818609E-02  0.8560258E-01
        1   -1    0    0  501    0  0.00000000000E+00  0.00000000000E+00  0.21909218644E+04  0.21909218644E+04  0.50400001928E-02 0.  1.
       -1   -1    0    0    0  501  0.00000000000E+00  0.00000000000E+00 -0.50428665631E+03  0.50428665634E+03  0.50400001928E-02 0. -1.
    10030    2    1    2    0    0  0.00000000000E+00  0.00000000000E+00  0.16866352081E+04  0.26952085207E+04  0.21022394357E+04 0.  0.
        3    1    3    3  502    0 -0.79987336036E+03  0.36997831365E+03  0.10887054711E+03  0.88799445461E+03  0.10100000352E+00 0. -1.
       -3    1    3    3    0  502  0.79987336036E+03 -0.36997831365E+03  0.15777646610E+04  0.18072140661E+04  0.10100000352E+00 0.  1.
</event>
<event>
 5   0  0.1390735E-05  0.2078962E+04  0.7818609E-02  0.8570568E-01
        2   -1    0    0  501    0  0.00000000000E+00  0.00000000000E+00  0.69722300289E+03  0.69722300290E+03  0.25500000920E-02 0. -1.
       -2   -1    0    0    0  501  0.00000000000E+00  0.00000000000E+00 -0.15497496668E+04  0.15497496668E+04  0.25500000920E-02 0.  1.
    10030    2    1    2    0    0  0.00000000000E+00  0.00000000000E+00 -0.85252666392E+03  0.22469726697E+04  0.20789623531E+04 0.  0.
        5    1    3    3  502    0 -0.98854641968E+03  0.59092525374E+02 -0.76767598234E+03  0.12530221284E+04  0.46999998093E+01 0.  1.
       -5    1    3    3    0  502  0.98854641968E+03 -0.59092525374E+02 -0.84850681579E+02  0.99395054131E+03  0.46999998093E+01 0. -1.
</event>
<event>
 5   0  0.6917078E-06  0.2090772E+04  0.7818609E-02  0.8565320E-01
        1   -1    0    0  501    0  0.00000000000E+00  0.00000000000E+00  0.59669277161E+03  0.59669277163E+03  0.50400001928E-02 0. -1.
       -1   -1    0    0    0  501  0.00000000000E+00  0.00000000000E+00 -0.18314808467E+04  0.18314808467E+04  0.50400001928E-02 0.  1.
    10030    2    1    2    0    0  0.00000000000E+00  0.00000000000E+00 -0.12347880751E+04  0.24281736184E+04  0.20907715156E+04 0.  0.
        5    1    3    3  502    0  0.10016176319E+04 -0.29677021146E+03 -0.66235677786E+03  0.12369515068E+04  0.46999998093E+01 0. -1.
       -5    1    3    3    0  502 -0.10016176319E+04  0.29677021146E+03 -0.57243129726E+03  0.11912221116E+04  0.46999998093E+01 0.  1.
</event>
<event>
 5   0  0.1390735E-05  0.2101212E+04  0.7818609E-02  0.8560710E-01
        2   -1    0    0  501    0  0.00000000000E+00  0.00000000000E+00  0.24275780668E+04  0.24275780668E+04  0.25500000920E-02 0. -1.
       -2   -1    0    0    0  501  0.00000000000E+00  0.00000000000E+00 -0.45468065741E+03  0.45468065742E+03  0.25500000920E-02 0.  1.
    10030    2    1    2    0    0  0.00000000000E+00  0.00000000000E+00  0.19728974094E+04  0.28822587242E+04  0.21012118326E+04 0.  0.
        5    1    3    3  502    0  0.58086376962E+03  0.33595770750E+03  0.20953155748E+04  0.22001453925E+04  0.46999998093E+01 0. -1.
       -5    1    3    3    0  502 -0.58086376962E+03 -0.33595770750E+03 -0.12241816542E+03  0.68211333172E+03  0.46999998093E+01 0.  1.
</event>
<event>
 5   0  0.1395356E-05  0.2104139E+04  0.7818609E-02  0.8559422E-01
        2   -1    0    0  501    0  0.00000000000E+00  0.00000000000E+00  0.13223775983E+04  0.13223775983E+04  0.25500000920E-02 0. -1.
       -2   -1    0    0    0  501  0.00000000000E+00  0.00000000000E+00 -0.83701494433E+03  0.83701494434E+03  0.25500000920E-02 0.  1.
    10030    2    1    2    0    0  0.00000000000E+00  0.00000000000E+00  0.48536265397E+03  0.21593925426E+04  0.21041385998E+04 0.  0.
        1    1    3    3  502    0  0.84288377264E+03  0.47684380896E+02  0.88695905763E+03  0.12245093811E+04  0.50400001928E-02 0. -1.
       -1    1    3    3    0  502 -0.84288377264E+03 -0.47684380896E+02 -0.40159640367E+03  0.93488316159E+03  0.50400001928E-02 0.  1.
</event>
<event>
 5   0  0.1441136E-05  0.2101705E+04  0.7818609E-02  0.8560493E-01
        2   -1    0    0  501    0  0.00000000000E+00  0.00000000000E+00  0.51929573212E+03  0.51929573212E+03  0.25500000920E-02 0. -1.
       -2   -1    0    0    0  501  0.00000000000E+00  0.00000000000E+00 -0.21265172335E+04  0.21265172335E+04  0.25500000920E-02 0.  1.
    10030    2    1    2    0    0  0.00000000000E+00  0.00000000000E+00 -0.16072215014E+04  0.26458129657E+04  0.21017053301E+04 0.  0.
        4    1    3    3  502    0  0.11444503671E+03 -0.59892107072E+03 -0.18810352806E+04  0.19773971415E+04  0.12699999809E+01 0.  1.
       -4    1    3    3    0  502 -0.11444503671E+03  0.59892107072E+03  0.27381377922E+03  0.66841582415E+03  0.12699999809E+01 0. -1.
</event>
<event>
 5   0  0.6589193E-06  0.2160338E+04  0.7818609E-02  0.8535120E-01
       -1   -1    0    0    0  501  0.00000000000E+00  0.00000000000E+00  0.59879791101E+03  0.59879791103E+03  0.50400001928E-02 0. -1.
        1   -1    0    0  501    0  0.00000000000E+00  0.00000000000E+00 -0.19485129036E+04  0.19485129036E+04  0.50400001928E-02 0.  1.
    10030    2    1    2    0    0  0.00000000000E+00  0.00000000000E+00 -0.13497149926E+04  0.25473108146E+04  0.21603383589E+04 0.  0.
        3    1    3    3  502    0 -0.93625393616E+03  0.17076959817E+03 -0.72427156196E+02  0.95445240415E+03  0.10100000352E+00 0.  1.
       -3    1    3    3    0  502  0.93625393616E+03 -0.17076959817E+03 -0.12772878364E+04  0.15928584105E+04  0.10100000352E+00 0. -1.
</event>
<event>
 5   0  0.6238363E-06  0.2104610E+04  0.7818609E-02  0.8559215E-01
       -1   -1    0    0    0  501  0.00000000000E+00  0.00000000000E+00  0.15563895295E+04  0.15563895295E+04  0.50400001928E-02 0. -1.
        1   -1    0    0  501    0  0.00000000000E+00  0.00000000000E+00 -0.71148357303E+03  0.71148357305E+03  0.50400001928E-02 0.  1.
    10030    2    1    2    0    0  0.00000000000E+00  0.00000000000E+00  0.84490595643E+03  0.22678731025E+04  0.21046097819E+04 0.  0.
        4    1    3    3  502    0 -0.88497844636E+03 -0.54893944100E+03  0.58524376489E+03  0.11945849646E+04  0.12699999809E+01 0.  1.
       -4    1    3    3    0  502  0.88497844636E+03  0.54893944100E+03  0.25966219154E+03  0.10732881379E+04  0.12699999809E+01 0. -1.
</event>
<event>
 5   0  0.1395356E-05  0.2102264E+04  0.7818609E-02  0.8560247E-01
       -2   -1    0    0    0  501  0.00000000000E+00  0.00000000000E+00  0.59501372757E+03  0.59501372757E+03  0.25500000920E-02 0. -1.
        2   -1    0    0  501    0  0.00000000000E+00  0.00000000000E+00 -0.18568954844E+04  0.18568954844E+04  0.25500000920E-02 0.  1.
    10030    2    1    2    0    0  0.00000000000E+00  0.00000000000E+00 -0.12618817568E+04  0.24519092119E+04  0.21022638311E+04 0.  0.
        1    1    3    3  502    0 -0.73654151746E+02 -0.88191257260E+03  0.30561814183E+02  0.88551044279E+03  0.50400001928E-02 0.  1.
       -1    1    3    3    0  502  0.73654151746E+02  0.88191257260E+03 -0.12924435710E+04  0.15663987691E+04  0.50400001928E-02 0. -1.
</event>
<event>
 5   0  0.6238363E-06  0.2105105E+04  0.7818609E-02  0.8558998E-01
       -1   -1    0    0    0  501  0.00000000000E+00  0.00000000000E+00  0.71955688079E+03  0.71955688081E+03  0.50400001928E-02 0. -1.
        1   -1    0    0  501    0  0.00000000000E+00  0.00000000000E+00 -0.15396520198E+04  0.15396520198E+04  0.50400001928E-02 0.  1.
    10030    2    1    2    0    0  0.00000000000E+00  0.00000000000E+00 -0.82009513900E+03  0.22592089006E+04  0.21051054177E+04 0.  0.
        4    1    3    3  502    0  0.99463416599E+02 -0.22133345593E+03  0.68912782684E+03  0.73060265848E+03  0.12699999809E+01 0. -1.
       -4    1    3    3    0  502 -0.99463416599E+02  0.22133345593E+03 -0.15092229658E+04  0.15286062421E+04  0.12699999809E+01 0.  1.
</event>
<event>
 5   0  0.1441136E-05  0.2097983E+04  0.7818609E-02  0.8562132E-01
       -2   -1    0    0    0  501  0.00000000000E+00  0.00000000000E+00  0.11973784347E+04  0.11973784347E+04  0.25500000920E-02 0. -1.
        2   -1    0    0  501    0  0.00000000000E+00  0.00000000000E+00 -0.91899391653E+03  0.91899391653E+03  0.25500000920E-02 0.  1.
    10030    2    1    2    0    0  0.00000000000E+00  0.00000000000E+00  0.27838451812E+03  0.21163723512E+04  0.20979833147E+04 0.  0.
        4    1    3    3  502    0 -0.93114528057E+03 -0.48039914695E+03  0.19030202181E+03  0.10649090789E+04  0.12699999809E+01 0. -1.
       -4    1    3    3    0  502  0.93114528057E+03  0.48039914695E+03  0.88082496316E+02  0.10514632723E+04  0.12699999809E+01 0.  1.
</event>
<event>
 5   0  0.1390735E-05  0.2116581E+04  0.7818609E-02  0.8553974E-01
       -2   -1    0    0    0  501  0.00000000000E+00  0.00000000000E+00  0.74464433769E+03  0.74464433770E+03  0.25500000920E-02 0.  1.
        2   -1    0    0  501    0  0.00000000000E+00  0.00000000000E+00 -0.15040449473E+04  0.15040449473E+04  0.25500000920E-02 0. -1.
    10030    2    1    2    0    0  0.00000000000E+00  0.00000000000E+00 -0.75940060963E+03  0.22486892850E+04  0.21165807839E+04 0.  0.
        5    1    3    3  502    0 -0.72846622623E+03  0.30063952212E+02  0.43524242174E+03  0.84913187413E+03  0.46999998093E+01 0.  1.
       -5    1    3    3    0  502  0.72846622623E+03 -0.30063952212E+02 -0.11946430314E+04  0.13995574109E+04  0.46999998093E+01 0. -1.
</event>
<event>
 5   0  0.1390735E-05  0.2103000E+04  0.7818609E-02  0.8559923E-01
        2   -1    0    0  501    0  0.00000000000E+00  0.00000000000E+00  0.13982434215E+04  0.13982434215E+04  0.25500000920E-02 0.  1.
       -2   -1    0    0    0  501  0.00000000000E+00  0.00000000000E+00 -0.79074349533E+03  0.79074349533E+03  0.25500000920E-02 0. -1.
    10030    2    1    2    0    0  0.00000000000E+00  0.00000000000E+00  0.60749992613E+03  0.21889869168E+04  0.21029996580E+04 0.  0.
        5    1    3    3  502    0  0.38478445227E+03  0.93770438647E+03  0.59497769425E+03  0.11753166117E+04  0.46999998093E+01 0.  1.
       -5    1    3    3    0  502 -0.38478445227E+03 -0.93770438647E+03  0.12522231873E+02  0.10136703051E+04  0.46999998093E+01 0. -1.
</event>
<event>
 5   0  0.6238363E-06  0.2097671E+04  0.7818609E-02  0.8562270E-01
        1   -1    0    0  501    0  0.00000000000E+00  0.00000000000E+00  0.63680057472E+03  0.63680057474E+03  0.50400001928E-02 0.  1.
       -1   -1    0    0    0  501  0.00000000000E+00  0.00000000000E+00 -0.17274732159E+04  0.17274732159E+04  0.50400001928E-02 0. -1.
    10030    2    1    2    0    0  0.00000000000E+00  0.00000000000E+00 -0.10906726412E+04  0.23642737907E+04  0.20976710292E+04 0.  0.
        4    1    3    3  502    0 -0.39304652497E+03  0.40894158239E+03 -0.15396967129E+04  0.16408492829E+04  0.12699999809E+01 0. -1.
       -4    1    3    3    0  502  0.39304652497E+03 -0.40894158239E+03  0.44902407168E+03  0.72342450777E+03  0.12699999809E+01 0.  1.
</event>
<event>
 5   0  0.6238363E-06  0.2099877E+04  0.7818609E-02  0.8561298E-01
       -1   -1    0    0    0  501  0.00000000000E+00  0.00000000000E+00  0.82430421323E+03  0.82430421324E+03  0.50400001928E-02 0. -1.
        1   -1    0    0  501    0  0.00000000000E+00  0.00000000000E+00 -0.13373345609E+04  0.13373345609E+04  0.50400001928E-02 0.  1.
    10030    2    1    2    0    0  0.00000000000E+00  0.00000000000E+00 -0.51303034768E+03  0.21616387742E+04  0.20998766755E+04 0.  0.
        4    1    3    3  502    0 -0.73036656960E+03  0.71732096118E+03 -0.16451882706E+02  0.10238442092E+04  0.12699999809E+01 0. -1.
       -4    1    3    3    0  502  0.73036656960E+03 -0.71732096118E+03 -0.49657846498E+03  0.11377945650E+04  0.12699999809E+01 0.  1.
</event>
<event>
 5   0  0.6283269E-06  0.2101399E+04  0.7818609E-02  0.8560627E-01
       -1   -1    0    0    0  501  0.00000000000E+00  0.00000000000E+00  0.74360741455E+03  0.74360741456E+03  0.50400001928E-02 0. -1.
        1   -1    0    0  501    0  0.00000000000E+00  0.00000000000E+00 -0.14846134776E+04  0.14846134776E+04  0.50400001928E-02 0.  1.
    10030    2    1    2    0    0  0.00000000000E+00  0.00000000000E+00 -0.74100606302E+03  0.22282208921E+04  0.21013991431E+04 0.  0.
        1    1    3    3  502    0  0.50481614454E+03 -0.43602777862E+03  0.49028397369E+03  0.82785139874E+03  0.50400001928E-02 0. -1.
       -1    1    3    3    0  502 -0.50481614454E+03  0.43602777862E+03 -0.12312900367E+04  0.14003694934E+04  0.50400001928E-02 0.  1.
</event>
<event>
 5   0  0.1390735E-05  0.2099274E+04  0.7818609E-02  0.8561563E-01
       -2   -1    0    0    0  501  0.00000000000E+00  0.00000000000E+00  0.75695082345E+03  0.75695082346E+03  0.25500000920E-02 0.  1.
        2   -1    0    0  501    0  0.00000000000E+00  0.00000000000E+00 -0.14554944568E+04  0.14554944568E+04  0.25500000920E-02 0. -1.
    10030    2    1    2    0    0  0.00000000000E+00  0.00000000000E+00 -0.69854363331E+03  0.22124452802E+04  0.20992739007E+04 0.  0.
        5    1    3    3  502    0  0.13675189745E+03 -0.37917945720E+03 -0.13706607374E+04  0.14287095889E+04  0.46999998093E+01 0. -1.
       -5    1    3    3    0  502 -0.13675189745E+03  0.37917945720E+03  0.67211710413E+03  0.78373569134E+03  0.46999998093E+01 0.  1.
</event>
<event>
 5   0  0.1441136E-05  0.2100225E+04  0.7818609E-02  0.8561144E-01
        2   -1    0    0  501    0  0.00000000000E+00  0.00000000000E+00  0.93756559229E+03  0.93756559229E+03  0.25500000920E-02 0.  1.
       -2   -1    0    0    0  501  0.00000000000E+00  0.00000000000E+00 -0.11761693260E+04  0.11761693260E+04  0.25500000920E-02 0. -1.
    10030    2    1    2    0    0  0.00000000000E+00  0.00000000000E+00 -0.23860373371E+03  0.21137349183E+04  0.21002246459E+04 0.  0.
        4    1    3    3  502    0  0.74458378437E+03  0.63062465397E+03 -0.50992461980E+03  0.11009619416E+04  0.12699999809E+01 0. -1.
       -4    1    3    3    0  502 -0.74458378437E+03 -0.63062465397E+03  0.27132088609E+03  0.10127729767E+04  0.12699999809E+01 0.  1.
</event>
<event>
 5   0  0.1395356E-05  0.2100815E+04  0.7818609E-02  0.8560884E-01
        2   -1    0    0  501    0  0.00000000000E+00  0.00000000000E+00  0.14717886390E+04  0.14717886390E+04  0.25500000920E-02 0. -1.
       -2   -1    0    0    0  501  0.00000000000E+00  0.00000000000E+00 -0.74967017565E+03  0.74967017566E+03  0.25500000920E-02 0.  1.
    10030    2    1    2    0    0  0.00000000000E+00  0.00000000000E+00  0.72211846334E+03  0.22214588147E+04  0.21008151252E+04 0.  0.
        1    1    3    3  502    0  0.74186471562E+03  0.74314368151E+03  0.33248404073E+03  0.11014406135E+04  0.50400001928E-02 0. -1.
       -1    1    3    3    0  502 -0.74186471562E+03 -0.74314368151E+03  0.38963442261E+03  0.11200182012E+04  0.50400001928E-02 0.  1.
</event>
<event>
 5   0  0.1395356E-05  0.2099532E+04  0.7818609E-02  0.8561449E-01
        2   -1    0    0  501    0  0.00000000000E+00  0.00000000000E+00  0.11863639171E+04  0.11863639171E+04  0.25500000920E-02 0. -1.
       -2   -1    0    0    0  501  0.00000000000E+00  0.00000000000E+00 -0.92889623518E+03  0.92889623518E+03  0.25500000920E-02 0.  1.
    10030    2    1    2    0    0  0.00000000000E+00  0.00000000000E+00  0.25746768189E+03  0.21152601523E+04  0.20995323061E+04 0.  0.
        1    1    3    3  502    0 -0.60830859819E+03 -0.14375762149E+03 -0.72097211060E+03  0.95420458428E+03  0.50400001928E-02 0.  1.
       -1    1    3    3    0  502  0.60830859819E+03  0.14375762149E+03  0.97843979249E+03  0.11610555680E+04  0.50400001928E-02 0. -1.
</event>
<event>
 5   0  0.6599245E-06  0.2091601E+04  0.7818609E-02  0.8564952E-01
       -1   -1    0    0    0  501  0.00000000000E+00  0.00000000000E+00  0.90325293104E+03  0.90325293105E+03  0.50400001928E-02 0. -1.
        1   -1    0    0  501    0  0.00000000000E+00  0.00000000000E+00 -0.12108447863E+04  0.12108447863E+04  0.50400001928E-02 0.  1.
    10030    2    1    2    0    0  0.00000000000E+00  0.00000000000E+00 -0.30759185525E+03  0.21140977174E+04  0.20916013982E+04 0.  0.
        2    1    3    3  502    0 -0.46939290003E+03 -0.71923779640E+02 -0.10955881912E+04  0.11940754621E+04  0.25500000920E-02 0.  1.
       -2    1    3    3    0  502  0.46939290003E+03  0.71923779640E+02  0.78799633591E+03  0.92002225521E+03  0.25500000920E-02 0. -1.
</event>
<event>
 5   0  0.6917078E-06  0.2099098E+04  0.7818609E-02  0.8561641E-01
       -1   -1    0    0    0  501  0.00000000000E+00  0.00000000000E+00  0.14775512068E+04  0.14775512068E+04  0.50400001928E-02 0. -1.
        1   -1    0    0  501    0  0.00000000000E+00  0.00000000000E+00 -0.74552600903E+03  0.74552600905E+03  0.50400001928E-02 0.  1.
    10030    2    1    2    0    0  0.00000000000E+00  0.00000000000E+00  0.73202519774E+03  0.22230772158E+04  0.20990977627E+04 0.  0.
        5    1    3    3  502    0 -0.94521500222E+03  0.21035893520E+03 -0.62677144956E+02  0.97037765666E+03  0.46999998093E+01 0.  1.
       -5    1    3    3    0  502  0.94521500222E+03 -0.21035893520E+03  0.79470234269E+03  0.12526995592E+04  0.46999998093E+01 0. -1.
</event>
<event>
 5   0  0.1390735E-05  0.2098753E+04  0.7818609E-02  0.8561793E-01
       -2   -1    0    0    0  501  0.00000000000E+00  0.00000000000E+00  0.51047566978E+03  0.51047566979E+03  0.25500000920E-02 0. -1.
        2   -1    0    0  501    0  0.00000000000E+00  0.00000000000E+00 -0.21571859226E+04  0.21571859226E+04  0.25500000920E-02 0.  1.
    10030    2    1    2    0    0  0.00000000000E+00  0.00000000000E+00 -0.16467102528E+04  0.26676615924E+04  0.20987528951E+04 0.  0.
        5    1    3    3  502    0 -0.41950008957E+03  0.96167077195E+03 -0.84806231598E+03  0.13490821993E+04  0.46999998093E+01 0. -1.
       -5    1    3    3    0  502  0.41950008957E+03 -0.96167077195E+03 -0.79864793684E+03  0.13185793931E+04  0.46999998093E+01 0.  1.
</event>
<event>
 5   0  0.6238363E-06  0.2095997E+04  0.7818609E-02  0.8563009E-01
       -1   -1    0    0    0  501  0.00000000000E+00  0.00000000000E+00  0.59752710593E+03  0.59752710595E+03  0.50400001928E-02 0. -1.
        1   -1    0    0  501    0  0.00000000000E+00  0.00000000000E+00 -0.18380763460E+04  0.18380763461E+04  0.50400001928E-02 0.  1.
    10030    2    1    2    0    0  0.00000000000E+00  0.00000000000E+00 -0.12405492401E+04  0.24356034520E+04  0.20959966026E+04 0.  0.
        4    1    3    3  502    0  0.81076816001E+03 -0.21743481469E+03  0.10882258162E+03  0.84644366327E+03  0.12699999809E+01 0. -1.
       -4    1    3    3    0  502 -0.81076816001E+03  0.21743481469E+03 -0.13493718217E+04  0.15891597887E+04  0.12699999809E+01 0.  1.
</event>
<event>
 5   0  0.1398469E-05  0.2092375E+04  0.7818609E-02  0.8564610E-01
        2   -1    0    0  501    0  0.00000000000E+00  0.00000000000E+00  0.66884903974E+03  0.66884903975E+03  0.25500000920E-02 0.  1.
       -2   -1    0    0    0  501  0.00000000000E+00  0.00000000000E+00 -0.16364054203E+04  0.16364054203E+04  0.25500000920E-02 0. -1.
    10030    2    1    2    0    0  0.00000000000E+00  0.00000000000E+00 -0.96755638057E+03  0.23052544601E+04  0.20923749129E+04 0.  0.
        2    1    3    3  502    0 -0.37979735706E+03  0.32304201115E+03 -0.14970837480E+04  0.15779296315E+04  0.25500000920E-02 0. -1.
       -2    1    3    3    0  502  0.37979735706E+03 -0.32304201115E+03  0.52952736743E+03  0.72732482857E+03  0.25500000920E-02 0.  1.
</event>
<event>
 5   0  0.6283269E-06  0.2093329E+04  0.7818609E-02  0.8564188E-01
       -1   -1    0    0    0  501  0.00000000000E+00  0.00000000000E+00  0.78783970560E+03  0.78783970562E+03  0.50400001928E-02 0.  1.
        1   -1    0    0  501    0  0.00000000000E+00  0.00000000000E+00 -0.13905193741E+04  0.13905193741E+04  0.50400001928E-02 0. -1.
    10030    2    1    2    0    0  0.00000000000E+00  0.00000000000E+00 -0.60267966848E+03  0.21783590797E+04  0.20933288077E+04 0.  0.
        1    1    3    3  502    0  0.74771653049E+02  0.49360123807E+03 -0.12586383008E+04  0.13540322576E+04  0.50400001928E-02 0. -1.
       -1    1    3    3    0  502 -0.74771653049E+02 -0.49360123807E+03  0.65595863232E+03  0.82432682212E+03  0.50400001928E-02 0.  1.
</event>
<event>
 5   0  0.1344501E-05  0.2098708E+04  0.7818609E-02  0.8561813E-01
        2   -1    0    0  501    0  0.00000000000E+00  0.00000000000E+00  0.12840469452E+04  0.12840469452E+04  0.25500000920E-02 0.  1.
       -2   -1    0    0    0  501  0.00000000000E+00  0.00000000000E+00 -0.85755707330E+03  0.85755707330E+03  0.25500000920E-02 0. -1.
    10030    2    1    2    0    0  0.00000000000E+00  0.00000000000E+00  0.42648987189E+03  0.21416040185E+04  0.20987077360E+04 0.  0.
        3    1    3    3  502    0  0.70382354025E+03 -0.60420124774E+03 -0.28741220657E+03  0.97109860996E+03  0.10100000352E+00 0. -1.
       -3    1    3    3    0  502 -0.70382354025E+03  0.60420124774E+03  0.71390207846E+03  0.11705054085E+04  0.10100000352E+00 0.  1.
</event>
<event>
 5   0  0.1390735E-05  0.2099057E+04  0.7818609E-02  0.8561659E-01
        2   -1    0    0  501    0  0.00000000000E+00  0.00000000000E+00  0.77046980745E+03  0.77046980745E+03  0.25500000920E-02 0. -1.
       -2   -1    0    0    0  501  0.00000000000E+00  0.00000000000E+00 -0.14296608175E+04  0.14296608175E+04  0.25500000920E-02 0.  1.
    10030    2    1    2    0    0  0.00000000000E+00  0.00000000000E+00 -0.65919101004E+03  0.22001306249E+04  0.20990574025E+04 0.  0.
        5    1    3    3  502    0  0.41296832131E+03 -0.73583157296E+03  0.32455317531E+03  0.90407289074E+03  0.46999998093E+01 0. -1.
       -5    1    3    3    0  502 -0.41296832131E+03  0.73583157296E+03 -0.98374418536E+03  0.12960577342E+04  0.46999998093E+01 0.  1.
</event>
<event>
 5   0  0.6283269E-06  0.2098949E+04  0.7818609E-02  0.8561707E-01
        1   -1    0    0  501    0  0.00000000000E+00  0.00000000000E+00  0.18148842244E+04  0.18148842244E+04  0.50400001928E-02 0.  1.
       -1   -1    0    0    0  501  0.00000000000E+00  0.00000000000E+00 -0.60686877017E+03  0.60686877019E+03  0.50400001928E-02 0. -1.
    10030    2    1    2    0    0  0.00000000000E+00  0.00000000000E+00  0.12080154542E+04  0.24217529946E+04  0.20989488391E+04 0.  0.
        1    1    3    3  502    0  0.27421513973E+03  0.10001059225E+04  0.41799722440E+03  0.11180909975E+04  0.50400001928E-02 0. -1.
       -1    1    3    3    0  502 -0.27421513973E+03 -0.10001059225E+04  0.79001822983E+03  0.13036619971E+04  0.50400001928E-02 0.  1.
</event>
<event>
 5   0  0.6238363E-06  0.2097715E+04  0.7818609E-02  0.8562251E-01
       -1   -1    0    0    0  501  0.00000000000E+00  0.00000000000E+00  0.12542097554E+04  0.12542097554E+04  0.50400001928E-02 0. -1.
        1   -1    0    0  501    0  0.00000000000E+00  0.00000000000E+00 -0.87712727621E+03  0.87712727623E+03  0.50400001928E-02 0.  1.
    10030    2    1    2    0    0  0.00000000000E+00  0.00000000000E+00  0.37708247916E+03  0.21313370316E+04  0.20977145531E+04 0.  0.
        4    1    3    3  502    0  0.10826596948E+03 -0.44031841214E+03 -0.77239697078E+03  0.89565647298E+03  0.12699999809E+01 0.  1.
       -4    1    3    3    0  502 -0.10826596948E+03  0.44031841214E+03  0.11494794499E+04  0.12356805586E+04  0.12699999809E+01 0. -1.
</event>
<event>
 5   0  0.6917078E-06  0.2101370E+04  0.7818609E-02  0.8560640E-01
       -1   -1    0    0    0  501  0.00000000000E+00  0.00000000000E+00  0.63878821945E+03  0.63878821947E+03  0.50400001928E-02 0. -1.
        1   -1    0    0  501    0  0.00000000000E+00  0.00000000000E+00 -0.17281771915E+04  0.17281771915E+04  0.50400001928E-02 0.  1.
    10030    2    1    2    0    0  0.00000000000E+00  0.00000000000E+00 -0.10893889721E+04  0.23669654110E+04  0.21013702492E+04 0.  0.
        5    1    3    3  502    0  0.93731165963E+03  0.45440111553E+03 -0.69948058626E+03  0.12547225596E+04  0.46999998093E+01 0. -1.
       -5    1    3    3    0  502 -0.93731165963E+03 -0.45440111553E+03 -0.38990838580E+03  0.11122428514E+04  0.46999998093E+01 0.  1.
</event>
<event>
 5   0  0.6917078E-06  0.2104337E+04  0.7818609E-02  0.8559335E-01
       -1   -1    0    0    0  501  0.00000000000E+00  0.00000000000E+00  0.54853875772E+03  0.54853875774E+03  0.50400001928E-02 0.  1.
        1   -1    0    0  501    0  0.00000000000E+00  0.00000000000E+00 -0.20181955753E+04  0.20181955753E+04  0.50400001928E-02 0. -1.
    10030    2    1    2    0    0  0.00000000000E+00  0.00000000000E+00 -0.14696568176E+04  0.25667343330E+04  0.21043369442E+04 0.  0.
        5    1    3    3  502    0 -0.15129986995E+03  0.66343440005E+03  0.24400418407E+03  0.72290869801E+03  0.46999998093E+01 0.  1.
       -5    1    3    3    0  502  0.15129986995E+03 -0.66343440005E+03 -0.17136610016E+04  0.18438256350E+04  0.46999998093E+01 0. -1.
</event>
<event>
 5   0  0.1390735E-05  0.2096974E+04  0.7818609E-02  0.8562578E-01
        2   -1    0    0  501    0  0.00000000000E+00  0.00000000000E+00  0.11755085721E+04  0.11755085721E+04  0.25500000920E-02 0.  1.
       -2   -1    0    0    0  501  0.00000000000E+00  0.00000000000E+00 -0.93519085089E+03  0.93519085090E+03  0.25500000920E-02 0. -1.
    10030    2    1    2    0    0  0.00000000000E+00  0.00000000000E+00  0.24031772122E+03  0.21106994230E+04  0.20969738785E+04 0.  0.
        5    1    3    3  502    0  0.30365607873E+03 -0.76282729425E+03  0.77649305791E+03  0.11300778973E+04  0.46999998093E+01 0.  1.
       -5    1    3    3    0  502 -0.30365607873E+03  0.76282729425E+03 -0.53617533669E+03  0.98062152570E+03  0.46999998093E+01 0. -1.
</event>
<event>
 5   0  0.1390735E-05  0.2105745E+04  0.7818609E-02  0.8558717E-01
        2   -1    0    0  501    0  0.00000000000E+00  0.00000000000E+00  0.10095450430E+04  0.10095450430E+04  0.25500000920E-02 0.  1.
       -2   -1    0    0    0  501  0.00000000000E+00  0.00000000000E+00 -0.10980595414E+04  0.10980595414E+04  0.25500000920E-02 0. -1.
    10030    2    1    2    0    0  0.00000000000E+00  0.00000000000E+00 -0.88514498321E+02  0.21076045844E+04  0.21057450624E+04 0.  0.
        5    1    3    3  502    0 -0.91222166457E+02  0.97837372224E+03  0.33420607885E+03  0.10379077113E+04  0.46999998093E+01 0.  1.
       -5    1    3    3    0  502  0.91222166457E+02 -0.97837372224E+03 -0.42272057717E+03  0.10696968731E+04  0.46999998093E+01 0. -1.
</event>
<event>
 5   0  0.1344501E-05  0.2098736E+04  0.7818609E-02  0.8561800E-01
        2   -1    0    0  501    0  0.00000000000E+00  0.00000000000E+00  0.89775362883E+03  0.89775362883E+03  0.25500000920E-02 0. -1.
       -2   -1    0    0    0  501  0.00000000000E+00  0.00000000000E+00 -0.12265871774E+04  0.12265871774E+04  0.25500000920E-02 0.  1.
    10030    2    1    2    0    0  0.00000000000E+00  0.00000000000E+00 -0.32883354857E+03  0.21243408062E+04  0.20987358953E+04 0.  0.
        3    1    3    3  502    0  0.22436308673E+03 -0.26126995132E+03  0.83892445528E+03  0.90685998589E+03  0.10100000352E+00 0. -1.
       -3    1    3    3    0  502 -0.22436308673E+03  0.26126995132E+03 -0.11677580038E+04  0.12174808203E+04  0.10100000352E+00 0.  1.
</event>
<event>
 5   0  0.1390735E-05  0.2097024E+04  0.7818609E-02  0.8562555E-01
        2   -1    0    0  501    0  0.00000000000E+00  0.00000000000E+00  0.11370890341E+04  0.11370890341E+04  0.25500000920E-02 0. -1.
       -2   -1    0    0    0  501  0.00000000000E+00  0.00000000000E+00 -0.96683487214E+03  0.96683487214E+03  0.25500000920E-02 0.  1.
    10030    2    1    2    0    0  0.00000000000E+00  0.00000000000E+00  0.17025416197E+03  0.21039239063E+04  0.20970239206E+04 0.  0.
        5    1    3    3  502    0  0.95757823309E+02  0.57990536562E+03  0.95625554446E+03  0.11224555894E+04  0.46999998093E+01 0. -1.
       -5    1    3    3    0  502 -0.95757823309E+02 -0.57990536562E+03 -0.78600138249E+03  0.98146831689E+03  0.46999998093E+01 0.  1.
</event>
<event>
 5   0  0.6599245E-06  0.2098272E+04  0.7818609E-02  0.8562005E-01
       -1   -1    0    0    0  501  0.00000000000E+00  0.00000000000E+00  0.20449342054E+04  0.20449342054E+04  0.50400001928E-02 0. -1.
        1   -1    0    0  501    0  0.00000000000E+00  0.00000000000E+00 -0.53825007332E+03  0.53825007334E+03  0.50400001928E-02 0.  1.
    10030    2    1    2    0    0  0.00000000000E+00  0.00000000000E+00  0.15066841321E+04  0.25831842787E+04  0.20982716564E+04 0.  0.
        2    1    3    3  502    0  0.12532064369E+03 -0.89175231318E+03  0.90649967023E+02  0.90506622318E+03  0.25500000920E-02 0.  1.
       -2    1    3    3    0  502 -0.12532064369E+03  0.89175231318E+03  0.14160341650E+04  0.16781180556E+04  0.25500000920E-02 0. -1.
</event>
<event>
 5   0  0.1344501E-05  0.2100140E+04  0.7818609E-02  0.8561182E-01
       -2   -1    0    0    0  501  0.00000000000E+00  0.00000000000E+00  0.87304349742E+03  0.87304349743E+03  0.25500000920E-02 0.  1.
        2   -1    0    0  501    0  0.00000000000E+00  0.00000000000E+00 -0.12629921652E+04  0.12629921652E+04  0.25500000920E-02 0. -1.
    10030    2    1    2    0    0  0.00000000000E+00  0.00000000000E+00 -0.38994866782E+03  0.21360356627E+04  0.21001400879E+04 0.  0.
        3    1    3    3  502    0 -0.63098720119E+03  0.74644922895E+03 -0.58535192535E+03  0.11392840674E+04  0.10100000352E+00 0. -1.
       -3    1    3    3    0  502  0.63098720119E+03 -0.74644922895E+03  0.19540325753E+03  0.99675159529E+03  0.10100000352E+00 0.  1.
</event>
<event>
 5   0  0.1398469E-05  0.2092809E+04  0.7818609E-02  0.8564418E-01
       -2   -1    0    0    0  501  0.00000000000E+00  0.00000000000E+00  0.52147144313E+03  0.52147144314E+03  0.25500000920E-02 0.  1.
        2   -1    0    0  501    0  0.00000000000E+00  0.00000000000E+00 -0.20997547293E+04  0.20997547293E+04  0.25500000920E-02 0. -1.
    10030    2    1    2    0    0  0.00000000000E+00  0.00000000000E+00 -0.15782832862E+04  0.26212261724E+04  0.20928087623E+04 0.  0.
        2    1    3    3  502    0 -0.29419823124E+03 -0.73355188863E+03  0.69807777553E+02  0.79342554685E+03  0.25500000920E-02 0.  1.
       -2    1    3    3    0  502  0.29419823124E+03  0.73355188863E+03 -0.16480910637E+04  0.18278006256E+04  0.25500000920E-02 0. -1.
</event>
<event>
 5   0  0.1344501E-05  0.2099351E+04  0.7818609E-02  0.8561530E-01
       -2   -1    0    0    0  501  0.00000000000E+00  0.00000000000E+00  0.10869271756E+04  0.10869271756E+04  0.25500000920E-02 0.  1.
        2   -1    0    0  501    0  0.00000000000E+00  0.00000000000E+00 -0.10137000864E+04  0.10137000864E+04  0.25500000920E-02 0. -1.
    10030    2    1    2    0    0  0.00000000000E+00  0.00000000000E+00  0.73227089185E+02  0.21006272620E+04  0.20993505394E+04 0.  0.
        3    1    3    3  502    0  0.43012533203E+03  0.54784137901E+03  0.82238099203E+03  0.10777051935E+04  0.10100000352E+00 0.  1.
       -3    1    3    3    0  502 -0.43012533203E+03 -0.54784137901E+03 -0.74915390285E+03  0.10229220685E+04  0.10100000352E+00 0. -1.
</event>
<event>
 5   0  0.6599245E-06  0.2103490E+04  0.7818609E-02  0.8559708E-01
        1   -1    0    0  501    0  0.00000000000E+00  0.00000000000E+00  0.11294630437E+04  0.11294630437E+04  0.50400001928E-02 0.  1.
       -1   -1    0    0    0  501  0.00000000000E+00  0.00000000000E+00 -0.97937435659E+03  0.97937435660E+03  0.50400001928E-02 0. -1.
    10030    2    1    2    0    0  0.00000000000E+00  0.00000000000E+00  0.15008868709E+03  0.21088374003E+04  0.21034896165E+04 0.  0.
        2    1    3    3  502    0 -0.10078038602E+03  0.83770318537E+03 -0.55445631705E+03  0.10096163234E+04  0.25500000920E-02 0. -1.
       -2    1    3    3    0  502  0.10078038602E+03 -0.83770318537E+03  0.70454500414E+03  0.10992210769E+04  0.25500000920E-02 0.  1.
</event>
<event>
 5   0  0.1398469E-05  0.2099011E+04  0.7818609E-02  0.8561679E-01
       -2   -1    0    0    0  501  0.00000000000E+00  0.00000000000E+00  0.13727959697E+04  0.13727959697E+04  0.25500000920E-02 0.  1.
        2   -1    0    0  501    0  0.00000000000E+00  0.00000000000E+00 -0.80234890761E+03  0.80234890762E+03  0.25500000920E-02 0. -1.
    10030    2    1    2    0    0  0.00000000000E+00  0.00000000000E+00  0.57044706213E+03  0.21751448774E+04  0.20990105733E+04 0.  0.
        2    1    3    3  502    0 -0.83682618983E+03 -0.23056982424E+03  0.89655419789E+03  0.12478982112E+04  0.25500000920E-02 0.  1.
       -2    1    3    3    0  502  0.83682618983E+03  0.23056982424E+03 -0.32610713576E+03  0.92724666613E+03  0.25500000920E-02 0. -1.
</event>
<event>
 5   0  0.6238363E-06  0.2112769E+04  0.7818609E-02  0.8555639E-01
        1   -1    0    0  501    0  0.00000000000E+00  0.00000000000E+00  0.13352325573E+04  0.13352325573E+04  0.50400001928E-02 0. -1.
       -1   -1    0    0    0  501  0.00000000000E+00  0.00000000000E+00 -0.83577074144E+03  0.83577074145E+03  0.50400001928E-02 0.  1.
    10030    2    1    2    0    0  0.00000000000E+00  0.00000000000E+00  0.49946181589E+03  0.21710032988E+04  0.21127690877E+04 0.  0.
        4    1    3    3  502    0  0.10102101131E+04  0.27504966603E+03  0.10524992488E+03  0.10522623014E+04  0.12699999809E+01 0. -1.
       -4    1    3    3    0  502 -0.10102101131E+04 -0.27504966603E+03  0.39421189101E+03  0.11187409974E+04  0.12699999809E+01 0.  1.
</event>
<event>
 5   0  0.6238363E-06  0.2096996E+04  0.7818609E-02  0.8562568E-01
        1   -1    0    0  501    0  0.00000000000E+00  0.00000000000E+00  0.14416527449E+04  0.14416527449E+04  0.50400001928E-02 0.  1.
       -1   -1    0    0    0  501  0.00000000000E+00  0.00000000000E+00 -0.76256101481E+03  0.76256101483E+03  0.50400001928E-02 0. -1.
    10030    2    1    2    0    0  0.00000000000E+00  0.00000000000E+00  0.67909173006E+03  0.22042137597E+04  0.20969961184E+04 0.  0.
        4    1    3    3  502    0 -0.73241071344E+03 -0.20121293179E+03 -0.42020638427E+03  0.86803635601E+03  0.12699999809E+01 0. -1.
       -4    1    3    3    0  502  0.73241071344E+03  0.20121293179E+03  0.10992981143E+04  0.13361774037E+04  0.12699999809E+01 0.  1.
</event>
<event>
 5   0  0.1441136E-05  0.2103738E+04  0.7818609E-02  0.8559599E-01
       -2   -1    0    0    0  501  0.00000000000E+00  0.00000000000E+00  0.12919171274E+04  0.12919171274E+04  0.25500000920E-02 0. -1.
        2   -1    0    0  501    0  0.00000000000E+00  0.00000000000E+00 -0.85642360795E+03  0.85642360796E+03  0.25500000920E-02 0.  1.
    10030    2    1    2    0    0  0.00000000000E+00  0.00000000000E+00  0.43549351940E+03  0.21483407353E+04  0.21037379375E+04 0.  0.
        4    1    3    3  502    0 -0.57605132087E+03  0.76493969023E+03 -0.22675039465E+03  0.98406565246E+03  0.12699999809E+01 0.  1.
       -4    1    3    3    0  502  0.57605132087E+03 -0.76493969023E+03  0.66224391405E+03  0.11642750829E+04  0.12699999809E+01 0. -1.
</event>
<event>
 5   0  0.6589193E-06  0.2044487E+04  0.7818609E-02  0.8586099E-01
       -1   -1    0    0    0  501  0.00000000000E+00  0.00000000000E+00  0.12496601232E+04  0.12496601232E+04  0.50400001928E-02 0. -1.
        1   -1    0    0  501    0  0.00000000000E+00  0.00000000000E+00 -0.83621311052E+03  0.83621311053E+03  0.50400001928E-02 0.  1.
    10030    2    1    2    0    0  0.00000000000E+00  0.00000000000E+00  0.41344701267E+03  0.20858732337E+04  0.20444873966E+04 0.  0.
        3    1    3    3  502    0 -0.92454567069E+03 -0.29077085631E+03 -0.12489424724E+03  0.97720569547E+03  0.10100000352E+00 0. -1.
       -3    1    3    3    0  502  0.92454567069E+03  0.29077085631E+03  0.53834125991E+03  0.11086675383E+04  0.10100000352E+00 0.  1.
</event>
<event>
 5   0  0.5009125E-06  0.2099544E+04  0.7818609E-02  0.8561444E-01
       -4   -1    0    0    0  501  0.00000000000E+00  0.00000000000E+00  0.74939504931E+03  0.74939612544E+03  0.12699999809E+01 0. -1.
        4   -1    0    0  501    0  0.00000000000E+00  0.00000000000E+00 -0.14705457640E+04  0.14705463124E+04  0.12699999809E+01 0.  1.
    10030    2    1    2    0    0  0.00000000000E+00  0.00000000000E+00 -0.72115071467E+03  0.22199424378E+04  0.20995442539E+04 0.  0.
        3    1    3    3  502    0 -0.26484597608E+03 -0.10282625461E+03  0.70797349868E+03  0.76285196120E+03  0.10100000352E+00 0. -1.
       -3    1    3    3    0  502  0.26484597608E+03  0.10282625461E+03 -0.14291242133E+04  0.14570904766E+04  0.10100000352E+00 0.  1.
</event>
<event>
 5   0  0.1344501E-05  0.2097496E+04  0.7818609E-02  0.8562347E-01
        2   -1    0    0  501    0  0.00000000000E+00  0.00000000000E+00  0.16470213412E+04  0.16470213412E+04  0.25500000920E-02 0.  1.
       -2   -1    0    0    0  501  0.00000000000E+00  0.00000000000E+00 -0.66779504977E+03  0.66779504978E+03  0.25500000920E-02 0. -1.
    10030    2    1    2    0    0  0.00000000000E+00  0.00000000000E+00  0.97922629143E+03  0.23148163910E+04  0.20974963156E+04 0.  0.
        3    1    3    3  502    0 -0.10052247116E+04  0.29385990858E+03  0.55048519232E+03  0.11831586216E+04  0.10100000352E+00 0. -1.
       -3    1    3    3    0  502  0.10052247116E+04 -0.29385990858E+03  0.42874109911E+03  0.11316577694E+04  0.10100000352E+00 0.  1.
</event>
<event>
 5   0  0.1344501E-05  0.2121253E+04  0.7818609E-02  0.8551939E-01
        2   -1    0    0  501    0  0.00000000000E+00  0.00000000000E+00  0.78096105566E+03  0.78096105566E+03  0.25500000920E-02 0.  1.
       -2   -1    0    0    0  501  0.00000000000E+00  0.00000000000E+00 -0.14404417013E+04  0.14404417013E+04  0.25500000920E-02 0. -1.
    10030    2    1    2    0    0  0.00000000000E+00  0.00000000000E+00 -0.65948064567E+03  0.22214027570E+04  0.21212532821E+04 0.  0.
        3    1    3    3  502    0 -0.32437011933E+03 -0.79584466811E+03  0.32117118588E+03  0.91746152558E+03  0.10100000352E+00 0.  1.
       -3    1    3    3    0  502  0.32437011933E+03  0.79584466811E+03 -0.98065183155E+03  0.13039412314E+04  0.10100000352E+00 0. -1.
</event>
<event>
 5   0  0.1398469E-05  0.2100261E+04  0.7818609E-02  0.8561128E-01
       -2   -1    0    0    0  501  0.00000000000E+00  0.00000000000E+00  0.13173519260E+04  0.13173519260E+04  0.25500000920E-02 0.  1.
        2   -1    0    0  501    0  0.00000000000E+00  0.00000000000E+00 -0.83711411421E+03  0.83711411421E+03  0.25500000920E-02 0. -1.
    10030    2    1    2    0    0  0.00000000000E+00  0.00000000000E+00  0.48023781181E+03  0.21544660402E+04  0.21002608320E+04 0.  0.
        2    1    3    3  502    0 -0.89544299139E+03  0.44141772203E+03 -0.94027401584E+02  0.10027506711E+04  0.25500000920E-02 0. -1.
       -2    1    3    3    0  502  0.89544299139E+03 -0.44141772203E+03  0.57426521340E+03  0.11517153691E+04  0.25500000920E-02 0.  1.
</event>
<event>
 5   0  0.6283269E-06  0.2119132E+04  0.7818609E-02  0.8552862E-01
       -1   -1    0    0    0  501  0.00000000000E+00  0.00000000000E+00  0.99059538507E+03  0.99059538508E+03  0.50400001928E-02 0.  1.
        1   -1    0    0  501    0  0.00000000000E+00  0.00000000000E+00 -0.11333383222E+04  0.11333383222E+04  0.50400001928E-02 0. -1.
    10030    2    1    2    0    0  0.00000000000E+00  0.00000000000E+00 -0.14274293714E+03  0.21239337073E+04  0.21191316257E+04 0.  0.
        1    1    3    3  502    0 -0.58851263354E+03  0.87366308851E+03  0.43103812513E+02  0.10542733283E+04  0.50400001928E-02 0.  1.
       -1    1    3    3    0  502  0.58851263354E+03 -0.87366308851E+03 -0.18584674966E+03  0.10696603790E+04  0.50400001928E-02 0. -1.
</event>
<event>
 5   0  0.1441136E-05  0.2104968E+04  0.7818609E-02  0.8559058E-01
       -2   -1    0    0    0  501  0.00000000000E+00  0.00000000000E+00  0.11966746126E+04  0.11966746126E+04  0.25500000920E-02 0. -1.
        2   -1    0    0  501    0  0.00000000000E+00  0.00000000000E+00 -0.92566707092E+03  0.92566707093E+03  0.25500000920E-02 0.  1.
    10030    2    1    2    0    0  0.00000000000E+00  0.00000000000E+00  0.27100754172E+03  0.21223416836E+04  0.21049677276E+04 0.  0.
        4    1    3    3  502    0  0.34934010899E+03  0.63441263381E+03  0.90548413614E+03  0.11594917142E+04  0.12699999809E+01 0. -1.
       -4    1    3    3    0  502 -0.34934010899E+03 -0.63441263381E+03 -0.63447659442E+03  0.96284996933E+03  0.12699999809E+01 0.  1.
</event>
<event>
 5   0  0.6589193E-06  0.2096147E+04  0.7818609E-02  0.8562943E-01
       -1   -1    0    0    0  501  0.00000000000E+00  0.00000000000E+00  0.84012759633E+03  0.84012759634E+03  0.50400001928E-02 0. -1.
        1   -1    0    0  501    0  0.00000000000E+00  0.00000000000E+00 -0.13074895123E+04  0.13074895123E+04  0.50400001928E-02 0.  1.
    10030    2    1    2    0    0  0.00000000000E+00  0.00000000000E+00 -0.46736191597E+03  0.21476171087E+04  0.20961469617E+04 0.  0.
        3    1    3    3  502    0  0.69484120619E+02  0.65751389859E+03 -0.10668558524E+04  0.12551230975E+04  0.10100000352E+00 0.  1.
       -3    1    3    3    0  502 -0.69484120619E+02 -0.65751389859E+03  0.59949393646E+03  0.89249401113E+03  0.10100000352E+00 0. -1.
</event>
<event>
 5   0  0.1344501E-05  0.2102005E+04  0.7818609E-02  0.8560361E-01
        2   -1    0    0  501    0  0.00000000000E+00  0.00000000000E+00  0.18068736374E+04  0.18068736374E+04  0.25500000920E-02 0.  1.
       -2   -1    0    0    0  501  0.00000000000E+00  0.00000000000E+00 -0.61133550101E+03  0.61133550102E+03  0.25500000920E-02 0. -1.
    10030    2    1    2    0    0  0.00000000000E+00  0.00000000000E+00  0.11955381364E+04  0.24182091384E+04  0.21020047578E+04 0.  0.
        3    1    3    3  502    0  0.97524045863E+03  0.26895582466E+03  0.26999787392E+03  0.10470578064E+04  0.10100000352E+00 0. -1.
       -3    1    3    3    0  502 -0.97524045863E+03 -0.26895582466E+03  0.92554026250E+03  0.13711513321E+04  0.10100000352E+00 0.  1.
</event>
<event>
 5   0  0.1344501E-05  0.2101847E+04  0.7818609E-02  0.8560430E-01
        2   -1    0    0  501    0  0.00000000000E+00  0.00000000000E+00  0.14504964643E+04  0.14504964643E+04  0.25500000920E-02 0. -1.
       -2   -1    0    0    0  501  0.00000000000E+00  0.00000000000E+00 -0.76142217371E+03  0.76142217372E+03  0.25500000920E-02 0.  1.
    10030    2    1    2    0    0  0.00000000000E+00  0.00000000000E+00  0.68907429063E+03  0.22119186381E+04  0.21018469695E+04 0.  0.
        3    1    3    3  502    0  0.13531861931E+03 -0.25376036674E+02 -0.75189052234E+03  0.76439154872E+03  0.10100000352E+00 0.  1.
       -3    1    3    3    0  502 -0.13531861931E+03  0.25376036674E+02  0.14409648130E+04  0.14475270893E+04  0.10100000352E+00 0. -1.
</event>
<event>
 5   0  0.6238363E-06  0.2102519E+04  0.7818609E-02  0.8560134E-01
        1   -1    0    0  501    0  0.00000000000E+00  0.00000000000E+00  0.60893742846E+03  0.60893742848E+03  0.50400001928E-02 0.  1.
       -1   -1    0    0    0  501  0.00000000000E+00  0.00000000000E+00 -0.18148778581E+04  0.18148778581E+04  0.50400001928E-02 0. -1.
    10030    2    1    2    0    0  0.00000000000E+00  0.00000000000E+00 -0.12059404296E+04  0.24238152866E+04  0.21025194942E+04 0.  0.
        4    1    3    3  502    0  0.72748566912E+03  0.37825073162E+03 -0.13614104972E+04  0.15892605732E+04  0.12699999809E+01 0. -1.
       -4    1    3    3    0  502 -0.72748566912E+03 -0.37825073162E+03  0.15547006760E+03  0.83455471334E+03  0.12699999809E+01 0.  1.
</event>
<event>
 5   0  0.6283269E-06  0.2100666E+04  0.7818609E-02  0.8560950E-01
       -1   -1    0    0    0  501  0.00000000000E+00  0.00000000000E+00  0.12361350661E+04  0.12361350661E+04  0.50400001928E-02 0.  1.
        1   -1    0    0  501    0  0.00000000000E+00  0.00000000000E+00 -0.89245830645E+03  0.89245830647E+03  0.50400001928E-02 0. -1.
    10030    2    1    2    0    0  0.00000000000E+00  0.00000000000E+00  0.34367675962E+03  0.21285933726E+04  0.21006656161E+04 0.  0.
        1    1    3    3  502    0 -0.29751392806E+03 -0.44598918596E+02  0.11915449059E+04  0.12289356630E+04  0.50400001928E-02 0.  1.
       -1    1    3    3    0  502  0.29751392806E+03  0.44598918596E+02 -0.84786814627E+03  0.89965770959E+03  0.50400001928E-02 0. -1.
</event>
<event>
 5   0  0.1395356E-05  0.2097146E+04  0.7818609E-02  0.8562501E-01
       -2   -1    0    0    0  501  0.00000000000E+00  0.00000000000E+00  0.72741934051E+03  0.72741934051E+03  0.25500000920E-02 0. -1.
        2   -1    0    0  501    0  0.00000000000E+00  0.00000000000E+00 -0.15115157553E+04  0.15115157553E+04  0.25500000920E-02 0.  1.
    10030    2    1    2    0    0  0.00000000000E+00  0.00000000000E+00 -0.78409641482E+03  0.22389350958E+04  0.20971464364E+04 0.  0.
        1    1    3    3  502    0 -0.41843464301E+00 -0.91038589380E+03 -0.94751665738E+03  0.13139978945E+04  0.50400001928E-02 0.  1.
       -1    1    3    3    0  502  0.41843464301E+00  0.91038589380E+03  0.16342024256E+03  0.92493720134E+03  0.50400001928E-02 0. -1.
</event>
<event>
 5   0  0.6238363E-06  0.2100134E+04  0.7818609E-02  0.8561185E-01
        1   -1    0    0  501    0  0.00000000000E+00  0.00000000000E+00  0.84990232874E+03  0.84990232875E+03  0.50400001928E-02 0.  1.
       -1   -1    0    0    0  501  0.00000000000E+00  0.00000000000E+00 -0.12973728542E+04  0.12973728542E+04  0.50400001928E-02 0. -1.
    10030    2    1    2    0    0  0.00000000000E+00  0.00000000000E+00 -0.44747052547E+03  0.21472751830E+04  0.21001335291E+04 0.  0.
        4    1    3    3  502    0  0.90290758116E+03 -0.24199271680E+03  0.26537073790E+03  0.97171282616E+03  0.12699999809E+01 0.  1.
       -4    1    3    3    0  502 -0.90290758116E+03  0.24199271680E+03 -0.71284126336E+03  0.11755623568E+04  0.12699999809E+01 0. -1.
</event>
<event>
 5   0  0.1390735E-05  0.2102698E+04  0.7818609E-02  0.8560056E-01
        2   -1    0    0  501    0  0.00000000000E+00  0.00000000000E+00  0.13915163185E+04  0.13915163185E+04  0.25500000920E-02 0.  1.
       -2   -1    0    0    0  501  0.00000000000E+00  0.00000000000E+00 -0.79433794016E+03  0.79433794016E+03  0.25500000920E-02 0. -1.
    10030    2    1    2    0    0  0.00000000000E+00  0.00000000000E+00  0.59717837835E+03  0.21858542587E+04  0.21026975114E+04 0.  0.
        5    1    3    3  502    0 -0.15850254760E+03  0.13128821284E+03 -0.77318013542E+03  0.80011828141E+03  0.46999998093E+01 0. -1.
       -5    1    3    3    0  502  0.15850254760E+03 -0.13128821284E+03  0.13703585138E+04  0.13857359773E+04  0.46999998093E+01 0.  1.
</event>
<event>
 5   0  0.6599245E-06  0.2098234E+04  0.7818609E-02  0.8562022E-01
        1   -1    0    0  501    0  0.00000000000E+00  0.00000000000E+00  0.19747204981E+04  0.19747204981E+04  0.50400001928E-02 0.  1.
       -1   -1    0    0    0  501  0.00000000000E+00  0.00000000000E+00 -0.55736808424E+03  0.55736808427E+03  0.50400001928E-02 0. -1.
    10030    2    1    2    0    0  0.00000000000E+00  0.00000000000E+00  0.14173524139E+04  0.25320885824E+04  0.20982337153E+04 0.  0.
        2    1    3    3  502    0 -0.44235400117E+03 -0.34864569684E+02  0.18559050286E+04  0.19082127963E+04  0.25500000920E-02 0.  1.
       -2    1    3    3    0  502  0.44235400117E+03  0.34864569684E+02 -0.43855261476E+03  0.62387578611E+03  0.25500000920E-02 0. -1.
</event>
<event>
 5   0  0.6917078E-06  0.2100780E+04  0.7818609E-02  0.8560900E-01
       -1   -1    0    0    0  501  0.00000000000E+00  0.00000000000E+00  0.80371837307E+03  0.80371837309E+03  0.50400001928E-02 0. -1.
        1   -1    0    0  501    0  0.00000000000E+00  0.00000000000E+00 -0.13727677483E+04  0.13727677483E+04  0.50400001928E-02 0.  1.
    10030    2    1    2    0    0  0.00000000000E+00  0.00000000000E+00 -0.56904937520E+03  0.21764861214E+04  0.21007795327E+04 0.  0.
        5    1    3    3  502    0  0.17959880307E+03  0.94504010602E+03  0.15250633418E+03  0.97397987865E+03  0.46999998093E+01 0. -1.
       -5    1    3    3    0  502 -0.17959880307E+03 -0.94504010602E+03 -0.72155570937E+03  0.12025062427E+04  0.46999998093E+01 0.  1.
</event>
<event>
 5   0  0.6283269E-06  0.2103007E+04  0.7818609E-02  0.8559920E-01
       -1   -1    0    0    0  501  0.00000000000E+00  0.00000000000E+00  0.66792446071E+03  0.66792446072E+03  0.50400001928E-02 0. -1.
        1   -1    0    0  501    0  0.00000000000E+00  0.00000000000E+00 -0.16553662444E+04  0.16553662444E+04  0.50400001928E-02 0.  1.
    10030    2    1    2    0    0  0.00000000000E+00  0.00000000000E+00 -0.98744178367E+03  0.23232907051E+04  0.21030069958E+04 0.  0.
        1    1    3    3  502    0 -0.65353363768E+03  0.26713055925E+03  0.36712776743E+03  0.79576865288E+03  0.50400001928E-02 0. -1.
       -1    1    3    3    0  502  0.65353363768E+03 -0.26713055925E+03 -0.13545695511E+04  0.15275220522E+04  0.50400001928E-02 0.  1.
</event>
<event>
 5   0  0.1390735E-05  0.2100053E+04  0.7818609E-02  0.8561220E-01
       -2   -1    0    0    0  501  0.00000000000E+00  0.00000000000E+00  0.65095398999E+03  0.65095398999E+03  0.25500000920E-02 0.  1.
        2   -1    0    0  501    0  0.00000000000E+00  0.00000000000E+00 -0.16937528304E+04  0.16937528304E+04  0.25500000920E-02 0. -1.
    10030    2    1    2    0    0  0.00000000000E+00  0.00000000000E+00 -0.10427988404E+04  0.23447068204E+04  0.21000525355E+04 0.  0.
        5    1    3    3  502    0  0.59790019312E+03 -0.28978590291E+03 -0.14291843184E+04  0.15760870587E+04  0.46999998093E+01 0. -1.
       -5    1    3    3    0  502 -0.59790019312E+03  0.28978590291E+03  0.38638547803E+03  0.76861976171E+03  0.46999998093E+01 0.  1.
</event>
<event>
 5   0  0.6599245E-06  0.2101015E+04  0.7818609E-02  0.8560796E-01
        1   -1    0    0  501    0  0.00000000000E+00  0.00000000000E+00  0.13503186115E+04  0.13503186115E+04  0.50400001928E-02 0. -1.
       -1   -1    0    0    0  501  0.00000000000E+00  0.00000000000E+00 -0.81726324083E+03  0.81726324085E+03  0.50400001928E-02 0.  1.
    10030    2    1    2    0    0  0.00000000000E+00  0.00000000000E+00  0.53305537070E+03  0.21675818524E+04  0.21010147688E+04 0.  0.
        2    1    3    3  502    0  0.85183721070E+03 -0.61158589722E+03  0.20208404037E+03  0.10679428368E+04  0.25500000920E-02 0. -1.
       -2    1    3    3    0  502 -0.85183721070E+03  0.61158589722E+03  0.33097133033E+03  0.10996390156E+04  0.25500000920E-02 0.  1.
</event>
<event>
 5   0  0.6589193E-06  0.2098034E+04  0.7818609E-02  0.8562110E-01
       -1   -1    0    0    0  501  0.00000000000E+00  0.00000000000E+00  0.10994741837E+04  0.10994741837E+04  0.50400001928E-02 0. -1.
        1   -1    0    0  501    0  0.00000000000E+00  0.00000000000E+00 -0.10008751060E+04  0.10008751060E+04  0.50400001928E-02 0.  1.
    10030    2    1    2    0    0  0.00000000000E+00  0.00000000000E+00  0.98599077687E+02  0.21003492897E+04  0.20980336891E+04 0.  0.
        3    1    3    3  502    0 -0.59026036098E+03 -0.63581939375E+03 -0.54106544159E+03  0.10224604723E+04  0.10100000352E+00 0.  1.
       -3    1    3    3    0  502  0.59026036098E+03  0.63581939375E+03  0.63966451928E+03  0.10778888174E+04  0.10100000352E+00 0. -1.
</event>
<event>
 5   0  0.1344501E-05  0.2102414E+04  0.7818609E-02  0.8560181E-01
       -2   -1    0    0    0  501  0.00000000000E+00  0.00000000000E+00  0.10009528634E+04  0.10009528634E+04  0.25500000920E-02 0.  1.
        2   -1    0    0  501    0  0.00000000000E+00  0.00000000000E+00 -0.11039838772E+04  0.11039838772E+04  0.25500000920E-02 0. -1.
    10030    2    1    2    0    0  0.00000000000E+00  0.00000000000E+00 -0.10303101383E+03  0.21049367406E+04  0.21024136825E+04 0.  0.
        3    1    3    3  502    0 -0.50138946928E+03 -0.35732175998E+03  0.80154313551E+03  0.10107134353E+04  0.10100000352E+00 0.  1.
       -3    1    3    3    0  502  0.50138946928E+03  0.35732175998E+03 -0.90457414934E+03  0.10942233053E+04  0.10100000352E+00 0. -1.
</event>
<event>
 5   0  0.1390735E-05  0.2100357E+04  0.7818609E-02  0.8561086E-01
       -2   -1    0    0    0  501  0.00000000000E+00  0.00000000000E+00  0.11762052991E+04  0.11762052991E+04  0.25500000920E-02 0. -1.
        2   -1    0    0  501    0  0.00000000000E+00  0.00000000000E+00 -0.93765497353E+03  0.93765497353E+03  0.25500000920E-02 0.  1.
    10030    2    1    2    0    0  0.00000000000E+00  0.00000000000E+00  0.23855032557E+03  0.21138602726E+04  0.21003568731E+04 0.  0.
        5    1    3    3  502    0 -0.48103666666E+03  0.12289564230E+03 -0.81206773631E+03  0.95182756418E+03  0.46999998093E+01 0.  1.
       -5    1    3    3    0  502  0.48103666666E+03 -0.12289564230E+03  0.10506180619E+04  0.11620327085E+04  0.46999998093E+01 0. -1.
</event>
<event>
 5   0  0.1395356E-05  0.2120931E+04  0.7818609E-02  0.8552079E-01
       -2   -1    0    0    0  501  0.00000000000E+00  0.00000000000E+00  0.80880729388E+03  0.80880729388E+03  0.25500000920E-02 0. -1.
        2   -1    0    0  501    0  0.00000000000E+00  0.00000000000E+00 -0.13904262585E+04  0.13904262585E+04  0.25500000920E-02 0.  1.
    10030    2    1    2    0    0  0.00000000000E+00  0.00000000000E+00 -0.58161896462E+03  0.21992335524E+04  0.21209308329E+04 0.  0.
        1    1    3    3  502    0  0.10102670030E+04 -0.23641426368E+03 -0.63499947222E+02  0.10395014982E+04  0.50400001928E-02 0.  1.
       -1    1    3    3    0  502 -0.10102670030E+04  0.23641426368E+03 -0.51811901739E+03  0.11597320542E+04  0.50400001928E-02 0. -1.
</event>
<event>
 5   0  0.6238363E-06  0.2096857E+04  0.7818609E-02  0.8562629E-01
       -1   -1    0    0    0  501  0.00000000000E+00  0.00000000000E+00  0.63804868992E+03  0.63804868994E+03  0.50400001928E-02 0. -1.
        1   -1    0    0  501    0  0.00000000000E+00  0.00000000000E+00 -0.17227558029E+04  0.17227558029E+04  0.50400001928E-02 0.  1.
    10030    2    1    2    0    0  0.00000000000E+00  0.00000000000E+00 -0.10847071129E+04  0.23608044928E+04  0.20968567744E+04 0.  0.
        4    1    3    3  502    0  0.11823569582E+03 -0.24666051552E+03 -0.16818728165E+04  0.17039715002E+04  0.12699999809E+01 0.  1.
       -4    1    3    3    0  502 -0.11823569582E+03  0.24666051552E+03  0.59716570360E+03  0.65683299258E+03  0.12699999809E+01 0. -1.
</event>
<event>
 5   0  0.6589193E-06  0.2101141E+04  0.7818609E-02  0.8560741E-01
       -1   -1    0    0    0  501  0.00000000000E+00  0.00000000000E+00  0.12396203474E+04  0.12396203474E+04  0.50400001928E-02 0.  1.
        1   -1    0    0  501    0  0.00000000000E+00  0.00000000000E+00 -0.89035151672E+03  0.89035151674E+03  0.50400001928E-02 0. -1.
    10030    2    1    2    0    0  0.00000000000E+00  0.00000000000E+00  0.34926883069E+03  0.21299718642E+04  0.21011405060E+04 0.  0.
        3    1    3    3  502    0  0.53338213231E+03  0.89881416736E+03  0.28255860624E+03  0.10826831405E+04  0.10100000352E+00 0. -1.
       -3    1    3    3    0  502 -0.53338213231E+03 -0.89881416736E+03  0.66710224456E+02  0.10472887237E+04  0.10100000352E+00 0.  1.
</event>
<event>
 5   0  0.6283269E-06  0.2096663E+04  0.7818609E-02  0.8562715E-01
       -1   -1    0    0    0  501  0.00000000000E+00  0.00000000000E+00  0.55211293669E+03  0.55211293671E+03  0.50400001928E-02 0.  1.
        1   -1    0    0  501    0  0.00000000000E+00  0.00000000000E+00 -0.19905327040E+04  0.19905327040E+04  0.50400001928E-02 0. -1.
    10030    2    1    2    0    0  0.00000000000E+00  0.00000000000E+00 -0.14384197674E+04  0.25426456408E+04  0.20966629265E+04 0.  0.
        1    1    3    3  502    0  0.23947021146E+03  0.71720098011E+03  0.16138482487E+03  0.77315476444E+03  0.50400001928E-02 0.  1.
       -1    1    3    3    0  502 -0.23947021146E+03 -0.71720098011E+03 -0.15998045922E+04  0.17694908763E+04  0.50400001928E-02 0. -1.
</event>
<event>
 5   0  0.1398469E-05  0.2095011E+04  0.7818609E-02  0.8563444E-01
       -2   -1    0    0    0  501  0.00000000000E+00  0.00000000000E+00  0.44925598130E+03  0.44925598130E+03  0.25500000920E-02 0. -1.
        2   -1    0    0  501    0  0.00000000000E+00  0.00000000000E+00 -0.24424113766E+04  0.24424113767E+04  0.25500000920E-02 0.  1.
    10030    2    1    2    0    0  0.00000000000E+00  0.00000000000E+00 -0.19931553954E+04  0.28916673580E+04  0.20950111406E+04 0.  0.
        2    1    3    3  502    0 -0.29393971281E+03 -0.32789448537E+03  0.31529181213E+03  0.54159419781E+03  0.25500000920E-02 0. -1.
       -2    1    3    3    0  502  0.29393971281E+03  0.32789448537E+03 -0.23084472075E+04  0.23500731601E+04  0.25500000920E-02 0.  1.
</event>
<event>
 5   0  0.6283269E-06  0.2100374E+04  0.7818609E-02  0.8561079E-01
       -1   -1    0    0    0  501  0.00000000000E+00  0.00000000000E+00  0.51986281826E+03  0.51986281829E+03  0.50400001928E-02 0.  1.
        1   -1    0    0  501    0  0.00000000000E+00  0.00000000000E+00 -0.21215075898E+04  0.21215075898E+04  0.50400001928E-02 0. -1.
    10030    2    1    2    0    0  0.00000000000E+00  0.00000000000E+00 -0.16016447715E+04  0.26413704081E+04  0.21003741711E+04 0.  0.
        1    1    3    3  502    0 -0.56322826086E+03  0.52387607981E+02  0.31191323960E+03  0.64595696789E+03  0.50400001928E-02 0.  1.
       -1    1    3    3    0  502  0.56322826086E+03 -0.52387607981E+02 -0.19135580111E+04  0.19954134402E+04  0.50400001928E-02 0. -1.
</event>
<event>
 5   0  0.5009125E-06  0.2099017E+04  0.7818609E-02  0.8561676E-01
        4   -1    0    0  501    0  0.00000000000E+00  0.00000000000E+00  0.90664785323E+03  0.90664874272E+03  0.12699999809E+01 0.  1.
       -4   -1    0    0    0  501  0.00000000000E+00  0.00000000000E+00 -0.12148780712E+04  0.12148787350E+04  0.12699999809E+01 0. -1.
    10030    2    1    2    0    0  0.00000000000E+00  0.00000000000E+00 -0.30823021796E+03  0.21215274777E+04  0.20990171442E+04 0.  0.
        4    1    3    3  502    0  0.93411478502E+03 -0.52295398717E+02  0.32654923525E+03  0.99092949106E+03  0.12699999809E+01 0.  1.
       -4    1    3    3    0  502 -0.93411478502E+03  0.52295398717E+02 -0.63477945321E+03  0.11305979867E+04  0.12699999809E+01 0. -1.
</event>
<event>
 5   0  0.6238363E-06  0.2098960E+04  0.7818609E-02  0.8561702E-01
       -1   -1    0    0    0  501  0.00000000000E+00  0.00000000000E+00  0.64582601800E+03  0.64582601802E+03  0.50400001928E-02 0.  1.
        1   -1    0    0  501    0  0.00000000000E+00  0.00000000000E+00 -0.17054261624E+04  0.17054261624E+04  0.50400001928E-02 0. -1.
    10030    2    1    2    0    0  0.00000000000E+00  0.00000000000E+00 -0.10596001444E+04  0.23512521804E+04  0.20989603021E+04 0.  0.
        4    1    3    3  502    0 -0.26029874129E+03 -0.44947110598E+03 -0.15513494087E+04  0.16359909262E+04  0.12699999809E+01 0. -1.
       -4    1    3    3    0  502  0.26029874129E+03  0.44947110598E+03  0.49174926436E+03  0.71526125418E+03  0.12699999809E+01 0.  1.
</event>
<event>
 5   0  0.1395356E-05  0.2112668E+04  0.7818609E-02  0.8555684E-01
        2   -1    0    0  501    0  0.00000000000E+00  0.00000000000E+00  0.23711525305E+04  0.23711525305E+04  0.25500000920E-02 0. -1.
       -2   -1    0    0    0  501  0.00000000000E+00  0.00000000000E+00 -0.47059031379E+03  0.47059031380E+03  0.25500000920E-02 0.  1.
    10030    2    1    2    0    0  0.00000000000E+00  0.00000000000E+00  0.19005622167E+04  0.28417428443E+04  0.21126678995E+04 0.  0.
        1    1    3    3  502    0 -0.45807348876E+02 -0.18507202441E+03  0.23478175595E+04  0.23555460641E+04  0.50400001928E-02 0. -1.
       -1    1    3    3    0  502  0.45807348876E+02  0.18507202441E+03 -0.44725534277E+03  0.48619678021E+03  0.50400001928E-02 0.  1.
</event>
<event>
 5   0  0.1344501E-05  0.2109828E+04  0.7818609E-02  0.8556927E-01
        2   -1    0    0  501    0  0.00000000000E+00  0.00000000000E+00  0.15086380674E+04  0.15086380674E+04  0.25500000920E-02 0. -1.
       -2   -1    0    0    0  501  0.00000000000E+00  0.00000000000E+00 -0.73764754201E+03  0.73764754201E+03  0.25500000920E-02 0.  1.
    10030    2    1    2    0    0  0.00000000000E+00  0.00000000000E+00  0.77099052538E+03  0.22462856094E+04  0.21098276348E+04 0.  0.
        3    1    3    3  502    0  0.51415102870E+03 -0.67539097986E+03  0.10523767802E+04  0.13520359292E+04  0.10100000352E+00 0. -1.
       -3    1    3    3    0  502 -0.51415102870E+03  0.67539097986E+03 -0.28138625484E+03  0.89424968024E+03  0.10100000352E+00 0.  1.
</event>
<event>
 5   0  0.6599245E-06  0.2092339E+04  0.7818609E-02  0.8564625E-01
        1   -1    0    0  501    0  0.00000000000E+00  0.00000000000E+00  0.14854836303E+04  0.14854836303E+04  0.50400001928E-02 0. -1.
       -1   -1    0    0    0  501  0.00000000000E+00  0.00000000000E+00 -0.73677759812E+03  0.73677759814E+03  0.50400001928E-02 0.  1.
    10030    2    1    2    0    0  0.00000000000E+00  0.00000000000E+00  0.74870603218E+03  0.22222612284E+04  0.20923394191E+04 0.  0.
        2    1    3    3  502    0 -0.41216514206E+03  0.38912561689E+03 -0.55954852137E+03  0.79648816553E+03  0.25500000920E-02 0.  1.
       -2    1    3    3    0  502  0.41216514206E+03 -0.38912561689E+03  0.13082545536E+04  0.14257730629E+04  0.25500000920E-02 0. -1.
</event>
<event>
 5   0  0.5009125E-06  0.2099851E+04  0.7818609E-02  0.8561309E-01
        3   -1    0    0  501    0  0.00000000000E+00  0.00000000000E+00  0.12688502771E+04  0.12688502812E+04  0.10100000352E+00 0.  1.
       -3   -1    0    0    0  501  0.00000000000E+00  0.00000000000E+00 -0.86877314747E+03  0.86877315335E+03  0.10100000352E+00 0. -1.
    10030    2    1    2    0    0  0.00000000000E+00  0.00000000000E+00  0.40007712967E+03  0.21376234345E+04  0.20998505276E+04 0.  0.
        3    1    3    3  502    0 -0.56396885379E+03  0.37983068389E+03 -0.61435903058E+03  0.91638924325E+03  0.10100000352E+00 0. -1.
       -3    1    3    3    0  502  0.56396885379E+03 -0.37983068389E+03  0.10144361603E+04  0.12212341913E+04  0.10100000352E+00 0.  1.
</event>
<event>
 5   0  0.6917078E-06  0.2099613E+04  0.7818609E-02  0.8561414E-01
       -1   -1    0    0    0  501  0.00000000000E+00  0.00000000000E+00  0.80826894002E+03  0.80826894004E+03  0.50400001928E-02 0.  1.
        1   -1    0    0  501    0  0.00000000000E+00  0.00000000000E+00 -0.13635238783E+04  0.13635238783E+04  0.50400001928E-02 0. -1.
    10030    2    1    2    0    0  0.00000000000E+00  0.00000000000E+00 -0.55525493830E+03  0.21717928184E+04  0.20996132976E+04 0.  0.
        5    1    3    3  502    0  0.76380850551E+03 -0.10495479732E+03  0.45936413868E+03  0.89747225276E+03  0.46999998093E+01 0.  1.
       -5    1    3    3    0  502 -0.76380850551E+03  0.10495479732E+03 -0.10146190770E+04  0.12743205656E+04  0.46999998093E+01 0. -1.
</event>
<event>
 5   0  0.1390735E-05  0.2098580E+04  0.7818609E-02  0.8561869E-01
       -2   -1    0    0    0  501  0.00000000000E+00  0.00000000000E+00  0.65484541424E+03  0.65484541425E+03  0.25500000920E-02 0.  1.
        2   -1    0    0  501    0  0.00000000000E+00  0.00000000000E+00 -0.16813266296E+04  0.16813266296E+04  0.25500000920E-02 0. -1.
    10030    2    1    2    0    0  0.00000000000E+00  0.00000000000E+00 -0.10264812153E+04  0.23361720438E+04  0.20985795513E+04 0.  0.
        5    1    3    3  502    0 -0.63732887430E+03 -0.54935439993E+03 -0.12111200553E+04  0.14747244587E+04  0.46999998093E+01 0. -1.
       -5    1    3    3    0  502  0.63732887430E+03  0.54935439993E+03  0.18463883994E+03  0.86144758515E+03  0.46999998093E+01 0.  1.
</event>
<event>
 5   0  0.1395356E-05  0.2110527E+04  0.7818609E-02  0.8556620E-01
       -2   -1    0    0    0  501  0.00000000000E+00  0.00000000000E+00  0.56623281722E+03  0.56623281722E+03  0.25500000920E-02 0.  1.
        2   -1    0    0  501    0  0.00000000000E+00  0.00000000000E+00 -0.19666492181E+04  0.19666492181E+04  0.25500000920E-02 0. -1.
    10030    2    1    2    0    0  0.00000000000E+00  0.00000000000E+00 -0.14004164009E+04  0.25328820353E+04  0.21105272585E+04 0.  0.
        1    1    3    3  502    0 -0.62189829723E+03  0.33125869907E+03  0.24254666748E+03  0.74519709053E+03  0.50400001928E-02 0.  1.
       -1    1    3    3    0  502  0.62189829723E+03 -0.33125869907E+03 -0.16429630683E+04  0.17876849448E+04  0.50400001928E-02 0. -1.
</event>
<event>
 5   0  0.6917078E-06  0.2099045E+04  0.7818609E-02  0.8561664E-01
       -1   -1    0    0    0  501  0.00000000000E+00  0.00000000000E+00  0.75406414701E+03  0.75406414702E+03  0.50400001928E-02 0. -1.
        1   -1    0    0  501    0  0.00000000000E+00  0.00000000000E+00 -0.14607480239E+04  0.14607480239E+04  0.50400001928E-02 0.  1.
    10030    2    1    2    0    0  0.00000000000E+00  0.00000000000E+00 -0.70668387684E+03  0.22148121709E+04  0.20990452235E+04 0.  0.
        5    1    3    3  502    0 -0.82118211176E+03  0.47193718738E+03 -0.83039543273E+03  0.12596203532E+04  0.46999998093E+01 0.  1.
       -5    1    3    3    0  502  0.82118211176E+03 -0.47193718738E+03  0.12371155589E+03  0.95519181768E+03  0.46999998093E+01 0. -1.
</event>
<event>
 5   0  0.6238363E-06  0.2158059E+04  0.7818609E-02  0.8536091E-01
       -1   -1    0    0    0  501  0.00000000000E+00  0.00000000000E+00  0.13389853715E+04  0.13389853715E+04  0.50400001928E-02 0. -1.
        1   -1    0    0  501    0  0.00000000000E+00  0.00000000000E+00 -0.86954222625E+03  0.86954222627E+03  0.50400001928E-02 0.  1.
    10030    2    1    2    0    0  0.00000000000E+00  0.00000000000E+00  0.46944314521E+03  0.22085275977E+04  0.21580586840E+04 0.  0.
        4    1    3    3  502    0 -0.28243236726E+03  0.79596070926E+03  0.92197799430E+03  0.12503465630E+04  0.12699999809E+01 0. -1.
       -4    1    3    3    0  502  0.28243236726E+03 -0.79596070926E+03 -0.45253484909E+03  0.95818103472E+03  0.12699999809E+01 0.  1.
</event>
<event>
 5   0  0.1441136E-05  0.2100626E+04  0.7818609E-02  0.8560968E-01
       -2   -1    0    0    0  501  0.00000000000E+00  0.00000000000E+00  0.10946251670E+04  0.10946251670E+04  0.25500000920E-02 0.  1.
        2   -1    0    0  501    0  0.00000000000E+00  0.00000000000E+00 -0.10077943833E+04  0.10077943833E+04  0.25500000920E-02 0. -1.
    10030    2    1    2    0    0  0.00000000000E+00  0.00000000000E+00  0.86830783694E+02  0.21024195504E+04  0.21006257117E+04 0.  0.
        4    1    3    3  502    0 -0.26143476654E+03 -0.53234323326E+03 -0.82416856870E+03  0.10153782043E+04  0.12699999809E+01 0. -1.
       -4    1    3    3    0  502  0.26143476654E+03  0.53234323326E+03  0.91099935239E+03  0.10870413461E+04  0.12699999809E+01 0.  1.
</event>
<event>
 5   0  0.1344501E-05  0.2100813E+04  0.7818609E-02  0.8560885E-01
        2   -1    0    0  501    0  0.00000000000E+00  0.00000000000E+00  0.12757850400E+04  0.12757850400E+04  0.25500000920E-02 0.  1.
       -2   -1    0    0    0  501  0.00000000000E+00  0.00000000000E+00 -0.86484299575E+03  0.86484299576E+03  0.25500000920E-02 0. -1.
    10030    2    1    2    0    0  0.00000000000E+00  0.00000000000E+00  0.41094204426E+03  0.21406280358E+04  0.21008129436E+04 0.  0.
        3    1    3    3  502    0 -0.85286126929E+02  0.64008843011E+03  0.10496450109E+04  0.12323723385E+04  0.10100000352E+00 0.  1.
       -3    1    3    3    0  502  0.85286126929E+02 -0.64008843011E+03 -0.63870296659E+03  0.90825569723E+03  0.10100000352E+00 0. -1.
</event>
<event>
 5   0  0.1390735E-05  0.2098529E+04  0.7818609E-02  0.8561892E-01
        2   -1    0    0  501    0  0.00000000000E+00  0.00000000000E+00  0.88827077093E+03  0.88827077093E+03  0.25500000920E-02 0. -1.
       -2   -1    0    0    0  501  0.00000000000E+00  0.00000000000E+00 -0.12394375833E+04  0.12394375833E+04  0.25500000920E-02 0.  1.
    10030    2    1    2    0    0  0.00000000000E+00  0.00000000000E+00 -0.35116681241E+03  0.21277083543E+04  0.20985291779E+04 0.  0.
        5    1    3    3  502    0  0.45809799819E+03  0.33954320824E+03  0.71745343862E+03  0.91646325228E+03  0.46999998093E+01 0. -1.
       -5    1    3    3    0  502 -0.45809799819E+03 -0.33954320824E+03 -0.10686202510E+04  0.12112451020E+04  0.46999998093E+01 0.  1.
</event>
<event>
 5   0  0.1390735E-05  0.2096659E+04  0.7818609E-02  0.8562717E-01
        2   -1    0    0  501    0  0.00000000000E+00  0.00000000000E+00  0.15842467681E+04  0.15842467681E+04  0.25500000920E-02 0.  1.
       -2   -1    0    0    0  501  0.00000000000E+00  0.00000000000E+00 -0.69370146827E+03  0.69370146828E+03  0.25500000920E-02 0. -1.
    10030    2    1    2    0    0  0.00000000000E+00  0.00000000000E+00  0.89054529980E+03  0.22779482364E+04  0.20966585884E+04 0.  0.
        5    1    3    3  502    0 -0.93326366808E+03  0.46676041875E+03  0.33594449541E+03  0.10962331671E+04  0.46999998093E+01 0. -1.
       -5    1    3    3    0  502  0.93326366808E+03 -0.46676041875E+03  0.55460080439E+03  0.11817150692E+04  0.46999998093E+01 0.  1.
</event>
<event>
 5   0  0.1390735E-05  0.2098537E+04  0.7818609E-02  0.8561888E-01
        2   -1    0    0  501    0  0.00000000000E+00  0.00000000000E+00  0.18034271027E+04  0.18034271027E+04  0.25500000920E-02 0.  1.
       -2   -1    0    0    0  501  0.00000000000E+00  0.00000000000E+00 -0.61048478826E+03  0.61048478827E+03  0.25500000920E-02 0. -1.
    10030    2    1    2    0    0  0.00000000000E+00  0.00000000000E+00  0.11929423144E+04  0.24139118910E+04  0.20985374078E+04 0.  0.
        5    1    3    3  502    0  0.16867279284E+03  0.44035044757E+03  0.16746635630E+04  0.17397928517E+04  0.46999998093E+01 0.  1.
       -5    1    3    3    0  502 -0.16867279284E+03 -0.44035044757E+03 -0.48172124857E+03  0.67411903922E+03  0.46999998093E+01 0. -1.
</event>
<event>
 5   0  0.6917078E-06  0.2089604E+04  0.7818609E-02  0.8565837E-01
       -1   -1    0    0    0  501  0.00000000000E+00  0.00000000000E+00  0.12485123285E+04  0.12485123285E+04  0.50400001928E-02 0.  1.
        1   -1    0    0  501    0  0.00000000000E+00  0.00000000000E+00 -0.87432968669E+03  0.87432968670E+03  0.50400001928E-02 0. -1.
    10030    2    1    2    0    0  0.00000000000E+00  0.00000000000E+00  0.37418264178E+03  0.21228420152E+04  0.20896041663E+04 0.  0.
        5    1    3    3  502    0  0.73580809824E+03 -0.68669595370E+03  0.47195190229E+03  0.11116319437E+04  0.46999998093E+01 0.  1.
       -5    1    3    3    0  502 -0.73580809824E+03  0.68669595370E+03 -0.97769260513E+02  0.10112100714E+04  0.46999998093E+01 0. -1.
</event>
<event>
 5   0  0.1395356E-05  0.2108868E+04  0.7818609E-02  0.8557347E-01
       -2   -1    0    0    0  501  0.00000000000E+00  0.00000000000E+00  0.53658375601E+03  0.53658375602E+03  0.25500000920E-02 0.  1.
        2   -1    0    0  501    0  0.00000000000E+00  0.00000000000E+00 -0.20720554710E+04  0.20720554710E+04  0.25500000920E-02 0. -1.
    10030    2    1    2    0    0  0.00000000000E+00  0.00000000000E+00 -0.15354717150E+04  0.26086392271E+04  0.21088682342E+04 0.  0.
        1    1    3    3  502    0 -0.38127025312E+03 -0.97115276646E+03 -0.57881045829E+03  0.11931161923E+04  0.50400001928E-02 0.  1.
       -1    1    3    3    0  502  0.38127025312E+03  0.97115276646E+03 -0.95666125674E+03  0.14155230347E+04  0.50400001928E-02 0. -1.
</event>
<event>
 5   0  0.6599245E-06  0.2100705E+04  0.7818609E-02  0.8560933E-01
        1   -1    0    0  501    0  0.00000000000E+00  0.00000000000E+00  0.18013070726E+04  0.18013070726E+04  0.50400001928E-02 0. -1.
       -1   -1    0    0    0  501  0.00000000000E+00  0.00000000000E+00 -0.61246629717E+03  0.61246629719E+03  0.50400001928E-02 0.  1.
    10030    2    1    2    0    0  0.00000000000E+00  0.00000000000E+00  0.11888407755E+04  0.24137733698E+04  0.21007045227E+04 0.  0.
        2    1    3    3  502    0 -0.96933842838E+03 -0.36360596909E+02  0.13151542209E+03  0.97889498313E+03  0.25500000920E-02 0.  1.
       -2    1    3    3    0  502  0.96933842838E+03  0.36360596909E+02  0.10573253534E+04  0.14348783867E+04  0.25500000920E-02 0. -1.
</event>
<event>
 5   0  0.6599245E-06  0.2099998E+04  0.7818609E-02  0.8561244E-01
        1   -1    0    0  501    0  0.00000000000E+00  0.00000000000E+00  0.13079536437E+04  0.13079536437E+04  0.50400001928E-02 0. -1.
       -1   -1    0    0    0  501  0.00000000000E+00  0.00000000000E+00 -0.84291792613E+03  0.84291792615E+03  0.50400001928E-02 0.  1.
    10030    2    1    2    0    0  0.00000000000E+00  0.00000000000E+00  0.46503571752E+03  0.21508715698E+04  0.20999976884E+04 0.  0.
        2    1    3    3  502    0  0.82548375294E+03  0.62748462371E+03  0.63172762467E+02  0.10388220143E+04  0.25500000920E-02 0. -1.
       -2    1    3    3    0  502 -0.82548375294E+03 -0.62748462371E+03  0.40186295505E+03  0.11120495556E+04  0.25500000920E-02 0.  1.
</event>
<event>
 5   0  0.6589193E-06  0.2100998E+04  0.7818609E-02  0.8560804E-01
       -1   -1    0    0    0  501  0.00000000000E+00  0.00000000000E+00  0.67381254141E+03  0.67381254143E+03  0.50400001928E-02 0. -1.
        1   -1    0    0  501    0  0.00000000000E+00  0.00000000000E+00 -0.16377672838E+04  0.16377672838E+04  0.50400001928E-02 0.  1.
    10030    2    1    2    0    0  0.00000000000E+00  0.00000000000E+00 -0.96395474243E+03  0.23115798253E+04  0.21009979874E+04 0.  0.
        3    1    3    3  502    0  0.33096075478E+02  0.93103459649E+03  0.52090083620E+02  0.93307778726E+03  0.10100000352E+00 0. -1.
       -3    1    3    3    0  502 -0.33096075478E+02 -0.93103459649E+03 -0.10160448261E+04  0.13785020380E+04  0.10100000352E+00 0.  1.
</event>
<event>
 5   0  0.1395356E-05  0.2102741E+04  0.7818609E-02  0.8560037E-01
       -2   -1    0    0    0  501  0.00000000000E+00  0.00000000000E+00  0.10030989699E+04  0.10030989699E+04  0.25500000920E-02 0. -1.
        2   -1    0    0  501    0  0.00000000000E+00  0.00000000000E+00 -0.11019653207E+04  0.11019653207E+04  0.25500000920E-02 0.  1.
    10030    2    1    2    0    0  0.00000000000E+00  0.00000000000E+00 -0.98866350803E+02  0.21050642906E+04  0.21027413327E+04 0.  0.
        1    1    3    3  502    0 -0.71916336496E+03 -0.41716514231E+02  0.71720918152E+03  0.10165260563E+04  0.50400001928E-02 0. -1.
       -1    1    3    3    0  502  0.71916336496E+03  0.41716514231E+02 -0.81607553232E+03  0.10885382343E+04  0.50400001928E-02 0.  1.
</event>
<event>
 5   0  0.6238363E-06  0.2099121E+04  0.7818609E-02  0.8561631E-01
       -1   -1    0    0    0  501  0.00000000000E+00  0.00000000000E+00  0.45147951977E+03  0.45147951980E+03  0.50400001928E-02 0. -1.
        1   -1    0    0  501    0  0.00000000000E+00  0.00000000000E+00 -0.24399277693E+04  0.24399277693E+04  0.50400001928E-02 0.  1.
    10030    2    1    2    0    0  0.00000000000E+00  0.00000000000E+00 -0.19884482495E+04  0.28914072891E+04  0.20991211662E+04 0.  0.
        4    1    3    3  502    0  0.36971834567E+03  0.93883040563E+03 -0.59623867438E+03  0.11720052711E+04  0.12699999809E+01 0. -1.
       -4    1    3    3    0  502 -0.36971834567E+03 -0.93883040563E+03 -0.13922095752E+04  0.17194020181E+04  0.12699999809E+01 0.  1.
</event>
<event>
 5   0  0.6238363E-06  0.2101254E+04  0.7818609E-02  0.8560691E-01
       -1   -1    0    0    0  501  0.00000000000E+00  0.00000000000E+00  0.88181104448E+03  0.88181104449E+03  0.50400001928E-02 0. -1.
        1   -1    0    0  501    0  0.00000000000E+00  0.00000000000E+00 -0.12517620528E+04  0.12517620529E+04  0.50400001928E-02 0.  1.
    10030    2    1    2    0    0  0.00000000000E+00  0.00000000000E+00 -0.36995100837E+03  0.21335730974E+04  0.21012544856E+04 0.  0.
        4    1    3    3  502    0 -0.22148471523E+03  0.18440674886E+03 -0.12108389598E+04  0.12446661912E+04  0.12699999809E+01 0.  1.
       -4    1    3    3    0  502  0.22148471523E+03 -0.18440674886E+03  0.84088795140E+03  0.88890690616E+03  0.12699999809E+01 0. -1.
</event>
<event>
 5   0  0.6917078E-06  0.2099322E+04  0.7818609E-02  0.8561542E-01
       -1   -1    0    0    0  501  0.00000000000E+00  0.00000000000E+00  0.69935842067E+03  0.69935842069E+03  0.50400001928E-02 0.  1.
        1   -1    0    0  501    0  0.00000000000E+00  0.00000000000E+00 -0.15754271030E+04  0.15754271030E+04  0.50400001928E-02 0. -1.
    10030    2    1    2    0    0  0.00000000000E+00  0.00000000000E+00 -0.87606868231E+03  0.22747855237E+04  0.20993219959E+04 0.  0.
        5    1    3    3  502    0  0.37034495343E+03  0.38565862617E+03  0.54072079385E+03  0.76045317237E+03  0.46999998093E+01 0.  1.
       -5    1    3    3    0  502 -0.37034495343E+03 -0.38565862617E+03 -0.14167894762E+04  0.15143323513E+04  0.46999998093E+01 0. -1.
</event>
<event>
 5   0  0.1398469E-05  0.2107419E+04  0.7818609E-02  0.8557982E-01
       -2   -1    0    0    0  501  0.00000000000E+00  0.00000000000E+00  0.68477614918E+03  0.68477614918E+03  0.25500000920E-02 0.  1.
        2   -1    0    0  501    0  0.00000000000E+00  0.00000000000E+00 -0.16214119379E+04  0.16214119379E+04  0.25500000920E-02 0. -1.
    10030    2    1    2    0    0  0.00000000000E+00  0.00000000000E+00 -0.93663578873E+03  0.23061880871E+04  0.21074194866E+04 0.  0.
        2    1    3    3  502    0  0.74615551321E+03 -0.64752717839E+03 -0.67336059746E+02  0.99023918403E+03  0.25500000920E-02 0.  1.
       -2    1    3    3    0  502 -0.74615551321E+03  0.64752717839E+03 -0.86929972899E+03  0.13159489031E+04  0.25500000920E-02 0. -1.
</event>
<event>
 5   0  0.1441136E-05  0.2098003E+04  0.7818609E-02  0.8562124E-01
       -2   -1    0    0    0  501  0.00000000000E+00  0.00000000000E+00  0.18839442711E+04  0.18839442711E+04  0.25500000920E-02 0. -1.
        2   -1    0    0  501    0  0.00000000000E+00  0.00000000000E+00 -0.58409571798E+03  0.58409571799E+03  0.25500000920E-02 0.  1.
    10030    2    1    2    0    0  0.00000000000E+00  0.00000000000E+00  0.12998485531E+04  0.24680399891E+04  0.20980026517E+04 0.  0.
        4    1    3    3  502    0  0.38832901269E+02 -0.19851623291E+03 -0.56093497395E+03  0.59629384271E+03  0.12699999809E+01 0.  1.
       -4    1    3    3    0  502 -0.38832901269E+02  0.19851623291E+03  0.18607835271E+04  0.18717461464E+04  0.12699999809E+01 0. -1.
</event>
<event>
 5   0  0.1390735E-05  0.2099863E+04  0.7818609E-02  0.8561304E-01
        2   -1    0    0  501    0  0.00000000000E+00  0.00000000000E+00  0.13104531224E+04  0.13104531224E+04  0.25500000920E-02 0.  1.
       -2   -1    0    0    0  501  0.00000000000E+00  0.00000000000E+00 -0.84120200762E+03  0.84120200762E+03  0.25500000920E-02 0. -1.
    10030    2    1    2    0    0  0.00000000000E+00  0.00000000000E+00  0.46925111476E+03  0.21516551300E+04  0.20998626597E+04 0.  0.
        5    1    3    3  502    0  0.87655245132E+03 -0.55538686500E+03  0.39836344138E+03  0.11115369050E+04  0.46999998093E+01 0. -1.
       -5    1    3    3    0  502 -0.87655245132E+03  0.55538686500E+03  0.70887673371E+02  0.10401182250E+04  0.46999998093E+01 0.  1.
</event>
<event>
 5   0  0.1344501E-05  0.2100928E+04  0.7818609E-02  0.8560835E-01
        2   -1    0    0  501    0  0.00000000000E+00  0.00000000000E+00  0.27705257240E+04  0.27705257240E+04  0.25500000920E-02 0.  1.
       -2   -1    0    0    0  501  0.00000000000E+00  0.00000000000E+00 -0.39829065498E+03  0.39829065499E+03  0.25500000920E-02 0. -1.
    10030    2    1    2    0    0  0.00000000000E+00  0.00000000000E+00  0.23722350690E+04  0.31688163790E+04  0.21009278953E+04 0.  0.
        3    1    3    3  502    0  0.22785883368E+03  0.71447332688E+03  0.22955931353E+04  0.24149823262E+04  0.10100000352E+00 0.  1.
       -3    1    3    3    0  502 -0.22785883368E+03 -0.71447332688E+03  0.76641933707E+02  0.75383405276E+03  0.10100000352E+00 0. -1.
</event>
<event>
 5   0  0.1390735E-05  0.2093357E+04  0.7818609E-02  0.8564175E-01
       -2   -1    0    0    0  501  0.00000000000E+00  0.00000000000E+00  0.36050303516E+03  0.36050303517E+03  0.25500000920E-02 0.  1.
        2   -1    0    0  501    0  0.00000000000E+00  0.00000000000E+00 -0.30389093173E+04  0.30389093173E+04  0.25500000920E-02 0. -1.
    10030    2    1    2    0    0  0.00000000000E+00  0.00000000000E+00 -0.26784062822E+04  0.33994123525E+04  0.20933571434E+04 0.  0.
        5    1    3    3  502    0 -0.86602410087E+03 -0.44128287758E+02 -0.22910507811E+04  0.24496695330E+04  0.46999998093E+01 0. -1.
       -5    1    3    3    0  502  0.86602410087E+03  0.44128287758E+02 -0.38735550104E+03  0.94974281953E+03  0.46999998093E+01 0.  1.
</event>
<event>
 5   0  0.1398469E-05  0.2136566E+04  0.7818609E-02  0.8545305E-01
        2   -1    0    0  501    0  0.00000000000E+00  0.00000000000E+00  0.13181198951E+04  0.13181198951E+04  0.25500000920E-02 0. -1.
       -2   -1    0    0    0  501  0.00000000000E+00  0.00000000000E+00 -0.86580039944E+03  0.86580039944E+03  0.25500000920E-02 0.  1.
    10030    2    1    2    0    0  0.00000000000E+00  0.00000000000E+00  0.45231949569E+03  0.21839202946E+04  0.21365661532E+04 0.  0.
        2    1    3    3  502    0 -0.62682622579E+03  0.86455431569E+03  0.25619552922E+03  0.10981809647E+04  0.25500000920E-02 0.  1.
       -2    1    3    3    0  502  0.62682622579E+03 -0.86455431569E+03  0.19612396647E+03  0.10857393298E+04  0.25500000920E-02 0. -1.
</event>
<event>
 5   0  0.6283269E-06  0.2108094E+04  0.7818609E-02  0.8557686E-01
       -1   -1    0    0    0  501  0.00000000000E+00  0.00000000000E+00  0.66261980782E+03  0.66261980784E+03  0.50400001928E-02 0. -1.
        1   -1    0    0  501    0  0.00000000000E+00  0.00000000000E+00 -0.16767009679E+04  0.16767009679E+04  0.50400001928E-02 0.  1.
    10030    2    1    2    0    0  0.00000000000E+00  0.00000000000E+00 -0.10140811601E+04  0.23393207757E+04  0.21080941849E+04 0.  0.
        1    1    3    3  502    0  0.14396482894E+02 -0.72325621631E+03  0.34366785453E+03  0.80088351675E+03  0.50400001928E-02 0. -1.
       -1    1    3    3    0  502 -0.14396482894E+02  0.72325621631E+03 -0.13577490146E+04  0.15384372590E+04  0.50400001928E-02 0.  1.
</event>
<event>
 5   0  0.6238363E-06  0.2100585E+04  0.7818609E-02  0.8560986E-01
        1   -1    0    0  501    0  0.00000000000E+00  0.00000000000E+00  0.10486512358E+04  0.10486512358E+04  0.50400001928E-02 0.  1.
       -1   -1    0    0    0  501  0.00000000000E+00  0.00000000000E+00 -0.10519363534E+04  0.10519363534E+04  0.50400001928E-02 0. -1.
    10030    2    1    2    0    0  0.00000000000E+00  0.00000000000E+00 -0.32851175875E+01  0.21005875893E+04  0.21005850205E+04 0.  0.
        4    1    3    3  502    0  0.24828572862E+03 -0.99499030291E+03  0.22520841458E+03  0.10499390215E+04  0.12699999809E+01 0.  1.
       -4    1    3    3    0  502 -0.24828572862E+03  0.99499030291E+03 -0.22849353217E+03  0.10506485678E+04  0.12699999809E+01 0. -1.
</event>
<event>
 5   0  0.1441136E-05  0.2106188E+04  0.7818609E-02  0.8558522E-01
       -2   -1    0    0    0  501  0.00000000000E+00  0.00000000000E+00  0.50271905178E+03  0.50271905178E+03  0.25500000920E-02 0. -1.
        2   -1    0    0  501    0  0.00000000000E+00  0.00000000000E+00 -0.22060177864E+04  0.22060177864E+04  0.25500000920E-02 0.  1.
    10030    2    1    2    0    0  0.00000000000E+00  0.00000000000E+00 -0.17032987346E+04  0.27087368382E+04  0.21061881870E+04 0.  0.
        4    1    3    3  502    0  0.52914768240E+03 -0.19886007068E+03  0.29105929774E+03  0.63581422224E+03  0.12699999809E+01 0. -1.
       -4    1    3    3    0  502 -0.52914768240E+03  0.19886007068E+03 -0.19943580324E+04  0.20729226159E+04  0.12699999809E+01 0.  1.
</event>
<event>
 5   0  0.1441136E-05  0.2112537E+04  0.7818609E-02  0.8555741E-01
        2   -1    0    0  501    0  0.00000000000E+00  0.00000000000E+00  0.10814806253E+04  0.10814806253E+04  0.25500000920E-02 0.  1.
       -2   -1    0    0    0  501  0.00000000000E+00  0.00000000000E+00 -0.10316438750E+04  0.10316438750E+04  0.25500000920E-02 0. -1.
    10030    2    1    2    0    0  0.00000000000E+00  0.00000000000E+00  0.49836750354E+02  0.21131245003E+04  0.21125367339E+04 0.  0.
        4    1    3    3  502    0 -0.52459312563E+03  0.83337161044E+03  0.40711768525E+03  0.10655761874E+04  0.12699999809E+01 0.  1.
       -4    1    3    3    0  502  0.52459312563E+03 -0.83337161044E+03 -0.35728093489E+03  0.10475483129E+04  0.12699999809E+01 0. -1.
</event>
<event>
 5   0  0.6599245E-06  0.2100833E+04  0.7818609E-02  0.8560876E-01
       -1   -1    0    0    0  501  0.00000000000E+00  0.00000000000E+00  0.59852652209E+03  0.59852652211E+03  0.50400001928E-02 0. -1.
        1   -1    0    0  501    0  0.00000000000E+00  0.00000000000E+00 -0.18434853625E+04  0.18434853625E+04  0.50400001928E-02 0.  1.
    10030    2    1    2    0    0  0.00000000000E+00  0.00000000000E+00 -0.12449588404E+04  0.24420118846E+04  0.21008330562E+04 0.  0.
        2    1    3    3  502    0  0.36194203270E+03  0.75530264889E+03  0.11442343528E+03  0.84532647480E+03  0.25500000920E-02 0. -1.
       -2    1    3    3    0  502 -0.36194203270E+03 -0.75530264889E+03 -0.13593822756E+04  0.15966854098E+04  0.25500000920E-02 0.  1.
</event>
<event>
 5   0  0.6599245E-06  0.2099453E+04  0.7818609E-02  0.8561484E-01
        1   -1    0    0  501    0  0.00000000000E+00  0.00000000000E+00  0.10399026099E+04  0.10399026099E+04  0.50400001928E-02 0.  1.
       -1   -1    0    0    0  501  0.00000000000E+00  0.00000000000E+00 -0.10596434627E+04  0.10596434627E+04  0.50400001928E-02 0. -1.
    10030    2    1    2    0    0  0.00000000000E+00  0.00000000000E+00 -0.19740852807E+02  0.20995460726E+04  0.20994532645E+04 0.  0.
        2    1    3    3  502    0 -0.39251988704E+03 -0.19784979132E+03 -0.96317517472E+03  0.10587364256E+04  0.25500000920E-02 0. -1.
       -2    1    3    3    0  502  0.39251988704E+03  0.19784979132E+03  0.94343432191E+03  0.10408096471E+04  0.25500000920E-02 0.  1.
</event>
<event>
 5   0  0.1398469E-05  0.2099143E+04  0.7818609E-02  0.8561621E-01
       -2   -1    0    0    0  501  0.00000000000E+00  0.00000000000E+00  0.13363163210E+04  0.13363163210E+04  0.25500000920E-02 0.  1.
        2   -1    0    0  501    0  0.00000000000E+00  0.00000000000E+00 -0.82435590563E+03  0.82435590563E+03  0.25500000920E-02 0. -1.
    10030    2    1    2    0    0  0.00000000000E+00  0.00000000000E+00  0.51196041536E+03  0.21606722266E+04  0.20991429213E+04 0.  0.
        2    1    3    3  502    0 -0.60682918567E+03  0.20829150951E+03 -0.59901366750E+03  0.87774961543E+03  0.25500000920E-02 0. -1.
       -2    1    3    3    0  502  0.60682918567E+03 -0.20829150951E+03  0.11109740829E+04  0.12829226112E+04  0.25500000920E-02 0.  1.
</event>
<event>
 5   0  0.1344501E-05  0.2097204E+04  0.7818609E-02  0.8562476E-01
        2   -1    0    0  501    0  0.00000000000E+00  0.00000000000E+00  0.12066117263E+04  0.12066117263E+04  0.25500000920E-02 0.  1.
       -2   -1    0    0    0  501  0.00000000000E+00  0.00000000000E+00 -0.91128451930E+03  0.91128451931E+03  0.25500000920E-02 0. -1.
    10030    2    1    2    0    0  0.00000000000E+00  0.00000000000E+00  0.29532720702E+03  0.21178962456E+04  0.20972044126E+04 0.  0.
        3    1    3    3  502    0  0.47304417307E+03 -0.20571588873E+03  0.10696206016E+04  0.11875091823E+04  0.10100000352E+00 0.  1.
       -3    1    3    3    0  502 -0.47304417307E+03  0.20571588873E+03 -0.77429339456E+03  0.93038706332E+03  0.10100000352E+00 0. -1.
</event>
<event>
 5   0  0.1398469E-05  0.2097179E+04  0.7818609E-02  0.8562487E-01
        2   -1    0    0  501    0  0.00000000000E+00  0.00000000000E+00  0.76860324779E+03  0.76860324779E+03  0.25500000920E-02 0. -1.
       -2   -1    0    0    0  501  0.00000000000E+00  0.00000000000E+00 -0.14305694050E+04  0.14305694050E+04  0.25500000920E-02 0.  1.
    10030    2    1    2    0    0  0.00000000000E+00  0.00000000000E+00 -0.66196615719E+03  0.21991726528E+04  0.20971793351E+04 0.  0.
        2    1    3    3  502    0  0.44276975141E+01  0.86337046929E+03  0.29303066051E+03  0.91175388113E+03  0.25500000920E-02 0. -1.
       -2    1    3    3    0  502 -0.44276975141E+01 -0.86337046929E+03 -0.95499681770E+03  0.12874187716E+04  0.25500000920E-02 0.  1.
</event>
<event>
 5   0  0.1395356E-05  0.2077262E+04  0.7818609E-02  0.8571326E-01
        2   -1    0    0  501    0  0.00000000000E+00  0.00000000000E+00  0.17910781328E+04  0.17910781328E+04  0.25500000920E-02 0. -1.
       -2   -1    0    0    0  501  0.00000000000E+00  0.00000000000E+00 -0.60229344393E+03  0.60229344393E+03  0.25500000920E-02 0.  1.
    10030    2    1    2    0    0  0.00000000000E+00  0.00000000000E+00  0.11887846889E+04  0.23933715768E+04  0.20772622530E+04 0.  0.
        1    1    3    3  502    0  0.22651318449E+03 -0.93441311142E+03  0.10470061958E+04  0.14214985261E+04  0.50400001928E-02 0. -1.
       -1    1    3    3    0  502 -0.22651318449E+03  0.93441311142E+03  0.14177849311E+03  0.97187305070E+03  0.50400001928E-02 0.  1.
</event>
<event>
 5   0  0.6589193E-06  0.2098938E+04  0.7818609E-02  0.8561711E-01
        1   -1    0    0  501    0  0.00000000000E+00  0.00000000000E+00  0.25202733468E+04  0.25202733468E+04  0.50400001928E-02 0. -1.
       -1   -1    0    0    0  501  0.00000000000E+00  0.00000000000E+00 -0.43701033650E+03  0.43701033653E+03  0.50400001928E-02 0.  1.
    10030    2    1    2    0    0  0.00000000000E+00  0.00000000000E+00  0.20832630103E+04  0.29572836833E+04  0.20989383063E+04 0.  0.
        3    1    3    3  502    0 -0.10280903423E+04  0.19224518901E+03  0.91995946871E+03  0.13929297896E+04  0.10100000352E+00 0. -1.
       -3    1    3    3    0  502  0.10280903423E+04 -0.19224518901E+03  0.11633035416E+04  0.15643538937E+04  0.10100000352E+00 0.  1.
</event>
<event>
 5   0  0.1390735E-05  0.2094847E+04  0.7818609E-02  0.8563517E-01
        2   -1    0    0  501    0  0.00000000000E+00  0.00000000000E+00  0.12831935879E+04  0.12831935879E+04  0.25500000920E-02 0. -1.
       -2   -1    0    0    0  501  0.00000000000E+00  0.00000000000E+00 -0.85497288448E+03  0.85497288448E+03  0.25500000920E-02 0.  1.
    10030    2    1    2    0    0  0.00000000000E+00  0.00000000000E+00  0.42822070340E+03  0.21381664724E+04  0.20948467468E+04 0.  0.
        5    1    3    3  502    0  0.77578778158E+03  0.70218653913E+03  0.16666232134E+03  0.10595805949E+04  0.46999998093E+01 0.  1.
       -5    1    3    3    0  502 -0.77578778158E+03 -0.70218653913E+03  0.26155838206E+03  0.10785858774E+04  0.46999998093E+01 0. -1.
</event>
<event>
 5   0  0.1441136E-05  0.2104260E+04  0.7818609E-02  0.8559369E-01
        2   -1    0    0  501    0  0.00000000000E+00  0.00000000000E+00  0.12030533244E+04  0.12030533244E+04  0.25500000920E-02 0. -1.
       -2   -1    0    0    0  501  0.00000000000E+00  0.00000000000E+00 -0.92014009937E+03  0.92014009938E+03  0.25500000920E-02 0.  1.
    10030    2    1    2    0    0  0.00000000000E+00  0.00000000000E+00  0.28291322505E+03  0.21231934238E+04  0.21042600652E+04 0.  0.
        4    1    3    3  502    0  0.42692718676E+03  0.68364880811E+03 -0.54089251992E+03  0.97067442875E+03  0.12699999809E+01 0.  1.
       -4    1    3    3    0  502 -0.42692718676E+03 -0.68364880811E+03  0.82380574497E+03  0.11525189951E+04  0.12699999809E+01 0. -1.
</event>
<event>
 5   0  0.1398469E-05  0.2073623E+04  0.7818609E-02  0.8572953E-01
        2   -1    0    0  501    0  0.00000000000E+00  0.00000000000E+00  0.17672525972E+04  0.17672525972E+04  0.25500000920E-02 0.  1.
       -2   -1    0    0    0  501  0.00000000000E+00  0.00000000000E+00 -0.60827622514E+03  0.60827622514E+03  0.25500000920E-02 0. -1.
    10030    2    1    2    0    0  0.00000000000E+00  0.00000000000E+00  0.11589763721E+04  0.23755288223E+04  0.20736226645E+04 0.  0.
        2    1    3    3  502    0 -0.30366208843E+03 -0.69265437041E+03  0.13919692905E+04  0.15841588451E+04  0.25500000920E-02 0.  1.
       -2    1    3    3    0  502  0.30366208843E+03  0.69265437041E+03 -0.23299291846E+03  0.79136997723E+03  0.25500000920E-02 0. -1.
</event>
<event>
 5   0  0.6589193E-06  0.2095813E+04  0.7818609E-02  0.8563090E-01
        1   -1    0    0  501    0  0.00000000000E+00  0.00000000000E+00  0.10235659168E+04  0.10235659169E+04  0.50400001928E-02 0. -1.
       -1   -1    0    0    0  501  0.00000000000E+00  0.00000000000E+00 -0.10728261174E+04  0.10728261174E+04  0.50400001928E-02 0.  1.
    10030    2    1    2    0    0  0.00000000000E+00  0.00000000000E+00 -0.49260200593E+02  0.20963920343E+04  0.20958132059E+04 0.  0.
        3    1    3    3  502    0  0.64764534630E+03 -0.74992574805E+03 -0.36571564891E+03  0.10562107120E+04  0.10100000352E+00 0.  1.
       -3    1    3    3    0  502 -0.64764534630E+03  0.74992574805E+03  0.31645544832E+03  0.10401813222E+04  0.10100000352E+00 0. -1.
</event>
<event>
 5   0  0.6917078E-06  0.2115500E+04  0.7818609E-02  0.8554446E-01
        1   -1    0    0  501    0  0.00000000000E+00  0.00000000000E+00  0.14815952725E+04  0.14815952725E+04  0.50400001928E-02 0. -1.
       -1   -1    0    0    0  501  0.00000000000E+00  0.00000000000E+00 -0.75515586046E+03  0.75515586047E+03  0.50400001928E-02 0.  1.
    10030    2    1    2    0    0  0.00000000000E+00  0.00000000000E+00  0.72643941200E+03  0.22367511329E+04  0.21155002745E+04 0.  0.
        5    1    3    3  502    0 -0.58723687869E+03 -0.40969529747E+03 -0.45993678888E+03  0.85103544475E+03  0.46999998093E+01 0.  1.
       -5    1    3    3    0  502  0.58723687869E+03  0.40969529747E+03  0.11863762009E+04  0.13857156882E+04  0.46999998093E+01 0. -1.
</event>
<event>
 5   0  0.1395356E-05  0.2098656E+04  0.7818609E-02  0.8561835E-01
        2   -1    0    0  501    0  0.00000000000E+00  0.00000000000E+00  0.22944529821E+04  0.22944529821E+04  0.25500000920E-02 0. -1.
       -2   -1    0    0    0  501  0.00000000000E+00  0.00000000000E+00 -0.47989203406E+03  0.47989203406E+03  0.25500000920E-02 0.  1.
    10030    2    1    2    0    0  0.00000000000E+00  0.00000000000E+00  0.18145609480E+04  0.27743450161E+04  0.20986564356E+04 0.  0.
        1    1    3    3  502    0  0.53076491582E+03  0.88282597409E+03  0.64289917935E+03  0.12142538661E+04  0.50400001928E-02 0.  1.
       -1    1    3    3    0  502 -0.53076491582E+03 -0.88282597409E+03  0.11716617687E+04  0.15600911501E+04  0.50400001928E-02 0. -1.
</event>
<event>
 5   0  0.1390735E-05  0.2094324E+04  0.7818609E-02  0.8563748E-01
        2   -1    0    0  501    0  0.00000000000E+00  0.00000000000E+00  0.17607673614E+04  0.17607673614E+04  0.25500000920E-02 0. -1.
       -2   -1    0    0    0  501  0.00000000000E+00  0.00000000000E+00 -0.62276731235E+03  0.62276731236E+03  0.25500000920E-02 0.  1.
    10030    2    1    2    0    0  0.00000000000E+00  0.00000000000E+00  0.11380000490E+04  0.23835346737E+04  0.20943240985E+04 0.  0.
        5    1    3    3  502    0  0.37329041790E+03  0.89875076494E+03  0.12906049541E+03  0.98172163827E+03  0.46999998093E+01 0.  1.
       -5    1    3    3    0  502 -0.37329041790E+03 -0.89875076494E+03  0.10089395536E+04  0.14018130355E+04  0.46999998093E+01 0. -1.
</event>
<event>
 5   0  0.1390735E-05  0.2103955E+04  0.7818609E-02  0.8559503E-01
       -2   -1    0    0    0  501  0.00000000000E+00  0.00000000000E+00  0.81967631032E+03  0.81967631033E+03  0.25500000920E-02 0. -1.
        2   -1    0    0  501    0  0.00000000000E+00  0.00000000000E+00 -0.13501148724E+04  0.13501148724E+04  0.25500000920E-02 0.  1.
    10030    2    1    2    0    0  0.00000000000E+00  0.00000000000E+00 -0.53043856204E+03  0.21697911827E+04  0.21039554911E+04 0.  0.
        5    1    3    3  502    0 -0.43015207118E+03 -0.46063270199E+03 -0.11338469434E+04  0.12972448772E+04  0.46999998093E+01 0.  1.
       -5    1    3    3    0  502  0.43015207118E+03  0.46063270199E+03  0.60340838135E+03  0.87254630545E+03  0.46999998093E+01 0. -1.
</event>
<event>
 5   0  0.6238363E-06  0.2105706E+04  0.7818609E-02  0.8558734E-01
       -1   -1    0    0    0  501  0.00000000000E+00  0.00000000000E+00  0.66075185689E+03  0.66075185691E+03  0.50400001928E-02 0. -1.
        1   -1    0    0  501    0  0.00000000000E+00  0.00000000000E+00 -0.16776327150E+04  0.16776327150E+04  0.50400001928E-02 0.  1.
    10030    2    1    2    0    0  0.00000000000E+00  0.00000000000E+00 -0.10168808581E+04  0.23383845719E+04  0.21057055175E+04 0.  0.
        4    1    3    3  502    0  0.28863463177E+03  0.38653007546E+03  0.53080058212E+03  0.71726307640E+03  0.12699999809E+01 0. -1.
       -4    1    3    3    0  502 -0.28863463177E+03 -0.38653007546E+03 -0.15476814402E+04  0.16211214955E+04  0.12699999809E+01 0.  1.
</event>
<event>
 5   0  0.6238363E-06  0.2104430E+04  0.7818609E-02  0.8559294E-01
       -1   -1    0    0    0  501  0.00000000000E+00  0.00000000000E+00  0.90470210502E+03  0.90470210503E+03  0.50400001928E-02 0.  1.
        1   -1    0    0  501    0  0.00000000000E+00  0.00000000000E+00 -0.12237799826E+04  0.12237799826E+04  0.50400001928E-02 0. -1.
    10030    2    1    2    0    0  0.00000000000E+00  0.00000000000E+00 -0.31907787757E+03  0.21284820876E+04  0.21044299241E+04 0.  0.
        4    1    3    3  502    0  0.10404665108E+04  0.15637372331E+03 -0.17113346280E+03  0.10659791633E+04  0.12699999809E+01 0.  1.
       -4    1    3    3    0  502 -0.10404665108E+04 -0.15637372331E+03 -0.14794441477E+03  0.10625029244E+04  0.12699999809E+01 0. -1.
</event>
<event>
 5   0  0.6599245E-06  0.2058521E+04  0.7818609E-02  0.8579739E-01
        1   -1    0    0  501    0  0.00000000000E+00  0.00000000000E+00  0.32343814355E+04  0.32343814355E+04  0.50400001928E-02 0.  1.
       -1   -1    0    0    0  501  0.00000000000E+00  0.00000000000E+00 -0.32753619445E+03  0.32753619449E+03  0.50400001928E-02 0. -1.
    10030    2    1    2    0    0  0.00000000000E+00  0.00000000000E+00  0.29068452410E+04  0.35619176300E+04  0.20585208154E+04 0.  0.
        2    1    3    3  502    0 -0.89994008171E+03  0.45446244951E+03  0.18120171935E+04  0.20736042482E+04  0.25500000920E-02 0.  1.
       -2    1    3    3    0  502  0.89994008171E+03 -0.45446244951E+03  0.10948280476E+04  0.14883133818E+04  0.25500000920E-02 0. -1.
</event>
<event>
 5   0  0.1395356E-05  0.2101161E+04  0.7818609E-02  0.8560732E-01
        2   -1    0    0  501    0  0.00000000000E+00  0.00000000000E+00  0.83258099734E+03  0.83258099735E+03  0.25500000920E-02 0.  1.
       -2   -1    0    0    0  501  0.00000000000E+00  0.00000000000E+00 -0.13256597719E+04  0.13256597719E+04  0.25500000920E-02 0. -1.
    10030    2    1    2    0    0  0.00000000000E+00  0.00000000000E+00 -0.49307877452E+03  0.21582407692E+04  0.21011607602E+04 0.  0.
        1    1    3    3  502    0  0.16413792753E+03 -0.45062624078E+03 -0.12066587424E+04  0.12984724058E+04  0.50400001928E-02 0. -1.
       -1    1    3    3    0  502 -0.16413792753E+03  0.45062624078E+03  0.71357996785E+03  0.85976836338E+03  0.50400001928E-02 0.  1.
</event>
<event>
 5   0  0.1390735E-05  0.2100748E+04  0.7818609E-02  0.8560914E-01
        2   -1    0    0  501    0  0.00000000000E+00  0.00000000000E+00  0.15545347329E+04  0.15545347329E+04  0.25500000920E-02 0.  1.
       -2   -1    0    0    0  501  0.00000000000E+00  0.00000000000E+00 -0.70972045024E+03  0.70972045024E+03  0.25500000920E-02 0. -1.
    10030    2    1    2    0    0  0.00000000000E+00  0.00000000000E+00  0.84481428270E+03  0.22642551832E+04  0.21007475723E+04 0.  0.
        5    1    3    3  502    0 -0.87375921446E+03  0.58270473920E+03  0.40492687406E+03  0.11256055443E+04  0.46999998093E+01 0. -1.
       -5    1    3    3    0  502  0.87375921446E+03 -0.58270473920E+03  0.43988740864E+03  0.11386496389E+04  0.46999998093E+01 0.  1.
</event>
<event>
 5   0  0.1344501E-05  0.2094667E+04  0.7818609E-02  0.8563596E-01
       -2   -1    0    0    0  501  0.00000000000E+00  0.00000000000E+00  0.43055966058E+03  0.43055966058E+03  0.25500000920E-02 0.  1.
        2   -1    0    0  501    0  0.00000000000E+00  0.00000000000E+00 -0.25476326039E+04  0.25476326039E+04  0.25500000920E-02 0. -1.
    10030    2    1    2    0    0  0.00000000000E+00  0.00000000000E+00 -0.21170729433E+04  0.29781922645E+04  0.20946673523E+04 0.  0.
        3    1    3    3  502    0 -0.51612279584E+03 -0.42224083380E+03 -0.22067975267E+04  0.23053471313E+04  0.10100000352E+00 0. -1.
       -3    1    3    3    0  502  0.51612279584E+03  0.42224083380E+03  0.89724583349E+02  0.67284513313E+03  0.10100000352E+00 0.  1.
</event>
<event>
 5   0  0.6238363E-06  0.2097144E+04  0.7818609E-02  0.8562503E-01
       -1   -1    0    0    0  501  0.00000000000E+00  0.00000000000E+00  0.38748549515E+03  0.38748549519E+03  0.50400001928E-02 0.  1.
        1   -1    0    0  501    0  0.00000000000E+00  0.00000000000E+00 -0.28375327973E+04  0.28375327973E+04  0.50400001928E-02 0. -1.
    10030    2    1    2    0    0  0.00000000000E+00  0.00000000000E+00 -0.24500473022E+04  0.32250182925E+04  0.20971435822E+04 0.  0.
        4    1    3    3  502    0  0.69125132694E+02 -0.93098648316E+03 -0.19592993029E+04  0.21703385650E+04  0.12699999809E+01 0. -1.
       -4    1    3    3    0  502 -0.69125132694E+02  0.93098648316E+03 -0.49074799928E+03  0.10546797275E+04  0.12699999809E+01 0.  1.
</event>
<event>
 5   0  0.1395356E-05  0.2102653E+04  0.7818609E-02  0.8560075E-01
       -2   -1    0    0    0  501  0.00000000000E+00  0.00000000000E+00  0.82228046848E+03  0.82228046849E+03  0.25500000920E-02 0.  1.
        2   -1    0    0  501    0  0.00000000000E+00  0.00000000000E+00 -0.13441736570E+04  0.13441736570E+04  0.25500000920E-02 0. -1.
    10030    2    1    2    0    0  0.00000000000E+00  0.00000000000E+00 -0.52189318850E+03  0.21664541255E+04  0.21026533184E+04 0.  0.
        1    1    3    3  502    0 -0.55780169317E+03 -0.78147846646E+03 -0.70223712625E+03  0.11895328091E+04  0.50400001928E-02 0.  1.
       -1    1    3    3    0  502  0.55780169317E+03  0.78147846646E+03  0.18034393776E+03  0.97692131636E+03  0.50400001928E-02 0. -1.
</event>
<event>
 5   0  0.6238363E-06  0.2099952E+04  0.7818609E-02  0.8561264E-01
       -1   -1    0    0    0  501  0.00000000000E+00  0.00000000000E+00  0.15024407248E+04  0.15024407248E+04  0.50400001928E-02 0.  1.
        1   -1    0    0  501    0  0.00000000000E+00  0.00000000000E+00 -0.73377260091E+03  0.73377260092E+03  0.50400001928E-02 0. -1.
    10030    2    1    2    0    0  0.00000000000E+00  0.00000000000E+00  0.76866812391E+03  0.22362133257E+04  0.20999522265E+04 0.  0.
        4    1    3    3  502    0 -0.42693613272E+03 -0.21511700914E+03  0.13798180926E+04  0.14602908514E+04  0.12699999809E+01 0.  1.
       -4    1    3    3    0  502  0.42693613272E+03  0.21511700914E+03 -0.61114996872E+03  0.77592247435E+03  0.12699999809E+01 0. -1.
</event>
<event>
 5   0  0.1344501E-05  0.2103438E+04  0.7818609E-02  0.8559730E-01
       -2   -1    0    0    0  501  0.00000000000E+00  0.00000000000E+00  0.13328269905E+04  0.13328269905E+04  0.25500000920E-02 0.  1.
        2   -1    0    0  501    0  0.00000000000E+00  0.00000000000E+00 -0.82989983521E+03  0.82989983521E+03  0.25500000920E-02 0. -1.
    10030    2    1    2    0    0  0.00000000000E+00  0.00000000000E+00  0.50292715533E+03  0.21627268257E+04  0.21034380426E+04 0.  0.
        3    1    3    3  502    0 -0.18290072168E+03 -0.10251843803E+04  0.10015166684E+03  0.10461768752E+04  0.10100000352E+00 0. -1.
       -3    1    3    3    0  502  0.18290072168E+03  0.10251843803E+04  0.40277548849E+03  0.11165499505E+04  0.10100000352E+00 0.  1.
</event>
<event>
 5   0  0.1441136E-05  0.2105183E+04  0.7818609E-02  0.8558964E-01
        2   -1    0    0  501    0  0.00000000000E+00  0.00000000000E+00  0.16903324997E+04  0.16903324997E+04  0.25500000920E-02 0.  1.
       -2   -1    0    0    0  501  0.00000000000E+00  0.00000000000E+00 -0.65546223097E+03  0.65546223097E+03  0.25500000920E-02 0. -1.
    10030    2    1    2    0    0  0.00000000000E+00  0.00000000000E+00  0.10348702687E+04  0.23457947307E+04  0.21051832332E+04 0.  0.
        4    1    3    3  502    0  0.24650626714E+02  0.33810113372E+03 -0.59296814289E+03  0.68303210862E+03  0.12699999809E+01 0. -1.
       -4    1    3    3    0  502 -0.24650626714E+02 -0.33810113372E+03  0.16278384116E+04  0.16627626220E+04  0.12699999809E+01 0.  1.
</event>
<event>
 5   0  0.6283269E-06  0.2105264E+04  0.7818609E-02  0.8558928E-01
        1   -1    0    0  501    0  0.00000000000E+00  0.00000000000E+00  0.87866054366E+03  0.87866054367E+03  0.50400001928E-02 0.  1.
       -1   -1    0    0    0  501  0.00000000000E+00  0.00000000000E+00 -0.12610496671E+04  0.12610496671E+04  0.50400001928E-02 0. -1.
    10030    2    1    2    0    0  0.00000000000E+00  0.00000000000E+00 -0.38238912344E+03  0.21397102108E+04  0.21052644357E+04 0.  0.
        1    1    3    3  502    0  0.57076719001E+03  0.84834362425E+02 -0.10859754029E+04  0.12297620217E+04  0.50400001928E-02 0. -1.
       -1    1    3    3    0  502 -0.57076719001E+03 -0.84834362425E+02  0.70358627943E+03  0.90994818912E+03  0.50400001928E-02 0.  1.
</event>
<event>
 5   0  0.1395356E-05  0.2111129E+04  0.7818609E-02  0.8556357E-01
       -2   -1    0    0    0  501  0.00000000000E+00  0.00000000000E+00  0.53910942404E+03  0.53910942404E+03  0.25500000920E-02 0. -1.
        2   -1    0    0  501    0  0.00000000000E+00  0.00000000000E+00 -0.20667726733E+04  0.20667726733E+04  0.25500000920E-02 0.  1.
    10030    2    1    2    0    0  0.00000000000E+00  0.00000000000E+00 -0.15276632492E+04  0.26058820973E+04  0.21111292007E+04 0.  0.
        1    1    3    3  502    0  0.89259957765E+01 -0.99597298365E+03 -0.33238138874E+03  0.10500091643E+04  0.50400001928E-02 0. -1.
       -1    1    3    3    0  502 -0.89259957765E+01  0.99597298365E+03 -0.11952818605E+04  0.15558729330E+04  0.50400001928E-02 0.  1.
</event>
<event>
 5   0  0.6917078E-06  0.2099420E+04  0.7818609E-02  0.8561499E-01
       -1   -1    0    0    0  501  0.00000000000E+00  0.00000000000E+00  0.17785550983E+04  0.17785550983E+04  0.50400001928E-02 0.  1.
        1   -1    0    0  501    0  0.00000000000E+00  0.00000000000E+00 -0.61954270496E+03  0.61954270498E+03  0.50400001928E-02 0. -1.
    10030    2    1    2    0    0  0.00000000000E+00  0.00000000000E+00  0.11590123933E+04  0.23980978033E+04  0.20994197642E+04 0.  0.
        5    1    3    3  502    0 -0.34032886761E+03 -0.22540360956E+03  0.16841664640E+04  0.17329366098E+04  0.46999998093E+01 0.  1.
       -5    1    3    3    0  502  0.34032886761E+03  0.22540360956E+03 -0.52515407065E+03  0.66516119343E+03  0.46999998093E+01 0. -1.
</event>
<event>
 5   0  0.6917078E-06  0.2103470E+04  0.7818609E-02  0.8559716E-01
        1   -1    0    0  501    0  0.00000000000E+00  0.00000000000E+00  0.11441520286E+04  0.11441520286E+04  0.50400001928E-02 0.  1.
       -1   -1    0    0    0  501  0.00000000000E+00  0.00000000000E+00 -0.96678311110E+03  0.96678311112E+03  0.50400001928E-02 0. -1.
    10030    2    1    2    0    0  0.00000000000E+00  0.00000000000E+00  0.17736891748E+03  0.21109351397E+04  0.21034703305E+04 0.  0.
        5    1    3    3  502    0 -0.54488647832E+03 -0.67525297499E+03  0.68514790533E+03  0.11055847307E+04  0.46999998093E+01 0.  1.
       -5    1    3    3    0  502  0.54488647832E+03  0.67525297499E+03 -0.50777898785E+03  0.10053504091E+04  0.46999998093E+01 0. -1.
</event>
<event>
 5   0  0.6238363E-06  0.2104234E+04  0.7818609E-02  0.8559381E-01
        1   -1    0    0  501    0  0.00000000000E+00  0.00000000000E+00  0.14234617726E+04  0.14234617727E+04  0.50400001928E-02 0. -1.
       -1   -1    0    0    0  501  0.00000000000E+00  0.00000000000E+00 -0.77764647806E+03  0.77764647807E+03  0.50400001928E-02 0.  1.
    10030    2    1    2    0    0  0.00000000000E+00  0.00000000000E+00  0.64581529459E+03  0.22011082507E+04  0.21042338598E+04 0.  0.
        4    1    3    3  502    0  0.24028044780E+03 -0.23165964078E+03  0.13666141721E+04  0.14067824249E+04  0.12699999809E+01 0. -1.
       -4    1    3    3    0  502 -0.24028044780E+03  0.23165964078E+03 -0.72079887754E+03  0.79432582579E+03  0.12699999809E+01 0.  1.
</event>
<event>
 5   0  0.6589193E-06  0.2100511E+04  0.7818609E-02  0.8561018E-01
        1   -1    0    0  501    0  0.00000000000E+00  0.00000000000E+00  0.12567357929E+04  0.12567357929E+04  0.50400001928E-02 0. -1.
       -1   -1    0    0    0  501  0.00000000000E+00  0.00000000000E+00 -0.87770001034E+03  0.87770001035E+03  0.50400001928E-02 0.  1.
    10030    2    1    2    0    0  0.00000000000E+00  0.00000000000E+00  0.37903578258E+03  0.21344358033E+04  0.21005113839E+04 0.  0.
        3    1    3    3  502    0 -0.73634636238E+03 -0.55608993229E+03 -0.32017559866E+03  0.97670589348E+03  0.10100000352E+00 0.  1.
       -3    1    3    3    0  502  0.73634636238E+03  0.55608993229E+03  0.69921138124E+03  0.11577299098E+04  0.10100000352E+00 0. -1.
</event>
<event>
 5   0  0.6589193E-06  0.2104845E+04  0.7818609E-02  0.8559112E-01
        1   -1    0    0  501    0  0.00000000000E+00  0.00000000000E+00  0.82764276387E+03  0.82764276389E+03  0.50400001928E-02 0.  1.
       -1   -1    0    0    0  501  0.00000000000E+00  0.00000000000E+00 -0.13382508461E+04  0.13382508461E+04  0.50400001928E-02 0. -1.
    10030    2    1    2    0    0  0.00000000000E+00  0.00000000000E+00 -0.51060808218E+03  0.21658936099E+04  0.21048454851E+04 0.  0.
        3    1    3    3  502    0 -0.34254802597E+03  0.44309501180E+03  0.66156143718E+03  0.86679633418E+03  0.10100000352E+00 0.  1.
       -3    1    3    3    0  502  0.34254802597E+03 -0.44309501180E+03 -0.11721695194E+04  0.12990972758E+04  0.10100000352E+00 0. -1.
</event>
<event>
 5   0  0.6238363E-06  0.2099388E+04  0.7818609E-02  0.8561513E-01
       -1   -1    0    0    0  501  0.00000000000E+00  0.00000000000E+00  0.40930126834E+03  0.40930126837E+03  0.50400001928E-02 0. -1.
        1   -1    0    0  501    0  0.00000000000E+00  0.00000000000E+00 -0.26920456703E+04  0.26920456703E+04  0.50400001928E-02 0.  1.
    10030    2    1    2    0    0  0.00000000000E+00  0.00000000000E+00 -0.22827444020E+04  0.31013469387E+04  0.20993882036E+04 0.  0.
        4    1    3    3  502    0  0.46103371864E+03  0.77706061194E+03 -0.19306793927E+04  0.21316425157E+04  0.12699999809E+01 0.  1.
       -4    1    3    3    0  502 -0.46103371864E+03 -0.77706061194E+03 -0.35206500925E+03  0.96970442300E+03  0.12699999809E+01 0. -1.
</event>
<event>
 5   0  0.6589193E-06  0.2095730E+04  0.7818609E-02  0.8563127E-01
        1   -1    0    0  501    0  0.00000000000E+00  0.00000000000E+00  0.21576139432E+04  0.21576139432E+04  0.50400001928E-02 0. -1.
       -1   -1    0    0    0  501  0.00000000000E+00  0.00000000000E+00 -0.50890537706E+03  0.50890537709E+03  0.50400001928E-02 0.  1.
    10030    2    1    2    0    0  0.00000000000E+00  0.00000000000E+00  0.16487085662E+04  0.26665193203E+04  0.20957302664E+04 0.  0.
        3    1    3    3  502    0  0.16914250624E+03  0.54031975777E+03  0.19462442065E+04  0.20269240612E+04  0.10100000352E+00 0. -1.
       -3    1    3    3    0  502 -0.16914250624E+03 -0.54031975777E+03 -0.29753564037E+03  0.63959525916E+03  0.10100000352E+00 0.  1.
</event>
<event>
 5   0  0.6283269E-06  0.2097382E+04  0.7818609E-02  0.8562397E-01
       -1   -1    0    0    0  501  0.00000000000E+00  0.00000000000E+00  0.13017868274E+04  0.13017868275E+04  0.50400001928E-02 0. -1.
        1   -1    0    0  501    0  0.00000000000E+00  0.00000000000E+00 -0.84480256318E+03  0.84480256320E+03  0.50400001928E-02 0.  1.
    10030    2    1    2    0    0  0.00000000000E+00  0.00000000000E+00  0.45698426426E+03  0.21465893906E+04  0.20973820335E+04 0.  0.
        1    1    3    3  502    0 -0.70769775785E+03 -0.27258416751E+03  0.96978807472E+03  0.12311081003E+04  0.50400001928E-02 0. -1.
       -1    1    3    3    0  502  0.70769775785E+03  0.27258416751E+03 -0.51280381046E+03  0.91548129030E+03  0.50400001928E-02 0.  1.
</event>
<event>
 5   0  0.6917078E-06  0.2100913E+04  0.7818609E-02  0.8560841E-01
       -1   -1    0    0    0  501  0.00000000000E+00  0.00000000000E+00  0.90994332999E+03  0.90994333001E+03  0.50400001928E-02 0. -1.
        1   -1    0    0  501    0  0.00000000000E+00  0.00000000000E+00 -0.12126674595E+04  0.12126674596E+04  0.50400001928E-02 0.  1.
    10030    2    1    2    0    0  0.00000000000E+00  0.00000000000E+00 -0.30272412955E+03  0.21226107896E+04  0.21009128172E+04 0.  0.
        5    1    3    3  502    0 -0.46991440343E+03 -0.93804312950E+03 -0.20378354767E+03  0.10687816819E+04  0.46999998093E+01 0. -1.
       -5    1    3    3    0  502  0.46991440343E+03  0.93804312950E+03 -0.98940581880E+02  0.10538291076E+04  0.46999998093E+01 0.  1.
</event>
<event>
 5   0  0.1344501E-05  0.2105949E+04  0.7818609E-02  0.8558627E-01
        2   -1    0    0  501    0  0.00000000000E+00  0.00000000000E+00  0.11177106304E+04  0.11177106304E+04  0.25500000920E-02 0. -1.
       -2   -1    0    0    0  501  0.00000000000E+00  0.00000000000E+00 -0.99198776723E+03  0.99198776723E+03  0.25500000920E-02 0.  1.
    10030    2    1    2    0    0  0.00000000000E+00  0.00000000000E+00  0.12572286314E+03  0.21096983976E+04  0.21059489762E+04 0.  0.
        3    1    3    3  502    0 -0.40501785647E+02  0.19100293906E+02 -0.99103346812E+03  0.99204463660E+03  0.10100000352E+00 0.  1.
       -3    1    3    3    0  502  0.40501785647E+02 -0.19100293906E+02  0.11167563313E+04  0.11176537610E+04  0.10100000352E+00 0. -1.
</event>
<event>
 5   0  0.1398469E-05  0.2100249E+04  0.7818609E-02  0.8561134E-01
       -2   -1    0    0    0  501  0.00000000000E+00  0.00000000000E+00  0.36356608601E+03  0.36356608602E+03  0.25500000920E-02 0.  1.
        2   -1    0    0  501    0  0.00000000000E+00  0.00000000000E+00 -0.30331792054E+04  0.30331792055E+04  0.25500000920E-02 0. -1.
    10030    2    1    2    0    0  0.00000000000E+00  0.00000000000E+00 -0.26696131194E+04  0.33967452915E+04  0.21002486443E+04 0.  0.
        2    1    3    3  502    0  0.90793801263E+03 -0.12056004556E+03 -0.50401641380E+03  0.10454275225E+04  0.25500000920E-02 0.  1.
       -2    1    3    3    0  502 -0.90793801263E+03  0.12056004556E+03 -0.21655967056E+04  0.23513177690E+04  0.25500000920E-02 0. -1.
</event>
<event>
 5   0  0.6917078E-06  0.2111794E+04  0.7818609E-02  0.8556066E-01
       -1   -1    0    0    0  501  0.00000000000E+00  0.00000000000E+00  0.11165752246E+04  0.11165752247E+04  0.50400001928E-02 0.  1.
        1   -1    0    0  501    0  0.00000000000E+00  0.00000000000E+00 -0.99851618241E+03  0.99851618242E+03  0.50400001928E-02 0. -1.
    10030    2    1    2    0    0  0.00000000000E+00  0.00000000000E+00  0.11805904223E+03  0.21150914071E+04  0.21117939584E+04 0.  0.
        5    1    3    3  502    0  0.90076223456E+02  0.38015196511E+03  0.10415133618E+04  0.11123854617E+04  0.46999998093E+01 0.  1.
       -5    1    3    3    0  502 -0.90076223456E+02 -0.38015196511E+03 -0.92345431955E+03  0.10027059454E+04  0.46999998093E+01 0. -1.
</event>
<event>
 5   0  0.1344501E-05  0.2136989E+04  0.7818609E-02  0.8545122E-01
       -2   -1    0    0    0  501  0.00000000000E+00  0.00000000000E+00  0.11593891590E+04  0.11593891590E+04  0.25500000920E-02 0. -1.
        2   -1    0    0  501    0  0.00000000000E+00  0.00000000000E+00 -0.98472612740E+03  0.98472612741E+03  0.25500000920E-02 0.  1.
    10030    2    1    2    0    0  0.00000000000E+00  0.00000000000E+00  0.17466303158E+03  0.21441152864E+04  0.21369892809E+04 0.  0.
        3    1    3    3  502    0 -0.41969086250E+02  0.50841316178E+03 -0.85464709886E+03  0.99532257136E+03  0.10100000352E+00 0.  1.
       -3    1    3    3    0  502  0.41969086250E+02 -0.50841316178E+03  0.10293101304E+04  0.11487927150E+04  0.10100000352E+00 0. -1.
</event>
<event>
 5   0  0.1395356E-05  0.2098720E+04  0.7818609E-02  0.8561807E-01
       -2   -1    0    0    0  501  0.00000000000E+00  0.00000000000E+00  0.80113393100E+03  0.80113393101E+03  0.25500000920E-02 0.  1.
        2   -1    0    0  501    0  0.00000000000E+00  0.00000000000E+00 -0.13744972189E+04  0.13744972189E+04  0.25500000920E-02 0. -1.
    10030    2    1    2    0    0  0.00000000000E+00  0.00000000000E+00 -0.57336328791E+03  0.21756311499E+04  0.20987199529E+04 0.  0.
        1    1    3    3  502    0  0.26833708918E+03  0.96992497341E+03 -0.59489383771E+03  0.11690414559E+04  0.50400001928E-02 0.  1.
       -1    1    3    3    0  502 -0.26833708918E+03 -0.96992497341E+03  0.21530549798E+02  0.10065896940E+04  0.50400001928E-02 0. -1.
</event>
<event>
 5   0  0.1441136E-05  0.2102684E+04  0.7818609E-02  0.8560062E-01
        2   -1    0    0  501    0  0.00000000000E+00  0.00000000000E+00  0.12944645334E+04  0.12944645334E+04  0.25500000920E-02 0. -1.
       -2   -1    0    0    0  501  0.00000000000E+00  0.00000000000E+00 -0.85388200265E+03  0.85388200265E+03  0.25500000920E-02 0.  1.
    10030    2    1    2    0    0  0.00000000000E+00  0.00000000000E+00  0.44058253072E+03  0.21483465360E+04  0.21026839688E+04 0.  0.
        4    1    3    3  502    0  0.10188338149E+04 -0.21170596517E+03  0.37346898950E+03  0.11055869288E+04  0.12699999809E+01 0.  1.
       -4    1    3    3    0  502 -0.10188338149E+04  0.21170596517E+03  0.67113541221E+02  0.10427596072E+04  0.12699999809E+01 0. -1.
</event>
<event>
 5   0  0.1398469E-05  0.2102375E+04  0.7818609E-02  0.8560198E-01
       -2   -1    0    0    0  501  0.00000000000E+00  0.00000000000E+00  0.97891034328E+03  0.97891034328E+03  0.25500000920E-02 0.  1.
        2   -1    0    0  501    0  0.00000000000E+00  0.00000000000E+00 -0.11288016519E+04  0.11288016519E+04  0.25500000920E-02 0. -1.
    10030    2    1    2    0    0  0.00000000000E+00  0.00000000000E+00 -0.14989130858E+03  0.21077119951E+04  0.21023754303E+04 0.  0.
        2    1    3    3  502    0  0.23612117586E+03  0.25830593413E+03 -0.10686834162E+04  0.11245263045E+04  0.25500000920E-02 0. -1.
       -2    1    3    3    0  502 -0.23612117586E+03 -0.25830593413E+03  0.91879210764E+03  0.98318569069E+03  0.25500000920E-02 0.  1.
</event>
<event>
 5   0  0.6917078E-06  0.2110092E+04  0.7818609E-02  0.8556811E-01
        1   -1    0    0  501    0  0.00000000000E+00  0.00000000000E+00  0.78333169398E+03  0.78333169399E+03  0.50400001928E-02 0. -1.
       -1   -1    0    0    0  501  0.00000000000E+00  0.00000000000E+00 -0.14210103907E+04  0.14210103907E+04  0.50400001928E-02 0.  1.
    10030    2    1    2    0    0  0.00000000000E+00  0.00000000000E+00 -0.63767869669E+03  0.22043420847E+04  0.21100923928E+04 0.  0.
        5    1    3    3  502    0  0.23897903592E+02  0.10410369216E+04 -0.49603703662E+03  0.11534313216E+04  0.46999998093E+01 0. -1.
       -5    1    3    3    0  502 -0.23897903592E+02 -0.10410369216E+04 -0.14164166008E+03  0.10509107630E+04  0.46999998093E+01 0.  1.
</event>
<event>
 5   0  0.1398469E-05  0.2102283E+04  0.7818609E-02  0.8560238E-01
       -2   -1    0    0    0  501  0.00000000000E+00  0.00000000000E+00  0.43288724494E+03  0.43288724495E+03  0.25500000920E-02 0.  1.
        2   -1    0    0  501    0  0.00000000000E+00  0.00000000000E+00 -0.25523938193E+04  0.25523938193E+04  0.25500000920E-02 0. -1.
    10030    2    1    2    0    0  0.00000000000E+00  0.00000000000E+00 -0.21195065744E+04  0.29852810642E+04  0.21022832620E+04 0.  0.
        2    1    3    3  502    0  0.38779222828E+03 -0.25678951537E+03 -0.23983231833E+04  0.24430058860E+04  0.25500000920E-02 0. -1.
       -2    1    3    3    0  502 -0.38779222828E+03  0.25678951537E+03  0.27881660893E+03  0.54227517824E+03  0.25500000920E-02 0.  1.
</event>
<event>
 5   0  0.6917078E-06  0.2099509E+04  0.7818609E-02  0.8561460E-01
        1   -1    0    0  501    0  0.00000000000E+00  0.00000000000E+00  0.12504593769E+04  0.12504593769E+04  0.50400001928E-02 0. -1.
       -1   -1    0    0    0  501  0.00000000000E+00  0.00000000000E+00 -0.88126390863E+03  0.88126390864E+03  0.50400001928E-02 0.  1.
    10030    2    1    2    0    0  0.00000000000E+00  0.00000000000E+00  0.36919546828E+03  0.21317232856E+04  0.20995091980E+04 0.  0.
        5    1    3    3  502    0 -0.10487939524E+03 -0.89136545555E+03  0.73740601323E+03  0.11616031083E+04  0.46999998093E+01 0. -1.
       -5    1    3    3    0  502  0.10487939524E+03  0.89136545555E+03 -0.36821054496E+03  0.97012017725E+03  0.46999998093E+01 0.  1.
</event>
<event>
 5   0  0.6599245E-06  0.2100887E+04  0.7818609E-02  0.8560853E-01
        1   -1    0    0  501    0  0.00000000000E+00  0.00000000000E+00  0.12550602604E+04  0.12550602604E+04  0.50400001928E-02 0. -1.
       -1   -1    0    0    0  501  0.00000000000E+00  0.00000000000E+00 -0.87918609499E+03  0.87918609501E+03  0.50400001928E-02 0.  1.
    10030    2    1    2    0    0  0.00000000000E+00  0.00000000000E+00  0.37587416536E+03  0.21342463554E+04  0.21008869835E+04 0.  0.
        2    1    3    3  502    0 -0.96973479645E+03  0.29435125665E+03  0.46873759297E+03  0.11165765396E+04  0.25500000920E-02 0. -1.
       -2    1    3    3    0  502  0.96973479645E+03 -0.29435125665E+03 -0.92863427603E+02  0.10176698158E+04  0.25500000920E-02 0.  1.
</event>
<event>
 5   0  0.6599245E-06  0.2100720E+04  0.7818609E-02  0.8560926E-01
        1   -1    0    0  501    0  0.00000000000E+00  0.00000000000E+00  0.10676811368E+04  0.10676811368E+04  0.50400001928E-02 0. -1.
       -1   -1    0    0    0  501  0.00000000000E+00  0.00000000000E+00 -0.10333203558E+04  0.10333203558E+04  0.50400001928E-02 0.  1.
    10030    2    1    2    0    0  0.00000000000E+00  0.00000000000E+00  0.34360781000E+02  0.21010014926E+04  0.21007204975E+04 0.  0.
        2    1    3    3  502    0  0.83691636905E+03  0.62587937402E+03  0.12256361012E+03  0.10522242338E+04  0.25500000920E-02 0.  1.
       -2    1    3    3    0  502 -0.83691636905E+03 -0.62587937402E+03 -0.88202829118E+02  0.10487772588E+04  0.25500000920E-02 0. -1.
</event>
<event>
 5   0  0.6238363E-06  0.2127663E+04  0.7818609E-02  0.8549154E-01
       -1   -1    0    0    0  501  0.00000000000E+00  0.00000000000E+00  0.11165448976E+04  0.11165448976E+04  0.50400001928E-02 0. -1.
        1   -1    0    0  501    0  0.00000000000E+00  0.00000000000E+00 -0.10136070654E+04  0.10136070654E+04  0.50400001928E-02 0.  1.
    10030    2    1    2    0    0  0.00000000000E+00  0.00000000000E+00  0.10293783226E+03  0.21301519630E+04  0.21276633164E+04 0.  0.
        4    1    3    3  502    0  0.15071179902E+03 -0.28663603368E+03  0.10659961406E+04  0.11141021707E+04  0.12699999809E+01 0. -1.
       -4    1    3    3    0  502 -0.15071179902E+03  0.28663603368E+03 -0.96305830835E+03  0.10160497923E+04  0.12699999809E+01 0.  1.
</event>
<event>
 5   0  0.1395356E-05  0.2099523E+04  0.7818609E-02  0.8561454E-01
       -2   -1    0    0    0  501  0.00000000000E+00  0.00000000000E+00  0.98267297736E+03  0.98267297737E+03  0.25500000920E-02 0.  1.
        2   -1    0    0  501    0  0.00000000000E+00  0.00000000000E+00 -0.11214303102E+04  0.11214303102E+04  0.25500000920E-02 0. -1.
    10030    2    1    2    0    0  0.00000000000E+00  0.00000000000E+00 -0.13875733283E+03  0.21041032876E+04  0.20995230523E+04 0.  0.
        1    1    3    3  502    0 -0.68004228056E+03 -0.87045447445E+02  0.72731775913E+03  0.99951264926E+03  0.50400001928E-02 0.  1.
       -1    1    3    3    0  502  0.68004228056E+03  0.87045447445E+02 -0.86607509196E+03  0.11045906383E+04  0.50400001928E-02 0. -1.
</event>
<event>
 5   0  0.1441136E-05  0.2104984E+04  0.7818609E-02  0.8559051E-01
        2   -1    0    0  501    0  0.00000000000E+00  0.00000000000E+00  0.46006098868E+03  0.46006098869E+03  0.25500000920E-02 0.  1.
       -2   -1    0    0    0  501  0.00000000000E+00  0.00000000000E+00 -0.24078101235E+04  0.24078101235E+04  0.25500000920E-02 0. -1.
    10030    2    1    2    0    0  0.00000000000E+00  0.00000000000E+00 -0.19477491348E+04  0.28678711121E+04  0.21049840911E+04 0.  0.
        4    1    3    3  502    0 -0.19911570138E+03  0.10204875559E+04 -0.11964789627E+04  0.15851200066E+04  0.12699999809E+01 0.  1.
       -4    1    3    3    0  502  0.19911570138E+03 -0.10204875559E+04 -0.75127017208E+03  0.12827511055E+04  0.12699999809E+01 0. -1.
</event>
<event>
 5   0  0.6589193E-06  0.2104385E+04  0.7818609E-02  0.8559314E-01
       -1   -1    0    0    0  501  0.00000000000E+00  0.00000000000E+00  0.10622395217E+04  0.10622395218E+04  0.50400001928E-02 0.  1.
        1   -1    0    0  501    0  0.00000000000E+00  0.00000000000E+00 -0.10422405085E+04  0.10422405085E+04  0.50400001928E-02 0. -1.
    10030    2    1    2    0    0  0.00000000000E+00  0.00000000000E+00  0.19999013291E+02  0.21044800302E+04  0.21043850021E+04 0.  0.
        3    1    3    3  502    0 -0.62128124651E+03  0.23475702611E+03  0.82612936883E+03  0.10599957513E+04  0.10100000352E+00 0.  1.
       -3    1    3    3    0  502  0.62128124651E+03 -0.23475702611E+03 -0.80613035553E+03  0.10444842789E+04  0.10100000352E+00 0. -1.
</event>
<event>
 5   0  0.1344501E-05  0.2106096E+04  0.7818609E-02  0.8558563E-01
       -2   -1    0    0    0  501  0.00000000000E+00  0.00000000000E+00  0.39300388777E+03  0.39300388778E+03  0.25500000920E-02 0.  1.
        2   -1    0    0  501    0  0.00000000000E+00  0.00000000000E+00 -0.28216262240E+04  0.28216262240E+04  0.25500000920E-02 0. -1.
    10030    2    1    2    0    0  0.00000000000E+00  0.00000000000E+00 -0.24286223363E+04  0.32146301118E+04  0.21060959863E+04 0.  0.
        3    1    3    3  502    0 -0.32358782154E+03  0.63627536946E+03 -0.23959772899E+04  0.25000525210E+04  0.10100000352E+00 0. -1.
       -3    1    3    3    0  502  0.32358782154E+03 -0.63627536946E+03 -0.32645046398E+02  0.71457759081E+03  0.10100000352E+00 0.  1.
</event>
<event>
 5   0  0.6589193E-06  0.2102169E+04  0.7818609E-02  0.8560288E-01
       -1   -1    0    0    0  501  0.00000000000E+00  0.00000000000E+00  0.17608560049E+04  0.17608560049E+04  0.50400001928E-02 0.  1.
        1   -1    0    0  501    0  0.00000000000E+00  0.00000000000E+00 -0.62741018356E+03  0.62741018358E+03  0.50400001928E-02 0. -1.
    10030    2    1    2    0    0  0.00000000000E+00  0.00000000000E+00  0.11334458213E+04  0.23882661884E+04  0.21021693455E+04 0.  0.
        3    1    3    3  502    0 -0.56130880085E+03  0.64633906145E+03 -0.12616268353E+03  0.86529693469E+03  0.10100000352E+00 0. -1.
       -3    1    3    3    0  502  0.56130880085E+03 -0.64633906145E+03  0.12596085048E+04  0.15229692538E+04  0.10100000352E+00 0.  1.
</event>
<event>
 5   0  0.6599245E-06  0.2099675E+04  0.7818609E-02  0.8561387E-01
       -1   -1    0    0    0  501  0.00000000000E+00  0.00000000000E+00  0.92364604752E+03  0.92364604754E+03  0.50400001928E-02 0. -1.
        1   -1    0    0  501    0  0.00000000000E+00  0.00000000000E+00 -0.11932695102E+04  0.11932695102E+04  0.50400001928E-02 0.  1.
    10030    2    1    2    0    0  0.00000000000E+00  0.00000000000E+00 -0.26962346270E+03  0.21169155578E+04  0.20996748956E+04 0.  0.
        2    1    3    3  502    0 -0.12965198086E+03  0.67116260084E+03 -0.93815406180E+03  0.11607764283E+04  0.25500000920E-02 0.  1.
       -2    1    3    3    0  502  0.12965198086E+03 -0.67116260084E+03  0.66853059910E+03  0.95613912944E+03  0.25500000920E-02 0. -1.
</event>
<event>
 5   0  0.1398469E-05  0.2104940E+04  0.7818609E-02  0.8559071E-01
        2   -1    0    0  501    0  0.00000000000E+00  0.00000000000E+00  0.23414872287E+04  0.23414872287E+04  0.25500000920E-02 0. -1.
       -2   -1    0    0    0  501  0.00000000000E+00  0.00000000000E+00 -0.47307230967E+03  0.47307230968E+03  0.25500000920E-02 0.  1.
    10030    2    1    2    0    0  0.00000000000E+00  0.00000000000E+00  0.18684149191E+04  0.28145595384E+04  0.21049396869E+04 0.  0.
        2    1    3    3  502    0  0.19371303368E+03 -0.10267338380E+04  0.76514933780E+03  0.12950523629E+04  0.25500000920E-02 0.  1.
       -2    1    3    3    0  502 -0.19371303368E+03  0.10267338380E+04  0.11032655813E+04  0.15195071755E+04  0.25500000920E-02 0. -1.
</event>
<event>
 5   0  0.6917078E-06  0.2151783E+04  0.7818609E-02  0.8538769E-01
       -1   -1    0    0    0  501  0.00000000000E+00  0.00000000000E+00  0.14949461692E+04  0.14949461693E+04  0.50400001928E-02 0. -1.
        1   -1    0    0  501    0  0.00000000000E+00  0.00000000000E+00 -0.77430409265E+03  0.77430409267E+03  0.50400001928E-02 0.  1.
    10030    2    1    2    0    0  0.00000000000E+00  0.00000000000E+00  0.72064207660E+03  0.22692502619E+04  0.21517833880E+04 0.  0.
        5    1    3    3  502    0 -0.81485747516E+03 -0.21724766005E+03  0.10648724023E+04  0.13583683498E+04  0.46999998093E+01 0. -1.
       -5    1    3    3    0  502  0.81485747516E+03  0.21724766005E+03 -0.34423032572E+03  0.91088191208E+03  0.46999998093E+01 0.  1.
</event>
<event>
 5   0  0.6283269E-06  0.2100038E+04  0.7818609E-02  0.8561227E-01
       -1   -1    0    0    0  501  0.00000000000E+00  0.00000000000E+00  0.44579148237E+03  0.44579148240E+03  0.50400001928E-02 0. -1.
        1   -1    0    0  501    0  0.00000000000E+00  0.00000000000E+00 -0.24732192589E+04  0.24732192589E+04  0.50400001928E-02 0.  1.
    10030    2    1    2    0    0  0.00000000000E+00  0.00000000000E+00 -0.20274277765E+04  0.29190107413E+04  0.21000381708E+04 0.  0.
        1    1    3    3  502    0  0.10310285662E+04 -0.15602621480E+03 -0.84248103152E+03  0.13405738967E+04  0.50400001928E-02 0. -1.
       -1    1    3    3    0  502 -0.10310285662E+04  0.15602621480E+03 -0.11849467450E+04  0.15784368446E+04  0.50400001928E-02 0.  1.
</event>
<event>
 5   0  0.1441136E-05  0.2111701E+04  0.7818609E-02  0.8556107E-01
        2   -1    0    0  501    0  0.00000000000E+00  0.00000000000E+00  0.98599520838E+03  0.98599520838E+03  0.25500000920E-02 0. -1.
       -2   -1    0    0    0  501  0.00000000000E+00  0.00000000000E+00 -0.11306544604E+04  0.11306544604E+04  0.25500000920E-02 0.  1.
    10030    2    1    2    0    0  0.00000000000E+00  0.00000000000E+00 -0.14465925205E+03  0.21166496688E+04  0.21117006230E+04 0.  0.
        4    1    3    3  502    0  0.50703104802E+03 -0.38615815540E+03  0.77143873089E+03  0.10006587496E+04  0.12699999809E+01 0. -1.
       -4    1    3    3    0  502 -0.50703104802E+03  0.38615815540E+03 -0.91609798294E+03  0.11159909193E+04  0.12699999809E+01 0.  1.
</event>
<event>
 5   0  0.6283269E-06  0.2097177E+04  0.7818609E-02  0.8562488E-01
       -1   -1    0    0    0  501  0.00000000000E+00  0.00000000000E+00  0.10032011900E+04  0.10032011900E+04  0.50400001928E-02 0. -1.
        1   -1    0    0  501    0  0.00000000000E+00  0.00000000000E+00 -0.10960289876E+04  0.10960289876E+04  0.50400001928E-02 0.  1.
    10030    2    1    2    0    0  0.00000000000E+00  0.00000000000E+00 -0.92827797574E+02  0.20992301776E+04  0.20971767542E+04 0.  0.
        1    1    3    3  502    0 -0.85409879519E+03 -0.27260874736E+02  0.56188967753E+03  0.10227159513E+04  0.50400001928E-02 0. -1.
       -1    1    3    3    0  502  0.85409879519E+03  0.27260874736E+02 -0.65471747510E+03  0.10765142263E+04  0.50400001928E-02 0.  1.
</event>
<event>
 5   0  0.1441136E-05  0.2096853E+04  0.7818609E-02  0.8562631E-01
        2   -1    0    0  501    0  0.00000000000E+00  0.00000000000E+00  0.19860725443E+04  0.19860725443E+04  0.25500000920E-02 0.  1.
       -2   -1    0    0    0  501  0.00000000000E+00  0.00000000000E+00 -0.55345320741E+03  0.55345320741E+03  0.25500000920E-02 0. -1.
    10030    2    1    2    0    0  0.00000000000E+00  0.00000000000E+00  0.14326193369E+04  0.25395257517E+04  0.20968530896E+04 0.  0.
        4    1    3    3  502    0 -0.22529693065E+03  0.10235784983E+04  0.68370040520E+03  0.12513670549E+04  0.12699999809E+01 0.  1.
       -4    1    3    3    0  502  0.22529693065E+03 -0.10235784983E+04  0.74891893173E+03  0.12881586969E+04  0.12699999809E+01 0. -1.
</event>
<event>
 5   0  0.1390735E-05  0.2104522E+04  0.7818609E-02  0.8559254E-01
       -2   -1    0    0    0  501  0.00000000000E+00  0.00000000000E+00  0.10809820058E+04  0.10809820058E+04  0.25500000920E-02 0. -1.
        2   -1    0    0  501    0  0.00000000000E+00  0.00000000000E+00 -0.10243027021E+04  0.10243027021E+04  0.25500000920E-02 0.  1.
    10030    2    1    2    0    0  0.00000000000E+00  0.00000000000E+00  0.56679303637E+02  0.21052847079E+04  0.21045215983E+04 0.  0.
        5    1    3    3  502    0 -0.57148759588E+02 -0.87763791706E+03 -0.54955174235E+03  0.10370841343E+04  0.46999998093E+01 0. -1.
       -5    1    3    3    0  502  0.57148759588E+02  0.87763791706E+03  0.60623104599E+03  0.10682005735E+04  0.46999998093E+01 0.  1.
</event>
<event>
 5   0  0.6238363E-06  0.2035781E+04  0.7818609E-02  0.8590072E-01
        1   -1    0    0  501    0  0.00000000000E+00  0.00000000000E+00  0.12023237098E+04  0.12023237099E+04  0.50400001928E-02 0.  1.
       -1   -1    0    0    0  501  0.00000000000E+00  0.00000000000E+00 -0.86174903396E+03  0.86174903398E+03  0.50400001928E-02 0. -1.
    10030    2    1    2    0    0  0.00000000000E+00  0.00000000000E+00  0.34057467588E+03  0.20640727438E+04  0.20357812215E+04 0.  0.
        4    1    3    3  502    0 -0.23235829306E+03 -0.39995121002E+03  0.10896121592E+04  0.11837261580E+04  0.12699999809E+01 0.  1.
       -4    1    3    3    0  502  0.23235829306E+03  0.39995121002E+03 -0.74903748336E+03  0.88034658580E+03  0.12699999809E+01 0. -1.
</event>
<event>
 5   0  0.1390735E-05  0.2101590E+04  0.7818609E-02  0.8560543E-01
        2   -1    0    0  501    0  0.00000000000E+00  0.00000000000E+00  0.84996805105E+03  0.84996805105E+03  0.25500000920E-02 0.  1.
       -2   -1    0    0    0  501  0.00000000000E+00  0.00000000000E+00 -0.12990728548E+04  0.12990728548E+04  0.25500000920E-02 0. -1.
    10030    2    1    2    0    0  0.00000000000E+00  0.00000000000E+00 -0.44910480374E+03  0.21490409058E+04  0.21015902765E+04 0.  0.
        5    1    3    3  502    0 -0.93635933607E+03  0.44365012090E+03 -0.45808450224E+02  0.10371666887E+04  0.46999998093E+01 0.  1.
       -5    1    3    3    0  502  0.93635933607E+03 -0.44365012090E+03 -0.40329635351E+03  0.11118742172E+04  0.46999998093E+01 0. -1.
</event>
<event>
 5   0  0.5009125E-06  0.2100606E+04  0.7818609E-02  0.8560977E-01
       -4   -1    0    0    0  501  0.00000000000E+00  0.00000000000E+00  0.11863701986E+04  0.11863708784E+04  0.12699999809E+01 0. -1.
        4   -1    0    0  501    0  0.00000000000E+00  0.00000000000E+00 -0.92984009468E+03  0.92984096198E+03  0.12699999809E+01 0.  1.
    10030    2    1    2    0    0  0.00000000000E+00  0.00000000000E+00  0.25653010394E+03  0.21162118404E+04  0.21006058314E+04 0.  0.
        5    1    3    3  502    0 -0.78640533708E+03  0.13773824901E+03 -0.55923361932E+03  0.97476638760E+03  0.46999998093E+01 0.  1.
       -5    1    3    3    0  502  0.78640533708E+03 -0.13773824901E+03  0.81576372325E+03  0.11414454527E+04  0.46999998093E+01 0. -1.
</event>
<event>
 5   0  0.1398469E-05  0.2101079E+04  0.7818609E-02  0.8560768E-01
        2   -1    0    0  501    0  0.00000000000E+00  0.00000000000E+00  0.10360981372E+04  0.10360981372E+04  0.25500000920E-02 0. -1.
       -2   -1    0    0    0  501  0.00000000000E+00  0.00000000000E+00 -0.10651824665E+04  0.10651824665E+04  0.25500000920E-02 0.  1.
    10030    2    1    2    0    0  0.00000000000E+00  0.00000000000E+00 -0.29084329295E+02  0.21012806038E+04  0.21010793125E+04 0.  0.
        2    1    3    3  502    0  0.72006707536E+03  0.46556830025E+03  0.59246172539E+03  0.10422386153E+04  0.25500000920E-02 0. -1.
       -2    1    3    3    0  502 -0.72006707536E+03 -0.46556830025E+03 -0.62154605468E+03  0.10590419885E+04  0.25500000920E-02 0.  1.
</event>
<event>
 5   0  0.6589193E-06  0.2100524E+04  0.7818609E-02  0.8561012E-01
       -1   -1    0    0    0  501  0.00000000000E+00  0.00000000000E+00  0.20422659946E+04  0.20422659946E+04  0.50400001928E-02 0. -1.
        1   -1    0    0  501    0  0.00000000000E+00  0.00000000000E+00 -0.54011115293E+03  0.54011115295E+03  0.50400001928E-02 0.  1.
    10030    2    1    2    0    0  0.00000000000E+00  0.00000000000E+00  0.15021548417E+04  0.25823771475E+04  0.21005243545E+04 0.  0.
        3    1    3    3  502    0  0.79641585778E+03  0.68165198330E+03  0.67213728438E+03  0.12452695227E+04  0.10100000352E+00 0. -1.
       -3    1    3    3    0  502 -0.79641585778E+03 -0.68165198330E+03  0.83001755727E+03  0.13371076249E+04  0.10100000352E+00 0.  1.
</event>
</LesHouchesEvents>
